Membrane in water
40155
    1TCq1    O1    1   1.438   4.604  11.115 -0.4043 -0.0453 -0.5853
    1TCq1    C1    2   1.529   4.570  11.205  0.2946 -0.9980  0.5446
    1TCq1    O2    3   1.531   4.472  11.277 -0.2952 -0.1668  0.2993
    1TCq1    C2    4   1.591   4.690  11.234  0.1305  0.1816 -0.5755
    1TCq1    C3    5   1.664   0.042  11.146 -0.2650  0.1837 -0.4974
    1TCq1    C4    6   1.736   0.151  11.188 -0.0396 -0.1962 -0.1965
    1TCq1    C5    7   1.725   0.191  11.322  0.0374  0.5551  0.1517
    1TCq1    C6    8   1.649   0.112  11.407 -0.0917 -0.5783 -0.5522
    1TCq1    C7    9   1.581   4.725  11.367 -0.4675  0.1534  0.5437
    1TCq1    C8   10   1.622   0.158  11.539 -0.1037 -0.7255  0.2880
    1TCq1    O4   11   1.540   0.091  11.603  0.4620 -0.1162 -0.2174
    1TCq1    C9   12   1.808   0.236  11.099 -0.5765 -0.4105  0.0077
    1TCq1    O5   13   1.798   0.206  10.980  0.3316 -0.2948 -0.2693
    1TCq1    O6   14   1.868   0.336  11.154  0.2627 -0.3803  0.1219
    1TCq1    H1   15   1.441   4.698  11.088 -0.7503 -0.4744 -2.1078
    1TCq1    H2   16   1.670   0.011  11.043  0.1509 -1.0423 -0.1134
    1TCq1    H3   17   1.760   0.290  11.348 -0.4035  0.6819  0.2743
    1TCq1    H4   18   1.521   4.670  11.439 -2.3994  0.6538 -0.7128
    2MPD2     C   19   1.715   0.453  11.944 -0.2943  0.1229 -0.6332
    2MPD2    C1   20   1.609   0.371  11.918  0.5909  1.2572  0.6437
    2MPD2    C2   21   1.601   0.311  11.796  0.1576  0.1976 -0.2482
    2MPD2    C3   22   1.702   0.320  11.699 -0.2143  0.2456 -0.2884
    2MPD2    C4   23   1.799   0.412  11.725  0.3537 -0.4760  0.3078
    2MPD2    C5   24   1.806   0.478  11.848  0.3364 -0.5286 -0.4620
    2MPD2     H   25   1.512   0.253  11.774  0.5224 -0.3330 -0.3372
    2MPD2    H1   26   1.879   0.424  11.654 -0.5096  0.9576 -0.4367
    2MPD2    H2   27   1.745   0.500  12.037 -0.2979  0.7254 -0.9341
    2MPD2    H3   28   1.892   0.544  11.853  0.0100 -0.2202  0.9559
    2MPD2     N   29   1.711   0.254  11.579  0.5743 -0.0214 -0.1047
    2MPD2    H5   30   1.795   0.277  11.527 -2.3974  0.0346 -4.9100
    2MPD2    N1   31   1.498   0.364  12.000  0.2301  0.1462 -0.2781
    2MPD2    H7   32   1.416   0.328  11.951 -0.9997  1.0467  1.1043
    3TCq1    O1   33   0.441   1.189  10.645 -0.1643  0.3226  0.0043
    3TCq1    C1   34   0.513   1.230  10.750 -0.3393 -0.4246  0.5424
    3TCq1    O2   35   0.480   1.213  10.868 -0.5384 -0.6959 -0.3912
    3TCq1    C2   36   0.588   1.347  10.702  0.3678 -0.4084  0.3859
    3TCq1    C3   37   0.688   1.322  10.614 -0.0461 -0.1290 -0.4047
    3TCq1    C4   38   0.783   1.422  10.592 -0.3132 -0.2683 -0.6797
    3TCq1    C5   39   0.767   1.547  10.647  0.2867  0.0157 -0.6534
    3TCq1    C6   40   0.665   1.563  10.742  0.3766  0.5351 -0.8249
    3TCq1    C7   41   0.571   1.462  10.773 -0.1387  1.1366  0.7416
    3TCq1    C8   42   0.640   1.697  10.793  0.4011 -0.4690 -0.7784
    3TCq1    O4   43   0.741   1.771  10.788  0.3098  0.0851 -0.0905
    3TCq1    C9   44   0.890   1.393  10.503 -0.1388 -0.9665  0.0363
    3TCq1    O5   45   0.889   1.284  10.436  0.2859 -0.1250  0.0835
    3TCq1    O6   46   0.978   1.482  10.497 -0.4052  0.0523  0.0450
    3TCq1    H1   47   0.469   1.228  10.559 -0.2276  0.8454  0.2224
    3TCq1    H2   48   0.700   1.224  10.568 -1.2741  0.0950 -1.2173
    3TCq1    H3   49   0.848   1.615  10.623  0.9795 -0.0527  1.4911
    3TCq1    H4   50   0.492   1.473  10.846 -0.8566  1.1203 -0.0288
    4MPD2     C   51   0.328   2.058  10.990  0.1116  0.2912  0.2659
    4MPD2    C1   52   0.264   1.935  10.982  0.7909 -1.0799  0.9077
    4MPD2    C2   53   0.333   1.834  10.926  0.2015 -0.4982  1.4830
    4MPD2    C3   54   0.464   1.846  10.887 -0.7570  0.6788 -0.2026
    4MPD2    C4   55   0.524   1.970  10.889 -0.5016 -0.7339  0.6009
    4MPD2    C5   56   0.453   2.074  10.938  0.1808  0.9514 -0.7295
    4MPD2     H   57   0.273   1.744  10.918  2.3648 -1.7475 -0.9481
    4MPD2    H1   58   0.622   1.980  10.845 -1.5250  0.5108 -1.4200
    4MPD2    H2   59   0.278   2.145  11.030  3.2078  2.4891 -0.6073
    4MPD2    H3   60   0.499   2.172  10.929 -0.7620  1.7308  3.0180
    4MPD2     N   61   0.519   1.726  10.834 -0.2280 -0.7065  0.5619
    4MPD2    H5   62   0.447   1.655  10.819 -0.5482  0.0560 -1.6005
    4MPD2    N1   63   0.131   1.913  11.035  0.5785 -0.4888 -0.0242
    4MPD2    H7   64   0.093   1.820  11.018 -0.9534  0.0806  0.3205
    5TCq1    O1   65   0.125   2.455  10.420  0.3911  0.0013  0.7733
    5TCq1    C1   66   0.091   2.582  10.381 -0.4062  0.1374  0.6579
    5TCq1    O2   67   0.093   2.617  10.264  0.1002  0.1973  0.0167
    5TCq1    C2   68   0.143   2.665  10.480 -0.1997 -0.4667 -0.0504
    5TCq1    C3   69   0.052   2.732  10.553 -0.4424 -0.5846 -0.0292
    5TCq1    C4   70   0.098   2.808  10.663 -0.2567  0.1494  0.3962
    5TCq1    C5   71   0.230   2.807  10.694 -0.4215 -0.2135 -0.0999
    5TCq1    C6   72   0.303   2.709  10.629  0.1209  0.9952 -0.0637
    5TCq1    C7   73   0.265   2.638  10.524  0.0532 -0.1641  0.6923
    5TCq1    C8   74   0.444   2.702  10.656  0.5183  0.1809  0.0428
    5TCq1    O4   75   0.502   2.601  10.624 -0.2347  0.0325 -0.6827
    5TCq1    C9   76   0.012   2.878  10.754 -0.5667  0.7231 -0.0780
    5TCq1    O5   77   4.620   2.842  10.751 -0.0560  0.0614  0.2877
    5TCq1    O6   78   0.058   2.977  10.817  0.1377  0.2570  0.3103
    5TCq1    H1   79   0.150   2.447  10.514  2.5360 -1.1692  0.0985
    5TCq1    H2   80   4.672   2.745  10.532 -0.2385  1.6186  0.2579
    5TCq1    H3   81   0.261   2.853  10.787  0.8838  0.2731 -0.7776
    5TCq1    H4   82   0.340   2.583  10.468 -0.3154 -1.4500  1.4702
    6MPD2     C   83   0.637   2.954  10.824 -0.1859 -0.6841  0.6882
    6MPD2    C1   84   0.617   2.826  10.772  0.3314  0.0777  0.3429
    6MPD2    C2   85   0.726   2.747  10.744 -0.5850  0.9554 -1.2968
    6MPD2    C3   86   0.855   2.790  10.774 -0.4759  0.6563  0.1766
    6MPD2    C4   87   0.868   2.922  10.826  0.9324  0.1833  0.4186
    6MPD2    C5   88   0.762   3.000  10.852 -0.5480  0.4060  0.1810
    6MPD2     H   89   0.708   2.646  10.708  1.5527 -0.1302  0.6632
    6MPD2    H1   90   0.963   2.971  10.848  1.4577 -0.9113  0.5638
    6MPD2    H2   91   0.549   3.016  10.842  1.9459  2.8395 -0.9628
    6MPD2    H3   92   0.775   3.102  10.884 -0.5831 -0.1945  2.1005
    6MPD2     N   93   0.961   2.705  10.749  0.1380  0.0146 -0.3290
    6MPD2    H5   94   0.930   2.617  10.710 -0.7860 -0.0657  0.5760
    6MPD2    N1   95   0.489   2.804  10.728 -0.1653 -0.0075  1.0723
    6MPD2    H7   96   0.424   2.873  10.765  0.0979  0.6192  0.3842
    7TCq1    O1   97   2.870   2.666  12.809  0.3622 -0.2763  0.3630
    7TCq1    C1   98   2.765   2.667  12.721  0.5601  0.6788 -0.5570
    7TCq1    O2   99   2.788   2.705  12.605 -0.0690 -0.2132  1.0511
    7TCq1    C2  100   2.682   2.555  12.753 -0.4594  0.0031 -0.0621
    7TCq1    C3  101   2.571   2.547  12.676 -0.4393 -0.0027  0.5848
    7TCq1    C4  102   2.496   2.436  12.689  0.2876  0.8809 -0.0224
    7TCq1    C5  103   2.526   2.331  12.773 -0.5757 -0.3577 -0.1198
    7TCq1    C6  104   2.648   2.338  12.841  0.4866  0.1565 -0.1086
    7TCq1    C7  105   2.731   2.447  12.825  0.2881 -0.2114 -0.5018
    7TCq1    C8  106   2.666   2.257  12.960 -0.2638 -0.0841 -0.8113
    7TCq1    O4  107   2.649   2.136  12.959 -0.0566  0.4834  0.0773
    7TCq1    C9  108   2.368   2.437  12.618 -0.2086 -0.3653  0.2154
    7TCq1    O5  109   2.319   2.550  12.589  0.2926 -0.2452 -0.0142
    7TCq1    O6  110   2.296   2.331  12.607  0.5355  0.2237 -0.2241
    7TCq1    H1  111   2.836   2.644  12.899  2.2481  0.6591  1.3302
    7TCq1    H2  112   2.547   2.639  12.624  0.8395 -0.4890 -0.8728
    7TCq1    H3  113   2.465   2.244  12.796 -1.9591  0.4925 -0.5336
    7TCq1    H4  114   2.831   2.447  12.866  0.4420  2.3964 -0.8665
    8MPD2     C  115   3.001   2.179  13.342 -0.1521 -0.1073 -0.3716
    8MPD2    C1  116   2.906   2.098  13.298  0.9453  0.0524 -0.1008
    8MPD2    C2  117   2.820   2.144  13.204  0.3288  1.0528 -0.3186
    8MPD2    C3  118   2.825   2.272  13.157  0.5084  0.0154  0.0515
    8MPD2    C4  119   2.925   2.351  13.202 -0.1121 -0.1362 -0.4891
    8MPD2    C5  120   3.021   2.303  13.289  0.6309 -0.3113  0.6670
    8MPD2     H  121   2.742   2.081  13.163 -0.2284  0.8732  1.0312
    8MPD2    H1  122   2.936   2.454  13.170  4.0665 -1.1633 -2.4369
    8MPD2    H2  123   3.078   2.155  13.414  0.6496 -1.0746 -1.5361
    8MPD2    H3  124   3.089   2.377  13.330  0.3722  0.4166 -0.2343
    8MPD2     N  125   2.741   2.328  13.055  0.5760  0.1397 -0.3926
    8MPD2    H5  126   2.755   2.428  13.043 -2.4625  0.2532 -2.9296
    8MPD2    N1  127   2.896   1.965  13.355 -0.3109 -0.1509 -0.1684
    8MPD2    H7  128   2.969   1.943  13.422 -2.1662 -2.4114  1.1514
    9TCq1    O1  129   1.672   1.981  10.474  0.5099 -0.3961 -0.1269
    9TCq1    C1  130   1.674   2.021  10.607  0.2241 -0.5446  0.4914
    9TCq1    O2  131   1.725   2.132  10.635 -0.3648  0.6066  0.2359
    9TCq1    C2  132   1.579   1.947  10.694 -0.2899  0.4067 -0.5218
    9TCq1    C3  133   1.503   2.024  10.778 -0.0640  0.1750 -0.3774
    9TCq1    C4  134   1.432   1.966  10.883 -0.5034 -0.4642 -0.2909
    9TCq1    C5  135   1.436   1.832  10.904  0.0554 -0.3399 -0.1541
    9TCq1    C6  136   1.506   1.754  10.815 -0.4557 -0.5978  0.3221
    9TCq1    C7  137   1.567   1.810  10.700  0.4669  0.3346  0.6011
    9TCq1    C8  138   1.509   1.609  10.828  0.0773  0.0598  1.1962
    9TCq1    O4  139   1.558   1.540  10.740  1.3453  0.2992 -0.4174
    9TCq1    C9  140   1.329   2.041  10.956  0.1262  0.2840 -0.1454
    9TCq1    O5  141   1.276   2.143  10.910 -0.0276 -0.6017  0.2252
    9TCq1    O6  142   1.277   1.988  11.055 -0.0252 -0.1352 -0.0963
    9TCq1    H1  143   1.595   1.920  10.461 -0.6174  1.4673 -2.1360
    9TCq1    H2  144   1.491   2.131  10.763 -2.9840  0.0781  1.1461
    9TCq1    H3  145   1.371   1.791  10.981 -1.4047  1.8706 -0.2055
    9TCq1    H4  146   1.634   1.754  10.636 -0.6352 -2.7175  2.1329
   10MPD2     C  147   1.497   1.315  10.894  0.2333  0.1680 -0.8657
   10MPD2    C1  148   1.426   1.413  10.961  0.0788 -0.4680  0.2878
   10MPD2    C2  149   1.338   1.385  11.057  0.2663  0.1336  0.6977
   10MPD2    C3  150   1.304   1.250  11.084  0.2112  0.2768  0.3001
   10MPD2    C4  151   1.385   1.156  11.026  0.2812  0.1256 -0.4054
   10MPD2    C5  152   1.480   1.187  10.934  0.0863 -0.0189  0.4097
   10MPD2     H  153   1.293   1.473  11.100  2.2823  1.7079 -0.4288
   10MPD2    H1  154   1.381   1.051  11.050 -0.6403 -0.3319 -2.5808
   10MPD2    H2  155   1.565   1.330  10.811 -0.2770 -0.2043 -1.3505
   10MPD2    H3  156   1.529   1.099  10.895  0.7542  0.7498 -0.4860
   10MPD2     N  157   1.204   1.213  11.179 -0.6551  0.0983 -0.0471
   10MPD2    H5  158   1.200   1.114  11.201  1.9701  0.0028 -0.0949
   10MPD2    N1  159   1.442   1.555  10.933  0.3759  0.1406 -0.2742
   10MPD2    H7  160   1.404   1.617  11.004  0.4602 -0.7363  0.5357
   11TCq1    O1  161   1.826   1.460  14.611  0.7913 -0.5429  0.2583
   11TCq1    C1  162   1.746   1.464  14.510  0.7684 -0.9337  0.1744
   11TCq1    O2  163   1.775   1.451  14.388 -0.5506  0.5509  0.2556
   11TCq1    C2  164   1.615   1.445  14.565 -0.5407 -0.8176  0.0593
   11TCq1    C3  165   1.586   1.432  14.699  0.0226  0.4177  0.9779
   11TCq1    C4  166   1.455   1.411  14.731  0.2395 -0.2150  0.5046
   11TCq1    C5  167   1.348   1.413  14.639  0.1716 -0.0638  0.2356
   11TCq1    C6  168   1.387   1.437  14.520 -0.3584  0.0809  0.2159
   11TCq1    C7  169   1.519   1.440  14.469 -0.3347 -0.1257 -0.2186
   11TCq1    C8  170   1.277   1.439  14.419 -0.7999  0.3888 -0.0450
   11TCq1    O4  171   1.166   1.465  14.463 -0.3784  0.2671 -0.5196
   11TCq1    C9  172   1.430   1.378  14.867  0.6403 -0.3089  0.8426
   11TCq1    O5  173   1.528   1.335  14.937 -0.2031  0.5351  0.1163
   11TCq1    O6  174   1.310   1.369  14.902 -0.5245  0.1766  0.6243
   11TCq1    H1  175   1.795   1.495  14.697  1.4764  1.2479 -0.2282
   11TCq1    H2  176   1.660   1.422  14.777 -0.9949 -2.9716  1.5093
   11TCq1    H3  177   1.247   1.401  14.675 -0.0904 -0.5772 -0.6800
   11TCq1    H4  178   1.553   1.455  14.367 -2.0346  0.7246 -0.6710
   12MPD2     C  179   1.091   1.393  14.183 -0.1188 -0.2934 -0.1645
   12MPD2    C1  180   1.226   1.354  14.191 -0.7838 -0.0960  0.0667
   12MPD2    C2  181   1.282   1.293  14.085 -0.0960  0.7215 -0.3979
   12MPD2    C3  182   1.206   1.259  13.977  0.1668 -0.2932 -0.3694
   12MPD2    C4  183   1.070   1.288  13.974  0.6090  0.1119 -0.1927
   12MPD2    C5  184   1.013   1.357  14.078 -0.2291  0.4840 -0.2541
   12MPD2     H  185   1.387   1.265  14.088 -0.1354  0.6989  1.0666
   12MPD2    H1  186   1.015   1.271  13.883  1.6325 -1.5238 -0.5049
   12MPD2    H2  187   1.046   1.444  14.267  0.5233 -0.4520  0.2797
   12MPD2    H3  188   0.910   1.389  14.074  0.1171  1.6583  0.0903
   12MPD2     N  189   1.261   1.196  13.864  0.0083  0.2028 -0.8123
   12MPD2    H5  190   1.201   1.194  13.782  0.9134  0.4091 -1.4841
   12MPD2    N1  191   1.318   1.388  14.296 -0.6876  0.2918 -0.3129
   12MPD2    H7  192   1.412   1.350  14.294 -1.1662 -0.9505  0.9886
   13TCq1    O1  193   0.862   0.728  10.591  0.2482 -0.2146 -0.0122
   13TCq1    C1  194   0.816   0.783  10.480  0.3099 -0.2004  0.3501
   13TCq1    O2  195   0.881   0.861  10.412 -0.2037 -0.6240  0.0916
   13TCq1    C2  196   0.675   0.801  10.496  1.3291  0.3539 -0.1527
   13TCq1    C3  197   0.609   0.852  10.384 -0.2271  0.4996 -0.1713
   13TCq1    C4  198   0.487   0.906  10.393  0.2641  0.8632  0.0037
   13TCq1    C5  199   0.419   0.904  10.516  0.0011 -0.2545 -0.3597
   13TCq1    C6  200   0.497   0.864  10.623 -0.8827  0.1851 -0.2225
   13TCq1    C7  201   0.621   0.810  10.617  0.0387 -0.5365 -0.3762
   13TCq1    C8  202   0.449   0.880  10.759  0.3074  0.0254  0.1504
   13TCq1    O4  203   0.535   0.882  10.850  0.1830  0.2282  0.2755
   13TCq1    C9  204   0.427   0.953  10.279 -0.0029 -0.3998 -0.4945
   13TCq1    O5  205   0.313   0.998  10.292 -0.0788  0.3383  0.4871
   13TCq1    O6  206   0.495   0.975  10.175 -0.0211 -0.6497  0.6750
   13TCq1    H1  207   0.801   0.658  10.622  0.1896  0.2438  0.9118
   13TCq1    H2  208   0.663   0.848  10.290  0.9799  0.0644  0.5480
   13TCq1    H3  209   0.323   0.955  10.518  1.1897  1.8981  0.8947
   13TCq1    H4  210   0.672   0.777  10.706 -1.4826 -1.0768  0.2878
   14MPD2     C  211   0.109   0.786  10.867 -1.0393 -0.1622  0.4459
   14MPD2    C1  212   0.231   0.852  10.885  0.9606 -1.0221 -0.2553
   14MPD2    C2  213   0.271   0.895  11.008  0.4931  0.1861  0.1844
   14MPD2    C3  214   0.174   0.901  11.113 -0.2492 -0.3934 -0.4083
   14MPD2    C4  215   0.052   0.837  11.096 -0.1097  0.2829 -0.4197
   14MPD2    C5  216   0.020   0.772  10.974  0.0998 -0.7789 -0.2874
   14MPD2     H  217   0.361   0.952  11.024  0.4158 -0.1887  1.9677
   14MPD2    H1  218   4.706   0.829  11.178  0.0572  1.3140 -0.1674
   14MPD2    H2  219   0.071   0.737  10.778 -0.6155  1.4680 -0.6220
   14MPD2    H3  220   4.647   0.726  10.962 -0.0063 -1.2438  2.1450
   14MPD2     N  221   0.208   0.965  11.237  0.0510  0.5098  0.5882
   14MPD2    H5  222   0.294   1.019  11.233  0.8107 -0.5989  2.1648
   14MPD2    N1  223   0.313   0.858  10.768 -0.2625 -0.0225 -0.1792
   14MPD2    H7  224   0.275   0.832  10.677  0.2509 -0.8152 -0.1643
   15TCq1    O1  225   2.106   4.666   1.577 -0.4928 -0.4383  0.5713
   15TCq1    C1  226   2.171   4.665   1.691 -0.0779  0.0142 -0.0555
   15TCq1    O2  227   2.123   4.712   1.797 -0.1572 -0.2068  0.0159
   15TCq1    C2  228   2.314   4.670   1.657  0.6415  0.2923  0.1700
   15TCq1    C3  229   2.392   0.013   1.748 -0.2451  0.6285 -0.1369
   15TCq1    C4  230   2.526   4.709   1.764  0.0788 -0.2274  0.7422
   15TCq1    C5  231   2.583   4.613   1.686  0.1293  0.0901  0.1782
   15TCq1    C6  232   2.510   4.549   1.584  0.2391  0.8701 -0.1556
   15TCq1    C7  233   2.372   4.571   1.576  0.0832 -0.4769 -0.6268
   15TCq1    C8  234   2.585   4.506   1.472  0.0529  0.0760 -0.6677
   15TCq1    O4  235   2.707   4.490   1.489  0.0826  0.0868  0.6791
   15TCq1    C9  236   2.614   0.054   1.860  0.0291  0.2796  0.3274
   15TCq1    O5  237   2.562   0.131   1.952  0.2001 -0.5697  0.5546
   15TCq1    O6  238   2.741   0.030   1.853  0.1514 -0.0680  0.0717
   15TCq1    H1  239   2.159   4.658   1.495  2.0903  0.0902  2.1789
   15TCq1    H2  240   2.340   0.086   1.810 -1.3596  1.8543 -2.5224
   15TCq1    H3  241   2.690   4.599   1.686  0.1253  0.0683 -0.8240
   15TCq1    H4  242   2.303   4.495   1.541 -3.0923  1.6405  0.9381
   16MPD2     C  243   2.470   4.396   1.131 -0.4052 -0.3213  0.3113
   16MPD2    C1  244   2.550   4.407   1.248  0.8537  0.8758 -0.1614
   16MPD2    C2  245   2.679   4.352   1.240 -0.3883  0.6452 -0.0006
   16MPD2    C3  246   2.728   4.291   1.121  0.3855  0.7683 -0.6669
   16MPD2    C4  247   2.641   4.283   1.011  0.4211 -0.1994  0.0625
   16MPD2    C5  248   2.519   4.334   1.019 -0.1530 -0.0451 -0.8542
   16MPD2     H  249   2.749   4.356   1.323 -1.6200 -0.9449  1.1208
   16MPD2    H1  250   2.678   4.249   0.915 -0.0119  0.3846 -0.3082
   16MPD2    H2  251   2.373   4.444   1.135 -0.6537 -0.8538  0.6500
   16MPD2    H3  252   2.469   4.338   0.923  0.9386  0.2932 -1.4036
   16MPD2     N  253   2.861   4.250   1.118  0.4484  0.0359 -0.4936
   16MPD2    H5  254   2.919   4.293   1.190  0.4497 -0.2763 -0.3086
   16MPD2    N1  255   2.504   4.480   1.359  0.4917 -0.1276  0.9743
   16MPD2    H7  256   2.411   4.521   1.357  0.2832 -0.8387 -2.2584
   17TCq1    O1  257   4.663   4.420  10.560  0.0315  0.5469  0.0326
   17TCq1    C1  258   4.704   4.477  10.445  0.4151 -0.2519  0.0299
   17TCq1    O2  259   4.628   4.514  10.358  0.0529 -0.1415 -0.2142
   17TCq1    C2  260   0.107   4.546  10.446 -0.4487  0.3433  0.1040
   17TCq1    C3  261   0.125   4.654  10.366 -0.1684  0.1365  0.3249
   17TCq1    C4  262   0.237   0.009  10.378 -0.0901  0.2437  0.1411
   17TCq1    C5  263   0.332   4.700  10.467  0.0443  0.0941 -0.4328
   17TCq1    C6  264   0.308   4.589  10.547 -0.1343 -0.3819 -0.1993
   17TCq1    C7  265   0.197   4.506  10.534 -0.3442 -0.3470  0.3407
   17TCq1    C8  266   0.422   4.552  10.625 -0.8866  0.1651  0.3347
   17TCq1    O4  267   0.404   4.464  10.712 -0.0001  0.0580 -0.2427
   17TCq1    C9  268   0.258   0.123  10.299  0.0671  0.1602 -0.2655
   17TCq1    O5  269   0.366   0.191  10.311 -0.1225  0.2652  0.0223
   17TCq1    O6  270   0.174   0.142  10.204  0.2120 -0.1665  0.5105
   17TCq1    H1  271   0.005   4.403  10.630 -1.3963 -1.4826  0.9006
   17TCq1    H2  272   0.053   4.681  10.289  0.7242  0.0404 -0.5382
   17TCq1    H3  273   0.414   0.043  10.487 -0.3724  0.3546  0.3753
   17TCq1    H4  274   0.196   4.413  10.591 -0.6311 -0.3817  0.2832
   18MPD2     C  275   0.692   4.514  10.753 -0.4911 -0.3891 -0.0245
   18MPD2    C1  276   0.676   4.574  10.636  0.0906  0.0825 -0.7229
   18MPD2    C2  277   0.784   4.621  10.565 -0.0130 -0.0185  0.2223
   18MPD2    C3  278   0.909   4.615  10.622 -0.1176  0.1883  0.0382
   18MPD2    C4  279   0.928   4.535  10.731  0.6306 -0.3196 -0.7490
   18MPD2    C5  280   0.821   4.484  10.797 -0.3920  0.2186  0.2837
   18MPD2     H  281   0.760   4.677  10.476 -0.1554  1.2316  1.0326
   18MPD2    H1  282   1.030   4.526  10.766  0.6035  1.1449 -0.3101
   18MPD2    H2  283   0.607   4.469  10.804 -0.1852  0.5473  1.3007
   18MPD2    H3  284   0.844   4.427  10.886  2.4524  3.3796  1.5873
   18MPD2     N  285   1.024   4.662  10.552 -0.3850  0.0940  0.5918
   18MPD2    H5  286   1.116   4.631  10.580 -0.4639  0.4711  1.2681
   18MPD2    N1  287   0.546   4.594  10.579  0.1656  0.5881  0.1621
   18MPD2    H7  288   0.554   4.636  10.487  0.8252  1.5283  0.6420
   19TMC2    C1  289   2.633   0.752  13.835  0.0884  0.1780 -0.1550
   19TMC2    C2  290   2.606   0.758  13.698  0.1145 -0.1109  1.1254
   19TMC2    C3  291   2.487   0.708  13.656  1.2519  0.3081  0.0967
   19TMC2    C4  292   2.541   0.702  13.923  0.3570 -0.8468  0.1524
   19TMC2    C5  293   2.419   0.661  13.874 -0.4589 -0.7424 -0.3572
   19TMC2    C6  294   2.388   0.657  13.738 -0.3662 -0.2208 -0.1491
   19TMC2     C  295   2.770   0.787  13.870  0.1638 -0.1939  0.1520
   19TMC2     O  296   2.841   0.814  13.776 -0.0693 -0.0584  0.0338
   19TMC2     H  297   2.671   0.795  13.619  0.7431 -0.2993  1.5532
   19TMC2    H1  298   2.562   0.706  14.029 -0.2822 -0.4998  0.2651
   19TMC2    H2  299   2.298   0.609  13.700  0.1239  0.0442 -1.6268
   19TMC2    C7  300   2.309   0.630  13.957  0.2487  0.5857  0.1316
   19TMC2    C8  301   2.452   0.706  13.513 -0.7917  0.0249 -0.2726
   19TMC2    O1  302   2.212   0.578  13.907  0.3605 -0.2363  0.1292
   19TMC2    O2  303   2.520   0.653  13.429 -0.0825  0.3843  0.1559
   19TMC2    O5  304   2.349   0.785  13.494  0.3633 -0.3407  0.9156
   19TMC2    H5  305   2.323   0.842  13.570 -1.5671  2.0513 -1.5379
   20MPD2     C  306   3.035   0.791  14.005 -0.2273  0.6826  0.3813
   20MPD2    C1  307   2.917   0.754  14.070 -0.3188  0.1294  0.0587
   20MPD2    C2  308   2.911   0.708  14.199 -0.9051 -0.2987 -0.7441
   20MPD2    C3  309   3.031   0.687  14.259  0.3533  0.0154  0.4634
   20MPD2    C4  310   3.157   0.719  14.192 -0.1724  0.0396  0.4323
   20MPD2    C5  311   3.153   0.774  14.066 -0.8296  0.4178 -0.1509
   20MPD2     H  312   2.817   0.674  14.242 -1.4823  1.3027 -0.7369
   20MPD2    H1  313   3.248   0.693  14.244  0.8690  2.3468 -0.2339
   20MPD2    H2  314   3.038   0.833  13.905 -0.4471 -1.5071 -0.5639
   20MPD2    H3  315   3.249   0.791  14.017 -0.0898 -1.6683  0.5585
   20MPD2     N  316   3.043   0.630  14.391 -0.6086 -0.7615 -0.2241
   20MPD2    H5  317   3.136   0.596  14.415 -1.3709 -2.2277  0.6721
   20MPD2    N1  318   2.793   0.762  14.008  0.4997 -0.0337 -0.4973
   20MPD2    H7  319   2.714   0.717  14.053 -0.0849  0.2844 -1.2039
   21MPD2     C  320   4.497   1.132  14.167 -0.6300 -0.2350 -0.5324
   21MPD2    C1  321   4.562   1.039  14.249  0.0147 -0.2201 -0.1019
   21MPD2    C2  322   4.529   1.046  14.387 -0.8141 -0.5086  0.7996
   21MPD2    C3  323   4.438   1.138  14.435 -0.0968  0.3702  0.4955
   21MPD2    C4  324   4.364   1.211  14.343 -0.5205  0.2744  0.2595
   21MPD2    C5  325   4.392   1.205  14.212  0.1346  0.2041  0.6853
   21MPD2     H  326   4.568   0.968  14.451 -0.5197 -0.4238  0.7280
   21MPD2    H1  327   4.291   1.288  14.365  0.1719  1.1363 -0.4752
   21MPD2    H2  328   4.512   1.140  14.060  1.0888 -0.2845 -0.2933
   21MPD2    H3  329   4.340   1.266  14.140 -0.6427  0.3108  1.3468
   21MPD2     N  330   4.425   1.162  14.575 -0.4510 -0.0688 -0.0949
   21MPD2    H5  331   4.350   1.225  14.601 -0.5351  0.8221 -2.4312
   21MPD2    N1  332   4.655   0.941  14.207 -0.0096  0.1920 -0.1310
   21MPD2    H7  333   4.691   0.891  14.288 -1.2814  1.1813  1.0371
   22TCq2    C1  334   4.502   1.107  14.674  0.8031  0.0826  0.1065
   22TCq2    O2  335   4.592   1.024  14.668  0.8036  0.0280  0.3266
   22TCq2    C2  336   4.472   1.163  14.806  0.5331  0.7370  0.5425
   22TCq2    C3  337   4.573   1.142  14.891  0.1626  0.0189  0.8959
   22TCq2    C4  338   4.600   1.238  14.987  1.0107  0.3747 -0.3710
   22TCq2    C5  339   4.526   1.354  15.000  0.2448 -0.0480  1.2245
   22TCq2    C6  340   4.412   1.359  14.921  0.1039  0.4533  0.0024
   22TCq2    C7  341   4.389   1.267  14.817 -0.1522  0.2959 -0.5480
   22TCq2    C8  342   4.319   1.468  14.954  0.0758  0.1004  0.7734
   22TCq2    O4  343   4.355   1.548  15.042  0.0105 -0.3615  0.5778
   22TCq2    C9  344   4.702   1.216  15.078  0.0881  0.0806  0.0065
   22TCq2    O5  345   4.716   1.095  15.106  0.2593 -0.2397  0.1985
   22TCq2    O6  346   4.718   1.302  15.167 -0.4901 -0.0851 -0.3783
   22TCq2    H2  347   4.639   1.057  14.873 -1.3336 -0.7016 -1.2034
   22TCq2    H3  348   4.540   1.438  15.067  1.4462 -0.7210  1.8135
   22TCq2    H4  349   4.296   1.274  14.761 -0.6492 -0.4329  0.1872
   23MPD2     C  350   1.877   2.555  14.542  0.7135  0.1236  0.0003
   23MPD2    C1  351   1.806   2.460  14.613  0.8188  0.0836  0.3814
   23MPD2    C2  352   1.716   2.387  14.542  0.7007  0.1254  0.2948
   23MPD2    C3  353   1.687   2.409  14.409  0.6049  0.4227 -0.5563
   23MPD2    C4  354   1.762   2.500  14.343  0.2646  0.5280  0.5027
   23MPD2    C5  355   1.862   2.565  14.409  0.1948 -0.3384 -0.3785
   23MPD2     H  356   1.647   2.329  14.603 -0.2100  2.0698  1.1149
   23MPD2    H1  357   1.761   2.515  14.236  0.0590  1.2914  0.6114
   23MPD2    H2  358   1.949   2.624  14.585  0.6728 -0.8257  1.5841
   23MPD2    H3  359   1.937   2.620  14.353 -0.7085  0.3392 -0.9236
   23MPD2     N  360   1.588   2.342  14.339 -0.1998 -0.6282 -0.1103
   23MPD2    H5  361   1.567   2.368  14.244 -1.1029  0.2807  0.3387
   23MPD2    N1  362   1.810   2.454  14.758 -0.2516  0.3967  0.2729
   23MPD2    H7  363   1.746   2.384  14.795 -1.8003  1.4149 -0.4712
   24TCq2    C1  364   1.519   2.237  14.382 -0.3837 -0.4450  0.2522
   24TCq2    O2  365   1.553   2.164  14.475  0.0169 -0.3950  0.1670
   24TCq2    C2  366   1.385   2.226  14.325 -0.3076 -0.8368 -0.1981
   24TCq2    C3  367   1.330   2.319  14.242  0.0339 -0.3213  0.7286
   24TCq2    C4  368   1.194   2.317  14.227  0.4161 -0.6124 -0.1905
   24TCq2    C5  369   1.123   2.211  14.273  0.2924  1.3176  0.3833
   24TCq2    C6  370   1.167   2.130  14.374 -0.3092 -0.8263 -0.3686
   24TCq2    C7  371   1.306   2.136  14.397  0.4193 -0.2410 -0.4320
   24TCq2    C8  372   1.087   2.018  14.427  0.3454  0.0648 -0.2391
   24TCq2    O4  373   1.149   1.927  14.479  0.2261 -0.6815  0.2062
   24TCq2    C9  374   1.129   2.429  14.157 -0.7042 -0.7304  0.2794
   24TCq2    O5  375   1.201   2.524  14.116  0.4643 -0.6271 -0.1205
   24TCq2    O6  376   1.000   2.429  14.170  0.5327 -0.4002 -0.3186
   24TCq2    H2  377   1.395   2.386  14.188 -1.0931 -0.8013 -1.2307
   24TCq2    H3  378   1.019   2.204  14.243  0.1841 -1.9383  1.5338
   24TCq2    H4  379   1.340   2.070  14.476 -1.0654 -0.6781 -0.1582
   25TMC2    C1  380   0.964   3.928  11.839  0.3688  0.2111  0.4086
   25TMC2    C2  381   1.058   3.948  11.930  0.2489  0.4178 -0.4745
   25TMC2    C3  382   1.053   4.063  12.014  0.1562 -0.0400  0.2928
   25TMC2    C4  383   0.854   4.011  11.828  0.4176  0.2411  0.8412
   25TMC2    C5  384   0.854   4.123  11.909 -0.4484 -0.2807  0.2735
   25TMC2    C6  385   0.961   4.159  11.997 -0.2815 -0.3674  0.3355
   25TMC2     C  386   0.961   3.799  11.769  1.3377  0.4541 -0.5824
   25TMC2     O  387   1.068   3.743  11.754  0.6995  0.1351 -0.1645
   25TMC2     H  388   1.133   3.870  11.942  0.0822  0.4398  0.7088
   25TMC2    H1  389   0.772   3.995  11.758  1.8982 -0.1968 -0.8011
   25TMC2    H2  390   0.965   4.249  12.057 -0.5907 -1.1816  1.5605
   25TMC2    C7  391   0.723   4.180  11.937 -0.2424 -0.1569  0.0540
   25TMC2    C8  392   1.171   4.081  12.095 -0.2384  0.5323 -0.1644
   25TMC2    O1  393   0.726   4.250  12.039 -0.2129  0.0156 -0.3401
   25TMC2    O2  394   1.167   4.153  12.193 -0.0023 -0.5921 -0.4146
   25TMC2    O5  395   1.281   4.081  12.009  0.1905 -0.6025  0.5588
   25TMC2    H5  396   1.253   4.073  11.915  2.0294 -1.9955  0.1246
   26MPD2     C  397   0.763   3.424  11.483 -0.3401 -0.0484  0.7794
   26MPD2    C1  398   0.677   3.532  11.485  0.4218 -0.1555 -0.9588
   26MPD2    C2  399   0.702   3.647  11.566 -0.8418 -0.3421 -0.8198
   26MPD2    C3  400   0.815   3.644  11.649  0.4314  0.0052 -0.2642
   26MPD2    C4  401   0.898   3.534  11.646 -0.5719 -0.0138 -0.3209
   26MPD2    C5  402   0.869   3.424  11.568  0.6097  0.4100 -0.2699
   26MPD2     H  403   0.629   3.727  11.566  1.0091  1.3248 -2.1924
   26MPD2    H1  404   0.982   3.522  11.713 -0.8989  1.5320  0.3884
   26MPD2    H2  405   0.742   3.336  11.423 -1.3167 -0.7299  2.1222
   26MPD2    H3  406   0.946   3.348  11.578 -0.2066 -0.5490 -1.2760
   26MPD2     N  407   0.840   3.764  11.722  0.1468 -0.2561  0.5122
   26MPD2    H5  408   0.763   3.829  11.733 -1.3815 -1.6238 -2.2155
   26MPD2    N1  409   0.561   3.522  11.397  0.1309  0.1778 -0.3862
   26MPD2    H7  410   0.558   3.446  11.331  1.8580 -0.5128  0.3369
   27TMC2    C1  411   3.669   1.109  12.076 -0.9241  0.6944  0.0380
   27TMC2    C2  412   3.581   1.005  12.058 -0.3140  0.2484 -0.4880
   27TMC2    C3  413   3.458   1.026  11.992 -0.1391  0.2937 -0.2094
   27TMC2    C4  414   3.639   1.235  12.027  0.1243 -0.7390 -0.0695
   27TMC2    C5  415   3.519   1.254  11.955  0.1871  0.0245  0.2470
   27TMC2    C6  416   3.430   1.152  11.942  0.1073  0.2013 -0.2901
   27TMC2     C  417   3.757   1.109  12.193  0.8048 -0.1377 -0.6328
   27TMC2     O  418   3.859   1.040  12.187  0.4228 -0.0758 -0.6103
   27TMC2     H  419   3.611   0.911  12.103  3.0897  1.6319  0.0561
   27TMC2    H1  420   3.710   1.313  12.048  0.0422 -0.6754 -0.0303
   27TMC2    H2  421   3.343   1.171  11.881  0.5312  0.4292 -0.8216
   27TMC2    C7  422   3.500   1.391  11.901  0.2957 -0.3090 -1.3740
   27TMC2    C8  423   3.375   0.916  11.958  0.3653 -0.1110  0.3998
   27TMC2    O1  424   3.580   1.475  11.939  0.1575 -0.1648  0.0168
   27TMC2    O2  425   3.418   0.801  11.945  0.6928  0.5523  0.2024
   27TMC2    O5  426   3.252   0.953  11.954  0.0669 -0.0073  0.1954
   27TMC2    H5  427   3.242   1.049  11.970  0.2506 -0.0153  0.3624
   28MPD2     C  428   3.819   1.212  12.684  1.0588  0.3771  0.0141
   28MPD2    C1  429   3.735   1.308  12.633  0.8632  1.1776 -0.2455
   28MPD2    C2  430   3.693   1.292  12.499 -0.1757  0.0356  0.8869
   28MPD2    C3  431   3.754   1.203  12.419 -0.5844 -0.5712  0.1209
   28MPD2    C4  432   3.845   1.120  12.468 -0.6117  0.1004 -1.1226
   28MPD2    C5  433   3.882   1.135  12.596 -0.4193 -0.9183 -1.5090
   28MPD2     H  434   3.606   1.347  12.463  0.1436  0.5154  0.8418
   28MPD2    H1  435   3.895   1.048  12.405  1.1512 -0.4929  0.9544
   28MPD2    H2  436   3.834   1.201  12.790 -0.6264  3.4332  0.5846
   28MPD2    H3  437   3.952   1.060  12.630 -0.7101 -1.5105 -2.2128
   28MPD2     N  438   3.700   1.196  12.284 -0.6099  0.0365  0.0518
   28MPD2    H5  439   3.608   1.236  12.266 -0.7545 -0.6914 -0.8182
   28MPD2    N1  440   3.669   1.390  12.730 -0.4513 -0.0014  0.4680
   28MPD2    H7  441   3.699   1.378  12.827  0.1819 -0.9899  0.1531
   29MPD2     C  442   3.361   4.004  14.337 -0.5306 -0.0867 -0.3423
   29MPD2    C1  443   3.440   3.972  14.452  0.2927  0.4418 -0.1055
   29MPD2    C2  444   3.478   4.073  14.534  0.1414  0.1306  0.3421
   29MPD2    C3  445   3.444   4.201  14.505 -0.9015  0.4313 -0.9302
   29MPD2    C4  446   3.367   4.231  14.395  0.1491 -0.4278 -0.1477
   29MPD2    C5  447   3.334   4.128  14.311  0.2597  0.1292  0.3668
   29MPD2     H  448   3.533   4.056  14.626  2.0322  2.3437 -0.3880
   29MPD2    H1  449   3.340   4.331  14.362  1.1277 -0.1871 -0.2155
   29MPD2    H2  450   3.337   3.931  14.260  0.2921  0.7365 -1.3835
   29MPD2    H3  451   3.274   4.149  14.223 -1.3294 -1.7953  1.0037
   29MPD2     N  452   3.470   4.314  14.587 -0.6368 -0.3965  1.0132
   29MPD2    H5  453   3.444   4.404  14.547 -0.9304 -0.3121  1.3910
   29MPD2    N1  454   3.481   3.842  14.483  0.2955  0.2412 -0.3945
   29MPD2    H7  455   3.549   3.831  14.559  0.1158 -0.4263 -0.3345
   30TCq2    C1  456   3.510   4.307  14.722  0.1366  0.5780 -0.3334
   30TCq2    O2  457   3.516   4.212  14.796 -0.3810  0.8201  0.3562
   30TCq2    C2  458   3.555   4.439  14.759  0.8231 -0.5652  1.0687
   30TCq2    C3  459   3.577   4.452  14.900 -0.4722  1.0641 -0.5671
   30TCq2    C4  460   3.658   4.549  14.949  0.5995  0.0598 -0.5417
   30TCq2    C5  461   3.712   4.646  14.863  0.1151 -0.0128  0.0085
   30TCq2    C6  462   3.701   4.620  14.732  0.0090  0.6583  0.7096
   30TCq2    C7  463   3.627   4.522  14.673 -0.1584 -0.6916  0.2578
   30TCq2    C8  464   3.803   4.686  14.646 -0.2169 -0.1831  0.4367
   30TCq2    O4  465   3.792   4.665  14.527 -0.4050 -0.4667 -0.1237
   30TCq2    C9  466   3.690   4.556  15.087  0.6940 -0.7609 -0.4637
   30TCq2    O5  467   3.616   4.474  15.154  0.0252  0.6900 -0.1450
   30TCq2    O6  468   3.749   4.655  15.132 -0.1879 -0.0158 -0.0505
   30TCq2    H2  469   3.532   4.381  14.969 -0.4158  1.8832  0.3123
   30TCq2    H3  470   3.765   0.001  14.913  1.5124 -0.7466 -0.2792
   30TCq2    H4  471   3.636   4.501  14.567 -1.6706  0.4943 -0.1001
   31MPD2     C  472   1.236   2.943  14.719 -0.2961 -0.6067  0.5444
   31MPD2    C1  473   1.154   3.043  14.695  0.1988 -0.1206 -0.5530
   31MPD2    C2  474   1.034   3.052  14.772  0.2621 -0.5926 -0.1339
   31MPD2    C3  475   1.011   2.968  14.879 -0.0186 -0.3113 -0.0619
   31MPD2    C4  476   1.109   2.881  14.917 -0.6334 -0.2606 -0.1467
   31MPD2    C5  477   1.218   2.867  14.834 -0.7896 -0.1996 -0.0182
   31MPD2     H  478   0.950   3.116  14.746  1.3943 -0.3564 -3.2236
   31MPD2    H1  479   1.108   2.821  15.008  0.0068  0.3454  0.2623
   31MPD2    H2  480   1.320   2.929  14.653 -0.7860 -0.6960 -0.0577
   31MPD2    H3  481   1.304   2.806  14.858 -0.3813 -0.0675 -1.1698
   31MPD2     N  482   0.898   2.958  14.961 -0.7062  0.1789  0.2799
   31MPD2    H5  483   0.895   2.882  15.027 -0.4201 -0.8318 -0.8625
   31MPD2    N1  484   1.187   3.124  14.587 -0.0607 -0.3431  0.4706
   31MPD2    H7  485   1.248   3.098  14.511 -0.9596 -0.5514 -0.1817
   32TCq2    C1  486   0.781   3.033  14.935 -0.3158 -0.3790 -0.2098
   32TCq2    O2  487   0.754   3.108  14.845 -0.2393  0.5730  0.5022
   32TCq2    C2  488   0.682   3.021  15.036  0.7135  0.3694 -0.0042
   32TCq2    C3  489   0.561   3.077  15.013 -0.1180  0.4048 -0.0258
   32TCq2    C4  490   0.482   3.093  15.116 -0.8573  0.1218  0.8821
   32TCq2    C5  491   0.523   3.069  15.246  0.1950 -0.2961 -0.1227
   32TCq2    C6  492   0.648   3.019  15.268 -0.1181  0.2895  0.8600
   32TCq2    C7  493   0.726   2.992  15.161  0.4317 -0.2396 -1.0992
   32TCq2    C8  494   0.705   3.005  15.404  0.5871  0.3449  1.0160
   32TCq2    O4  495   0.807   2.940  15.418 -0.1130 -0.2375  0.1554
   32TCq2    C9  496   0.345   3.146  15.098 -0.4124 -0.0087 -0.4111
   32TCq2    O5  497   0.282   3.173  15.202 -0.1334  0.2842 -0.0137
   32TCq2    O6  498   0.301   3.164  14.982  0.2590 -0.6031 -0.1052
   32TCq2    H2  499   0.527   3.102  14.913 -0.8023 -4.3751 -1.0125
   32TCq2    H3  500   0.451   3.086  15.325  0.9278  0.0828  0.4650
   32TCq2    H4  501   0.830   2.980  15.188  0.0219  2.1397  1.5936
   33MPD2     C  502   1.577   0.571  10.343 -0.0088  0.2635 -0.7716
   33MPD2    C1  503   1.466   0.541  10.269  0.2712 -0.9621 -0.5416
   33MPD2    C2  504   1.398   0.641  10.205  0.2094 -0.5486  0.0559
   33MPD2    C3  505   1.437   0.771  10.204  0.3272 -0.9100 -0.0211
   33MPD2    C4  506   1.550   0.803  10.278 -0.4682 -0.0190  0.0910
   33MPD2    C5  507   1.616   0.705  10.346 -0.7198  0.2698  0.0462
   33MPD2     H  508   1.306   0.629  10.150 -1.4014  0.4790  2.5400
   33MPD2    H1  509   1.566   0.910  10.277  1.0268 -0.2456 -0.0733
   33MPD2    H2  510   1.619   0.493  10.404  1.3638  1.6754  0.0952
   33MPD2    H3  511   1.712   0.729  10.391 -0.3663  0.6396 -0.9233
   33MPD2     N  512   1.361   0.875  10.141  0.0069  0.2658 -0.4207
   33MPD2    H5  513   1.418   0.959  10.129  2.2476 -1.1724  0.1260
   33MPD2    N1  514   1.430   0.407  10.283  0.1477 -1.0779  0.7683
   33MPD2    H7  515   1.483   0.345  10.343  2.3325  0.0110 -0.0444
   34TCq2    C1  516   1.234   0.869  10.086  0.4740  0.4035 -0.0509
   34TCq2    O2  517   1.145   0.792  10.109  0.7133 -0.7909 -0.1320
   34TCq2    C2  518   1.195   0.982  10.008 -0.4390 -0.3556  0.7233
   34TCq2    C3  519   1.063   1.007   9.976  0.8558  0.2045  0.4998
   34TCq2    C4  520   1.027   1.099   9.886  0.9416 -0.2064 -0.0441
   34TCq2    C5  521   1.120   1.175   9.825 -0.5464 -0.2563  0.5136
   34TCq2    C6  522   1.257   1.137   9.834  0.2613 -0.8619  0.6372
   34TCq2    C7  523   1.294   1.040   9.925 -0.2353 -0.2392  0.8400
   34TCq2    C8  524   1.362   1.198   9.763 -0.1118  0.8209 -0.0089
   34TCq2    O4  525   1.480   1.166   9.782  0.1612 -0.1704  0.5159
   34TCq2    C9  526   0.892   1.123   9.866 -0.6178  0.2104 -0.0002
   34TCq2    O5  527   0.814   1.107   9.966 -0.9454 -0.9190  0.0489
   34TCq2    O6  528   0.857   1.157   9.751  0.3626 -0.4814 -0.1808
   34TCq2    H2  529   0.986   0.962  10.037  2.2951 -3.6365 -0.5223
   34TCq2    H3  530   1.097   1.262   9.765 -1.3590 -0.6455  0.2734
   34TCq2    H4  531   1.394   0.999   9.921 -0.2850  0.0809 -3.4888
   35MPD2     C  532   3.090   2.485  11.970  0.1093  1.0740  0.8309
   35MPD2    C1  533   3.056   2.380  12.045  0.0497  0.0443  0.0698
   35MPD2    C2  534   3.012   2.264  11.991  0.4252  0.1153 -0.2619
   35MPD2    C3  535   3.015   2.249  11.852  0.2309 -0.9529  0.4458
   35MPD2    C4  536   3.043   2.358  11.774 -0.4583 -0.5123  0.5555
   35MPD2    C5  537   3.091   2.475  11.832  0.2650  0.5554 -0.2708
   35MPD2     H  538   2.977   2.179  12.047  3.9158 -0.5691  0.9146
   35MPD2    H1  539   3.059   2.354  11.667  1.6223 -0.4179  0.8695
   35MPD2    H2  540   3.137   2.571  12.015  0.2432  1.4232  0.0258
   35MPD2    H3  541   3.136   2.555  11.774 -2.3453  2.5486  0.4060
   35MPD2     N  542   2.964   2.126  11.799 -0.2621 -0.2511 -0.3959
   35MPD2    H5  543   2.932   2.055  11.865 -0.0180  0.7036  0.7602
   35MPD2    N1  544   3.050   2.404  12.181  0.3318  0.3424  0.1892
   35MPD2    H7  545   3.065   2.501  12.207  0.2140 -0.0024  1.4970
   36TCq2    C1  546   2.926   2.110  11.665 -0.4482  0.6199  0.2625
   36TCq2    O2  547   2.926   2.194  11.573  0.6722 -0.4978 -0.1724
   36TCq2    C2  548   2.850   1.990  11.644  0.1446  0.0820 -0.6554
   36TCq2    C3  549   2.758   2.003  11.537  0.5828 -0.4360  0.4101
   36TCq2    C4  550   2.675   1.905  11.510 -0.9496  0.0314  0.3165
   36TCq2    C5  551   2.682   1.792  11.585  0.7621 -0.1393  0.6142
   36TCq2    C6  552   2.754   1.782  11.699 -0.0076 -0.2721 -0.0402
   36TCq2    C7  553   2.835   1.887  11.733 -0.4937 -0.2848  0.0608
   36TCq2    C8  554   2.723   1.670  11.793  0.1267 -0.4831 -0.0600
   36TCq2    O4  555   2.661   1.573  11.746  0.4900  0.0930  0.3571
   36TCq2    C9  556   2.569   1.917  11.421 -0.3331 -0.4411  0.1340
   36TCq2    O5  557   2.548   2.011  11.338  0.4196 -0.5623 -0.1701
   36TCq2    O6  558   2.486   1.819  11.414 -0.5029 -0.0149 -0.5407
   36TCq2    H2  559   2.767   2.089  11.471 -0.0391 -0.8420 -0.2019
   36TCq2    H3  560   2.611   1.713  11.565  0.9676 -0.3361  0.6570
   36TCq2    H4  561   2.889   1.880  11.826  0.0043  2.2298 -0.0468
   37TMC2    C1  562   0.030   2.177  11.406  0.6702 -0.5897  0.6924
   37TMC2    C2  563   0.032   2.301  11.336  0.1948  0.4954 -0.0014
   37TMC2    C3  564   0.153   2.351  11.308 -0.2014  0.2352 -1.1085
   37TMC2    C4  565   0.144   2.117  11.450  0.6859  0.7848  1.0374
   37TMC2    C5  566   0.264   2.168  11.420 -0.1424  0.4135 -0.3275
   37TMC2    C6  567   0.266   2.295  11.358 -0.0587 -0.1376 -0.5812
   37TMC2     C  568   4.621   2.139  11.456 -0.2049  0.1414 -0.7856
   37TMC2     O  569   4.524   2.166  11.383  0.1066 -0.1073  0.2990
   37TMC2     H  570   4.667   2.353  11.306  0.0603  1.1741  1.5788
   37TMC2    H1  571   0.134   2.025  11.506  2.1288 -1.0064 -1.6582
   37TMC2    H2  572   0.357   2.351  11.339 -1.2082  1.8021 -0.4376
   37TMC2    C7  573   0.379   2.145  11.511 -0.3443 -0.2199  0.1193
   37TMC2    C8  574   0.165   2.437  11.195  0.3804  0.0549 -0.1059
   37TMC2    O1  575   0.471   2.222  11.508 -0.2398 -0.3811 -0.2057
   37TMC2    O2  576   0.247   2.527  11.192  0.3120  0.6990  0.9770
   37TMC2    O5  577   0.103   2.373  11.089  0.1060 -0.5725  0.4468
   37TMC2    H5  578   0.062   2.286  11.108  3.4410 -2.3075 -0.3324
   38MPD2     C  579   4.330   1.864  11.781 -0.0119  0.4879 -0.3114
   38MPD2    C1  580   4.444   1.895  11.847 -0.4586  0.2039 -0.1638
   38MPD2    C2  581   4.543   1.964  11.773 -0.1755 -0.0010  0.0304
   38MPD2    C3  582   4.521   2.010  11.645 -0.2519  0.1360 -0.1963
   38MPD2    C4  583   4.410   1.968  11.577  0.4677 -0.4745  0.7726
   38MPD2    C5  584   4.321   1.895  11.645  0.0757 -0.8766  0.1239
   38MPD2     H  585   4.637   1.977  11.825  1.7356 -1.7256 -3.0055
   38MPD2    H1  586   4.389   2.015  11.482 -0.6521 -1.1710  0.6794
   38MPD2    H2  587   4.245   1.809  11.819  2.2853 -2.7453  0.0978
   38MPD2    H3  588   4.227   1.872  11.597 -0.0117  1.0882 -0.6498
   38MPD2     N  589   4.627   2.085  11.582 -0.2673  0.1552  0.4333
   38MPD2    H5  590   4.719   2.092  11.625 -0.1517 -1.0141  0.3726
   38MPD2    N1  591   4.466   1.861  11.982 -0.0842 -0.5880 -0.3072
   38MPD2    H7  592   4.545   1.903  12.029 -0.3946 -1.7383  1.2495
   39MPD2     C  593   3.845   4.011   1.226  0.9817  0.7079  0.1678
   39MPD2    C1  594   3.782   3.946   1.327  0.3174  0.0145  0.1602
   39MPD2    C2  595   3.675   3.866   1.299  0.5166 -0.4871 -0.0966
   39MPD2    C3  596   3.628   3.855   1.170 -0.1437 -0.1682 -0.1928
   39MPD2    C4  597   3.697   3.912   1.064  1.0580  0.2443 -0.0796
   39MPD2    C5  598   3.803   3.995   1.099 -0.5965  0.1373  0.2807
   39MPD2     H  599   3.611   3.828   1.377  2.6366 -0.0458  1.8753
   39MPD2    H1  600   3.645   3.926   0.970 -3.5123 -0.4496  2.3166
   39MPD2    H2  601   3.931   4.074   1.246  1.0649  0.6329  0.0506
   39MPD2    H3  602   3.851   4.056   1.023 -0.2213  0.3919  0.7173
   39MPD2     N  603   3.504   3.793   1.139  1.0307 -0.1581 -0.2947
   39MPD2    H5  604   3.498   3.770   1.040  0.2678 -1.1405 -0.0191
   39MPD2    N1  605   3.828   3.966   1.460  0.0947  0.3843  0.2815
   39MPD2    H7  606   3.916   4.015   1.465  1.2813 -1.9378  1.8674
   40TCq2    C1  607   3.782   3.915   1.579  0.4831 -0.3370  0.4018
   40TCq2    O2  608   3.694   3.832   1.586  0.5822 -0.1539 -0.1322
   40TCq2    C2  609   3.843   3.968   1.698 -0.2803 -0.0405 -0.8719
   40TCq2    C3  610   3.764   4.015   1.805 -0.2201 -0.3445 -0.2901
   40TCq2    C4  611   3.818   4.097   1.901  0.0115 -0.1978 -0.0159
   40TCq2    C5  612   3.951   4.132   1.881  0.1602  0.7270 -0.7519
   40TCq2    C6  613   4.029   4.087   1.779 -0.2924  0.0457 -0.3396
   40TCq2    C7  614   3.977   3.996   1.687 -0.2943 -0.0824 -0.8290
   40TCq2    C8  615   4.153   4.150   1.749  0.7367 -0.3806  0.5274
   40TCq2    O4  616   4.218   4.107   1.652 -0.1279 -0.1842 -0.0298
   40TCq2    C9  617   3.736   4.149   1.998  0.4010  0.8380 -0.1352
   40TCq2    O5  618   3.613   4.139   1.980  0.0081 -0.2423 -0.1314
   40TCq2    O6  619   3.787   4.232   2.078  0.3603 -0.1952 -0.0852
   40TCq2    H2  620   3.657   3.996   1.807 -0.1508 -0.4873  1.8535
   40TCq2    H3  621   3.988   4.198   1.958 -3.0443 -0.4478  1.8026
   40TCq2    H4  622   4.041   3.953   1.611 -3.0272  1.0209 -3.7792
   41TMC2    C1  623   2.142   2.020  13.697  0.3995 -0.3445 -0.1888
   41TMC2    C2  624   2.218   2.058  13.805 -0.3802  0.4244 -0.1691
   41TMC2    C3  625   2.314   2.146  13.786  0.5236  0.2672  0.3764
   41TMC2    C4  626   2.164   2.073  13.570  0.9684  0.7896  0.5488
   41TMC2    C5  627   2.263   2.171  13.559  0.5599  0.0570 -0.9788
   41TMC2    C6  628   2.334   2.207  13.668 -0.5387 -0.6898 -0.1542
   41TMC2     C  629   2.045   1.914  13.711  0.3774  0.3355 -0.5843
   41TMC2     O  630   2.020   1.834  13.626 -0.4233 -0.0089 -0.2702
   41TMC2     H  631   2.204   2.015  13.904  1.8530 -1.3742 -0.6303
   41TMC2    H1  632   2.102   2.043  13.486 -1.6197  0.1997  2.6822
   41TMC2    H2  633   2.413   2.280  13.656  0.6054 -2.2387 -2.0265
   41TMC2    C7  634   2.264   2.270  13.450 -0.1973  1.0188  0.2728
   41TMC2    C8  635   2.388   2.207  13.893 -0.3941  0.0151  0.3002
   41TMC2    O1  636   2.308   2.377  13.481  0.0524 -0.4613 -0.2459
   41TMC2    O2  637   2.392   2.140  13.996 -0.7765 -0.2765 -0.2002
   41TMC2    O5  638   2.333   2.331  13.891  0.4566 -0.3812 -0.1507
   41TMC2    H5  639   2.314   2.361  13.799 -0.2990 -0.1744  0.0692
   42MPD2     C  640   1.891   1.694  13.854  0.2612 -0.0770 -0.1163
   42MPD2    C1  641   1.935   1.818  13.909  0.5628 -0.0082 -0.0740
   42MPD2    C2  642   1.940   1.827  14.046  0.3217 -0.2237 -0.2631
   42MPD2    C3  643   1.898   1.724  14.130  0.1336 -0.2934  0.1838
   42MPD2    C4  644   1.852   1.607  14.077 -0.5392 -0.2017 -1.0568
   42MPD2    C5  645   1.849   1.589  13.936 -0.0325 -0.7371  0.1971
   42MPD2     H  646   1.980   1.921  14.080  0.6134 -0.7697  0.9159
   42MPD2    H1  647   1.808   1.532  14.142 -0.5380  0.1768 -0.6196
   42MPD2    H2  648   1.895   1.673  13.748 -2.8687  0.8295 -0.4083
   42MPD2    H3  649   1.819   1.493  13.896 -0.6826 -0.1625 -0.6910
   42MPD2     N  650   1.894   1.731  14.269  0.3615 -0.2765  0.2140
   42MPD2    H5  651   1.859   1.654  14.325  3.7428 -1.5687  0.5272
   42MPD2    N1  652   1.989   1.922  13.833 -0.1278 -0.3860 -0.3547
   42MPD2    H7  653   2.022   2.002  13.886  0.7323 -0.1798 -1.1893
   43MPD2     C  654   3.857   1.152   0.998 -0.4662  0.1551  0.0355
   43MPD2    C1  655   3.844   1.030   1.040  0.1376  0.1343 -0.1920
   43MPD2    C2  656   3.728   1.006   1.111 -0.1085  0.2824  0.2259
   43MPD2    C3  657   3.624   1.092   1.138 -0.0337 -0.3287 -0.6076
   43MPD2    C4  658   3.651   1.218   1.104  0.1441 -1.3642 -0.5964
   43MPD2    C5  659   3.758   1.248   1.027  0.4698  0.0235 -0.2359
   43MPD2     H  660   3.710   0.902   1.135 -0.9582 -0.0570 -1.9352
   43MPD2    H1  661   3.578   1.293   1.133  1.1760 -0.5949  0.0180
   43MPD2    H2  662   3.950   1.189   0.957 -0.7555 -1.2883 -1.9458
   43MPD2    H3  663   3.786   1.349   1.002 -0.4026  0.1507 -0.7135
   43MPD2     N  664   3.514   1.052   1.218  0.3822  0.4608  0.6161
   43MPD2    H5  665   3.456   1.131   1.245  2.0561  2.5888 -1.8878
   43MPD2    N1  666   3.932   0.925   1.010  0.8140 -0.9440  0.5791
   43MPD2    H7  667   3.904   0.835   1.047 -1.9219  1.0710  3.2816
   44TCq2    C1  668   3.153   1.075   1.578 -0.0333  0.0125 -0.1485
   44TCq2    O2  669   3.256   1.137   1.605 -0.2576  0.1577 -0.0429
   44TCq2    C2  670   3.183   0.988   1.467 -0.9132 -0.3323  0.4608
   44TCq2    C3  671   3.106   0.877   1.441 -0.1440  0.9301  0.1382
   44TCq2    C4  672   3.168   0.783   1.365  0.4071 -0.6078 -0.5865
   44TCq2    C5  673   3.287   0.791   1.307  0.0277 -0.4405  0.6814
   44TCq2    C6  674   3.354   0.911   1.322  0.3359  0.3626 -0.2185
   44TCq2    C7  675   3.299   1.008   1.396 -0.0817 -0.0679  0.0380
   44TCq2    C8  676   3.483   0.921   1.261  0.5473  0.4398 -0.4757
   44TCq2    O4  677   3.518   0.813   1.217  0.7925  0.1521  0.6164
   44TCq2    C9  678   3.095   0.664   1.333  0.1504  0.5104 -0.4233
   44TCq2    O5  679   3.129   0.609   1.224 -0.0635  0.0545  0.6027
   44TCq2    O6  680   3.011   0.624   1.419  0.1972 -0.1200  0.1865
   44TCq2    H2  681   3.019   0.849   1.498 -0.5480  0.0954 -0.8818
   44TCq2    H3  682   3.324   0.712   1.242  0.7485 -1.0372  1.8221
   44TCq2    H4  683   3.356   1.100   1.410  1.5300 -0.7833 -1.7968
   45TMC2    C1  684   4.517   2.239   9.314 -0.9399  0.6278 -0.1657
   45TMC2    C2  685   4.495   2.232   9.178  0.2380  0.4684  0.2306
   45TMC2    C3  686   4.547   2.333   9.104  0.4791 -0.0944 -0.1717
   45TMC2    C4  687   4.590   2.337   9.378 -0.5864  0.1650 -0.0477
   45TMC2    C5  688   4.630   2.440   9.299  0.0753  0.6131  0.4080
   45TMC2    C6  689   4.610   2.442   9.166  0.0730  0.6278  0.5656
   45TMC2     C  690   4.442   2.155   9.399  0.1571 -0.1114  0.4032
   45TMC2     O  691   4.473   2.157   9.517 -0.3437  0.3687 -0.0228
   45TMC2     H  692   4.462   2.144   9.125 -0.9896  0.9502  0.2021
   45TMC2    H1  693   4.616   2.333   9.483 -2.1880  0.2050  0.3459
   45TMC2    H2  694   4.657   2.524   9.113 -0.6475  0.9625  0.4509
   45TMC2    C7  695   0.020   2.511   9.342  0.3753 -0.2396 -0.7854
   45TMC2    C8  696   4.560   2.313   8.967  0.7098  0.1343 -0.1423
   45TMC2    O1  697   0.092   2.548   9.251  0.3121  0.6129  0.3566
   45TMC2    O2  698   4.585   2.209   8.901  0.1995  0.5567  0.4384
   45TMC2    O5  699   4.533   2.430   8.912  0.1014  0.1037  0.5544
   45TMC2    H5  700   4.501   2.492   8.982 -0.1046  0.1170  0.4467
   46MPD2     C  701   4.315   1.896   9.464 -0.0656 -0.1858 -0.1054
   46MPD2    C1  702   4.279   1.973   9.352  0.2739  0.2437  0.2960
   46MPD2    C2  703   4.190   1.925   9.263  0.0758  0.4308  0.2634
   46MPD2    C3  704   4.131   1.800   9.282  0.3293  0.3394  0.6829
   46MPD2    C4  705   4.174   1.721   9.382  0.0182 -0.6143 -0.3595
   46MPD2    C5  706   4.257   1.771   9.480  0.0621 -0.0762 -0.1105
   46MPD2     H  707   4.164   1.976   9.171  1.5901 -0.8240 -0.8672
   46MPD2    H1  708   4.139   1.619   9.390  1.0085 -0.9848 -0.9138
   46MPD2    H2  709   4.372   1.938   9.546  0.7499  0.0022 -0.7658
   46MPD2    H3  710   4.280   1.710   9.566  0.9183  1.2796  0.6352
   46MPD2     N  711   4.037   1.749   9.187  0.5059 -0.2681  0.0915
   46MPD2    H5  712   4.017   1.809   9.108 -3.9511 -1.6354  0.1618
   46MPD2    N1  713   4.345   2.093   9.323 -0.7507 -1.0128 -0.0720
   46MPD2    H7  714   4.327   2.132   9.230 -0.9596 -0.2663  0.2805
   47TMC2    C1  715   1.960   3.069   9.335  0.2278  0.7663  0.4228
   47TMC2    C2  716   2.003   3.073   9.205 -0.3556  0.1053 -0.2386
   47TMC2    C3  717   1.917   3.035   9.106  0.2781  0.0407  0.4497
   47TMC2    C4  718   1.827   3.041   9.364  0.0433 -0.5351 -0.5490
   47TMC2    C5  719   1.743   3.001   9.268 -0.8837  0.4215 -0.1767
   47TMC2    C6  720   1.787   3.004   9.137 -1.2351 -0.2744  0.2753
   47TMC2     C  721   2.055   3.099   9.442  0.2530 -0.1671 -0.6962
   47TMC2     O  722   2.023   3.180   9.529  0.0093  0.0754 -0.0625
   47TMC2     H  723   2.101   3.095   9.165  0.0755  2.2865  2.0166
   47TMC2    H1  724   1.798   3.037   9.468  0.2695  0.1849 -0.4565
   47TMC2    H2  725   1.726   2.954   9.062  2.0338 -0.7726 -2.0735
   47TMC2    C7  726   1.626   2.919   9.296 -0.1324  0.1769 -0.2426
   47TMC2    C8  727   1.965   3.006   8.975 -0.2253  0.2649  0.3648
   47TMC2    O1  728   1.550   2.900   9.204 -0.4713  0.1685 -0.5226
   47TMC2    O2  729   2.084   2.977   8.953 -0.0554  0.1992  0.2310
   47TMC2    O5  730   1.882   3.048   8.877 -0.4675 -0.3849  0.0119
   47TMC2    H5  731   1.787   3.068   8.895 -0.2587 -1.5937  2.5266
   48MPD2     C  732   2.309   3.123   9.612  0.3581  0.5063 -0.3503
   48MPD2    C1  733   2.294   3.039   9.502 -0.8524 -0.1086 -1.0584
   48MPD2    C2  734   2.394   2.940   9.484  0.4745 -0.1046 -0.8494
   48MPD2    C3  735   2.490   2.910   9.576 -0.6138  1.0009 -0.0964
   48MPD2    C4  736   2.489   2.987   9.690 -0.1703 -0.6100  0.8926
   48MPD2    C5  737   2.398   3.088   9.707  0.3919 -0.4808 -0.2731
   48MPD2     H  738   2.389   2.868   9.404  0.0831  0.6132 -1.4777
   48MPD2    H1  739   2.577   2.980   9.754  0.5065  1.0039  0.1468
   48MPD2    H2  740   2.234   3.195   9.642  0.5303 -0.3005  2.0181
   48MPD2    H3  741   2.403   3.146   9.798 -0.4770  1.1744 -1.2688
   48MPD2     N  742   2.575   2.799   9.547  0.1318  0.2289 -0.5759
   48MPD2    H5  743   2.566   2.748   9.460 -1.8905 -1.3178  0.5364
   48MPD2    N1  744   2.180   3.045   9.414  0.3880 -0.2562 -0.5013
   48MPD2    H7  745   2.171   2.972   9.343  1.7074  0.1239 -1.0619
   49MPD2     C  746   4.545   0.060  10.556  0.4504  0.7221 -0.2147
   49MPD2    C1  747   4.599   0.025  10.679  0.1531  0.8275  0.5199
   49MPD2    C2  748   4.716   0.087  10.730  0.2049  0.0240 -0.3484
   49MPD2    C3  749   0.057   0.190  10.655  0.0458  0.3527  0.0753
   49MPD2    C4  750   0.005   0.214  10.532 -0.1986 -0.3632  0.3235
   49MPD2    C5  751   4.615   0.153  10.488  0.1114  0.4614  0.1542
   49MPD2     H  752   0.012   0.070  10.835  1.8796  1.4678 -0.4615
   49MPD2    H1  753   0.050   0.292  10.471  0.1960 -1.8134 -1.2330
   49MPD2    H2  754   4.462   0.016  10.501  0.8986  2.6196 -2.4182
   49MPD2    H3  755   4.586   0.174  10.386 -3.5313 -0.9210  0.9108
   49MPD2     N  756   0.160   0.274  10.697  0.1514 -0.0941  0.6361
   49MPD2    H5  757   0.201   0.334  10.626  1.1841 -1.8007 -0.2229
   49MPD2    N1  758   4.534   4.652  10.758 -0.3219 -1.0999 -0.4811
   49MPD2    H7  759   4.578   4.621  10.844 -1.4412 -4.2321 -1.0410
   50TCq2    C1  760   4.416   4.599  10.728  0.1378 -0.7781 -0.3919
   50TCq2    O2  761   4.340   4.626  10.632 -0.4206 -0.5469 -0.2564
   50TCq2    C2  762   4.382   4.487  10.819  0.8039  0.1793  0.0964
   50TCq2    C3  763   4.294   4.396  10.780  0.4059 -0.3551  0.5613
   50TCq2    C4  764   4.281   4.276  10.841 -0.2482 -0.6457 -0.3258
   50TCq2    C5  765   4.349   4.253  10.958 -0.3550  0.0568  0.5074
   50TCq2    C6  766   4.443   4.337  10.999 -0.4254  0.7218 -0.2630
   50TCq2    C7  767   4.468   4.455  10.929 -0.3338  0.3029 -0.3639
   50TCq2    C8  768   4.521   4.289  11.105 -0.8847 -0.0087 -0.9267
   50TCq2    O4  769   4.483   4.190  11.170 -0.7050 -0.5549 -0.2463
   50TCq2    C9  770   4.175   4.181  10.810 -0.0666  0.5897  0.0178
   50TCq2    O5  771   4.172   4.062  10.858 -0.0441  1.0727 -0.7772
   50TCq2    O6  772   4.094   4.220  10.723  0.0856  0.2509  0.0198
   50TCq2    H2  773   4.220   4.422  10.705  0.2682 -0.3129  0.7124
   50TCq2    H3  774   4.306   4.172  11.015  1.9436 -2.6910 -1.6409
   50TCq2    H4  775   4.520   4.536  10.980  1.0780  0.5412 -2.2130
   51MPD2     C  776   4.699   3.913   0.982  0.4764  0.7016 -0.0426
   51MPD2    C1  777   0.074   3.821   0.958  0.2157 -0.1694  0.3940
   51MPD2    C2  778   0.198   3.838   1.017  0.2567 -0.1003 -0.2855
   51MPD2    C3  779   0.220   3.959   1.083 -0.3369 -0.3874 -0.1730
   51MPD2    C4  780   0.128   4.057   1.096 -0.5883 -0.0374  0.0299
   51MPD2    C5  781   0.004   4.039   1.040 -0.6235  0.5178 -0.7202
   51MPD2     H  782   0.274   3.767   0.988  1.9154  0.6444  2.3515
   51MPD2    H1  783   0.155   4.159   1.122  2.0034 -0.4513 -1.0850
   51MPD2    H2  784   4.599   3.906   0.940  0.0038 -1.2694  1.4471
   51MPD2    H3  785   4.650   4.112   1.053 -1.6980 -1.3608  3.1234
   51MPD2     N  786   0.346   3.983   1.136  0.3868 -0.1240 -0.3270
   51MPD2    H5  787   0.364   4.074   1.177 -1.5441 -0.1017  0.4818
   51MPD2    N1  788   0.047   3.713   0.868  0.2034  0.3171 -0.1129
   51MPD2    H7  789   0.131   3.658   0.853  0.0742 -0.9026  3.5832
   52TCq2    C1  790   0.448   3.898   1.157  0.2509 -0.3624  0.0445
   52TCq2    O2  791   0.432   3.779   1.166  0.5649 -0.4245 -0.2109
   52TCq2    C2  792   0.571   3.948   1.211  0.1149  0.2319  0.5736
   52TCq2    C3  793   0.666   3.859   1.253 -0.4281 -0.5059 -0.2021
   52TCq2    C4  794   0.791   3.906   1.287  0.4056 -0.4802 -0.7890
   52TCq2    C5  795   0.832   4.039   1.263 -0.1802 -0.1219 -0.2452
   52TCq2    C6  796   0.730   4.122   1.228 -0.6096  0.2953  0.3243
   52TCq2    C7  797   0.604   4.080   1.184  0.3105  0.5289  0.4020
   52TCq2    C8  798   0.778   4.256   1.189  0.3114 -0.3882  0.1018
   52TCq2    O4  799   0.900   4.281   1.179 -0.2238  0.3606  0.1455
   52TCq2    C9  800   0.889   3.818   1.349 -0.1795 -0.3119 -0.6383
   52TCq2    O5  801   0.853   3.698   1.355  0.4653  0.4723 -0.1986
   52TCq2    O6  802   0.994   3.875   1.394 -0.2979 -0.0564  0.8013
   52TCq2    H2  803   0.645   3.759   1.287 -1.1362  0.3570  1.9187
   52TCq2    H3  804   0.927   4.080   1.297 -0.5243 -1.6467  2.5648
   52TCq2    H4  805   0.541   4.145   1.125  0.0527  1.2278  1.4385
   53TMC2    C1  806   0.910   2.113  12.039  0.0626  0.1183  0.0452
   53TMC2    C2  807   1.043   2.103  12.072  0.1216  0.6321  0.1998
   53TMC2    C3  808   1.079   2.152  12.196 -0.4475 -0.5588 -0.0299
   53TMC2    C4  809   0.817   2.152  12.133  0.1009  0.1569 -0.3766
   53TMC2    C5  810   0.865   2.193  12.252 -0.0677  0.7223 -1.0269
   53TMC2    C6  811   0.993   2.204  12.287 -0.1739  0.1681  1.0132
   53TMC2     C  812   0.867   2.007  11.947 -0.0260 -0.1051 -0.5617
   53TMC2     O  813   0.938   1.908  11.939  0.2473 -0.4654 -0.0093
   53TMC2     H  814   1.117   2.076  11.998  1.8407 -0.8624  2.4805
   53TMC2    H1  815   0.713   2.138  12.107  0.0189 -0.4056  0.2483
   53TMC2    H2  816   1.031   2.257  12.373 -0.3403 -0.0104  1.1994
   53TMC2    C7  817   0.762   2.212  12.351 -0.1505  0.9061  0.2592
   53TMC2    C8  818   1.217   2.152  12.233  0.0572 -0.0675 -0.3757
   53TMC2    O1  819   0.645   2.215  12.310  0.0136 -0.6221  0.0850
   53TMC2    O2  820   1.305   2.172  12.148 -0.0822  0.4664 -0.1198
   53TMC2    O5  821   1.220   2.070  12.343 -0.4622  0.5052 -0.3944
   53TMC2    H5  822   1.130   2.049  12.377  0.7745  1.1618  3.3041
   54MPD2     C  823   0.681   1.838  11.790 -0.8161  0.6585 -0.0723
   54MPD2    C1  824   0.679   1.975  11.789 -0.0181  0.3234  0.5339
   54MPD2    C2  825   0.585   2.032  11.706  0.1320 -0.0302 -0.0924
   54MPD2    C3  826   0.485   1.957  11.642  0.1270  0.0948 -0.1336
   54MPD2    C4  827   0.489   1.820  11.648  0.8743  0.5919  0.1707
   54MPD2    C5  828   0.587   1.761  11.726  0.2541 -0.6114  0.0817
   54MPD2     H  829   0.581   2.140  11.693  1.3036  0.1702  1.1181
   54MPD2    H1  830   0.415   1.758  11.599 -0.4099  1.1968  1.3150
   54MPD2    H2  831   0.751   1.784  11.852 -0.5683  0.5287 -0.4677
   54MPD2    H3  832   0.598   1.655  11.741 -1.1395 -0.3952  2.6919
   54MPD2     N  833   0.380   2.014  11.560 -0.1690  0.2642 -0.2199
   54MPD2    H5  834   0.308   1.953  11.524 -0.9777  0.1347  1.6725
   54MPD2    N1  835   0.763   2.050  11.868 -0.0053  0.0194  0.1732
   54MPD2    H7  836   0.752   2.150  11.875  0.2628  0.1029 -0.5873
   55MPD2     C  837   1.509   0.064  17.605 -0.2507  0.3545  0.6781
   55MPD2    C1  838   1.519   4.709   0.019 -0.3292  0.3221 -0.3336
   55MPD2    C2  839   1.469   0.028   0.136 -0.4343  0.4244 -0.0642
   55MPD2    C3  840   1.412   0.153   0.151 -0.2306  0.6637  0.5817
   55MPD2    C4  841   1.401   0.231   0.037 -0.5563 -0.2145 -0.2187
   55MPD2    C5  842   1.468   0.191  17.625 -0.4733 -0.2288 -0.8431
   55MPD2     H  843   1.477   4.693   0.226  0.1452 -1.3076 -1.2789
   55MPD2    H1  844   1.360   0.331   0.042 -2.1917 -0.8575 -0.6116
   55MPD2    H2  845   1.546   0.026  17.510 -0.3503 -0.9707  1.1700
   55MPD2    H3  846   1.467   0.260  17.542  0.4839  0.7689 -0.0332
   55MPD2     N  847   1.342   0.176   0.270 -0.5986  0.5404 -0.6821
   55MPD2    H5  848   1.355   0.105   0.341 -0.2454 -2.2656 -3.5158
   55MPD2    N1  849   1.576   4.583   0.007  0.2265  0.0755 -0.4301
   55MPD2    H7  850   1.619   4.560  17.620 -0.0795 -1.1463 -0.2622
   56TCq2    C1  851   1.589   4.485   0.092  0.1942  0.0972  0.1074
   56TCq2    O2  852   1.570   4.488   0.214  0.0812 -0.0972 -0.6655
   56TCq2    C2  853   1.650   4.366   0.027  0.1118  0.1797 -0.3789
   56TCq2    C3  854   1.620   4.328  17.599 -0.0989 -0.0390 -0.0257
   56TCq2    C4  855   1.663   4.208  17.559 -0.8759  0.0927  0.9489
   56TCq2    C5  856   1.738   4.120  17.636  0.0876 -0.0306 -0.7513
   56TCq2    C6  857   1.769   4.162   0.055  0.4434 -0.5938 -0.1306
   56TCq2    C7  858   1.729   4.283   0.110  1.0693  0.1608  0.4750
   56TCq2    C8  859   1.806   4.061   0.151  0.1003  0.0970 -0.5045
   56TCq2    O4  860   1.907   3.997   0.124  0.3661  0.2957 -0.6978
   56TCq2    C9  861   1.621   4.169  17.429  0.1288  0.4942  0.4259
   56TCq2    O5  862   1.656   4.063  17.379 -0.1854  0.2023 -0.1195
   56TCq2    O6  863   1.569   4.263  17.364  0.1840  0.0387  0.4938
   56TCq2    H2  864   1.555   4.385  17.534 -0.3843  0.4001  0.6546
   56TCq2    H3  865   1.756   4.023  17.590  0.0731 -0.1237 -0.5616
   56TCq2    H4  866   1.732   4.304   0.217  1.6105  1.1113  0.2679
   57TMC2    C1  867   0.802   1.223  13.311 -0.4985  0.2029  0.2633
   57TMC2    C2  868   0.849   1.227  13.441 -0.1106 -0.3389  0.3761
   57TMC2    C3  869   0.980   1.267  13.458 -0.2778 -0.4971  0.3450
   57TMC2    C4  870   0.875   1.257  13.199 -0.7750  0.1147  0.7837
   57TMC2    C5  871   0.990   1.317  13.230 -0.5127  0.5778 -0.0583
   57TMC2    C6  872   1.044   1.317  13.352 -0.4473 -0.0765 -0.2444
   57TMC2     C  873   0.664   1.171  13.292 -0.1976 -0.4892 -0.0709
   57TMC2     O  874   0.626   1.143  13.177 -0.8189 -0.0106  0.1596
   57TMC2     H  875   0.805   1.176  13.525 -1.3447 -0.6463 -0.4578
   57TMC2    H1  876   0.833   1.263  13.100 -1.5917  0.7695  1.1699
   57TMC2    H2  877   1.136   1.371  13.369 -0.0634 -1.0647  0.7925
   57TMC2    C7  878   1.081   1.327  13.116 -0.0936  0.2227 -0.0115
   57TMC2    C8  879   1.016   1.329  13.581  0.5534 -0.2695 -0.7590
   57TMC2    O1  880   1.052   1.408  13.026 -0.0779  0.1206  0.7420
   57TMC2    O2  881   1.070   1.265  13.669 -0.0439  0.2083 -0.3705
   57TMC2    O5  882   0.940   1.442  13.590  0.1470 -0.2207  0.2929
   57TMC2    H5  883   0.880   1.460  13.515  0.5374 -1.3615 -0.2860
   58MPD2     C  884   0.203   1.095  13.487  0.1488 -0.5081  0.9582
   58MPD2    C1  885   0.290   1.130  13.593  0.5255  0.4677  0.4423
   58MPD2    C2  886   0.420   1.144  13.559  0.0806  0.5624 -0.2009
   58MPD2    C3  887   0.462   1.141  13.429 -0.8968  0.1490 -0.1062
   58MPD2    C4  888   0.379   1.108  13.327  0.4485  0.6554 -0.0500
   58MPD2    C5  889   0.244   1.087  13.355  1.0508  0.8514 -0.9275
   58MPD2     H  890   0.488   1.161  13.643 -0.1990  0.8263 -0.0293
   58MPD2    H1  891   0.412   1.107  13.224 -1.8673  2.0329 -0.7865
   58MPD2    H2  892   0.098   1.068  13.500  0.3456 -1.5428  0.3828
   58MPD2    H3  893   0.183   1.061  13.270  0.8577 -1.5919 -0.0418
   58MPD2     N  894   0.598   1.174  13.411 -0.0637  0.5329 -0.0288
   58MPD2    H5  895   0.647   1.209  13.493 -0.6456  2.5612 -0.5585
   58MPD2    N1  896   0.258   1.138  13.730  0.2104 -0.3049  0.6864
   58MPD2    H7  897   0.338   1.155  13.789 -0.0002  2.4174  0.1973
   59MPD2     C  898   3.118   0.830  12.915  0.4807 -0.2475 -0.2936
   59MPD2    C1  899   3.154   0.958  12.941 -0.2785  0.8881  0.1928
   59MPD2    C2  900   3.234   0.990  13.047 -0.5499  0.2377  0.2997
   59MPD2    C3  901   3.273   0.889  13.140  0.6659 -0.8000 -0.3168
   59MPD2    C4  902   3.233   0.763  13.113  0.0567 -0.9139  0.2105
   59MPD2    C5  903   3.166   0.728  13.001  0.5600 -0.1038 -0.1693
   59MPD2     H  904   3.256   1.096  13.055  0.5917 -0.0406  0.8701
   59MPD2    H1  905   3.257   0.681  13.179 -0.3014 -1.7133 -0.6554
   59MPD2    H2  906   3.047   0.801  12.838 -0.4924  1.8461 -0.1827
   59MPD2    H3  907   3.133   0.625  12.994  0.3202 -0.0986  0.8649
   59MPD2     N  908   3.350   0.924  13.251 -0.2558 -0.2347 -0.2366
   59MPD2    H5  909   3.401   0.855  13.306 -1.0450  0.3115  1.1785
   59MPD2    N1  910   3.114   1.064  12.862  1.0011 -0.4114 -0.1992
   59MPD2    H7  911   3.149   1.158  12.878 -2.1781  1.1664 -2.5110
   60TCq2    C1  912   3.009   1.063  12.774 -0.0039  0.5731  0.3786
   60TCq2    O2  913   2.909   0.990  12.771  0.3241 -0.4636  0.0499
   60TCq2    C2  914   3.000   1.185  12.699  0.7763 -0.1682  0.7000
   60TCq2    C3  915   3.119   1.240  12.656  0.4459  0.4019  0.7737
   60TCq2    C4  916   3.104   1.354  12.579 -0.4701  0.7757 -0.5990
   60TCq2    C5  917   2.980   1.419  12.574 -0.3051  0.3483  0.6963
   60TCq2    C6  918   2.865   1.356  12.614  0.6736  0.1304 -0.0516
   60TCq2    C7  919   2.873   1.242  12.684 -0.1167 -0.3874  0.6462
   60TCq2    C8  920   2.744   1.438  12.613  0.2617  0.5956  0.4906
   60TCq2    O4  921   2.642   1.371  12.624  0.4720  0.4194  0.5168
   60TCq2    C9  922   3.206   1.395  12.485  0.5884 -0.6624  1.1163
   60TCq2    O5  923   3.187   1.505  12.421  0.3447 -0.1524  0.2460
   60TCq2    O6  924   3.309   1.323  12.473  0.0399  0.1424  0.4122
   60TCq2    H2  925   3.211   1.183  12.655 -0.2852 -0.7229 -1.6085
   60TCq2    H3  926   2.983   1.506  12.508 -3.6090 -0.8914 -1.0860
   60TCq2    H4  927   2.786   1.192  12.725 -0.6213 -0.2314 -0.2311
   61MPD2     C  928   2.141   2.708  15.665 -0.1021  0.5180  0.2111
   61MPD2    C1  929   2.144   2.841  15.611 -0.1029 -0.0559 -0.5565
   61MPD2    C2  930   2.174   2.858  15.480 -0.2390 -0.4148  0.8142
   61MPD2    C3  931   2.198   2.747  15.395 -0.2475 -0.4461 -0.3277
   61MPD2    C4  932   2.195   2.615  15.445  0.1296  0.3644  0.4424
   61MPD2    C5  933   2.174   2.602  15.583 -0.1465 -0.2462  0.3252
   61MPD2     H  934   2.163   2.960  15.444  0.4857 -0.9430 -0.9108
   61MPD2    H1  935   2.215   2.524  15.390 -1.2186  1.0371 -1.1890
   61MPD2    H2  936   2.122   2.692  15.770 -1.3878  0.4779 -0.0245
   61MPD2    H3  937   2.183   2.502  15.625 -1.6571  0.6437  2.7796
   61MPD2     N  938   2.223   2.781  15.260 -0.4308 -0.2829 -0.1805
   61MPD2    H5  939   2.232   2.880  15.241  1.2702 -0.4382 -0.2215
   61MPD2    N1  940   2.107   2.953  15.681  0.5586 -0.2976 -0.0434
   61MPD2    H7  941   2.084   3.032  15.622  2.7905  1.7500  1.8521
   62TCq2    C1  942   2.079   2.950  15.816  0.7943  0.4475 -0.0508
   62TCq2    O2  943   2.094   2.870  15.910 -0.1371 -0.5243 -0.0261
   62TCq2    C2  944   2.046   3.083  15.866  0.2634 -0.8711 -0.2201
   62TCq2    C3  945   2.103   3.127  15.981  0.3895 -0.2423 -0.2428
   62TCq2    C4  946   2.090   3.257  16.010 -0.5832  0.3869  0.6840
   62TCq2    C5  947   2.023   3.353  15.930 -0.2347  0.0782 -0.2535
   62TCq2    C6  948   1.967   3.299  15.818  0.9952 -0.7188 -0.1548
   62TCq2    C7  949   1.992   3.176  15.780 -0.1431  0.1352  0.0803
   62TCq2    C8  950   1.965   3.392  15.707 -0.0843  0.5670  0.3300
   62TCq2    O4  951   2.007   3.352  15.597 -0.3627  0.3617  0.5889
   62TCq2    C9  952   2.154   3.304  16.132 -0.3254  0.3836 -0.9454
   62TCq2    O5  953   2.171   3.428  16.148  0.0037 -0.6624 -0.4967
   62TCq2    O6  954   2.204   3.223  16.212 -0.2722  0.0950 -0.0110
   62TCq2    H2  955   2.155   3.059  16.047 -1.6850 -0.7877  0.8138
   62TCq2    H3  956   2.023   3.459  15.953  2.0651 -0.2594  1.2774
   62TCq2    H4  957   1.940   3.142  15.691  1.7319  1.1675 -1.3985
   63TMC2    C1  958   2.166   2.209  10.796 -0.5166 -0.7188  0.0599
   63TMC2    C2  959   2.245   2.247  10.903  0.0770 -0.2666 -0.6202
   63TMC2    C3  960   2.340   2.341  10.879 -0.3277  0.6318 -0.4489
   63TMC2    C4  961   2.168   2.282  10.680  0.0518 -0.3983  0.6533
   63TMC2    C5  962   2.266   2.381  10.667  0.0730  0.6706 -0.4146
   63TMC2    C6  963   2.358   2.408  10.765 -0.2361  0.7407  0.6469
   63TMC2     C  964   2.120   2.073  10.804 -0.0302 -0.6204 -0.0679
   63TMC2     O  965   2.120   2.025  10.917  0.4923  0.0777 -0.0376
   63TMC2     H  966   2.243   2.208  11.004 -0.8614  2.5649  0.4757
   63TMC2    H1  967   2.103   2.259  10.596  0.3357 -2.2068  0.9263
   63TMC2    H2  968   2.426   2.492  10.764  0.8659 -0.1360  1.1166
   63TMC2    C7  969   2.277   2.445  10.539 -0.8137  0.9414  0.2703
   63TMC2    C8  970   2.401   2.398  10.992  0.1352 -0.1134 -0.0162
   63TMC2    O1  971   2.182   2.439  10.463 -0.2947  0.1297  0.2937
   63TMC2    O2  972   2.517   2.440  10.984  0.1053  0.2204 -0.1385
   63TMC2    O5  973   2.297   2.453  11.056 -0.5377 -0.3143  0.0955
   63TMC2    H5  974   2.214   2.423  11.015  1.4956 -1.6740 -2.9768
   64MPD2     C  975   1.890   1.655  10.648 -0.3297  0.3819 -0.2788
   64MPD2    C1  976   1.960   1.703  10.542 -0.3726 -0.3280 -0.3504
   64MPD2    C2  977   2.017   1.829  10.552 -0.1551  0.0089 -0.4059
   64MPD2    C3  978   2.017   1.898  10.675  0.2116 -0.1429 -0.5632
   64MPD2    C4  979   1.967   1.831  10.787  0.7288 -0.1033  0.6863
   64MPD2    C5  980   1.896   1.717  10.767 -0.4260  0.1449 -0.8814
   64MPD2     H  981   2.072   1.874  10.470 -0.3625 -0.4407 -0.7920
   64MPD2    H1  982   1.956   1.884  10.881 -1.5336  0.8808 -0.1154
   64MPD2    H2  983   1.833   1.563  10.640 -0.7659  0.5109  1.4322
   64MPD2    H3  984   1.844   1.671  10.851  0.3829 -0.1096 -0.5232
   64MPD2     N  985   2.081   2.020  10.688  0.3032 -0.1005 -0.1676
   64MPD2    H5  986   2.099   2.073  10.603 -1.6736  0.4377 -0.2531
   64MPD2    N1  987   1.977   1.629  10.421 -0.6239  0.0803  0.2689
   64MPD2    H7  988   2.033   1.679  10.353  0.7012  0.2621  1.4859
   65MPD2     C  989   2.530   2.082  15.808 -0.3516  0.4005 -0.3323
   65MPD2    C1  990   2.618   2.054  15.704 -0.1105 -0.4227 -0.4773
   65MPD2    C2  991   2.718   1.954  15.715 -0.3767 -0.4536 -0.2755
   65MPD2    C3  992   2.707   1.866  15.826  0.3214 -0.4543 -0.2687
   65MPD2    C4  993   2.606   1.887  15.913  0.1403 -0.4099 -0.2783
   65MPD2    C5  994   2.526   1.998  15.912 -0.1012 -0.3585 -0.4711
   65MPD2     H  995   2.799   1.955  15.643 -0.2890  0.4513 -0.1673
   65MPD2    H1  996   2.596   1.823  16.001  1.5610 -0.0389  0.1471
   65MPD2    H2  997   2.449   2.154  15.802 -2.1492 -1.4776  1.4513
   65MPD2    H3  998   2.456   2.011  15.994  0.4143 -0.1823 -0.0596
   65MPD2     N  999   2.801   1.760  15.842  0.1159 -0.0320 -0.7134
   65MPD2    H5 1000   2.786   1.712  15.930  1.7365  0.2621 -0.2692
   65MPD2    N1 1001   2.636   2.136  15.584  1.1147  0.5720 -0.3512
   65MPD2    H7 1002   2.723   2.129  15.533  1.4916 -0.8374  0.4880
   66TCq2    C1 1003   2.551   2.235  15.544 -0.7844  0.1130  0.0681
   66TCq2    O2 1004   2.440   2.259  15.595  0.2864 -0.4647  0.4797
   66TCq2    C2 1005   2.592   2.304  15.430  0.0800  0.2622  0.6155
   66TCq2    C3 1006   2.670   2.240  15.334  0.2102 -0.0376 -0.5569
   66TCq2    C4 1007   2.704   2.305  15.217  0.7240 -1.2038 -0.7488
   66TCq2    C5 1008   2.658   2.431  15.204  0.5762  0.3889 -0.8901
   66TCq2    C6 1009   2.587   2.499  15.302  0.7114  0.3483 -0.1230
   66TCq2    C7 1010   2.548   2.434  15.418 -0.1582 -0.6940  0.9147
   66TCq2    C8 1011   2.578   2.653  15.297 -1.1279 -0.1497 -0.5855
   66TCq2    O4 1012   2.604   2.704  15.189  0.1139  0.4054  0.3763
   66TCq2    C9 1013   2.788   2.244  15.120 -0.9485  0.5908  0.8450
   66TCq2    O5 1014   2.822   2.310  15.020  0.0675  0.1233  0.2813
   66TCq2    O6 1015   2.844   2.135  15.148  0.0634  0.2462 -0.6487
   66TCq2    H2 1016   2.708   2.139  15.338 -0.7056 -0.4260 -1.6214
   66TCq2    H3 1017   2.691   2.488  15.118 -0.6885  1.3962 -0.7165
   66TCq2    H4 1018   2.484   2.487  15.489 -0.0175 -0.5226  0.9140
   67MPD2     C 1019   3.334   1.421  14.152  0.3907  0.6382  0.3492
   67MPD2    C1 1020   3.224   1.433  14.229  0.1528  0.5627  0.0847
   67MPD2    C2 1021   3.102   1.396  14.177 -0.3239  0.4625  0.5012
   67MPD2    C3 1022   3.086   1.342  14.052  0.5729 -0.4152 -0.1557
   67MPD2    C4 1023   3.197   1.336  13.976 -0.5843  0.3436  1.0930
   67MPD2    C5 1024   3.319   1.371  14.023  0.1164  0.6592  0.0340
   67MPD2     H 1025   3.017   1.424  14.238 -0.8324  2.0520 -0.9427
   67MPD2    H1 1026   3.190   1.308  13.871  1.6376 -1.5311  1.4480
   67MPD2    H2 1027   3.435   1.450  14.179  0.6234 -0.7750  1.0089
   67MPD2    H3 1028   3.400   1.370  13.951 -0.3842  1.7828 -0.5473
   67MPD2     N 1029   2.963   1.306  13.999  0.5203 -0.1136  0.2943
   67MPD2    H5 1030   2.961   1.294  13.898  1.3162  0.1333  0.2465
   67MPD2    N1 1031   3.221   1.494  14.355 -0.5960 -0.3609 -0.9808
   67MPD2    H7 1032   3.133   1.519  14.399 -0.6850 -0.3880 -1.1449
   68TCq2    C1 1033   3.331   1.533  14.427  0.4290 -0.1191  0.3019
   68TCq2    O2 1034   3.445   1.489  14.417 -0.2069 -0.6783 -0.1599
   68TCq2    C2 1035   3.302   1.628  14.528 -0.6327  0.1776 -0.4684
   68TCq2    C3 1036   3.207   1.723  14.506 -0.2431 -0.5211  0.0277
   68TCq2    C4 1037   3.179   1.818  14.604  0.3635 -0.0994  0.2549
   68TCq2    C5 1038   3.250   1.817  14.721 -0.5541 -0.3605 -0.7560
   68TCq2    C6 1039   3.341   1.717  14.738  0.3388 -0.4964 -0.3422
   68TCq2    C7 1040   3.373   1.628  14.641 -0.2895 -0.1150 -0.6158
   68TCq2    C8 1041   3.448   1.744  14.832 -0.3457 -0.6840  0.4711
   68TCq2    O4 1042   3.567   1.708  14.810 -0.1011 -0.0347 -0.5536
   68TCq2    C9 1043   3.092   1.929  14.577  0.1599  0.1049  0.1620
   68TCq2    O5 1044   3.066   1.954  14.454  0.1576  0.1897 -0.2466
   68TCq2    O6 1045   3.054   1.999  14.674 -0.2478 -0.2695  0.2477
   68TCq2    H2 1046   3.151   1.736  14.415  0.5939 -2.1701 -0.7201
   68TCq2    H3 1047   3.233   1.895  14.794  1.4596  0.4415 -1.1264
   68TCq2    H4 1048   3.436   1.548  14.678  0.8671  1.8667  1.6599
   69TMC2    C1 1049   0.438   2.479  12.233  0.5696  0.5605 -0.3031
   69TMC2    C2 1050   0.316   2.436  12.197 -0.2672 -1.0243 -0.1115
   69TMC2    C3 1051   0.310   2.388  12.068 -0.1421 -0.3206  0.5222
   69TMC2    C4 1052   0.553   2.469  12.158 -0.1504 -1.2764  0.5628
   69TMC2    C5 1053   0.537   2.416  12.028  0.4508 -0.2185  0.0761
   69TMC2    C6 1054   0.414   2.376  11.985  0.0350  0.9166  0.0791
   69TMC2     C 1055   0.455   2.519  12.373  0.2378  0.3108  0.5017
   69TMC2     O 1056   0.383   2.480  12.464  0.0171 -0.0244  0.5459
   69TMC2     H 1057   0.239   2.464  12.268 -0.1047  2.9338 -1.5232
   69TMC2    H1 1058   0.653   2.494  12.194 -0.0277 -1.8525  0.6204
   69TMC2    H2 1059   0.402   2.338  11.884 -2.6532  1.0333  0.3486
   69TMC2    C7 1060   0.651   2.401  11.942 -1.1191  0.0422 -0.2471
   69TMC2    C8 1061   0.187   2.355  12.003  0.1607 -0.6124  0.0114
   69TMC2    O1 1062   0.647   2.301  11.864  0.0791  0.3266  0.0417
   69TMC2    O2 1063   0.166   2.325  11.887 -0.4785 -0.3000 -0.3890
   69TMC2    O5 1064   0.105   2.313  12.101  0.5271 -0.0470 -0.1881
   69TMC2    H5 1065   0.129   2.305  12.196  0.2108 -0.2345 -0.1226
   70MPD2     C 1066   0.759   2.683  12.488  0.3298 -0.9946 -1.0371
   70MPD2    C1 1067   0.636   2.626  12.512  0.3187 -0.7636  0.8799
   70MPD2    C2 1068   0.592   2.599  12.637  0.2064  0.5997 -0.5922
   70MPD2    C3 1069   0.674   2.640  12.743 -0.2211  0.9013 -0.3288
   70MPD2    C4 1070   0.804   2.672  12.721  0.0552 -0.1095  0.3272
   70MPD2    C5 1071   0.846   2.698  12.590  0.7063 -0.0305  0.8538
   70MPD2     H 1072   0.491   2.562  12.643 -0.0987  1.7176  0.9927
   70MPD2    H1 1073   0.882   2.684  12.795  0.3832  0.6669 -0.1386
   70MPD2    H2 1074   0.787   2.721  12.390 -2.5291  0.1222 -1.4330
   70MPD2    H3 1075   0.945   2.738  12.570 -0.4616  1.9559 -1.0681
   70MPD2     N 1076   0.639   2.619  12.879 -0.0034 -0.1727 -0.0056
   70MPD2    H5 1077   0.715   2.629  12.945 -0.4632 -1.2118  0.6862
   70MPD2    N1 1078   0.568   2.593  12.387 -0.2028 -0.0895 -0.3873
   70MPD2    H7 1079   0.615   2.621  12.302 -0.2306  0.9617 -0.0493
   71TMC2    C1 1080   3.886   3.597   1.346 -0.3595  0.7512  0.0430
   71TMC2    C2 1081   3.997   3.646   1.402 -0.5748  0.1013 -0.1464
   71TMC2    C3 1082   4.014   3.646   1.533 -0.5683  0.3214 -0.1362
   71TMC2    C4 1083   3.793   3.524   1.422 -0.0738 -0.2503 -0.6225
   71TMC2    C5 1084   3.825   3.515   1.559 -0.0909  0.2993  0.2496
   71TMC2    C6 1085   3.933   3.570   1.615 -0.0075  0.1516  0.3658
   71TMC2     C 1086   3.882   3.587   1.198 -0.2195 -0.0189  0.3909
   71TMC2     O 1087   3.946   3.671   1.142  0.3871 -0.0321 -0.3733
   71TMC2     H 1088   4.070   3.703   1.345 -0.8468  1.6363  1.0130
   71TMC2    H1 1089   3.705   3.479   1.377 -0.5808 -1.3005  1.4490
   71TMC2    H2 1090   3.951   3.548   1.720 -2.5111 -0.4057  0.6962
   71TMC2    C7 1091   3.730   3.450   1.649 -0.5049 -0.7349  0.7168
   71TMC2    C8 1092   4.134   3.698   1.592  0.7042 -0.3434 -0.0947
   71TMC2    O1 1093   3.736   3.489   1.764 -0.0153 -0.1314 -0.4521
   71TMC2    O2 1094   4.230   3.714   1.520  0.0780 -0.2565 -0.1490
   71TMC2    O5 1095   4.114   3.738   1.718  0.2764  0.3617  0.0429
   71TMC2    H5 1096   4.020   3.727   1.742 -0.4686  1.3134 -2.3575
   72MPD2     C 1097   3.766   3.347   0.766 -0.0177  0.1901  0.2070
   72MPD2    C1 1098   3.825   3.468   0.790 -0.4323  0.1138 -0.6798
   72MPD2    C2 1099   3.835   3.505   0.926 -0.2083  0.6883 -0.3659
   72MPD2    C3 1100   3.789   3.430   1.034  0.5118  0.1772 -0.1592
   72MPD2    C4 1101   3.725   3.315   1.008  0.8273  0.0989  0.1206
   72MPD2    C5 1102   3.714   3.276   0.873  0.4534 -0.4599  0.3503
   72MPD2     H 1103   3.876   3.604   0.942  1.4039 -0.3593  1.9243
   72MPD2    H1 1104   3.677   3.254   1.084  0.1415  0.5360  0.0336
   72MPD2    H2 1105   3.757   3.302   0.668 -2.2259  1.3420 -0.1036
   72MPD2    H3 1106   3.672   3.181   0.840 -0.1142  0.0570 -0.4389
   72MPD2     N 1107   3.815   3.474   1.161 -0.0266  0.0195  0.5864
   72MPD2    H5 1108   3.784   3.414   1.237 -1.9122 -0.9763 -0.9936
   72MPD2    N1 1109   3.880   3.560   0.700  0.1016  0.5731  0.3680
   72MPD2    H7 1110   3.924   3.644   0.736  1.7014 -0.1910  0.1927
   73TMC2    C1 1111   2.568   0.385  14.268  0.5638 -0.1510  0.4888
   73TMC2    C2 1112   2.545   0.479  14.365 -0.5780 -0.0228  0.4974
   73TMC2    C3 1113   2.627   0.477  14.476  0.1373  0.2669  0.6792
   73TMC2    C4 1114   2.649   0.283  14.295  1.0011  0.1545 -0.2900
   73TMC2    C5 1115   2.728   0.281  14.408  0.2992  0.3504  0.1286
   73TMC2    C6 1116   2.715   0.375  14.504 -1.0020  0.4992 -0.4052
   73TMC2     C 1117   2.579   0.429  14.129  0.6125 -0.4933 -0.0962
   73TMC2     O 1118   2.686   0.480  14.107  0.4605 -0.0042  0.2130
   73TMC2     H 1119   2.479   0.561  14.339 -2.0591 -0.8690  1.5661
   73TMC2    H1 1120   2.672   0.208  14.221  0.8207  0.7268 -0.9193
   73TMC2    H2 1121   2.766   0.373  14.600 -1.0257  2.2661 -0.3562
   73TMC2    C7 1122   2.870   0.265  14.384  0.4532 -0.3859  0.3174
   73TMC2    C8 1123   2.594   0.559  14.595  0.7766 -0.5237 -0.3317
   73TMC2    O1 1124   2.943   0.241  14.479  0.8329 -0.1833  0.3581
   73TMC2    O2 1125   2.624   0.525  14.709  0.2818  0.0427 -0.1063
   73TMC2    O5 1126   2.537   0.674  14.546 -0.0609  0.5800  0.2824
   73TMC2    H5 1127   2.545   0.684  14.449 -1.2281 -0.2934  0.0962
   74MPD2     C 1128   2.559   0.311  13.623  1.0752 -0.0825 -0.1848
   74MPD2    C1 1129   2.659   0.374  13.699 -0.3208  0.4943 -0.2443
   74MPD2    C2 1130   2.639   0.375  13.838 -0.8088  0.2138  0.2316
   74MPD2    C3 1131   2.523   0.335  13.900 -0.0896 -0.5693 -0.4152
   74MPD2    C4 1132   2.433   0.266  13.822  1.0403 -0.8970  0.6003
   74MPD2    C5 1133   2.445   0.259  13.684 -0.4873  0.5335 -0.1184
   74MPD2     H 1134   2.719   0.421  13.895 -0.5621  1.1137 -0.8573
   74MPD2    H1 1135   2.341   0.230  13.868  0.8352 -0.2424  0.6952
   74MPD2    H2 1136   2.569   0.303  13.515  2.2948  2.2318 -0.2443
   74MPD2    H3 1137   2.362   0.218  13.627 -0.9103 -2.3526  2.5551
   74MPD2     N 1138   2.510   0.347  14.043  0.3703  0.1553 -0.3542
   74MPD2    H5 1139   2.435   0.294  14.086  1.2954 -1.6152 -0.9689
   74MPD2    N1 1140   2.764   0.434  13.630  0.1405 -0.3371 -0.0480
   74MPD2    H7 1141   2.760   0.439  13.529  2.0695  0.9055 -0.0698
   75TCq2    C1 1142   2.853   1.266  14.075 -0.3424  0.9152 -0.0316
   75TCq2    O2 1143   2.833   1.263  14.198 -0.8234  0.5001 -0.0030
   75TCq2    C2 1144   2.739   1.232  13.996 -0.4829  0.3226  0.2729
   75TCq2    C3 1145   2.666   1.125  14.035 -0.8730  0.4542  0.3440
   75TCq2    C4 1146   2.556   1.096  13.962 -0.5571  0.7755  0.3713
   75TCq2    C5 1147   2.535   1.148  13.838  0.3625 -0.1162 -0.2794
   75TCq2    C6 1148   2.626   1.243  13.790  0.2576 -0.2412  0.7359
   75TCq2    C7 1149   2.727   1.288  13.871 -0.2996  0.3471  0.0810
   75TCq2    C8 1150   2.573   1.340  13.694 -0.0914 -1.3927 -0.2058
   75TCq2    O4 1151   2.492   1.294  13.615 -0.3139  0.0498  0.1439
   75TCq2    C9 1152   2.457   1.001  14.014 -0.3086 -0.0209  0.2453
   75TCq2    O5 1153   2.342   1.021  13.969  0.0106  0.2221  0.1149
   75TCq2    O6 1154   2.489   0.931  14.110  0.5770 -0.0773 -0.8202
   75TCq2    H2 1155   2.674   1.078  14.133  0.4875 -0.6167 -0.2805
   75TCq2    H3 1156   2.438   1.129  13.793  0.6005 -0.8729 -0.4804
   75TCq2    H4 1157   2.788   1.375  13.852 -0.0034  0.3801  1.1585
   76MPD2     C 1158   1.348   1.501  11.487  0.0079 -0.1060 -1.0263
   76MPD2    C1 1159   1.417   1.581  11.574  0.0854 -1.0795 -0.4875
   76MPD2    C2 1160   1.535   1.540  11.635  0.7541  0.1341  0.6041
   76MPD2    C3 1161   1.575   1.412  11.627  0.0594  0.0946 -0.1328
   76MPD2    C4 1162   1.504   1.331  11.548  0.2403  0.3350 -0.2948
   76MPD2    C5 1163   1.391   1.373  11.482 -0.0720 -0.1765 -0.0198
   76MPD2     H 1164   1.588   1.614  11.695  1.3771 -0.5404  0.8807
   76MPD2    H1 1165   1.531   1.227  11.534  3.1159  1.2302 -1.3600
   76MPD2    H2 1166   1.269   1.534  11.422  0.4371  2.5280 -0.1889
   76MPD2    H3 1167   1.335   1.297  11.430 -0.6103  0.3280 -0.1821
   76MPD2     N 1168   1.693   1.370  11.689 -0.4850 -0.1880 -0.0136
   76MPD2    H5 1169   1.721   1.274  11.669 -1.3421 -0.0370 -1.9234
   76MPD2    N1 1170   1.388   1.721  11.581 -0.0637 -0.5693  0.2969
   76MPD2    H7 1171   1.434   1.776  11.653  0.9920 -0.0489 -0.7893
   77TCq2    C1 1172   1.772   1.437  11.786 -0.1491 -0.7314  0.1064
   77TCq2    O2 1173   1.738   1.543  11.829 -0.0686  0.0148  0.0621
   77TCq2    C2 1174   1.882   1.362  11.839  0.5257 -0.6250  0.0170
   77TCq2    C3 1175   1.875   1.225  11.831 -0.1113  0.0071 -0.1644
   77TCq2    C4 1176   1.965   1.149  11.900 -0.4868  0.2071 -0.2128
   77TCq2    C5 1177   2.074   1.201  11.966  0.5327 -0.8265  0.8593
   77TCq2    C6 1178   2.068   1.338  11.976 -0.6699  0.0086 -0.2256
   77TCq2    C7 1179   1.978   1.419  11.919 -0.3913 -0.1288  0.1819
   77TCq2    C8 1180   2.177   1.396  12.049  0.4424 -0.2932 -0.2958
   77TCq2    O4 1181   2.278   1.326  12.068  0.1406 -0.4519  0.1873
   77TCq2    C9 1182   1.935   1.003  11.903  0.1362 -0.5923 -0.5050
   77TCq2    O5 1183   1.831   0.965  11.838  0.2580  0.2626  0.2346
   77TCq2    O6 1184   1.982   0.936  11.998 -0.0699 -0.9804  0.1504
   77TCq2    H2 1185   1.796   1.166  11.786  2.3493 -0.9668 -3.1916
   77TCq2    H3 1186   2.133   1.137  12.030  0.0260  0.1959  2.3557
   77TCq2    H4 1187   1.977   1.527  11.918  0.0037 -0.1396 -0.9009
   78MPD1     C 1188   1.745   2.466   0.822 -0.0615  0.1305 -0.2660
   78MPD1    C1 1189   1.841   2.566   0.817 -0.1481  0.4847 -0.3480
   78MPD1    C2 1190   1.969   2.524   0.776 -0.1974  1.3683 -0.1081
   78MPD1    C3 1191   1.996   2.400   0.719 -0.2979 -0.0124  0.1197
   78MPD1    C4 1192   1.894   2.312   0.723  0.0373 -0.6611 -0.3392
   78MPD1    C5 1193   1.769   2.342   0.769 -0.3694 -0.9782  0.3774
   78MPD1     H 1194   2.049   2.596   0.766 -0.1401  1.3229  0.0203
   78MPD1    H1 1195   1.913   2.215   0.678 -1.6815 -0.5254 -1.3742
   78MPD1    H2 1196   1.648   2.479   0.870  0.1998  0.7705  0.0897
   78MPD1    H3 1197   1.698   2.266   0.799  0.8556 -1.3630  2.3184
   78MPD1     N 1198   2.121   2.372   0.659  0.1643  0.5355 -0.2468
   78MPD1    H5 1199   2.121   2.275   0.630 -0.3036  0.2950  0.5890
   78MPD1    N1 1200   1.810   2.691   0.867  0.2942  0.1772  0.6028
   78MPD1    H6 1201   1.860   2.767   0.821 -2.1262  1.2046 -0.3534
   78MPD1    H7 1202   1.709   2.709   0.863  0.3956  0.8642  1.0624
   79TCq2    C1 1203   2.244   2.442   0.656 -0.4780  0.3576  0.2587
   79TCq2    O2 1204   2.276   2.528   0.736  0.2444 -0.2404 -0.1197
   79TCq2    C2 1205   2.343   2.379   0.568 -0.5257 -0.7057  0.1654
   79TCq2    C3 1206   2.297   2.327   0.446 -0.4492  0.0533 -0.0318
   79TCq2    C4 1207   2.388   2.303   0.352 -0.5781  0.3733 -1.1857
   79TCq2    C5 1208   2.523   2.309   0.382 -0.0243 -0.8309 -0.7054
   79TCq2    C6 1209   2.571   2.364   0.502  0.1424 -0.1928  0.0528
   79TCq2    C7 1210   2.476   2.401   0.594  0.3296  0.1493 -0.3376
   79TCq2    C8 1211   2.710   2.334   0.544  0.2416  0.1058  0.2783
   79TCq2    O4 1212   2.731   2.369   0.663  0.5246 -0.7820  0.0307
   79TCq2    C9 1213   2.350   2.278   0.213  0.4819 -0.1241  0.7888
   79TCq2    O5 1214   2.239   2.328   0.171  0.1154 -0.3176  0.5425
   79TCq2    O6 1215   2.428   2.209   0.147 -0.6218 -0.3290  0.0835
   79TCq2    H2 1216   2.191   2.312   0.426 -0.3073  0.1753 -0.8536
   79TCq2    H3 1217   2.597   2.280   0.308  1.8147  2.3728 -0.1380
   79TCq2    H4 1218   2.509   2.448   0.686 -0.6107  2.3121 -1.1040
   80MPD2     C 1219   0.288   1.898  12.753 -0.4729 -0.1609 -0.3115
   80MPD2    C1 1220   0.286   1.929  12.620  0.3611  0.0244  0.3537
   80MPD2    C2 1221   0.160   1.933  12.559  0.2396  0.6560  0.6588
   80MPD2    C3 1222   0.041   1.916  12.624  0.4567  0.6701  0.5399
   80MPD2    C4 1223   0.048   1.897  12.764  0.6736  0.3743  0.2639
   80MPD2    C5 1224   0.170   1.888  12.825 -0.1663  0.1109  0.4175
   80MPD2     H 1225   0.162   1.948  12.452  1.3060 -1.3364  0.3975
   80MPD2    H1 1226   4.680   1.872  12.814 -1.1353  1.7826 -2.4077
   80MPD2    H2 1227   0.373   1.888  12.819 -0.1564  1.2334 -0.5028
   80MPD2    H3 1228   0.178   1.877  12.932 -0.4239 -1.1534  0.2992
   80MPD2     N 1229   4.642   1.902  12.560  0.0266  0.5023 -1.1821
   80MPD2    H5 1230   4.561   1.885  12.618  0.3067 -1.9393 -1.4915
   80MPD2    N1 1231   0.410   1.942  12.552 -0.3698  0.2317 -0.1732
   80MPD2    H7 1232   0.408   1.986  12.460 -2.8109 -1.6864 -1.0345
   81TCq2    C1 1233   0.537   1.921  12.598  0.0063  0.0513 -0.1480
   81TCq2    O2 1234   0.572   1.882  12.709 -0.3718 -0.1120  0.1996
   81TCq2    C2 1235   0.621   1.896  12.482 -0.3942 -0.2447 -0.2369
   81TCq2    C3 1236   0.757   1.897  12.500 -0.1275  0.0734  0.1414
   81TCq2    C4 1237   0.822   1.866  12.387 -1.0582 -1.0610 -0.1677
   81TCq2    C5 1238   0.761   1.828  12.267  0.2914  0.0659 -0.4289
   81TCq2    C6 1239   0.635   1.821  12.263  0.4732 -0.1658 -0.5319
   81TCq2    C7 1240   0.559   1.861  12.369  0.2694  0.6510 -0.1253
   81TCq2    C8 1241   0.562   1.764  12.151 -0.7532 -0.2911  1.1357
   81TCq2    O4 1242   0.464   1.831  12.127 -0.3421  0.5788  0.2001
   81TCq2    C9 1243   0.969   1.876  12.389 -0.6935  0.1602  0.7652
   81TCq2    O5 1244   1.020   1.818  12.290  0.1282  0.2662 -0.0026
   81TCq2    O6 1245   1.017   1.971  12.460  0.2846 -0.2410  0.2136
   81TCq2    H2 1246   0.808   1.937  12.586  1.1312  1.9951 -1.4827
   81TCq2    H3 1247   0.809   1.793  12.177  0.0673  0.8754 -0.8633
   81TCq2    H4 1248   0.452   1.843  12.362  0.4519 -0.6246  0.3267
   82MPD2     C 1249   3.614   1.768  10.530  0.6325 -0.6095 -0.9013
   82MPD2    C1 1250   3.553   1.654  10.579  0.0255 -0.1746 -0.3103
   82MPD2    C2 1251   3.593   1.599  10.704  0.0890  0.1247 -0.2637
   82MPD2    C3 1252   3.685   1.664  10.775  0.3319 -0.0653 -0.2677
   82MPD2    C4 1253   3.731   1.788  10.738  0.1416 -0.4087  1.0028
   82MPD2    C5 1254   3.710   1.826  10.606  1.1718 -0.6206  0.1233
   82MPD2     H 1255   3.548   1.511  10.749  1.5279 -1.1689 -1.3443
   82MPD2    H1 1256   3.802   1.841  10.800 -3.2035  3.4114  1.6238
   82MPD2    H2 1257   3.574   1.810  10.438 -1.3342  2.0177  1.1536
   82MPD2    H3 1258   3.738   1.927  10.580 -0.8579  0.1255  0.8744
   82MPD2     N 1259   3.732   1.640  10.906 -0.1239 -0.6164  0.1480
   82MPD2    H5 1260   3.817   1.683  10.939  0.4947 -2.8636  1.5038
   82MPD2    N1 1261   3.444   1.600  10.502  0.0017 -0.0940  0.2672
   82MPD2    H7 1262   3.408   1.652  10.423 -0.1488 -0.4133  0.1249
   83TCq2    C1 1263   3.690   1.537  10.985  0.6519  0.4193 -0.0700
   83TCq2    O2 1264   3.603   1.447  10.968  0.4798  0.0258 -0.4930
   83TCq2    C2 1265   3.747   1.547  11.118  0.5431 -0.6880 -0.7857
   83TCq2    C3 1266   3.795   1.665  11.174  0.0564  0.1923 -0.1461
   83TCq2    C4 1267   3.880   1.664  11.280  0.4994 -0.6444 -0.3902
   83TCq2    C5 1268   3.914   1.543  11.334 -0.2338  0.3658  0.1294
   83TCq2    C6 1269   3.866   1.432  11.286 -0.4535  0.0532 -0.5990
   83TCq2    C7 1270   3.774   1.425  11.184  0.4976 -0.1295  0.5481
   83TCq2    C8 1271   3.940   1.310  11.315 -0.3523 -0.4565 -0.6668
   83TCq2    O4 1272   4.057   1.325  11.346  0.0730  0.3082 -0.0026
   83TCq2    C9 1273   3.937   1.790  11.323  0.3622 -0.2876  0.6517
   83TCq2    O5 1274   3.934   1.884  11.235  0.6528 -0.7155 -0.0548
   83TCq2    O6 1275   4.024   1.774  11.410  0.1705  0.2749  0.0529
   83TCq2    H2 1276   3.760   1.760  11.133 -1.1135 -0.8118 -1.4926
   83TCq2    H3 1277   3.983   1.535  11.418  2.6032  1.5685 -2.0670
   83TCq2    H4 1278   3.754   1.331  11.134 -0.3471  0.2748  0.1369
   84TCq2    C1 1279   0.203   0.288  10.828 -0.0756 -0.4369 -0.4208
   84TCq2    O2 1280   0.145   0.247  10.934  0.1372  0.3462 -0.8305
   84TCq2    C2 1281   0.313   0.384  10.840  0.2617 -0.3034  0.3711
   84TCq2    C3 1282   0.416   0.387  10.742  0.1420  0.1387 -0.2610
   84TCq2    C4 1283   0.524   0.473  10.765 -0.0303 -0.3429  0.3562
   84TCq2    C5 1284   0.522   0.557  10.868 -0.1487 -0.0705  0.5268
   84TCq2    C6 1285   0.424   0.539  10.962 -0.2083  0.2697  0.0236
   84TCq2    C7 1286   0.316   0.461  10.948  0.2447  0.3005  0.3032
   84TCq2    C8 1287   0.438   0.602  11.090 -0.1689 -0.1013  0.2183
   84TCq2    O4 1288   0.367   0.558  11.176  0.2332  0.5658  0.6193
   84TCq2    C9 1289   0.639   0.472  10.677 -0.3750  0.6520 -0.2710
   84TCq2    O5 1290   0.624   0.411  10.571 -0.3332  0.9131 -0.2185
   84TCq2    O6 1291   0.737   0.545  10.710 -0.0962 -0.1326 -0.4473
   84TCq2    H2 1292   0.412   0.317  10.659 -1.4359 -0.1562  0.0750
   84TCq2    H3 1293   0.612   0.616  10.881 -0.7162  0.7226  0.8770
   84TCq2    H4 1294   0.237   0.455  11.023  0.3019 -0.7167  0.2805
   85MPD2     C 1295   4.560   3.368  16.126 -0.1751 -1.1598 -0.3929
   85MPD2    C1 1296   4.601   3.286  16.028 -0.0115 -0.0523 -0.3100
   85MPD2    C2 1297   4.677   3.334  15.925 -0.0459  0.5430 -0.2961
   85MPD2    C3 1298   4.707   3.466  15.919 -0.1807 -0.4625  0.0528
   85MPD2    C4 1299   4.656   3.545  16.020  0.0720 -0.1206  0.2193
   85MPD2    C5 1300   4.587   3.503  16.126 -0.4720 -0.4255  0.1059
   85MPD2     H 1301   0.002   3.271  15.852 -0.7552  0.3344 -0.6016
   85MPD2    H1 1302   4.685   3.649  16.023 -2.6925  0.6163  1.2518
   85MPD2    H2 1303   4.505   3.335  16.214  1.2623 -2.1899  0.1289
   85MPD2    H3 1304   4.556   3.571  16.205 -0.9512 -0.4396 -0.0675
   85MPD2     N 1305   0.051   3.519  15.810  0.3727  0.3517  0.1657
   85MPD2    H5 1306   0.072   3.450  15.739 -1.9250 -0.5841  0.3922
   85MPD2    N1 1307   4.578   3.145  16.034  0.0065  0.6477 -0.1278
   85MPD2    H7 1308   4.626   3.091  15.963 -2.9631  0.2431 -1.8660
   86TCq2    C1 1309   0.082   3.651  15.786  0.3561  1.2582  0.5886
   86TCq2    O2 1310   0.116   3.739  15.866  0.5274  0.0382 -0.0088
   86TCq2    C2 1311   0.151   3.651  15.653 -0.1054  1.1233 -0.0236
   86TCq2    C3 1312   0.102   3.575  15.548  0.7405  0.1970  0.0046
   86TCq2    C4 1313   0.173   3.568  15.433 -0.1683 -0.5425  0.2051
   86TCq2    C5 1314   0.289   3.633  15.418  0.0067 -0.2377 -0.5147
   86TCq2    C6 1315   0.337   3.702  15.525  0.7085  0.5527 -0.1418
   86TCq2    C7 1316   0.269   3.720  15.641  0.3235  0.6470  0.6546
   86TCq2    C8 1317   0.479   3.727  15.533  0.2301  0.3273 -0.9043
   86TCq2    O4 1318   0.522   3.797  15.625  0.1014  0.3125  0.4990
   86TCq2    C9 1319   0.119   3.502  15.316  0.2354  0.5034 -0.3133
   86TCq2    O5 1320   0.190   3.496  15.209 -0.2605 -0.3124  0.2782
   86TCq2    O6 1321   0.012   3.435  15.340 -0.2581  0.6219  0.3804
   86TCq2    H2 1322   0.004   3.528  15.554  0.3122  1.1335  0.3524
   86TCq2    H3 1323   0.343   3.635  15.324 -0.1729 -0.6320 -0.6241
   86TCq2    H4 1324   0.318   3.760  15.729 -0.1107  0.6504  0.8947
   87MPD2     C 1325   2.146   1.923   1.032 -0.3081 -0.8520  0.5087
   87MPD2    C1 1326   2.167   1.821   0.938 -0.7724 -0.8575 -0.8725
   87MPD2    C2 1327   2.084   1.821   0.825  0.1693  0.5166 -0.4032
   87MPD2    C3 1328   1.983   1.911   0.806  0.2927 -0.3032 -0.3110
   87MPD2    C4 1329   1.956   2.007   0.903  0.5413  0.7226 -0.1259
   87MPD2    C5 1330   2.035   2.007   1.015 -0.1260  0.2491 -0.4309
   87MPD2     H 1331   2.095   1.746   0.747 -0.4932 -0.4131  0.3917
   87MPD2    H1 1332   1.869   2.071   0.898 -0.4712 -0.2856  4.3732
   87MPD2    H2 1333   2.198   1.930   1.127 -0.6768 -0.2650  0.6622
   87MPD2    H3 1334   2.015   2.079   1.094  1.6093  3.0555 -2.5869
   87MPD2     N 1335   1.903   1.915   0.688  0.3787  0.2711  0.5249
   87MPD2    H5 1336   1.826   1.982   0.691 -2.9199 -3.4042 -0.8726
   87MPD2    N1 1337   2.279   1.740   0.967 -0.3710 -0.0518  0.0314
   87MPD2    H7 1338   2.313   1.741   1.063  0.0471  1.6426 -0.1409
   88TCq2    C1 1339   2.349   1.670   0.878  0.2251 -0.2543  0.4351
   88TCq2    O2 1340   2.328   1.645   0.760  0.0802 -0.0327  0.4892
   88TCq2    C2 1341   2.467   1.619   0.946 -0.4265  0.7874  0.6847
   88TCq2    C3 1342   2.512   1.682   1.056  0.3387  0.8567 -0.2087
   88TCq2    C4 1343   2.593   1.619   1.149  0.6012 -0.1372  0.0542
   88TCq2    C5 1344   2.647   1.495   1.117  0.5547 -0.2535  0.6742
   88TCq2    C6 1345   2.598   1.433   1.004 -0.9706 -0.2589 -0.0893
   88TCq2    C7 1346   2.514   1.492   0.913 -0.4413  0.2583  0.4612
   88TCq2    C8 1347   2.682   1.327   0.956  0.2869  0.0902 -1.0724
   88TCq2    O4 1348   2.695   1.315   0.836  0.0918  0.7122 -0.0988
   88TCq2    C9 1349   2.651   1.700   1.245 -0.3449 -0.1318  0.2380
   88TCq2    O5 1350   2.593   1.804   1.286  0.0430 -0.2974 -0.3494
   88TCq2    O6 1351   2.769   1.669   1.281 -0.2634 -0.5952 -0.1229
   88TCq2    H2 1352   2.491   1.787   1.075  2.8386  1.1934  0.6667
   88TCq2    H3 1353   2.730   1.464   1.179  0.7317 -0.8332  0.1573
   88TCq2    H4 1354   2.464   1.433   0.838  2.8055 -0.1041 -1.4161
   89MPD2     C 1355   4.358   4.347   1.705 -0.2949  0.3511  0.3559
   89MPD2    C1 1356   4.252   4.378   1.781 -0.1467  0.2299 -0.2927
   89MPD2    C2 1357   4.233   4.507   1.821 -0.0620  0.1112  0.5094
   89MPD2    C3 1358   4.312   4.614   1.778  0.3210 -0.0073 -0.0295
   89MPD2    C4 1359   4.416   4.580   1.696  0.1802  0.3741 -0.4885
   89MPD2    C5 1360   4.439   4.451   1.665 -0.1136  0.0201  0.1540
   89MPD2     H 1361   4.148   4.530   1.885 -0.6926 -0.7633 -0.0093
   89MPD2    H1 1362   4.483   4.653   1.652 -2.9154  3.7625  0.3700
   89MPD2    H2 1363   4.380   4.251   1.660 -1.2416 -0.7422  2.2527
   89MPD2    H3 1364   4.517   4.440   1.591  0.2975  0.0509  0.5848
   89MPD2     N 1365   4.273   0.025   1.817 -0.1024  0.1340 -0.3852
   89MPD2    H5 1366   4.186   0.038   1.868  1.3540  0.0726  2.1120
   89MPD2    N1 1367   4.162   4.275   1.812  0.6064  0.4743 -0.3632
   89MPD2    H7 1368   4.087   4.301   1.875  0.1253 -0.7678 -0.4224
   90TCq2    C1 1369   4.328   0.136   1.761  0.2929  0.5222  0.6660
   90TCq2    O2 1370   4.398   0.149   1.660  0.5203 -0.4381  0.2830
   90TCq2    C2 1371   4.269   0.262   1.817  0.5085  0.2479  0.0696
   90TCq2    C3 1372   4.202   0.245   1.939  0.1025  0.7808  0.1518
   90TCq2    C4 1373   4.142   0.359   1.977  1.1482  0.4787 -0.3996
   90TCq2    C5 1374   4.117   0.472   1.900  0.2451 -0.3735  0.4712
   90TCq2    C6 1375   4.168   0.470   1.777  0.0562 -0.2203 -0.2484
   90TCq2    C7 1376   4.256   0.370   1.735 -0.5249 -0.6321 -0.0591
   90TCq2    C8 1377   4.132   0.580   1.691  0.3906 -0.2432 -0.2310
   90TCq2    O4 1378   4.048   0.654   1.733 -0.4697  0.3886 -0.6674
   90TCq2    C9 1379   4.115   0.378   2.123  0.1049  0.2417 -0.5510
   90TCq2    O5 1380   4.134   0.493   2.165  0.0462 -0.2611 -0.5530
   90TCq2    O6 1381   4.132   0.277   2.195 -0.1502 -0.3343  0.2505
   90TCq2    H2 1382   4.220   0.163   2.007 -0.0928 -0.5459 -1.4038
   90TCq2    H3 1383   4.057   0.546   1.952 -2.5243 -3.1034  1.1441
   90TCq2    H4 1384   4.283   0.367   1.630 -1.0326 -0.8488 -0.1872
   91TMC2    C1 1385   0.489   4.237  16.395  0.0170 -0.7011  0.4334
   91TMC2    C2 1386   0.537   4.339  16.471  0.3842 -0.1395 -0.1178
   91TMC2    C3 1387   0.442   4.428  16.517  0.5944  0.6077  0.0100
   91TMC2    C4 1388   0.360   4.236  16.345 -0.8201  0.0347  0.3024
   91TMC2    C5 1389   0.273   4.338  16.391 -0.3856  0.2301  0.9843
   91TMC2    C6 1390   0.312   4.422  16.486 -0.1411 -0.4061 -0.1855
   91TMC2     C 1391   0.565   4.115  16.389  0.2887 -0.6504 -0.3261
   91TMC2     O 1392   0.500   4.011  16.394 -0.0813 -0.1666 -0.2778
   91TMC2     H 1393   0.642   4.347  16.497  0.4338 -0.9679 -0.0708
   91TMC2    H1 1394   0.333   4.181  16.256 -3.0985  0.8346  0.5136
   91TMC2    H2 1395   0.242   4.489  16.534  0.1076 -0.2257 -0.0718
   91TMC2    C7 1396   0.135   4.322  16.368  0.2010 -0.2854 -0.3461
   91TMC2    C8 1397   0.485   4.544  16.589 -1.0957  0.0117 -0.3880
   91TMC2    O1 1398   0.064   4.338  16.468 -0.3192  0.8292 -0.0024
   91TMC2    O2 1399   0.423   4.595  16.681 -0.0185 -0.6204  0.1170
   91TMC2    O5 1400   0.612   4.587  16.556  0.2864  0.4715  0.1955
   91TMC2    H5 1401   0.662   4.555  16.477 -0.0717 -0.5995  0.4105
   92MPD2     C 1402   0.786   3.905  16.412  0.6611  0.6670 -0.2621
   92MPD2    C1 1403   0.804   4.043  16.411  0.2606 -0.7327 -0.4055
   92MPD2    C2 1404   0.935   4.094  16.415  0.1887  0.0387  0.1273
   92MPD2    C3 1405   1.042   4.009  16.419 -0.4214 -0.3063  0.4259
   92MPD2    C4 1406   1.023   3.869  16.423 -0.3278 -0.0257  0.1154
   92MPD2    C5 1407   0.896   3.821  16.417  0.1651 -0.2355 -0.3812
   92MPD2     H 1408   0.958   4.200  16.410  3.0993 -0.5753  0.2913
   92MPD2    H1 1409   1.105   3.799  16.413 -0.7404 -0.7413  1.8283
   92MPD2    H2 1410   0.690   3.856  16.410 -0.0603  2.0419  0.6466
   92MPD2    H3 1411   0.875   3.715  16.429 -1.9909  0.0317 -1.8671
   92MPD2     N 1412   1.161   4.073  16.411 -0.1147  0.1322 -0.4664
   92MPD2    H5 1413   1.157   4.174  16.415  0.3864  0.1675 -0.7928
   92MPD2    N1 1414   0.699   4.138  16.402 -0.0967  0.0360  0.6973
   92MPD2    H7 1415   0.740   4.231  16.399 -0.0635  0.0282  0.9159
   93MPD2     C 1416   2.537   3.841  13.803  0.5273  0.2226 -1.0016
   93MPD2    C1 1417   2.526   3.975  13.831  0.2595 -0.0043 -0.8890
   93MPD2    C2 1418   2.404   4.033  13.817  0.1465 -0.0436  0.1564
   93MPD2    C3 1419   2.295   3.963  13.780 -0.7498  0.2371  0.2832
   93MPD2    C4 1420   2.302   3.825  13.757 -0.0349 -0.2979  0.3828
   93MPD2    C5 1421   2.423   3.764  13.771  0.0915  0.1927 -0.3691
   93MPD2     H 1422   2.393   4.138  13.842  1.4924  0.1830 -0.1570
   93MPD2    H1 1423   2.217   3.764  13.729 -1.3164  1.2214  0.9485
   93MPD2    H2 1424   2.627   3.781  13.811 -0.2073 -1.0348 -2.0304
   93MPD2    H3 1425   2.426   3.658  13.750  1.2183 -0.3145  2.3963
   93MPD2     N 1426   2.179   4.036  13.770 -0.2244  0.5202  0.2422
   93MPD2    H5 1427   2.183   4.125  13.818  0.0713  0.8440 -0.3811
   93MPD2    N1 1428   2.636   4.060  13.871 -0.3572  0.0671  0.6442
   93MPD2    H7 1429   2.618   4.158  13.889 -0.6413 -0.2927  2.3542
   94TCq2    C1 1430   2.768   4.030  13.892  0.3289  0.2458  0.9019
   94TCq2    O2 1431   2.838   3.936  13.856 -0.5128 -0.0899  0.3110
   94TCq2    C2 1432   2.837   4.144  13.954  0.5205 -0.3848 -0.5035
   94TCq2    C3 1433   2.765   4.245  14.022 -0.2503  0.4058 -0.9165
   94TCq2    C4 1434   2.840   4.349  14.069  0.4206  0.1734  0.3379
   94TCq2    C5 1435   2.978   4.361  14.043  0.0183  0.0151  0.0305
   94TCq2    C6 1436   3.036   4.259  13.981  0.4573  0.4018 -0.1459
   94TCq2    C7 1437   2.975   4.146  13.934 -0.1331 -0.1730  0.3846
   94TCq2    C8 1438   3.177   4.267  13.953  0.0525 -0.5246  0.2445
   94TCq2    O4 1439   3.236   4.163  13.954 -0.2006  0.5504 -0.3835
   94TCq2    C9 1440   2.771   4.449  14.138  0.3257 -0.1203 -0.3558
   94TCq2    O5 1441   2.846   4.532  14.197  0.0116  0.5225  0.2228
   94TCq2    O6 1442   2.646   4.448  14.147 -0.1574  0.5403  0.4237
   94TCq2    H2 1443   2.660   4.233  14.043  0.3172 -1.5225  0.9114
   94TCq2    H3 1444   3.034   4.441  14.090  2.0674 -1.0164 -0.6553
   94TCq2    H4 1445   3.030   4.062  13.894  0.0724  0.3801 -0.4692
   95TMC2    C1 1446   2.614   0.829  16.431  0.2167 -0.0993  0.4736
   95TMC2    C2 1447   2.572   0.718  16.499  0.4193  0.0800  0.1191
   95TMC2    C3 1448   2.461   0.740  16.574  0.5094 -0.2386 -0.0858
   95TMC2    C4 1449   2.548   0.951  16.430 -0.3008 -0.2430 -0.7029
   95TMC2    C5 1450   2.434   0.959  16.509 -0.1574  0.7990 -0.4169
   95TMC2    C6 1451   2.386   0.854  16.581  0.3190 -0.5660 -0.6170
   95TMC2     C 1452   2.737   0.809  16.352 -0.6061 -0.2910 -0.6596
   95TMC2     O 1453   2.814   0.717  16.369  0.2695 -0.1065 -0.2490
   95TMC2     H 1454   2.625   0.624  16.492  0.8029  0.1394  2.1145
   95TMC2    H1 1455   2.600   1.042  16.403  2.1526 -0.8552  2.0460
   95TMC2    H2 1456   2.291   0.853  16.633 -0.1320 -0.8162 -1.4567
   95TMC2    C7 1457   2.365   1.085  16.512  0.3918  0.5319  0.8441
   95TMC2    C8 1458   2.403   0.623  16.636 -0.7625 -0.1281  0.3855
   95TMC2    O1 1459   2.367   1.148  16.408 -0.2513 -0.0764 -0.1918
   95TMC2    O2 1460   2.326   0.633  16.728 -0.0146 -0.3233  0.3395
   95TMC2    O5 1461   2.444   0.508  16.575  0.0474 -0.4184 -0.1177
   95TMC2    H5 1462   2.460   0.518  16.478  0.2614  0.6678  0.0283
   96MPD2     C 1463   3.019   0.932  15.938 -0.3093  0.8822  0.5051
   96MPD2    C1 1464   2.930   1.032  15.967  0.0781  0.2308  0.3744
   96MPD2    C2 1465   2.847   1.020  16.072 -0.2550 -0.1554  0.3691
   96MPD2    C3 1466   2.845   0.905  16.148 -0.0307 -0.3417  0.5499
   96MPD2    C4 1467   2.930   0.803  16.121 -0.4084  0.0139 -0.4093
   96MPD2    C5 1468   3.016   0.816  16.015  0.1548  0.0267  0.0279
   96MPD2     H 1469   2.773   1.096  16.094  1.2375  1.4639 -0.1730
   96MPD2    H1 1470   2.941   0.714  16.181 -0.3746  0.2765 -0.0261
   96MPD2    H2 1471   3.082   0.939  15.850 -0.4597 -0.8292  0.2544
   96MPD2    H3 1472   3.091   0.742  15.987 -0.4578  0.2963 -2.3328
   96MPD2     N 1473   2.751   0.905  16.255 -0.3993 -1.0202  0.4158
   96MPD2    H5 1474   2.673   0.970  16.245  1.4284  1.2505  0.9694
   96MPD2    N1 1475   2.937   1.143  15.883  0.3966  0.3842  0.1722
   96MPD2    H7 1476   3.005   1.142  15.808 -0.1951 -3.1076 -0.3263
   97MPD2     C 1477   4.044   3.153   0.603 -0.4777  0.2405  0.2646
   97MPD2    C1 1478   4.142   3.249   0.631  0.7182 -0.2537 -0.1858
   97MPD2    C2 1479   4.246   3.269   0.549  0.6824  0.7385  0.4663
   97MPD2    C3 1480   4.268   3.181   0.448  0.2724  0.7516  0.6985
   97MPD2    C4 1481   4.180   3.074   0.424  0.7926 -0.6265 -0.0042
   97MPD2    C5 1482   4.068   3.064   0.508  0.4006 -0.4502  0.0984
   97MPD2     H 1483   4.322   3.344   0.567  1.9696 -0.7287  1.1936
   97MPD2    H1 1484   4.186   3.014   0.334  1.9671  0.2262 -0.5026
   97MPD2    H2 1485   3.960   3.137   0.669  0.0830 -0.0850  0.8934
   97MPD2    H3 1486   3.991   2.991   0.486 -0.5664  0.0515  1.8307
   97MPD2     N 1487   4.372   3.192   0.355  0.0552 -0.1720 -0.3371
   97MPD2    H5 1488   4.381   3.117   0.288 -0.8988  0.0309 -0.6861
   97MPD2    N1 1489   4.119   3.323   0.743  0.2565  0.7489 -0.3227
   97MPD2    H7 1490   4.040   3.302   0.804  2.2250  0.8658  2.2329
   98TCq2    C1 1491   4.458   3.298   0.343 -0.1370  0.8334  0.0617
   98TCq2    O2 1492   4.451   3.406   0.399 -0.1842  0.8172 -0.2453
   98TCq2    C2 1493   4.572   3.265   0.270 -0.3338 -0.3565  0.5043
   98TCq2    C3 1494   4.613   3.134   0.255 -0.0146 -0.1605  0.2495
   98TCq2    C4 1495   0.018   3.118   0.220 -0.4302  0.4135  0.0738
   98TCq2    C5 1496   0.101   3.220   0.183  0.2563  0.2348 -0.3544
   98TCq2    C6 1497   0.057   3.349   0.187 -0.1775 -0.4281 -0.1730
   98TCq2    C7 1498   4.654   3.374   0.244 -0.5851 -0.3766 -0.0009
   98TCq2    C8 1499   0.158   3.460   0.200 -0.4363  0.0203  0.7681
   98TCq2    O4 1500   0.136   3.547   0.284  0.0902 -0.9515 -0.1879
   98TCq2    C9 1501   0.073   2.984   0.245 -0.7157  0.0034  0.2697
   98TCq2    O5 1502   4.716   2.905   0.294  0.2314  0.1149 -0.6372
   98TCq2    O6 1503   0.199   2.966   0.220 -0.3423  0.4438 -0.0099
   98TCq2    H2 1504   4.550   3.051   0.286  1.6856 -1.4909  0.1486
   98TCq2    H3 1505   0.207   3.205   0.166 -0.2798 -4.0145  0.1008
   98TCq2    H4 1506   4.624   3.476   0.263 -0.5671 -0.6433  1.4121
   99MPD2     C 1507   2.846   1.346   1.899  0.6325  0.2557  0.4825
   99MPD2    C1 1508   2.767   1.262   1.820  0.3070 -0.2442  0.3492
   99MPD2    C2 1509   2.830   1.174   1.731 -0.4736  0.1489 -0.5892
   99MPD2    C3 1510   2.968   1.168   1.714  0.5830 -0.1130  0.5280
   99MPD2    C4 1511   3.048   1.251   1.793 -0.1660 -0.3670  0.0621
   99MPD2    C5 1512   2.980   1.337   1.881 -0.9614  0.3207 -0.0942
   99MPD2     H 1513   2.764   1.106   1.679 -0.5065  1.2557 -1.9785
   99MPD2    H1 1514   3.155   1.250   1.777 -0.0380 -1.3971  0.9574
   99MPD2    H2 1515   2.809   1.406   1.981 -2.3059 -1.5601  0.4760
   99MPD2    H3 1516   3.033   1.400   1.951 -0.5854 -1.1540  0.9413
   99MPD2     N 1517   3.021   1.086   1.612  0.0728  0.2293 -0.8192
   99MPD2    H5 1518   2.956   1.028   1.561 -1.4563  1.3526 -0.1661
   99MPD2    N1 1519   2.635   1.230   1.869 -0.2057 -0.0720  0.6016
   99MPD2    H7 1520   2.589   1.155   1.819  1.8083 -1.5718  1.0490
  100TCq2    C1 1521   2.560   1.293   1.970  0.3520 -0.1196 -0.0575
  100TCq2    O2 1522   2.598   1.369   2.058  0.1958 -0.0969 -0.0752
  100TCq2    C2 1523   2.438   1.219   1.991 -0.1480 -0.4458  0.2491
  100TCq2    C3 1524   2.455   1.120   2.082 -0.0029 -0.0485  0.1872
  100TCq2    C4 1525   2.377   1.010   2.094  0.6343 -0.0783  0.1216
  100TCq2    C5 1526   2.285   0.981   1.999  0.4968 -0.3054  0.1939
  100TCq2    C6 1527   2.272   1.074   1.897  0.3874  0.4931 -0.6966
  100TCq2    C7 1528   2.342   1.193   1.890  0.1603  0.1157  1.0176
  100TCq2    C8 1529   2.157   1.065   1.810  0.1019 -0.4208 -0.0860
  100TCq2    O4 1530   2.115   1.171   1.768 -0.2949 -0.2731 -0.6862
  100TCq2    C9 1531   2.393   0.929   2.207 -0.0474 -0.0839 -0.3107
  100TCq2    O5 1532   2.482   0.955   2.294 -0.4554  0.4746  0.1585
  100TCq2    O6 1533   2.310   0.838   2.221 -0.8226 -0.3391  0.3780
  100TCq2    H2 1534   2.528   1.130   2.162  0.3947 -1.4463 -0.0037
  100TCq2    H3 1535   2.219   0.898   2.021 -0.0720 -0.3424 -1.6828
  100TCq2    H4 1536   2.324   1.259   1.806  2.3915 -2.5422 -1.5563
  101MPD2     C 1537   4.172   1.373  13.188  0.4385  0.4138  0.0638
  101MPD2    C1 1538   4.086   1.441  13.267  0.3028 -0.2213 -0.9893
  101MPD2    C2 1539   3.988   1.374  13.337 -0.0541 -0.0369 -0.8938
  101MPD2    C3 1540   3.969   1.243  13.312  0.2565  0.0917  0.0639
  101MPD2    C4 1541   4.048   1.170  13.223 -0.6537 -0.5885  0.3210
  101MPD2    C5 1542   4.148   1.240  13.160 -0.9757  0.1323 -0.8290
  101MPD2     H 1543   3.915   1.421  13.401  0.5305 -1.6057  0.9215
  101MPD2    H1 1544   4.036   1.065  13.196 -0.6423 -0.2504 -1.0106
  101MPD2    H2 1545   4.252   1.419  13.133  1.3075 -0.7446  0.3474
  101MPD2    H3 1546   4.212   1.182  13.093 -2.6358 -1.9131 -0.6641
  101MPD2     N 1547   3.857   1.181  13.374 -0.0776  0.7490  0.2410
  101MPD2    H5 1548   3.814   1.242  13.444 -0.6946  0.3512  0.2127
  101MPD2    N1 1549   4.100   1.580  13.269  0.0532  0.2649 -0.1623
  101MPD2    H7 1550   4.149   1.619  13.189  0.7021 -0.3730 -0.0811
  102TCq2    C1 1551   4.146   1.959  12.974  0.8592 -0.0085  0.2606
  102TCq2    O2 1552   4.249   1.895  12.962  0.0345  0.3279  0.3962
  102TCq2    C2 1553   4.069   1.943  13.099  0.5212  1.0226 -0.5251
  102TCq2    C3 1554   3.953   2.005  13.110 -0.2975 -0.2644 -0.5947
  102TCq2    C4 1555   3.876   1.967  13.217  1.1566  0.6116  0.0799
  102TCq2    C5 1556   3.905   1.863  13.295  0.5215 -0.1034 -0.4402
  102TCq2    C6 1557   4.026   1.796  13.286  0.2427 -0.3009 -0.3733
  102TCq2    C7 1558   4.109   1.834  13.180 -0.3807 -0.3732  0.4349
  102TCq2    C8 1559   4.034   1.670  13.357  0.3801 -0.0118  0.0977
  102TCq2    O4 1560   3.966   1.639  13.459  0.2404  0.6866  0.1188
  102TCq2    C9 1561   3.755   2.038  13.236 -0.2305  0.3660 -0.3533
  102TCq2    O5 1562   3.664   1.955  13.273 -0.4142  0.7023  0.6306
  102TCq2    O6 1563   3.740   2.149  13.177 -0.4331 -0.2005  0.0045
  102TCq2    H2 1564   3.920   2.090  13.051 -2.1625 -1.1235 -0.7835
  102TCq2    H3 1565   3.837   1.844  13.377  0.1242 -2.8406 -1.3948
  102TCq2    H4 1566   4.208   1.793  13.170 -0.0065  0.4516  0.7959
  103TMC2    C1 1567   1.981   2.028  12.479 -0.2537 -0.3121 -0.7525
  103TMC2    C2 1568   1.944   2.156  12.437  0.6188  0.0896  0.2516
  103TMC2    C3 1569   1.967   2.253  12.528  0.3926 -0.0613  0.7001
  103TMC2    C4 1570   2.054   2.016  12.595  0.2991  0.2100 -0.6200
  103TMC2    C5 1571   2.072   2.117  12.688 -0.3105  0.5141 -0.5592
  103TMC2    C6 1572   2.031   2.237  12.654 -0.9069  0.1974 -0.3833
  103TMC2     C 1573   2.019   1.951  12.369  0.1404 -0.0518  0.5593
  103TMC2     O 1574   1.928   1.924  12.290 -0.0606  0.5226 -0.4515
  103TMC2     H 1575   1.890   2.175  12.345  1.5595  0.5871 -0.1882
  103TMC2    H1 1576   2.089   1.917  12.623 -0.5927  0.6475  2.0443
  103TMC2    H2 1577   2.023   2.316  12.729  1.3166 -0.5614  0.6602
  103TMC2    C7 1578   2.144   2.095  12.805 -0.2913 -0.1287 -0.3615
  103TMC2    C8 1579   1.951   2.387  12.487  0.0057 -0.0757  0.0650
  103TMC2    O1 1580   2.135   1.989  12.861 -0.0855 -0.2568 -0.0111
  103TMC2    O2 1581   1.856   2.434  12.422  0.1073 -0.0068  0.2881
  103TMC2    O5 1582   2.060   2.449  12.542 -0.2603  0.2342 -0.4544
  103TMC2    H5 1583   2.134   2.388  12.564  1.4787  2.3756 -0.3750
  104MPD2     C 1584   2.349   1.799  12.307  0.5221 -0.7371  0.0438
  104MPD2    C1 1585   2.216   1.814  12.298 -0.2021  0.0002  0.4033
  104MPD2    C2 1586   2.146   1.720  12.231 -0.2019 -0.0046 -0.5115
  104MPD2    C3 1587   2.211   1.604  12.184  0.1911 -0.0324  0.4232
  104MPD2    C4 1588   2.347   1.588  12.195  0.8724  0.7058 -0.1373
  104MPD2    C5 1589   2.413   1.691  12.256 -0.2147 -0.1206 -0.0807
  104MPD2     H 1590   2.038   1.727  12.223 -0.0986  1.5925 -0.5778
  104MPD2    H1 1591   2.410   1.506  12.161  0.6427  0.7226 -0.6146
  104MPD2    H2 1592   2.412   1.874  12.352 -0.7070  0.0046  0.5165
  104MPD2    H3 1593   2.520   1.684  12.274 -0.8578 -3.1036  2.6402
  104MPD2     N 1594   2.131   1.520  12.101 -0.1757 -0.6049 -0.1626
  104MPD2    H5 1595   2.049   1.571  12.069 -1.3752 -1.2448  1.8568
  104MPD2    N1 1596   2.157   1.916  12.373  0.9032 -0.1034 -0.6443
  104MPD2    H7 1597   2.215   1.963  12.441  1.7892 -3.9675  1.2797
  105MPD2     C 1598   3.918   1.124   0.039  0.4283 -0.3702 -0.0717
  105MPD2    C1 1599   3.798   1.175  17.690  0.1936 -0.7685 -0.3499
  105MPD2    C2 1600   3.681   1.173   0.060  0.2501 -0.6535  0.2823
  105MPD2    C3 1601   3.679   1.124   0.190 -0.4189  0.6432  0.4795
  105MPD2    C4 1602   3.803   1.081   0.240 -0.1046  0.1841 -0.7476
  105MPD2    C5 1603   3.920   1.082   0.167  1.0523 -0.0764  0.1839
  105MPD2     H 1604   3.590   1.220   0.022  0.5112  1.3155  2.1071
  105MPD2    H1 1605   3.800   1.050   0.344  0.8936  0.3175 -0.6759
  105MPD2    H2 1606   4.011   1.145  17.689  1.1168  0.0849  1.3403
  105MPD2    H3 1607   4.013   1.073   0.223  0.4579  1.7270  1.4413
  105MPD2     N 1608   3.561   1.122   0.254  0.1255 -0.0043  0.1164
  105MPD2    H5 1609   3.491   1.183   0.212  0.5926 -0.0788 -0.7716
  105MPD2    N1 1610   3.789   1.212  17.554  0.5079 -0.5548  0.3011
  105MPD2    H7 1611   3.703   1.253  17.519  1.7860  0.6415 -1.4361
  106TCq2    C1 1612   3.535   1.050   0.373 -0.1924 -0.7124  0.2876
  106TCq2    O2 1613   3.597   0.981   0.453 -0.2819  0.1906 -0.2635
  106TCq2    C2 1614   3.397   1.065   0.408 -0.1405 -0.6327 -0.5164
  106TCq2    C3 1615   3.315   1.140   0.335  0.4584 -0.4319 -0.0819
  106TCq2    C4 1616   3.191   1.174   0.386 -0.3177 -1.0288  0.3242
  106TCq2    C5 1617   3.147   1.137   0.510  0.4752  0.1562 -0.3052
  106TCq2    C6 1618   3.240   1.059   0.586  0.0873 -0.1028 -0.3599
  106TCq2    C7 1619   3.357   1.013   0.531 -0.0092 -0.0341 -0.8353
  106TCq2    C8 1620   3.205   1.020   0.730 -0.6645 -0.2333 -0.1472
  106TCq2    O4 1621   3.281   0.942   0.792  0.1245 -0.6374 -0.4341
  106TCq2    C9 1622   3.100   1.237   0.290 -0.1683  0.1435 -0.0080
  106TCq2    O5 1623   3.158   1.291   0.193 -0.1548  0.2203  0.7288
  106TCq2    O6 1624   2.980   1.254   0.327 -0.2402 -0.0001 -0.2669
  106TCq2    H2 1625   3.340   1.174   0.235  0.9118  1.5982  0.7074
  106TCq2    H3 1626   3.044   1.156   0.536 -0.2559 -0.9769 -2.4060
  106TCq2    H4 1627   3.423   0.940   0.577  0.8258  2.5059  1.9445
  107TMC2    C1 1628   0.468   0.678  11.929  0.3696  0.5070 -0.3109
  107TMC2    C2 1629   0.564   0.663  12.027  0.5198  0.2611  0.3147
  107TMC2    C3 1630   0.693   0.711  11.993 -0.3320 -0.0272 -0.3148
  107TMC2    C4 1631   0.500   0.727  11.799 -0.5827  0.8881 -0.0999
  107TMC2    C5 1632   0.624   0.782  11.777  0.0068 -0.1358 -0.1163
  107TMC2    C6 1633   0.721   0.786  11.877  0.3983 -0.3302  0.3451
  107TMC2     C 1634   0.337   0.642  11.969  0.8330  0.9875  0.4972
  107TMC2     O 1635   0.312   0.627  12.086 -0.2061  0.0524 -0.0316
  107TMC2     H 1636   0.550   0.600  12.114  0.1710 -1.3081 -0.9014
  107TMC2    H1 1637   0.417   0.741  11.731  0.1338  0.1115 -1.1208
  107TMC2    H2 1638   0.816   0.836  11.864  0.1093  0.1929  0.2692
  107TMC2    C7 1639   0.624   0.876  11.665 -0.6734 -0.1394 -0.1230
  107TMC2    C8 1640   0.795   0.684  12.091 -0.0767  0.3241  0.1027
  107TMC2    O1 1641   0.692   0.977  11.676 -0.3235  0.3013 -0.3008
  107TMC2    O2 1642   0.789   0.602  12.174  1.4306 -0.1024 -0.1100
  107TMC2    O5 1643   0.852   0.803  12.116 -0.2507 -0.1951  0.2750
  107TMC2    H5 1644   0.838   0.872  12.048 -0.4848 -1.2480 -0.7317
  108MPD2     C 1645   0.048   0.651  11.749 -0.3027 -0.3647  0.4694
  108MPD2    C1 1646   0.113   0.645  11.870  0.0595 -1.1203  0.5171
  108MPD2    C2 1647   0.037   0.649  11.986 -0.0680 -0.6037  0.0424
  108MPD2    C3 1648   4.623   0.655  11.981  0.0622  0.5449 -0.4437
  108MPD2    C4 1649   4.565   0.665  11.858  0.4494  0.1887 -0.0238
  108MPD2    C5 1650   4.640   0.674  11.748 -0.0312 -0.7838 -0.1407
  108MPD2     H 1651   0.083   0.638  12.084 -0.9147 -1.9270  0.3023
  108MPD2    H1 1652   4.457   0.669  11.845  0.3749 -0.7421  0.2801
  108MPD2    H2 1653   0.090   0.638  11.650 -0.7119 -2.7283  0.6041
  108MPD2    H3 1654   4.594   0.690  11.652  1.1860  1.6773 -0.3202
  108MPD2     N 1655   4.540   0.647  12.098 -0.2729  0.1287 -0.6134
  108MPD2    H5 1656   4.439   0.658  12.089 -0.5449 -0.7911  1.2487
  108MPD2    N1 1657   0.255   0.641  11.863 -0.3602 -0.5396  0.2366
  108MPD2    H7 1658   0.298   0.636  11.771 -2.8491  0.5265 -0.9697
  109MPD2     C 1659   3.147   2.598   1.280 -0.0662  0.2503  0.1006
  109MPD2    C1 1660   3.285   2.597   1.252  0.8863  0.0342 -1.0104
  109MPD2    C2 1661   3.376   2.664   1.336  0.0618  0.4296 -0.0541
  109MPD2    C3 1662   3.333   2.724   1.454  0.2268  0.4483 -0.2316
  109MPD2    C4 1663   3.192   2.722   1.483 -1.5454  0.1824  0.8622
  109MPD2    C5 1664   3.103   2.661   1.400 -0.6343 -0.3129 -0.2051
  109MPD2     H 1665   3.483   2.662   1.318  0.0188 -0.0954 -0.2230
  109MPD2    H1 1666   3.147   2.768   1.570 -1.0494 -1.0141  1.7569
  109MPD2    H2 1667   3.071   2.555   1.216  0.0127 -0.2459  0.3444
  109MPD2    H3 1668   2.999   2.667   1.428 -0.2487  1.4506  0.8542
  109MPD2     N 1669   3.425   2.786   1.537  0.2581 -0.2210  0.0028
  109MPD2    H5 1670   3.518   2.785   1.498  1.5076  0.5032  3.0232
  109MPD2    N1 1671   3.313   2.531   1.131 -0.9986  0.7324  0.6296
  109MPD2    H7 1672   3.246   2.473   1.081  0.3122 -1.4624  1.3975
  110TCq2    C1 1673   3.410   2.835   1.663 -0.1905  0.5638  0.5340
  110TCq2    O2 1674   3.310   2.816   1.729 -0.6927  0.3419 -0.5549
  110TCq2    C2 1675   3.525   2.907   1.711  0.1498 -0.8389  0.2606
  110TCq2    C3 1676   3.508   2.945   1.842 -0.1484 -0.4341  0.1078
  110TCq2    C4 1677   3.603   3.016   1.913 -0.2545  0.5109 -0.1080
  110TCq2    C5 1678   3.710   3.064   1.846 -0.7353 -0.2084  0.2358
  110TCq2    C6 1679   3.721   3.038   1.708 -0.8421 -0.2019  0.5080
  110TCq2    C7 1680   3.638   2.944   1.646 -0.1919  0.0006  0.2641
  110TCq2    C8 1681   3.832   3.092   1.628  0.0853 -0.7438 -0.4486
  110TCq2    O4 1682   3.822   3.095   1.508 -0.9232 -0.2252 -0.5269
  110TCq2    C9 1683   3.599   3.029   2.058 -0.3515 -1.1133  0.3558
  110TCq2    O5 1684   3.684   3.111   2.109  0.9337 -0.4654 -0.3551
  110TCq2    O6 1685   3.500   2.982   2.118  0.2145  0.3021 -0.0205
  110TCq2    H2 1686   3.415   2.927   1.893 -0.3785 -1.4935 -0.6856
  110TCq2    H3 1687   3.784   3.123   1.899 -0.6165 -1.0272  0.9680
  110TCq2    H4 1688   3.659   2.907   1.546 -0.8088 -0.5718  0.3497
  111TMC2    C1 1689   4.687   2.687  11.581  0.0326 -0.3719 -0.1743
  111TMC2    C2 1690   0.080   2.660  11.528 -0.8060 -0.0588  0.0674
  111TMC2    C3 1691   0.180   2.628  11.613 -0.5776 -0.5352 -0.2733
  111TMC2    C4 1692   4.666   2.703  11.717  0.4950 -0.0744 -0.4030
  111TMC2    C5 1693   0.052   2.683  11.796  0.0708  0.1084  0.2386
  111TMC2    C6 1694   0.170   2.632  11.742  1.1030 -0.1522  0.2575
  111TMC2     C 1695   4.579   2.676  11.488 -0.0703 -0.0276  0.3180
  111TMC2     O 1696   4.596   2.690  11.366 -0.6153 -0.0897  0.3291
  111TMC2     H 1697   0.090   2.648  11.421 -3.0111 -2.6769  0.1646
  111TMC2    H1 1698   4.587   2.765  11.758 -0.1654 -1.6477  0.7185
  111TMC2    H2 1699   0.244   2.583  11.805 -0.9165 -2.0980  1.0932
  111TMC2    C7 1700   0.049   2.701  11.940 -1.1138  0.4720  0.2435
  111TMC2    C8 1701   0.299   2.560  11.566  0.1558  0.5472  0.3744
  111TMC2    O1 1702   4.673   2.666  12.001  0.4538  0.2711 -0.2911
  111TMC2    O2 1703   0.367   2.488  11.632 -0.4693  0.1307 -0.4854
  111TMC2    O5 1704   0.361   2.659  11.491 -0.0086  0.0791  0.5307
  111TMC2    H5 1705   0.297   2.731  11.473 -1.3299 -1.0546  0.6128
  112MPD2     C 1706   4.081   2.712  11.410  0.3407 -0.9481 -0.3942
  112MPD2    C1 1707   4.180   2.765  11.337  0.2557  1.2937 -0.5062
  112MPD2    C2 1708   4.307   2.751  11.380 -1.0619  0.2952 -0.3448
  112MPD2    C3 1709   4.334   2.686  11.502 -0.4417  0.2427 -0.3980
  112MPD2    C4 1710   4.230   2.650  11.586 -0.1359 -0.4228  0.4432
  112MPD2    C5 1711   4.108   2.665  11.535 -0.6764  0.1973 -0.0668
  112MPD2     H 1712   4.385   2.802  11.325 -0.0740  1.1489  1.8222
  112MPD2    H1 1713   4.241   2.615  11.688  2.3338  0.8929  0.6211
  112MPD2    H2 1714   3.977   2.715  11.382  0.1917 -1.9298  0.0848
  112MPD2    H3 1715   4.025   2.646  11.603 -1.2396  1.6254 -0.3558
  112MPD2     N 1716   4.465   2.649  11.552 -0.1888 -0.7604 -0.2524
  112MPD2    H5 1717   4.487   2.593  11.633  0.1698  0.6280  0.5976
  112MPD2    N1 1718   4.168   2.826  11.212  0.2748  0.3295 -0.6823
  112MPD2    H7 1719   4.253   2.856  11.165 -0.7967 -0.5654 -3.1917
  113MPD2     C 1720   2.365   0.622   1.291  0.3385 -0.7743 -0.1916
  113MPD2    C1 1721   2.271   0.669   1.210 -0.6637 -0.4851 -1.0548
  113MPD2    C2 1722   2.251   0.601   1.092  0.1445 -1.1615 -0.7238
  113MPD2    C3 1723   2.326   0.483   1.061 -0.3514 -0.2958 -0.0445
  113MPD2    C4 1724   2.430   0.445   1.142  0.0218 -0.0687 -0.1450
  113MPD2    C5 1725   2.435   0.513   1.262  0.6463 -0.2601  0.5675
  113MPD2     H 1726   2.172   0.629   1.024 -0.6986 -0.7553  0.4252
  113MPD2    H1 1727   2.495   0.362   1.114  0.6027  0.4061 -0.2059
  113MPD2    H2 1728   2.395   0.670   1.383  2.1560 -0.7262 -0.8112
  113MPD2    H3 1729   2.514   0.490   1.333  0.6964  2.5491  1.4321
  113MPD2     N 1730   2.311   0.407   0.948  1.0644 -0.0360 -0.3803
  113MPD2    H5 1731   2.364   0.321   0.944  0.0924 -0.6896  0.9691
  113MPD2    N1 1732   2.205   0.790   1.238 -0.3077 -1.0980 -0.0759
  113MPD2    H7 1733   2.140   0.817   1.165  0.7714  1.1039 -0.2197
  114TCq2    C1 1734   2.221   0.422   0.847 -0.5458  0.5895  0.3964
  114TCq2    O2 1735   2.134   0.507   0.826 -0.1458  0.0097  0.5119
  114TCq2    C2 1736   2.209   0.302   0.766  0.1143 -0.1982  0.0489
  114TCq2    C3 1737   2.108   0.297   0.671 -0.2400  0.6389 -0.0869
  114TCq2    C4 1738   2.070   0.179   0.623 -0.0233 -0.8802 -0.2882
  114TCq2    C5 1739   2.126   0.060   0.661 -0.0451  0.0408  0.6289
  114TCq2    C6 1740   2.220   0.073   0.760 -0.3918 -0.1598  0.5512
  114TCq2    C7 1741   2.265   0.190   0.814  0.4838 -1.0308  0.5426
  114TCq2    C8 1742   2.248   4.680   0.843 -0.0523 -1.4439 -0.2876
  114TCq2    O4 1743   2.321   4.692   0.940  0.2932  0.2891  0.3130
  114TCq2    C9 1744   1.968   0.173   0.532  0.0313 -0.2869 -0.1454
  114TCq2    O5 1745   1.859   0.113   0.555  0.1483 -0.5183  0.2439
  114TCq2    O6 1746   1.974   0.261   0.447  0.3416 -0.6584 -0.2192
  114TCq2    H2 1747   2.049   0.382   0.638  0.0859  0.5150 -0.9834
  114TCq2    H3 1748   2.084   4.695   0.617 -1.7500  0.5837  1.1309
  114TCq2    H4 1749   2.350   0.179   0.880  0.6925 -1.0199  0.2801
  115TMC2    C1 1750   3.490   3.264  17.596  0.2076  0.1944 -0.3075
  115TMC2    C2 1751   3.616   3.214  17.562 -0.4119  0.4389 -0.0740
  115TMC2    C3 1752   3.720   3.301  17.540 -0.0303  0.4304  0.3218
  115TMC2    C4 1753   3.454   3.400  17.581 -0.6663 -0.1432  0.0419
  115TMC2    C5 1754   3.562   3.478  17.543 -0.0562 -0.5078 -0.3533
  115TMC2    C6 1755   3.698   3.440  17.537  0.6024 -0.1931  0.2870
  115TMC2     C 1756   3.387   3.167  17.621  0.0566  0.2038  0.3313
  115TMC2     O 1757   3.272   3.196  17.591  0.1622 -0.1632  0.5899
  115TMC2     H 1758   3.637   3.108  17.554  0.3112  0.5738  0.0292
  115TMC2    H1 1759   3.352   3.433  17.590 -0.8518 -0.7605  0.1897
  115TMC2    H2 1760   3.776   3.511  17.514 -1.1721  1.5937 -0.1919
  115TMC2    C7 1761   3.532   3.617  17.531 -0.8101 -0.1179  0.1722
  115TMC2    C8 1762   3.841   3.230  17.502 -0.1309  0.2209 -0.8136
  115TMC2    O1 1763   3.425   3.648  17.585 -0.4009  0.4182 -0.0613
  115TMC2    O2 1764   3.842   3.116  17.449 -0.2516 -0.0556  0.5356
  115TMC2    O5 1765   3.945   3.305  17.534  0.3817  0.3754  0.4124
  115TMC2    H5 1766   3.922   3.393  17.570 -1.5964  0.7875 -1.8503
  116MPD2     C 1767   3.194   2.724   0.091 -0.3128  0.1264 -0.3900
  116MPD2    C1 1768   3.146   2.820   0.005 -0.1451  0.0628  0.4947
  116MPD2    C2 1769   3.226   2.922  17.668  0.7119  0.0093  0.8037
  116MPD2    C3 1770   3.347   2.950   0.028  0.8470 -1.5044 -0.1175
  116MPD2    C4 1771   3.395   2.854   0.119 -0.3011  0.2671 -0.0448
  116MPD2    C5 1772   3.315   2.743   0.152  0.3577 -0.1740  0.3357
  116MPD2     H 1773   3.197   2.988  17.587  1.4208 -1.3917 -0.5992
  116MPD2    H1 1774   3.485   2.860   0.179 -1.1669 -2.5824  1.5759
  116MPD2    H2 1775   3.142   2.633   0.118  0.8941 -0.8460 -1.3856
  116MPD2    H3 1776   3.352   2.674   0.227  2.5235 -1.1008 -1.5636
  116MPD2     N 1777   3.430   3.060  17.695 -0.0724 -0.3301  0.1655
  116MPD2    H5 1778   3.518   3.069   0.042  0.2414 -2.0599 -0.0726
  116MPD2    N1 1779   3.031   2.783  17.631 -0.5664  0.2133 -0.0825
  116MPD2    H7 1780   2.976   2.699  17.648 -0.3783  0.5144  2.0111
  117TMC2    C1 1781   1.748   0.139  14.115  0.4209  0.6463  0.3011
  117TMC2    C2 1782   1.741   0.013  14.167 -0.3751 -0.1681 -0.6418
  117TMC2    C3 1783   1.793   0.002  14.298  0.3251 -0.4095 -0.2408
  117TMC2    C4 1784   1.795   0.253  14.178  0.1202 -0.3042  0.4280
  117TMC2    C5 1785   1.830   0.228  14.305 -0.3552 -1.2505  0.4429
  117TMC2    C6 1786   1.827   0.106  14.368  0.3059  0.2450  0.1229
  117TMC2     C 1787   1.699   0.145  13.980 -0.2716 -0.5267 -0.1248
  117TMC2     O 1788   1.717   0.043  13.912 -0.0475 -0.5327 -0.1616
  117TMC2     H 1789   1.710   4.662  14.097 -1.9336 -0.9571  0.9100
  117TMC2    H1 1790   1.795   0.349  14.127 -1.8582  0.2589  1.4701
  117TMC2    H2 1791   1.870   0.091  14.466 -1.3375 -2.8451  0.3725
  117TMC2    C7 1792   1.917   0.318  14.374 -0.7260 -0.4735  0.0077
  117TMC2    C8 1793   1.802   4.597  14.352 -0.2709 -0.4892  0.2291
  117TMC2    O1 1794   1.909   0.332  14.494  0.3595  0.4514  0.1337
  117TMC2    O2 1795   1.889   4.568  14.431  0.0511  0.3570 -0.8812
  117TMC2    O5 1796   1.696   4.526  14.303 -0.1638 -0.0189 -0.3320
  117TMC2    H5 1797   1.629   4.581  14.258 -0.0009  0.3026 -0.1825
  118MPD2     C 1798   2.102   0.553  14.432  0.3340  0.0706 -0.3427
  118MPD2    C1 1799   2.083   0.491  14.311 -0.1303 -0.3083  0.7336
  118MPD2    C2 1800   2.154   0.525  14.199 -0.2465  0.4305  0.3344
  118MPD2    C3 1801   2.251   0.629  14.198  0.7794  0.1921  0.1359
  118MPD2    C4 1802   2.267   0.692  14.319  0.4094  0.9542 -0.1046
  118MPD2    C5 1803   2.197   0.652  14.433  0.3489 -0.5894 -0.6282
  118MPD2     H 1804   2.137   0.465  14.111  1.5510  0.3790  0.0067
  118MPD2    H1 1805   2.344   0.768  14.326 -0.9633  2.0821  2.5963
  118MPD2    H2 1806   2.056   0.516  14.523 -0.2364  0.6484 -0.3930
  118MPD2    H3 1807   2.237   0.684  14.528 -1.7914 -1.6597  0.6097
  118MPD2     N 1808   2.324   0.676  14.086 -0.1384  0.8610  0.4586
  118MPD2    H5 1809   2.397   0.744  14.106  0.9618 -0.1405 -0.1589
  118MPD2    N1 1810   1.994   0.383  14.285 -0.5105  0.3336  0.2312
  118MPD2    H7 1811   2.002   0.341  14.193 -1.9937  0.7983 -0.1158
  119MPD2     C 1812   0.615   1.328  13.880 -0.4957 -0.1870  0.2731
  119MPD2    C1 1813   0.504   1.387  13.946  0.0608  0.3750  0.3884
  119MPD2    C2 1814   0.423   1.461  13.864  0.8890  0.2398 -0.3320
  119MPD2    C3 1815   0.448   1.462  13.724 -0.0751 -0.2453  0.1342
  119MPD2    C4 1816   0.571   1.432  13.675  0.0817 -0.2985  0.1261
  119MPD2    C5 1817   0.655   1.356  13.753 -0.8090  0.2615  0.0102
  119MPD2     H 1818   0.325   1.493  13.898  0.8518  1.9129 -1.9704
  119MPD2    H1 1819   0.587   1.434  13.567 -1.6075  1.1753 -0.0908
  119MPD2    H2 1820   0.673   1.261  13.941 -0.4605  0.9377  1.4891
  119MPD2    H3 1821   0.751   1.311  13.727 -0.3898 -0.6542  3.1859
  119MPD2     N 1822   0.353   1.502  13.626  0.4751 -0.4385  0.5126
  119MPD2    H5 1823   0.382   1.523  13.531  1.1715 -1.2799  0.5364
  119MPD2    N1 1824   0.484   1.360  14.080  0.0790  0.0557  0.5794
  119MPD2    H7 1825   0.562   1.318  14.128 -0.7789 -1.7421  0.4221
  120TCq2    C1 1826   0.216   1.489  13.650  0.7669  0.1326  0.1963
  120TCq2    O2 1827   0.155   1.463  13.753  0.4866 -0.5097 -0.0986
  120TCq2    C2 1828   0.140   1.481  13.524 -0.1605  0.0561  0.4945
  120TCq2    C3 1829   0.194   1.544  13.411 -0.2608 -0.3164  0.1224
  120TCq2    C4 1830   0.118   1.519  13.300 -0.3822 -0.6462 -0.1429
  120TCq2    C5 1831   0.002   1.444  13.299  0.3816 -0.1637 -0.1631
  120TCq2    C6 1832   4.691   1.368  13.404 -0.3819  0.3145 -0.3540
  120TCq2    C7 1833   0.027   1.403  13.521 -0.0218  0.8738 -0.2374
  120TCq2    C8 1834   4.549   1.328  13.416  0.4705 -0.5568  0.4091
  120TCq2    O4 1835   4.469   1.361  13.330 -0.1238  0.3702  0.8953
  120TCq2    C9 1836   0.162   1.579  13.176  0.0740 -0.4444  0.4129
  120TCq2    O5 1837   0.277   1.627  13.178 -0.6513  0.6606 -0.0520
  120TCq2    O6 1838   0.108   1.534  13.067  0.2347  0.0066 -0.2529
  120TCq2    H2 1839   0.274   1.616  13.418 -1.0416  0.6376 -0.6950
  120TCq2    H3 1840   4.667   1.439  13.209  1.2958 -2.3114 -0.6514
  120TCq2    H4 1841   4.717   1.363  13.616  2.0163 -1.4549 -0.4923
  121TMC2    C1 1842   1.650   3.210  13.827 -0.2701  0.1444 -0.0172
  121TMC2    C2 1843   1.613   3.344  13.849  0.1068 -0.2915  0.2942
  121TMC2    C3 1844   1.490   3.378  13.806 -0.2616 -0.2321  0.0884
  121TMC2    C4 1845   1.566   3.122  13.765 -0.3997 -0.5009  0.1144
  121TMC2    C5 1846   1.449   3.171  13.722  0.0521 -0.6485  0.5246
  121TMC2    C6 1847   1.403   3.295  13.741 -0.6803 -0.1502  0.9509
  121TMC2     C 1848   1.775   3.161  13.868 -0.0213  0.0713 -0.0378
  121TMC2     O 1849   1.782   3.046  13.907  0.3987 -0.4633 -0.6251
  121TMC2     H 1850   1.680   3.412  13.900  0.6672  1.9409 -3.4198
  121TMC2    H1 1851   1.589   3.017  13.757  1.3632  0.0984 -2.6502
  121TMC2    H2 1852   1.319   3.339  13.688  0.0538 -0.0015 -0.0985
  121TMC2    C7 1853   1.360   3.084  13.643  0.0400 -0.6414  0.3846
  121TMC2    C8 1854   1.436   3.497  13.866  0.2946  0.7699  0.8902
  121TMC2    O1 1855   1.409   2.996  13.577 -0.5763  0.0834  0.5136
  121TMC2    O2 1856   1.507   3.580  13.919 -0.4809  0.5476 -0.4477
  121TMC2    O5 1857   1.302   3.492  13.879  0.1934 -0.1897  0.1038
  121TMC2    H5 1858   1.274   3.403  13.847  0.9785 -0.0313 -1.0212
  122MPD2     C 1859   2.067   3.107  13.916 -1.3410 -0.5463 -0.0648
  122MPD2    C1 1860   2.019   3.210  13.836  0.3719  0.0476  0.3453
  122MPD2    C2 1861   2.107   3.283  13.763  0.1865 -0.7535 -0.2110
  122MPD2    C3 1862   2.246   3.256  13.766  0.0413  0.2782 -0.1091
  122MPD2    C4 1863   2.295   3.163  13.852 -0.3312  0.1147  0.0606
  122MPD2    C5 1864   2.205   3.081  13.913 -0.5921 -0.2354 -0.1888
  122MPD2     H 1865   2.073   3.360  13.695  0.0186 -1.4101 -0.8785
  122MPD2    H1 1866   2.402   3.147  13.859 -0.2843  0.4804  0.1459
  122MPD2    H2 1867   2.004   3.036  13.968 -1.1317 -1.2723 -0.7971
  122MPD2    H3 1868   2.234   2.995  13.973  0.5755  0.7949  0.7189
  122MPD2     N 1869   2.335   3.328  13.685 -0.0452 -0.0392 -0.2306
  122MPD2    H5 1870   2.434   3.306  13.685 -0.1163 -0.3459 -1.3137
  122MPD2    N1 1871   1.883   3.245  13.835 -0.1250 -0.5127  0.1536
  122MPD2    H7 1872   1.862   3.335  13.792 -1.6795 -3.0813 -4.5460
  123MPD2     C 1873   4.710   1.153  10.873 -0.1060 -0.1478 -0.4090
  123MPD2    C1 1874   4.674   1.134  10.745 -0.1532 -0.1470  0.1293
  123MPD2    C2 1875   0.002   1.223  10.659  0.1213  0.7539 -0.0477
  123MPD2    C3 1876   0.101   1.315  10.690 -0.4945 -0.7300 -0.4373
  123MPD2    C4 1877   0.139   1.325  10.821 -0.0765 -0.0837 -0.0507
  123MPD2    C5 1878   0.077   1.251  10.913  0.0574  1.1528  0.6490
  123MPD2     H 1879   4.694   1.219  10.556 -1.5245 -0.4176  0.5321
  123MPD2    H1 1880   0.222   1.383  10.860 -1.1152  2.2769 -1.3413
  123MPD2    H2 1881   4.677   1.077  10.943  1.4616  0.1058  0.5943
  123MPD2    H3 1882   0.093   1.264  11.019  0.6283 -0.6993  0.7885
  123MPD2     N 1883   0.160   1.392  10.593  0.0185  0.1634  0.1242
  123MPD2    H5 1884   0.144   1.364  10.497 -0.1494  0.6286  0.0134
  123MPD2    N1 1885   4.585   1.034  10.703 -0.4854  0.3103  0.2056
  123MPD2    H7 1886   4.538   0.992  10.782 -0.8241 -0.4546 -0.4008
  124TCq2    C1 1887   0.258   1.491  10.610  0.1113  0.5958  0.3182
  124TCq2    O2 1888   0.288   1.561  10.704  0.4609 -0.5365  0.6004
  124TCq2    C2 1889   0.309   1.534  10.480 -0.3932  0.3894 -0.7800
  124TCq2    C3 1890   0.372   1.657  10.459 -0.1429  0.4511  0.4675
  124TCq2    C4 1891   0.432   1.687  10.346 -0.5723  0.3912  0.6092
  124TCq2    C5 1892   0.418   1.601  10.243  0.6406  1.1118  1.2617
  124TCq2    C6 1893   0.363   1.476  10.268 -0.4428  0.5359 -0.1959
  124TCq2    C7 1894   0.314   1.437  10.384  0.0695 -0.0399 -0.0324
  124TCq2    C8 1895   0.327   1.388  10.159  0.3440  0.7219 -0.1401
  124TCq2    O4 1896   0.321   1.265  10.180  0.2479  0.5645  0.6520
  124TCq2    C9 1897   0.465   1.832  10.315 -0.1779  0.3798 -0.0932
  124TCq2    O5 1898   0.439   1.915  10.412  0.0236 -0.9301  0.5022
  124TCq2    O6 1899   0.523   1.857  10.204 -0.0084 -0.1790 -0.2728
  124TCq2    H2 1900   0.378   1.740  10.528  1.5907  0.9776 -0.3378
  124TCq2    H3 1901   0.463   1.627  10.148  2.8900 -2.6920  1.2611
  124TCq2    H4 1902   0.273   1.338  10.395 -2.5111  1.0745  0.4309
  125TMC2    C1 1903   0.924   2.583   9.065 -0.5072 -0.0630  0.4099
  125TMC2    C2 1904   0.830   2.668   9.013  0.1564 -0.9038 -0.3110
  125TMC2    C3 1905   0.824   2.787   9.089 -0.6674 -1.2913 -0.0022
  125TMC2    C4 1906   0.999   2.605   9.177  0.1866 -0.0097 -0.1992
  125TMC2    C5 1907   0.994   2.732   9.232  0.3985  0.0067 -0.5675
  125TMC2    C6 1908   0.899   2.825   9.191  0.0948 -0.3437  0.6236
  125TMC2     C 1909   0.974   2.481   8.972  0.6144  0.1013 -0.7565
  125TMC2     O 1910   0.961   2.502   8.853  0.6583 -0.0005 -0.1377
  125TMC2     H 1911   0.770   2.658   8.924 -0.1199 -0.2801 -0.1969
  125TMC2    H1 1912   1.086   2.547   9.206 -0.1074  0.9795  2.6858
  125TMC2    H2 1913   0.897   2.930   9.219  1.2046 -0.0986 -0.1892
  125TMC2    C7 1914   1.112   2.787   9.301  0.1535 -0.7295 -0.6289
  125TMC2    C8 1915   0.781   2.913   9.025  0.1103 -0.4678 -0.2857
  125TMC2    O1 1916   1.140   2.903   9.276 -0.1153 -0.0098 -0.1536
  125TMC2    O2 1917   0.863   2.988   8.980 -0.2173 -0.6159  0.4022
  125TMC2    O5 1918   0.686   2.953   9.117  0.2843 -0.0729 -0.2057
  125TMC2    H5 1919   0.656   2.871   9.161  1.3077 -1.1791 -1.5733
  126MPD1     C 1920   1.269   2.065   8.913 -0.2192  0.2902  0.1827
  126MPD1    C1 1921   1.211   2.063   9.032  0.0760  1.2470  0.5643
  126MPD1    C2 1922   1.128   2.170   9.069  0.6462 -0.1776 -0.6547
  126MPD1    C3 1923   1.091   2.271   8.985  0.3706 -0.5050  0.0624
  126MPD1    C4 1924   1.134   2.258   8.853 -0.2464  0.1208 -0.3155
  126MPD1    C5 1925   1.211   2.146   8.820 -0.0944  0.3497 -0.6728
  126MPD1     H 1926   1.109   2.175   9.176 -1.8134  1.3301 -1.1580
  126MPD1    H1 1927   1.128   2.343   8.785  0.6656  1.1796  0.9365
  126MPD1    H2 1928   1.348   2.002   8.872  0.0180 -0.1392  1.2984
  126MPD1    H3 1929   1.252   2.152   8.720  1.3502  0.2690 -0.0853
  126MPD1     N 1930   1.026   2.382   9.039  0.7711 -0.3548 -0.0623
  126MPD1    H5 1931   1.002   2.382   9.138  0.2291  1.2361 -0.1926
  126MPD1    N1 1932   1.276   1.989   9.131 -0.8545  0.1405 -0.2153
  126MPD1    H6 1933   1.321   1.902   9.103  0.2810  1.0956 -1.3730
  126MPD1    H7 1934   1.218   1.975   9.213 -0.1425  0.4183  0.3391
  127MPD2     C 1935   2.259   1.954   9.173 -0.7249 -0.1995  0.4006
  127MPD2    C1 1936   2.275   1.937   9.309  0.1831 -0.6352 -0.2079
  127MPD2    C2 1937   2.346   2.030   9.386  0.1850  0.2563 -0.2710
  127MPD2    C3 1938   2.415   2.136   9.335  0.1751  0.1481  0.1510
  127MPD2    C4 1939   2.397   2.158   9.199 -0.3629 -0.7188  0.1308
  127MPD2    C5 1940   2.324   2.065   9.120  0.3055 -0.2379 -0.6139
  127MPD2     H 1941   2.351   2.011   9.493  2.7069 -0.6166 -0.5443
  127MPD2    H1 1942   2.437   2.240   9.142  0.5601 -0.2525  1.4391
  127MPD2    H2 1943   2.212   1.877   9.114  0.5429 -0.8695  0.2788
  127MPD2    H3 1944   2.329   2.068   9.012 -0.8142 -0.8547 -0.6816
  127MPD2     N 1945   2.467   2.224   9.432  0.0193 -0.1629  0.2398
  127MPD2    H5 1946   2.441   2.202   9.528 -0.3341  0.8275  0.3746
  127MPD2    N1 1947   2.232   1.813   9.352 -0.4581  0.4837  0.3347
  127MPD2    H7 1948   2.185   1.753   9.284  1.2235 -2.0399  1.3822
  128TCq2    C1 1949   2.254   1.757   9.474  0.2197 -0.1702 -0.1108
  128TCq2    O2 1950   2.338   1.786   9.559 -0.0082 -0.2127  0.0873
  128TCq2    C2 1951   2.186   1.627   9.494  0.0763  0.3876  0.0947
  128TCq2    C3 1952   2.218   1.559   9.614 -0.0096  0.3685 -0.0816
  128TCq2    C4 1953   2.126   1.483   9.685 -0.3163  0.3863 -0.0073
  128TCq2    C5 1954   2.009   1.452   9.626 -0.1966 -0.9036 -0.0480
  128TCq2    C6 1955   1.977   1.518   9.508  0.1406 -0.5391  0.0117
  128TCq2    C7 1956   2.062   1.608   9.436  0.1425 -0.1435 -0.2981
  128TCq2    C8 1957   1.847   1.491   9.443  0.4477  0.0491  0.0191
  128TCq2    O4 1958   1.842   1.523   9.326 -0.3072 -0.0417  0.0876
  128TCq2    C9 1959   2.169   1.417   9.808 -0.7515  0.5194  0.1217
  128TCq2    O5 1960   2.285   1.442   9.851  0.6080  0.0540  0.0402
  128TCq2    O6 1961   2.105   1.317   9.845  0.1348  0.0504  0.0881
  128TCq2    H2 1962   2.314   1.580   9.660  1.0291 -0.7767 -1.7720
  128TCq2    H3 1963   1.944   1.376   9.669 -0.9624 -1.3468 -2.0067
  128TCq2    H4 1964   2.019   1.672   9.360  0.3987 -0.3909 -0.6490
  129MPD2     C 1965   4.280   2.916   0.969  0.2433  0.2597 -0.1636
  129MPD2    C1 1966   4.342   3.007   1.054 -0.1224 -1.1960 -0.1176
  129MPD2    C2 1967   4.415   3.114   0.997  0.3434  0.1960  0.5895
  129MPD2    C3 1968   4.445   3.119   0.860 -0.0485 -0.2193  1.2079
  129MPD2    C4 1969   4.388   3.029   0.783  0.0057  0.5713  0.0349
  129MPD2    C5 1970   4.299   2.938   0.837  0.4636 -0.8351  0.5948
  129MPD2     H 1971   4.463   3.187   1.062 -1.8812  0.0219  2.4403
  129MPD2    H1 1972   4.391   3.031   0.674  0.9321 -1.7272  0.0260
  129MPD2    H2 1973   4.233   2.821   0.990 -0.6544  1.0235  1.2997
  129MPD2    H3 1974   4.257   2.863   0.770  1.4704  0.9640 -2.0853
  129MPD2     N 1975   4.514   3.228   0.799 -0.7479 -0.6888  0.1052
  129MPD2    H5 1976   4.545   3.303   0.860  1.2498 -3.1211  2.1156
  129MPD2    N1 1977   4.322   3.003   1.196  0.2686 -0.7152  0.2815
  129MPD2    H7 1978   4.351   3.075   1.261 -3.2301 -0.2852  1.3470
  130TCq2    C1 1979   4.238   2.911   1.256  0.3710  0.0109  0.0067
  130TCq2    O2 1980   4.169   2.821   1.213 -0.5266  0.1234  0.2447
  130TCq2    C2 1981   4.239   2.922   1.398  0.2085 -0.7132 -0.1215
  130TCq2    C3 1982   4.352   2.969   1.462 -0.1032  0.7495  0.2387
  130TCq2    C4 1983   4.346   2.968   1.597 -0.5600 -0.5753 -0.2961
  130TCq2    C5 1984   4.243   2.914   1.667 -0.0795  0.6835  0.3190
  130TCq2    C6 1985   4.127   2.863   1.599  0.9236 -0.8261 -1.4448
  130TCq2    C7 1986   4.130   2.873   1.464 -0.3342  0.1424 -0.1442
  130TCq2    C8 1987   4.030   2.774   1.656  0.2617 -0.1419  0.3280
  130TCq2    O4 1988   3.984   2.694   1.572 -0.2784 -0.0964 -0.1890
  130TCq2    C9 1989   4.452   3.034   1.670 -0.2066  0.0370 -0.6894
  130TCq2    O5 1990   4.450   3.016   1.797  0.2264  0.1707 -0.2571
  130TCq2    O6 1991   4.558   3.066   1.610  0.8047  0.5072 -0.5179
  130TCq2    H2 1992   4.438   3.013   1.412  0.1257 -1.3282 -1.1925
  130TCq2    H3 1993   4.250   2.917   1.775 -1.3201  0.2273  0.4104
  130TCq2    H4 1994   4.043   2.838   1.409 -1.6205 -0.0297  1.9966
  131MPD2     C 1995   4.206   1.165   9.805 -0.4908  0.5885 -0.5560
  131MPD2    C1 1996   4.299   1.227   9.887  0.4468 -0.6922 -1.1403
  131MPD2    C2 1997   4.325   1.162  10.006  0.4589 -0.2277  0.5243
  131MPD2    C3 1998   4.263   1.051  10.051  0.2958  0.0305  0.0642
  131MPD2    C4 1999   4.149   1.009   9.981  0.5087 -0.0866 -0.0470
  131MPD2    C5 2000   4.130   1.061   9.854 -0.4844 -1.0278  0.0403
  131MPD2     H 2001   4.393   1.212  10.074 -1.2229  1.4621  0.9741
  131MPD2    H1 2002   4.108   0.913  10.009 -0.8264  0.4374 -0.2076
  131MPD2    H2 2003   4.163   1.218   9.721 -1.3795  1.5757  0.5177
  131MPD2    H3 2004   4.057   1.018   9.786  0.4330  0.0415 -1.6064
  131MPD2     N 2005   4.307   0.998  10.172 -0.3046  0.2593  0.0685
  131MPD2    H5 2006   4.384   1.049  10.214  0.9866 -1.5483 -0.1125
  131MPD2    N1 2007   4.361   1.347   9.844 -0.2594 -0.5941  0.3485
  131MPD2    H7 2008   4.321   1.376   9.755  0.0047 -1.1376  0.0526
  132TCq2    C1 2009   4.578   1.720   9.544 -0.1409 -0.0034 -0.4594
  132TCq2    O2 2010   4.555   1.630   9.463  0.1092  0.3436  0.2335
  132TCq2    C2 2011   4.537   1.696   9.684 -0.4088 -0.0329 -0.6777
  132TCq2    C3 2012   4.537   1.801   9.774  0.1753  0.2456 -0.1774
  132TCq2    C4 2013   4.490   1.783   9.903  0.2742 -0.0913  0.4560
  132TCq2    C5 2014   4.445   1.665   9.948  0.1906  0.4294 -0.7433
  132TCq2    C6 2015   4.446   1.562   9.859  0.7281 -0.1190 -0.0291
  132TCq2    C7 2016   4.485   1.574   9.732 -0.4985 -0.1757 -0.0608
  132TCq2    C8 2017   4.445   1.429   9.915  0.3134 -0.1932 -0.2185
  132TCq2    O4 2018   4.487   1.420  10.029 -0.2038 -0.6552  0.0358
  132TCq2    C9 2019   4.483   1.896   9.990  0.1280 -0.2069  0.8254
  132TCq2    O5 2020   4.512   2.006   9.936  0.0868  0.1431  0.0730
  132TCq2    O6 2021   4.397   1.882  10.081  0.0036 -0.2171 -0.2409
  132TCq2    H2 2022   4.571   1.901   9.751  2.2616 -0.3202  0.4342
  132TCq2    H3 2023   4.387   1.658  10.039  2.4290 -0.0227  0.6359
  132TCq2    H4 2024   4.500   1.487   9.670  2.0754  0.1997  0.0444
  133MPD2     C 2025   3.680   2.359   8.670 -0.0820 -0.1931 -0.2074
  133MPD2    C1 2026   3.787   2.340   8.756 -0.1691  0.3213 -0.1809
  133MPD2    C2 2027   3.800   2.212   8.811  0.1600 -0.5418 -0.4559
  133MPD2    C3 2028   3.694   2.120   8.795  0.4137  0.7903  0.1826
  133MPD2    C4 2029   3.580   2.150   8.720 -0.1711 -0.3814 -0.4832
  133MPD2    C5 2030   3.576   2.268   8.651  0.7417  0.1152 -0.1510
  133MPD2     H 2031   3.888   2.181   8.865 -0.4690 -0.2974  0.7037
  133MPD2    H1 2032   3.494   2.085   8.708 -0.7874 -0.0869  2.2679
  133MPD2    H2 2033   3.670   2.454   8.619  1.1242 -1.6652 -3.1513
  133MPD2    H3 2034   3.491   2.290   8.588  0.9349  1.7062  0.1507
  133MPD2     N 2035   3.709   1.992   8.851  0.7415 -0.0551 -0.6535
  133MPD2    H5 2036   3.629   1.930   8.842 -0.1464  0.9342  0.5085
  133MPD2    N1 2037   3.873   2.449   8.788  0.6574  0.2176  0.3711
  133MPD2    H7 2038   3.858   2.536   8.738 -0.8727 -0.8073 -0.9476
  134TCq2    C1 2039   3.985   2.435   8.871 -0.5480 -0.3718 -0.0146
  134TCq2    O2 2040   4.038   2.336   8.916  0.1747 -0.6997  0.2027
  134TCq2    C2 2041   4.047   2.560   8.898 -0.5002 -0.6095  0.1658
  134TCq2    C3 2042   4.176   2.566   8.946 -0.0162  0.2458 -0.3824
  134TCq2    C4 2043   4.229   2.695   8.972  0.2294  0.1343 -0.4661
  134TCq2    C5 2044   4.161   2.810   8.964  0.5294 -0.3085 -0.3798
  134TCq2    C6 2045   4.025   2.793   8.936  0.3749  0.1358 -0.5305
  134TCq2    C7 2046   3.967   2.673   8.899 -0.1733 -0.1598  0.3125
  134TCq2    C8 2047   3.941   2.904   8.980  0.4431 -0.0543  0.2312
  134TCq2    O4 2048   3.832   2.901   8.919  0.2159  0.4159 -0.4998
  134TCq2    C9 2049   4.361   2.708   9.029  0.6330 -0.0586 -0.2356
  134TCq2    O5 2050   4.387   2.816   9.085  0.9770 -0.5270 -0.8246
  134TCq2    O6 2051   4.421   2.601   9.046  0.2518  0.7887  0.5632
  134TCq2    H2 2052   4.232   2.472   8.951  0.3448  0.5034  0.3300
  134TCq2    H3 2053   4.214   2.902   8.984 -1.4691  0.7545  0.0363
  134TCq2    H4 2054   3.862   2.663   8.875  0.1592 -2.9936  0.0585
  135MPD2     C 2055   1.369   2.541   8.976  0.0224 -0.4102 -0.5264
  135MPD2    C1 2056   1.444   2.654   8.992 -0.0232 -0.5047 -0.2783
  135MPD2    C2 2057   1.579   2.645   9.015  0.6351  0.4067  1.3652
  135MPD2    C3 2058   1.643   2.518   9.028  0.8415  0.0403 -0.7827
  135MPD2    C4 2059   1.565   2.397   9.018 -0.3553 -0.1643 -1.1476
  135MPD2    C5 2060   1.429   2.421   8.998  0.0084 -0.0430 -0.2192
  135MPD2     H 2061   1.632   2.739   9.014 -0.2420  0.8966  1.1977
  135MPD2    H1 2062   1.600   2.294   9.029 -0.9937 -0.3686 -1.0561
  135MPD2    H2 2063   1.261   2.538   8.972  0.0829 -1.2819 -1.6532
  135MPD2    H3 2064   1.361   2.337   8.994 -0.7074  0.5302 -0.1948
  135MPD2     N 2065   1.781   2.504   9.033 -0.6190 -0.8535 -0.2146
  135MPD2    H5 2066   1.823   2.412   9.041  1.4782  0.2460  1.3595
  135MPD2    N1 2067   1.392   2.785   8.979  0.3451  0.0287  0.2405
  135MPD2    H7 2068   1.446   2.864   9.012 -3.2050  2.0386  1.2562
  136TCq2    C1 2069   1.269   2.816   8.928 -0.8818 -0.0066 -0.3766
  136TCq2    O2 2070   1.193   2.753   8.864  0.0007  0.2680 -0.2662
  136TCq2    C2 2071   1.240   2.959   8.943 -0.4144 -0.4637 -0.2475
  136TCq2    C3 2072   1.172   3.021   8.845  0.2721 -0.5092 -0.3734
  136TCq2    C4 2073   1.169   3.155   8.843 -0.3678 -0.2943 -0.6533
  136TCq2    C5 2074   1.225   3.230   8.946  0.3782  0.6588 -0.1605
  136TCq2    C6 2075   1.283   3.166   9.048 -0.2452  0.1153 -0.5381
  136TCq2    C7 2076   1.290   3.032   9.042  0.1969  0.5169  0.6598
  136TCq2    C8 2077   1.340   3.233   9.164  0.1054  0.5309  0.1372
  136TCq2    O4 2078   1.401   3.339   9.147 -0.2716 -1.0933 -0.4585
  136TCq2    C9 2079   1.096   3.223   8.736  0.1818 -0.2058  0.1565
  136TCq2    O5 2080   1.074   3.352   8.734 -0.2091  0.1118 -0.4273
  136TCq2    O6 2081   1.040   3.145   8.657  0.1123 -0.3082  0.1305
  136TCq2    H2 2082   1.129   2.955   8.771 -0.0283 -1.2592  0.4745
  136TCq2    H3 2083   1.224   3.337   8.934 -1.1311  0.3298 -3.0907
  136TCq2    H4 2084   1.341   2.977   9.121 -0.5843  0.6322  1.2439
  137MPD2     C 2085   0.985   1.631   9.261 -0.6921  1.1652  0.0559
  137MPD2    C1 2086   1.109   1.650   9.208 -0.2633 -0.4041 -0.4478
  137MPD2    C2 2087   1.216   1.685   9.282  0.4154  0.0414  0.0272
  137MPD2    C3 2088   1.206   1.686   9.420 -0.4633 -0.5552 -0.5175
  137MPD2    C4 2089   1.085   1.655   9.478 -0.2090 -0.2294 -0.7056
  137MPD2    C5 2090   0.977   1.631   9.398 -0.1049 -0.5385 -0.0915
  137MPD2     H 2091   1.307   1.722   9.236  1.5222  0.0091  2.1955
  137MPD2    H1 2092   1.065   1.665   9.585  0.5736 -3.2512 -0.2730
  137MPD2    H2 2093   0.905   1.601   9.194 -1.0726  0.6969  0.7164
  137MPD2    H3 2094   0.879   1.595   9.430  0.2091 -1.0107  0.3494
  137MPD2     N 2095   1.312   1.737   9.495 -0.6478  0.7624 -0.2153
  137MPD2    H5 2096   1.392   1.783   9.451  0.3711  0.1851  1.0293
  137MPD2    N1 2097   1.112   1.666   9.065 -0.6870 -0.1584  0.1589
  137MPD2    H7 2098   1.027   1.656   9.011  0.4102 -1.6794 -1.2969
  138TCq2    C1 2099   1.222   1.693   8.986 -0.2279 -0.0231 -0.7083
  138TCq2    O2 2100   1.342   1.704   9.003  0.3501 -0.3379  0.5053
  138TCq2    C2 2101   1.184   1.750   8.853 -0.3778 -0.6344  0.0585
  138TCq2    C3 2102   1.277   1.723   8.749 -0.3890 -0.1162  0.9202
  138TCq2    C4 2103   1.256   1.785   8.629 -0.0394  0.6102 -0.6453
  138TCq2    C5 2104   1.140   1.849   8.603  0.0252 -0.0457  0.7867
  138TCq2    C6 2105   1.064   1.874   8.710  0.3122 -0.0624 -0.0615
  138TCq2    C7 2106   1.072   1.819   8.836 -0.1471  0.5194  0.1530
  138TCq2    C8 2107   0.941   1.956   8.674 -0.6419  0.0059 -0.9098
  138TCq2    O4 2108   0.925   1.987   8.556  0.4223  0.3386 -1.0000
  138TCq2    C9 2109   1.356   1.765   8.530 -0.6572  1.2388 -0.5639
  138TCq2    O5 2110   1.462   1.704   8.567 -0.3231 -0.7340 -0.5469
  138TCq2    O6 2111   1.330   1.803   8.413  0.0264 -0.1899  0.5984
  138TCq2    H2 2112   1.375   1.679   8.765 -0.5013 -0.0875  1.6945
  138TCq2    H3 2113   1.132   1.907   8.512 -1.8838  1.6140  2.0171
  138TCq2    H4 2114   1.009   1.847   8.920  0.3870 -0.3284  0.8304
  139TMC2    C1 2115   1.705   1.116  13.239  0.0467 -0.0713  0.2228
  139TMC2    C2 2116   1.718   1.173  13.117  0.7372  1.3448 -0.9007
  139TMC2    C3 2117   1.642   1.284  13.088  0.7070  1.4708 -0.4598
  139TMC2    C4 2118   1.622   1.177  13.332  0.3711  0.1546  0.4262
  139TMC2    C5 2119   1.547   1.286  13.297 -0.1774  0.1399 -0.3798
  139TMC2    C6 2120   1.547   1.340  13.170  0.0718 -0.2887  0.0016
  139TMC2     C 2121   1.812   1.025  13.279 -0.2092  0.0518  0.1831
  139TMC2     O 2122   1.877   0.972  13.189  0.2016  0.1339 -0.0176
  139TMC2     H 2123   1.795   1.141  13.047  0.7714  1.7448 -1.0464
  139TMC2    H1 2124   1.602   1.133  13.429 -0.4440  2.6188  1.3860
  139TMC2    H2 2125   1.483   1.420  13.134 -1.9977 -1.7556  0.3913
  139TMC2    C7 2126   1.460   1.345  13.395 -0.4488 -0.1669 -0.2268
  139TMC2    C8 2127   1.663   1.333  12.956  0.0378  0.3744  0.4790
  139TMC2    O1 2128   1.360   1.404  13.342 -0.2408  0.0404 -0.6083
  139TMC2    O2 2129   1.685   1.265  12.857 -0.9886 -0.0605  0.1858
  139TMC2    O5 2130   1.715   1.452  12.979  1.0039 -0.0744  0.3873
  139TMC2    H5 2131   1.715   1.475  13.075  0.2992  0.2676  0.3091
  140MPD2     C 2132   1.904   0.892  13.614  0.0157  1.0609 -0.0311
  140MPD2    C1 2133   1.891   0.895  13.479  0.2692  0.3041  0.0028
  140MPD2    C2 2134   1.954   0.788  13.409 -0.8694  0.1799  0.0299
  140MPD2    C3 2135   2.031   0.693  13.482 -0.2761  0.2825  0.1954
  140MPD2    C4 2136   2.040   0.696  13.618 -1.2431 -0.1451 -0.1292
  140MPD2    C5 2137   1.977   0.796  13.683 -0.0666 -0.2022 -0.4273
  140MPD2     H 2138   1.944   0.777  13.301 -2.4793 -0.8970  0.2847
  140MPD2    H1 2139   2.109   0.635  13.675  0.3490  3.0142  1.3774
  140MPD2    H2 2140   1.848   0.966  13.670  0.4494  1.1995  0.2157
  140MPD2    H3 2141   1.982   0.797  13.791 -3.6914  2.5370 -0.2781
  140MPD2     N 2142   2.102   0.589  13.406 -0.2728 -0.4777 -0.0130
  140MPD2    H5 2143   2.099   0.593  13.304  1.1177 -1.3237 -0.0775
  140MPD2    N1 2144   1.820   1.003  13.416  0.1477  0.4941 -0.1173
  140MPD2    H7 2145   1.779   1.070  13.481 -1.1027 -0.0831 -0.3104
  141TCq2    C1 2146   1.904   1.849  14.338 -0.4856 -0.0765 -0.8606
  141TCq2    O2 2147   1.893   1.965  14.300 -0.1839 -0.5027 -0.6552
  141TCq2    C2 2148   1.907   1.827  14.483  0.0053  0.1215 -0.1951
  141TCq2    C3 2149   1.978   1.726  14.541  0.6805  0.1142  0.0682
  141TCq2    C4 2150   2.030   1.748  14.663 -0.1732 -0.5444 -0.1305
  141TCq2    C5 2151   2.014   1.868  14.730 -0.5922  0.4134  0.4180
  141TCq2    C6 2152   1.939   1.963  14.669  0.3218 -0.0862  0.3240
  141TCq2    C7 2153   1.878   1.946  14.550 -0.3340 -0.4247  0.5933
  141TCq2    C8 2154   1.989   2.099  14.684 -0.4546 -0.3585 -0.0610
  141TCq2    O4 2155   2.010   2.141  14.795  0.0268 -0.0792  0.1283
  141TCq2    C9 2156   2.130   1.656  14.711 -0.1020 -0.1749 -0.5542
  141TCq2    O5 2157   2.188   1.588  14.624  0.4544  0.1579  0.1213
  141TCq2    O6 2158   2.179   1.681  14.824 -0.1098 -0.4339 -0.4216
  141TCq2    H2 2159   2.013   1.647  14.475 -0.1978 -1.2645  1.2452
  141TCq2    H3 2160   2.072   1.890  14.819 -1.1971  3.4078  0.0905
  141TCq2    H4 2161   1.817   2.024  14.504  0.0931  0.5875  1.7338
  142MPD2     C 2162   4.512   0.453  10.640  0.3697  0.1482 -0.5265
  142MPD2    C1 2163   4.415   0.422  10.551 -0.2789 -0.5008 -0.6754
  142MPD2    C2 2164   4.421   0.488  10.426 -0.1586 -0.2244  0.3665
  142MPD2    C3 2165   4.523   0.580  10.399  0.0890 -0.1124 -0.5768
  142MPD2    C4 2166   4.617   0.605  10.494  0.6536 -0.3308 -0.1416
  142MPD2    C5 2167   4.614   0.541  10.617 -0.1347 -0.2710 -0.2298
  142MPD2     H 2168   4.342   0.477  10.353 -0.1003 -0.8623  0.3991
  142MPD2    H1 2169   4.693   0.676  10.465  0.7687 -0.4894 -0.2260
  142MPD2    H2 2170   4.502   0.415  10.741 -2.2350  1.5447 -0.2790
  142MPD2    H3 2171   4.701   0.551  10.680  1.4784  0.4512 -2.5598
  142MPD2     N 2172   4.546   0.644  10.278  0.3142  0.3323  0.3324
  142MPD2    H5 2173   4.632   0.696  10.266  0.0971  0.2635 -1.4984
  142MPD2    N1 2174   4.319   0.321  10.589  0.5592 -0.1994  0.3764
  142MPD2    H7 2175   4.331   0.279  10.680  0.3953 -0.1866  0.4040
  143TCq2    C1 2176   4.460   0.628  10.167 -0.1668 -0.3635  0.6717
  143TCq2    O2 2177   4.353   0.570  10.155  0.2900 -0.0865 -0.3361
  143TCq2    C2 2178   4.497   0.719  10.054 -0.1686  0.4458 -0.3234
  143TCq2    C3 2179   4.416   0.719   9.944 -0.3855  0.6821 -0.0121
  143TCq2    C4 2180   4.447   0.792   9.834 -0.2264 -0.0742 -0.7958
  143TCq2    C5 2181   4.556   0.880   9.834 -0.3696  0.4483 -0.4203
  143TCq2    C6 2182   4.625   0.895   9.952  0.2422  0.1593  0.3876
  143TCq2    C7 2183   4.601   0.811  10.060  0.1502  0.6399 -0.8839
  143TCq2    C8 2184   4.705   1.017   9.979  0.3671  0.0158 -0.1481
  143TCq2    O4 2185   0.056   1.013  10.078 -0.0608 -0.1429 -0.0069
  143TCq2    C9 2186   4.361   0.787   9.718  0.0024 -0.2706  0.1404
  143TCq2    O5 2187   4.266   0.707   9.736  0.2617 -0.5497 -0.1044
  143TCq2    O6 2188   4.401   0.852   9.619  0.0771  0.1461 -0.0730
  143TCq2    H2 2189   4.336   0.646   9.935 -0.9992  1.3979 -0.3097
  143TCq2    H3 2190   4.572   0.950   9.753 -2.3777 -0.0359 -1.2254
  143TCq2    H4 2191   4.670   0.819  10.143  1.2813 -0.7144 -1.7014
  144MPD2     C 2192   2.315   0.030   0.289 -0.1245  1.7769  0.3411
  144MPD2    C1 2193   2.327   4.625   0.327 -0.2540  0.3422  0.4931
  144MPD2    C2 2194   2.394   4.600   0.450  0.3400  0.8218  0.4039
  144MPD2    C3 2195   2.452   4.704   0.523  0.6007  0.5234 -0.0488
  144MPD2    C4 2196   2.422   0.106   0.491  0.3638 -0.0374 -0.4717
  144MPD2    C5 2197   2.359   0.133   0.369 -0.4719  0.4624  0.0783
  144MPD2     H 2198   2.400   4.499   0.489  1.0464  0.5729 -0.3502
  144MPD2    H1 2199   2.453   0.187   0.556  0.9913 -0.3570 -0.3766
  144MPD2    H2 2200   2.265   0.065   0.200 -2.9329 -0.3485  1.0504
  144MPD2    H3 2201   2.340   0.238   0.350 -1.2993  0.2612 -0.1797
  144MPD2     N 2202   2.533   4.690   0.639 -0.0511 -0.9383 -0.2308
  144MPD2    H5 2203   2.576   0.050   0.672 -1.2116 -0.8116  0.9549
  144MPD2    N1 2204   2.283   4.513   0.259 -0.3797 -0.4376  0.4916
  144MPD2    H7 2205   2.292   4.421   0.302  1.8766 -0.1255  0.6681
  145TCq2    C1 2206   2.572   4.573   0.701  0.3420  0.0627 -0.0441
  145TCq2    O2 2207   2.554   4.456   0.671 -0.1291  0.8293 -0.3767
  145TCq2    C2 2208   2.676   4.597   0.807  0.1882 -0.5998 -0.1252
  145TCq2    C3 2209   2.807   4.557   0.785 -0.2465  0.4696  0.2794
  145TCq2    C4 2210   2.898   4.564   0.888  0.0724 -0.6524  0.1990
  145TCq2    C5 2211   2.859   4.620   1.007 -0.7899  0.2380 -0.4476
  145TCq2    C6 2212   2.737   4.684   1.012  0.0946 -0.5335  0.3517
  145TCq2    C7 2213   2.648   4.682   0.911  0.4331  0.6904  0.5450
  145TCq2    C8 2214   2.704   0.022   1.139 -0.0507 -0.5340  0.1640
  145TCq2    O4 2215   2.800   0.064   1.204 -1.1969 -0.0536  0.1227
  145TCq2    C9 2216   3.035   4.523   0.872 -0.0325 -0.3643  0.5108
  145TCq2    O5 2217   3.104   4.515   0.979 -0.1089  0.1688 -0.2605
  145TCq2    O6 2218   3.088   4.538   0.758  0.2069 -0.0944  0.3394
  145TCq2    H2 2219   2.844   4.515   0.692 -1.0128  0.4195 -0.0043
  145TCq2    H3 2220   2.926   4.620   1.092 -1.2953  2.1243 -0.0671
  145TCq2    H4 2221   2.545   4.711   0.925  1.3439  3.6771  1.0817
  146TMC2    C1 2222   3.950   3.300  12.435  0.3138 -0.4044 -0.1784
  146TMC2    C2 2223   3.911   3.381  12.330  0.2751  0.5028  0.3619
  146TMC2    C3 2224   3.843   3.327  12.224  0.0066  0.0372  0.1388
  146TMC2    C4 2225   3.923   3.168  12.432 -0.1380 -0.0858 -0.0090
  146TMC2    C5 2226   3.857   3.118  12.323 -0.1665  0.4278  0.0498
  146TMC2    C6 2227   3.817   3.194  12.218 -0.7026 -1.0718 -0.5034
  146TMC2     C 2228   4.010   3.378  12.543  0.2443  0.0697  0.4884
  146TMC2     O 2229   4.009   3.500  12.543  0.8073 -0.0075 -0.0510
  146TMC2     H 2230   3.923   3.489  12.325  0.9982  0.4775  1.6416
  146TMC2    H1 2231   3.942   3.104  12.518  0.8328 -1.0315 -0.9286
  146TMC2    H2 2232   3.782   3.149  12.126  0.6497 -3.3512  0.0909
  146TMC2    C7 2233   3.821   2.983  12.327  0.6415 -0.4701  0.1872
  146TMC2    C8 2234   3.873   3.370  12.094  0.1950 -0.0460  0.7391
  146TMC2    O1 2235   3.734   2.945  12.251 -0.2597  0.2048 -0.1690
  146TMC2    O2 2236   3.963   3.320  12.024  0.4378  0.0984 -0.0188
  146TMC2    O5 2237   3.842   3.500  12.096 -0.1036 -0.5998 -0.3821
  146TMC2    H5 2238   3.767   3.507  12.159 -0.0119  0.6658 -0.3987
  147MPD2     C 2239   3.854   2.509  12.510 -0.4724 -0.5971  0.2680
  147MPD2    C1 2240   3.960   2.584  12.557  0.1088 -0.1241  0.0383
  147MPD2    C2 2241   3.974   2.719  12.536  0.1424  0.0560 -0.0271
  147MPD2    C3 2242   3.876   2.772  12.451  0.2557 -0.2434  0.3188
  147MPD2    C4 2243   3.763   2.702  12.426 -0.3236  0.7604  0.5511
  147MPD2    C5 2244   3.746   2.567  12.446 -0.0556  0.1492  1.1455
  147MPD2     H 2245   4.049   2.781  12.585  0.6788 -1.6595  1.3360
  147MPD2    H1 2246   3.687   2.750  12.366  0.4163 -0.7176 -1.5558
  147MPD2    H2 2247   3.839   2.407  12.543  2.4663 -2.1736 -3.2520
  147MPD2    H3 2248   3.661   2.509  12.414 -0.7693  2.0716 -0.4644
  147MPD2     N 2249   3.901   2.903  12.411 -0.4892  0.7790  0.7230
  147MPD2    H5 2250   3.984   2.943  12.454  0.8337 -1.4931  0.3188
  147MPD2    N1 2251   4.058   2.514  12.626 -0.1365 -0.3196 -0.1041
  147MPD2    H7 2252   4.041   2.424  12.670 -0.5357  1.3591  3.2095
  148MPD2     C 2253   4.225   2.176  10.600  0.0709 -0.2642 -0.4134
  148MPD2    C1 2254   4.276   2.057  10.635  0.3480 -0.2928  0.5089
  148MPD2    C2 2255   4.217   1.942  10.596  0.4857  0.0496 -0.9417
  148MPD2    C3 2256   4.102   1.948  10.517  0.3656  0.2377 -0.0793
  148MPD2    C4 2257   4.049   2.068  10.480 -0.0211 -0.2903  0.4506
  148MPD2    C5 2258   4.120   2.185  10.520  0.2999 -0.7234 -0.2974
  148MPD2     H 2259   4.254   1.849  10.639  0.6649  0.4961 -0.1417
  148MPD2    H1 2260   3.962   2.073  10.415 -0.0733 -1.6107  0.4328
  148MPD2    H2 2261   4.264   2.274  10.627 -1.7687  0.7667 -1.5015
  148MPD2    H3 2262   4.089   2.283  10.484  0.9153 -0.3815  0.1045
  148MPD2     N 2263   4.040   1.836  10.467  0.4310  0.2220  0.1286
  148MPD2    H5 2264   3.951   1.844  10.418  1.0012  1.3150 -0.7248
  148MPD2    N1 2265   4.395   2.043  10.709  0.5940  0.3471 -0.1197
  148MPD2    H7 2266   4.425   1.946  10.710 -0.4533  0.0897  4.4073
  149TCq2    C1 2267   4.488   2.145  10.728 -0.1464 -0.5011  0.5215
  149TCq2    O2 2268   4.457   2.264  10.736  0.6224  0.7754 -0.1293
  149TCq2    C2 2269   4.625   2.100  10.731  0.5167 -0.4386  0.4588
  149TCq2    C3 2270   4.719   2.196  10.711  0.5235  0.3767  0.4979
  149TCq2    C4 2271   0.125   2.147  10.692  0.3365 -0.0059  0.3851
  149TCq2    C5 2272   0.155   2.014  10.668  0.3120  0.2508 -0.4006
  149TCq2    C6 2273   0.053   1.928  10.694  0.0048 -0.9591  0.1615
  149TCq2    C7 2274   4.649   1.966  10.723  0.0851  0.4624  1.0899
  149TCq2    C8 2275   0.051   1.812  10.622 -0.1038 -0.0499  0.2458
  149TCq2    O4 2276   4.712   1.721  10.671 -0.3553 -0.3274 -0.4004
  149TCq2    C9 2277   0.238   2.238  10.653 -0.2749  0.4002  0.0832
  149TCq2    O5 2278   0.346   2.180  10.615  0.2219 -0.5773  0.1797
  149TCq2    O6 2279   0.223   2.364  10.660 -0.5508 -0.2770  0.2442
  149TCq2    H2 2280   4.693   2.300  10.723 -0.5352  0.4331 -2.2668
  149TCq2    H3 2281   0.253   1.985  10.633 -1.5345 -1.2315 -4.3917
  149TCq2    H4 2282   4.570   1.891  10.733 -0.2944  0.5208 -1.2559
  150MPD2     C 2283   1.102   1.612  11.765 -0.0727 -0.4313 -0.5062
  150MPD2    C1 2284   1.113   1.473  11.752 -0.4023 -0.1313 -0.2724
  150MPD2    C2 2285   1.218   1.413  11.827 -0.5712 -0.1882 -0.0209
  150MPD2    C3 2286   1.295   1.491  11.910 -0.0105  0.2440  0.0417
  150MPD2    C4 2287   1.258   1.625  11.932  0.2712  0.2867  0.2298
  150MPD2    C5 2288   1.173   1.690  11.852  0.6519 -0.3190  0.2649
  150MPD2     H 2289   1.243   1.308  11.815 -0.3965 -0.0410 -0.9832
  150MPD2    H1 2290   1.329   1.694  11.976  0.5818  0.1989 -0.1381
  150MPD2    H2 2291   1.028   1.665  11.706  0.1022 -2.1443 -2.2732
  150MPD2    H3 2292   1.166   1.799  11.854  2.2377 -0.2115  0.3071
  150MPD2     N 2293   1.400   1.429  11.971 -0.3374 -0.3979  0.1441
  150MPD2    H5 2294   1.419   1.333  11.943 -1.1682 -0.6161  0.3526
  150MPD2    N1 2295   1.026   1.405  11.667 -0.1073 -0.7241 -0.4565
  150MPD2    H7 2296   0.958   1.447  11.605 -2.5011 -2.4422  1.0073
  151TCq2    C1 2297   1.486   1.487  12.064  0.4479 -0.0275 -0.0760
  151TCq2    O2 2298   1.491   1.600  12.113 -0.2149  0.7722 -0.0460
  151TCq2    C2 2299   1.580   1.391  12.116  0.4184  0.5851 -0.0884
  151TCq2    C3 2300   1.548   1.255  12.110 -0.1060  0.2272  0.2505
  151TCq2    C4 2301   1.634   1.170  12.162  0.2132  0.3679  0.0054
  151TCq2    C5 2302   1.748   1.206  12.227 -0.1266  0.2983  0.1340
  151TCq2    C6 2303   1.767   1.343  12.233 -0.2388  0.3142 -0.1086
  151TCq2    C7 2304   1.697   1.436  12.170  0.1102 -0.0316 -0.0920
  151TCq2    C8 2305   1.879   1.394  12.313  0.0063  0.0221  0.0891
  151TCq2    O4 2306   1.889   1.518  12.301  0.0723 -0.7085 -0.2512
  151TCq2    C9 2307   1.590   1.031  12.156 -0.1837 -0.3300 -0.4117
  151TCq2    O5 2308   1.480   1.003  12.101 -0.1132  0.0772 -0.5887
  151TCq2    O6 2309   1.678   0.949  12.183 -0.2844 -0.1691  0.0722
  151TCq2    H2 2310   1.449   1.221  12.083 -1.0616  2.7391  0.6108
  151TCq2    H3 2311   1.826   1.138  12.259 -0.0439  0.8146  1.0326
  151TCq2    H4 2312   1.723   1.540  12.183 -0.1530 -0.0890  0.9293
  152MPD2     C 2313   1.107   0.940  12.703  0.6409 -0.5472 -0.1145
  152MPD2    C1 2314   1.091   1.027  12.593  0.3234  0.1829  0.8551
  152MPD2    C2 2315   0.975   1.038  12.530 -0.0689 -0.9166 -0.0664
  152MPD2    C3 2316   0.868   0.953  12.552 -0.2990  0.4802 -0.3614
  152MPD2    C4 2317   0.886   0.864  12.664 -0.3268  0.2904 -0.2775
  152MPD2    C5 2318   1.003   0.859  12.734  0.2367 -0.2083 -0.6311
  152MPD2     H 2319   0.957   1.105  12.446 -0.4697 -1.6951 -0.6067
  152MPD2    H1 2320   0.817   0.783  12.679  0.7498 -0.8059 -1.2765
  152MPD2    H2 2321   1.203   0.925  12.752 -0.1209 -0.8103  1.2890
  152MPD2    H3 2322   1.018   0.792  12.818  1.3953 -0.2553 -0.8773
  152MPD2     N 2323   0.752   0.946  12.472  0.1532 -0.0382  0.5477
  152MPD2    H5 2324   0.756   1.011  12.394 -0.3735 -0.3407  0.2729
  152MPD2    N1 2325   1.207   1.108  12.558 -0.3451  0.7687 -0.5354
  152MPD2    H7 2326   1.290   1.094  12.615 -0.8902  0.9432  0.3061
  153TCq2    C1 2327   1.211   1.195  12.454 -0.2153 -0.1124  0.3744
  153TCq2    O2 2328   1.122   1.246  12.388 -0.6529  0.0773 -0.0787
  153TCq2    C2 2329   1.341   1.230  12.435  0.4149 -0.4236  0.6793
  153TCq2    C3 2330   1.427   1.130  12.462  0.0143 -0.6909 -0.1945
  153TCq2    C4 2331   1.545   1.153  12.518  0.3274  0.4196  0.3225
  153TCq2    C5 2332   1.590   1.280  12.532 -0.0664  1.0468 -0.9565
  153TCq2    C6 2333   1.503   1.385  12.500 -0.0862  0.2289  0.3318
  153TCq2    C7 2334   1.371   1.359  12.459 -0.2802 -0.3646 -0.4663
  153TCq2    C8 2335   1.549   1.526  12.514 -0.4804  0.3223 -0.5399
  153TCq2    O4 2336   1.498   1.602  12.433  0.2227  0.3858  0.3615
  153TCq2    C9 2337   1.649   1.059  12.523  0.0784  0.2050 -0.0249
  153TCq2    O5 2338   1.767   1.097  12.509  0.0607 -0.4256 -0.4762
  153TCq2    O6 2339   1.613   0.937  12.516 -0.2423 -0.5240  0.7369
  153TCq2    H2 2340   1.406   1.035  12.413 -0.6623 -0.8998  0.5118
  153TCq2    H3 2341   1.694   1.304  12.551  0.7039  1.0260 -5.0112
  153TCq2    H4 2342   1.296   1.436  12.444 -0.6873 -0.0369  3.2190
  154MPD2     C 2343   2.545   0.512   0.587 -0.3678 -0.2709 -0.3718
  154MPD2    C1 2344   2.463   0.608   0.650 -0.0663 -0.7596 -0.7180
  154MPD2    C2 2345   2.334   0.639   0.605  0.3316 -0.6788 -0.0722
  154MPD2    C3 2346   2.289   0.583   0.488  0.2242  0.2512 -0.0282
  154MPD2    C4 2347   2.380   0.518   0.418  0.2431  0.6513 -0.5533
  154MPD2    C5 2348   2.509   0.476   0.460  0.7552 -0.3754  0.1747
  154MPD2     H 2349   2.268   0.704   0.662 -0.1946 -0.7195 -0.6329
  154MPD2    H1 2350   2.357   0.474   0.322  1.3359 -2.5872  0.6716
  154MPD2    H2 2351   2.637   0.483   0.635  0.4326  1.3839 -0.9211
  154MPD2    H3 2352   2.569   0.405   0.405 -0.4770 -0.1149 -1.4913
  154MPD2     N 2353   2.158   0.620   0.442  0.2295 -0.0470 -0.1875
  154MPD2    H5 2354   2.098   0.659   0.514  1.1204 -0.6573  0.8923
  154MPD2    N1 2355   2.525   0.684   0.761  0.1556 -0.5508  0.3860
  154MPD2    H7 2356   2.619   0.659   0.789  1.3712  2.6553 -0.8240
  155TCq2    C1 2357   2.463   0.796   0.819  0.1343  0.1668 -0.0689
  155TCq2    O2 2358   2.357   0.852   0.791 -0.0647 -0.1099  0.1688
  155TCq2    C2 2359   2.544   0.858   0.923 -0.7025 -0.0732  0.0354
  155TCq2    C3 2360   2.612   0.779   1.005  0.4362  0.2925  0.0262
  155TCq2    C4 2361   2.616   0.815   1.138 -0.0373 -0.0413 -0.9955
  155TCq2    C5 2362   2.548   0.924   1.191  0.3457 -0.3914 -0.0378
  155TCq2    C6 2363   2.483   0.996   1.099  0.2900 -0.4580  0.0816
  155TCq2    C7 2364   2.479   0.968   0.968  0.0111  0.3532 -0.2859
  155TCq2    C8 2365   2.416   1.118   1.147 -0.1349 -0.5426  0.5819
  155TCq2    O4 2366   2.433   1.151   1.264 -0.0895 -0.0302 -0.4475
  155TCq2    C9 2367   2.691   0.739   1.234  0.5682 -0.0968 -0.2480
  155TCq2    O5 2368   2.753   0.640   1.192  0.0945  0.0101  0.9538
  155TCq2    O6 2369   2.694   0.775   1.356  0.0108 -0.0159  0.7435
  155TCq2    H2 2370   2.651   0.682   0.974  0.4079  0.4602 -0.5264
  155TCq2    H3 2371   2.547   0.943   1.297  0.8069  1.8961 -0.4492
  155TCq2    H4 2372   2.427   1.027   0.894  3.4156  2.1834 -1.2213
  156MPD2     C 2373   2.008   3.437  11.775  0.4584  0.1816 -0.3027
  156MPD2    C1 2374   1.888   3.497  11.736  0.2660  0.4397 -0.0036
  156MPD2    C2 2375   1.794   3.517  11.842  0.2667  0.2098  0.1412
  156MPD2    C3 2376   1.835   3.502  11.974  0.4952 -0.1146 -0.1528
  156MPD2    C4 2377   1.965   3.474  12.004  0.7444 -0.0369  0.6895
  156MPD2    C5 2378   2.046   3.426  11.905 -0.1237  0.4228  0.8015
  156MPD2     H 2379   1.688   3.535  11.827  0.8057  1.9103 -1.6555
  156MPD2    H1 2380   2.003   3.463  12.105  0.8364 -0.5294  0.6007
  156MPD2    H2 2381   2.083   3.409  11.702  1.2624  0.0728  0.5820
  156MPD2    H3 2382   2.143   3.388  11.936 -1.1710 -3.0452 -0.1636
  156MPD2     N 2383   1.734   3.525  12.072 -0.5954 -0.0205 -0.3441
  156MPD2    H5 2384   1.639   3.542  12.041 -0.4790 -2.1424 -1.8991
  156MPD2    N1 2385   1.861   3.522  11.601 -0.3378  0.2276  1.0869
  156MPD2    H7 2386   1.932   3.509  11.529  0.3153  0.7662  1.6399
  157TCq2    C1 2387   1.739   3.552  11.556 -0.9490 -0.7040  0.1599
  157TCq2    O2 2388   1.629   3.521  11.600 -0.0741  0.0729  1.1210
  157TCq2    C2 2389   1.746   3.602  11.421  0.6169  0.2647  1.1107
  157TCq2    C3 2390   1.850   3.685  11.398 -0.2389 -0.3474 -0.7886
  157TCq2    C4 2391   1.845   3.752  11.278 -0.1416 -0.3085  0.5005
  157TCq2    C5 2392   1.733   3.741  11.198 -0.0344 -0.0636 -0.2204
  157TCq2    C6 2393   1.625   3.662  11.233 -0.3729 -0.8794 -0.0509
  157TCq2    C7 2394   1.634   3.586  11.345 -0.6451  0.5731  0.1809
  157TCq2    C8 2395   1.499   3.685  11.163  0.0726 -0.2094  0.5599
  157TCq2    O4 2396   1.499   3.771  11.075  0.3061 -0.5879 -0.5092
  157TCq2    C9 2397   1.946   3.851  11.249  0.2584  0.0636 -0.5616
  157TCq2    O5 2398   2.043   3.867  11.331 -1.1370  0.6596  0.3299
  157TCq2    O6 2399   1.926   3.931  11.157  0.1985 -0.4389  0.2333
  157TCq2    H2 2400   1.939   3.695  11.459  0.6313 -1.6818 -1.8527
  157TCq2    H3 2401   1.724   3.814  11.118 -1.4556 -3.3944 -3.1155
  157TCq2    H4 2402   1.547   3.534  11.384 -1.2361  1.2708 -0.2145
  158TMC2    C1 2403   1.843   2.417  13.461  0.6631  0.0282 -0.0847
  158TMC2    C2 2404   1.926   2.448  13.358  0.6921  0.8224  0.3086
  158TMC2    C3 2405   1.864   2.478  13.241  0.1871  0.2149 -0.3481
  158TMC2    C4 2406   1.706   2.439  13.466  0.2616 -0.4350 -0.1170
  158TMC2    C5 2407   1.660   2.468  13.346  0.3563  0.0236  0.4933
  158TMC2    C6 2408   1.736   2.500  13.236  0.5346  0.2678 -0.6645
  158TMC2     C 2409   1.914   2.393  13.589  0.1948  0.8327  0.6779
  158TMC2     O 2410   2.030   2.436  13.598 -0.2577  0.2270 -0.0500
  158TMC2     H 2411   2.029   2.414  13.358  0.6701  0.7428  0.9489
  158TMC2    H1 2412   1.645   2.431  13.555  0.9959 -0.4707  0.3860
  158TMC2    H2 2413   1.689   2.524  13.142 -0.8223  0.5869  0.0801
  158TMC2    C7 2414   1.519   2.476  13.332  0.6947 -0.9093  0.3553
  158TMC2    C8 2415   1.955   2.484  13.130 -0.1679  0.0835 -0.1078
  158TMC2    O1 2416   1.471   2.546  13.242 -0.2373  0.0304  0.1271
  158TMC2    O2 2417   1.917   2.477  13.013 -0.1297  0.2427 -0.4041
  158TMC2    O5 2418   2.044   2.580  13.172 -0.3555 -0.4620  0.1004
  158TMC2    H5 2419   2.034   2.603  13.266  1.2392  1.7183 -0.2545
  159MPD2     C 2420   1.924   2.177  14.058 -0.1661  0.1113  0.3730
  159MPD2    C1 2421   1.799   2.149  14.006 -0.1853 -0.1543  0.4211
  159MPD2    C2 2422   1.770   2.197  13.880  0.7261 -0.4527  0.1735
  159MPD2    C3 2423   1.859   2.273  13.808 -0.0633  0.1206 -0.0541
  159MPD2    C4 2424   1.982   2.297  13.861 -0.1787  0.1018  0.2156
  159MPD2    C5 2425   2.015   2.249  13.983  0.2975  0.1585  0.5218
  159MPD2     H 2426   1.678   2.167  13.833  1.6357 -2.4038 -0.3416
  159MPD2    H1 2427   2.051   2.359  13.805 -1.1980  0.2152 -0.9093
  159MPD2    H2 2428   1.946   2.137  14.157  1.8367 -1.5196 -0.7167
  159MPD2    H3 2429   2.107   2.275  14.034  0.0163  2.8468 -0.3681
  159MPD2     N 2430   1.834   2.318  13.675  0.1713  0.1162 -0.4113
  159MPD2    H5 2431   1.741   2.291  13.645  0.0766  0.3639 -0.3424
  159MPD2    N1 2432   1.710   2.073  14.089 -0.2429 -0.8277  0.3363
  159MPD2    H7 2433   1.743   2.029  14.174 -1.9182  0.1650  1.4901
  160TMC2    C1 2434   1.744   4.557   1.192 -0.3216 -0.4591  0.0534
  160TMC2    C2 2435   1.741   4.467   1.295 -0.4859 -0.7723  0.6616
  160TMC2    C3 2436   1.747   4.335   1.258 -0.6055  0.2277 -0.3207
  160TMC2    C4 2437   1.760   4.525   1.058 -0.7586  0.0081 -0.4311
  160TMC2    C5 2438   1.766   4.395   1.031 -0.1469  0.8171 -0.9130
  160TMC2    C6 2439   1.748   4.291   1.126 -0.3368  0.2190  0.9495
  160TMC2     C 2440   1.762   4.695   1.231  0.8609  0.3198 -0.6453
  160TMC2     O 2441   1.807   4.706   1.343  0.1793  0.4953  0.1976
  160TMC2     H 2442   1.712   4.489   1.397  1.5040 -0.3498  1.1409
  160TMC2    H1 2443   1.782   4.605   0.988 -2.8279  1.7923  0.9384
  160TMC2    H2 2444   1.735   4.187   1.098 -0.6386  0.2802  0.8683
  160TMC2    C7 2445   1.807   4.349   0.902 -0.9378  0.6348 -0.8809
  160TMC2    C8 2446   1.715   4.235   1.357  0.1429  0.2482  0.9467
  160TMC2    O1 2447   1.803   4.228   0.888  0.4610 -0.2270  0.4662
  160TMC2    O2 2448   1.742   4.242   1.475  0.0450 -0.0149  0.4012
  160TMC2    O5 2449   1.599   4.177   1.315  0.5695 -0.4789 -0.4471
  160TMC2    H5 2450   1.566   4.215   1.230 -1.0358 -0.9090 -0.0154
  161MPD2     C 2451   1.690   0.248   1.307  0.5027 -0.5758 -0.0500
  161MPD2    C1 2452   1.659   0.194   1.182 -0.8419 -0.2805 -0.6303
  161MPD2    C2 2453   1.577   0.265   1.097  0.4988 -0.0197  0.0883
  161MPD2    C3 2454   1.540   0.396   1.131 -0.4621  0.4018  0.2206
  161MPD2    C4 2455   1.580   0.447   1.252 -0.2594  0.4450 -0.4650
  161MPD2    C5 2456   1.651   0.373   1.340 -0.1490 -0.0468 -0.1171
  161MPD2     H 2457   1.547   0.225   1.001  1.3569 -1.5557  0.4533
  161MPD2    H1 2458   1.563   0.552   1.270  1.7077  0.4277  1.5031
  161MPD2    H2 2459   1.759   0.194   1.371  1.6742  0.0676 -0.7674
  161MPD2    H3 2460   1.674   0.427   1.431 -0.2778 -1.8576  0.9878
  161MPD2     N 2461   1.443   0.472   1.069 -0.0075 -0.1029 -0.2794
  161MPD2    H5 2462   1.444   0.571   1.090 -3.9496  0.4795 -2.8179
  161MPD2    N1 2463   1.699   0.058   1.147  0.3579  0.5122 -0.1323
  161MPD2    H7 2464   1.668   0.027   1.055  0.2403 -2.5553  0.9478
  162TMC2    C1 2465   3.352   1.729   0.728  0.6519 -0.2674 -0.5146
  162TMC2    C2 2466   3.264   1.733   0.627  0.6994  0.3398  0.3002
  162TMC2    C3 2467   3.152   1.816   0.638 -0.2599  0.8758 -0.2787
  162TMC2    C4 2468   3.340   1.815   0.838  0.1638  0.1955 -0.1677
  162TMC2    C5 2469   3.231   1.894   0.850  0.4533  0.2252  0.7128
  162TMC2    C6 2470   3.140   1.903   0.747 -0.4116 -0.2149  0.8984
  162TMC2     C 2471   3.485   1.713   0.676 -0.8164 -0.5602  0.1466
  162TMC2     O 2472   3.504   1.750   0.560 -0.2974  0.0824  0.0203
  162TMC2     H 2473   3.272   1.657   0.550 -1.7401 -0.5640  0.9163
  162TMC2    H1 2474   3.420   1.805   0.910 -0.7123  0.2876  0.8286
  162TMC2    H2 2475   3.042   1.949   0.754  0.2983  1.5605 -0.6259
  162TMC2    C7 2476   3.199   1.983   0.963 -0.3426 -0.3848 -0.2859
  162TMC2    C8 2477   3.036   1.771   0.566  0.2320  0.5760 -0.5234
  162TMC2    O1 2478   3.109   2.070   0.959  0.0024  0.0523  0.7659
  162TMC2    O2 2479   2.924   1.757   0.618 -0.2807 -0.2755 -0.6027
  162TMC2    O5 2480   3.064   1.724   0.441  0.7675 -0.5759  0.3375
  162TMC2    H5 2481   3.159   1.739   0.420  0.5806  0.9696  0.5710
  163MPD2     C 2482   3.989   1.631   0.746  0.6528 -0.3392 -0.0903
  163MPD2    C1 2483   3.929   1.699   0.637  0.7071 -0.0353  0.1086
  163MPD2    C2 2484   3.791   1.706   0.645  0.8985  0.1950 -0.4600
  163MPD2    C3 2485   3.716   1.648   0.745  0.6000 -0.2674  0.2583
  163MPD2    C4 2486   3.778   1.583   0.851  0.1148  1.1746  0.9205
  163MPD2    C5 2487   3.913   1.577   0.850 -0.8249 -0.2623  0.0370
  163MPD2     H 2488   3.737   1.767   0.573  2.7513  1.0486 -1.1012
  163MPD2    H1 2489   3.730   1.532   0.934 -0.7065 -2.7191 -1.9281
  163MPD2    H2 2490   4.097   1.617   0.745  0.5422 -1.0800 -1.6764
  163MPD2    H3 2491   3.959   1.526   0.933 -0.6801  0.8017  0.6025
  163MPD2     N 2492   3.576   1.671   0.769 -0.3654  0.2323  0.1851
  163MPD2    H5 2493   3.547   1.638   0.861  1.8185 -2.8014 -0.2005
  163MPD2    N1 2494   4.017   1.745   0.527  0.2840  0.1391  0.3902
  163MPD2    H7 2495   4.117   1.735   0.538  0.0513 -2.0621  0.5385
  164TCq2    C1 2496   0.041   2.006  11.082 -0.3603 -0.8380 -0.3004
  164TCq2    O2 2497   0.061   2.127  11.094  0.2693  0.1049  0.3625
  164TCq2    C2 2498   4.637   1.942  11.096 -0.3239  0.3662  0.0390
  164TCq2    C3 2499   4.615   1.819  11.045 -0.4757 -0.1071  0.5715
  164TCq2    C4 2500   4.494   1.796  10.995 -0.1738  0.4313 -1.1343
  164TCq2    C5 2501   4.390   1.884  10.991  0.6874  0.8316  0.1425
  164TCq2    C6 2502   4.414   2.004  11.059  0.5117 -0.3033  0.1994
  164TCq2    C7 2503   4.535   2.033  11.103  0.2109  0.8505 -0.7122
  164TCq2    C8 2504   4.300   2.085  11.095 -0.2752 -0.3030  0.0570
  164TCq2    O4 2505   4.196   2.065  11.030  0.5776 -0.5577  0.1074
  164TCq2    C9 2506   4.467   1.665  10.943  0.1080 -0.3773  0.4939
  164TCq2    O5 2507   4.567   1.605  10.898 -0.4807 -0.0773 -0.4482
  164TCq2    O6 2508   4.346   1.635  10.924  0.2958 -0.3819  0.9859
  164TCq2    H2 2509   4.689   1.741  11.057 -0.8523 -0.1858  2.2879
  164TCq2    H3 2510   4.294   1.864  10.945  0.9231  0.1225 -0.0313
  164TCq2    H4 2511   4.556   2.133  11.138  0.2636  0.6762 -0.2443
  165MPD2     C 2512   0.582   4.572   1.207 -0.2354  0.3885 -0.1330
  165MPD2    C1 2513   0.694   4.483   1.208 -0.5697  0.3478  0.0447
  165MPD2    C2 2514   0.810   4.529   1.259  0.4121  0.3097 -0.6625
  165MPD2    C3 2515   0.823   4.661   1.302 -0.0500 -0.0646  0.4460
  165MPD2    C4 2516   0.716   0.024   1.303 -0.4273  0.2879  0.2688
  165MPD2    C5 2517   0.599   4.703   1.261 -0.2281  0.0128  0.0790
  165MPD2     H 2518   0.894   4.464   1.284 -0.7455  0.3290  3.1382
  165MPD2    H1 2519   0.715   0.126   1.339 -1.3561  0.3681  0.0004
  165MPD2    H2 2520   0.482   4.542   1.178 -1.0092  0.6980  2.1866
  165MPD2    H3 2521   0.510   0.040   1.265  0.3394  0.8042  0.5289
  165MPD2     N 2522   0.932   4.702   1.376 -0.5360 -0.3261 -0.2140
  165MPD2    H5 2523   0.928   0.070   1.417 -0.3993 -0.1169 -0.6638
  165MPD2    N1 2524   0.673   4.347   1.198  0.2654 -0.2844  0.8068
  165MPD2    H7 2525   0.581   4.311   1.220 -0.0776  0.8321  1.1806
  166TCq2    C1 2526   1.054   4.650   1.384 -0.6916 -0.0940  0.5008
  166TCq2    O2 2527   1.108   4.568   1.312 -0.5634 -0.0619  0.1919
  166TCq2    C2 2528   1.129   4.700   1.498 -0.1283  0.1964  0.6078
  166TCq2    C3 2529   1.105   0.093   1.568 -0.0453  1.0408 -0.3430
  166TCq2    C4 2530   1.196   0.139   1.665  1.0792 -0.5607 -0.0801
  166TCq2    C5 2531   1.314   0.073   1.685  0.5538 -0.1828  0.5192
  166TCq2    C6 2532   1.337   4.685   1.616 -0.1136  0.2959  0.0865
  166TCq2    C7 2533   1.250   4.634   1.518 -0.3834 -0.4994 -0.6067
  166TCq2    C8 2534   1.465   4.630   1.611  0.3161 -0.1554  0.5802
  166TCq2    O4 2535   1.491   4.557   1.514  0.0712 -0.3218 -0.6457
  166TCq2    C9 2536   1.167   0.261   1.738 -0.1232  0.2025 -0.7958
  166TCq2    O5 2537   1.047   0.301   1.743 -0.2257 -0.0366  1.0012
  166TCq2    O6 2538   1.257   0.306   1.812  0.5929 -0.8440 -0.3771
  166TCq2    H2 2539   1.017   0.152   1.543 -0.4572  0.4446 -0.3104
  166TCq2    H3 2540   1.378   0.119   1.759  1.2892  0.3827 -0.4582
  166TCq2    H4 2541   1.282   4.540   1.475  2.9816 -0.4772  1.7826
  167TMC2    C1 2542   3.439   2.135  11.932  0.0330 -0.5587 -0.1944
  167TMC2    C2 2543   3.399   2.262  11.917 -0.3069 -0.5972 -0.0032
  167TMC2    C3 2544   3.472   2.359  11.994 -0.2254  0.2663 -0.4407
  167TMC2    C4 2545   3.547   2.104  12.013  0.0584 -0.1399 -0.2648
  167TMC2    C5 2546   3.601   2.199  12.092 -0.0782  0.3488 -0.8268
  167TMC2    C6 2547   3.558   2.323  12.094  1.0432  0.8776  0.1144
  167TMC2     C 2548   3.377   2.039  11.845  0.1099  0.5672 -0.7040
  167TMC2     O 2549   3.328   2.081  11.743 -0.4817  0.2665 -0.6916
  167TMC2     H 2550   3.315   2.297  11.859  0.8585  0.1858 -1.2115
  167TMC2    H1 2551   3.610   2.021  11.982 -1.0431 -1.2824  0.5445
  167TMC2    H2 2552   3.617   2.397  12.146  1.2509  1.1635 -0.5249
  167TMC2    C7 2553   3.719   2.168  12.170 -0.2022 -0.4008  0.1799
  167TMC2    C8 2554   3.459   2.503  11.968 -0.6694 -0.0922  0.1816
  167TMC2    O1 2555   3.801   2.256  12.194  0.1764 -0.0980 -0.3691
  167TMC2    O2 2556   3.490   2.593  12.045  0.3815  0.0548 -0.6447
  167TMC2    O5 2557   3.424   2.527  11.839 -0.4375 -0.1963  0.3254
  167TMC2    H5 2558   3.420   2.450  11.778  3.2395 -0.3091  0.2348
  168MPD2     C 2559   3.222   1.794  11.750  0.7157  0.4106 -0.1890
  168MPD2    C1 2560   3.335   1.786  11.829 -0.2781  0.1858  0.7540
  168MPD2    C2 2561   3.386   1.666  11.868 -0.5725  0.6720  0.4457
  168MPD2    C3 2562   3.331   1.550  11.818  0.0878 -0.6292 -0.2584
  168MPD2    C4 2563   3.217   1.552  11.744 -0.1343 -0.4746 -0.5024
  168MPD2    C5 2564   3.165   1.678  11.714  0.4859 -1.0267 -0.1139
  168MPD2     H 2565   3.481   1.674  11.921  0.1696 -2.6474 -0.3503
  168MPD2    H1 2566   3.165   1.463  11.712 -1.7309  0.6204 -0.9722
  168MPD2    H2 2567   3.177   1.887  11.719 -1.5340 -0.7205 -0.3181
  168MPD2    H3 2568   3.067   1.683  11.668  0.9027 -0.1666 -0.9047
  168MPD2     N 2569   3.382   1.417  11.835  0.4440  1.4548  0.2378
  168MPD2    H5 2570   3.315   1.343  11.815  0.7858  1.3185 -0.4296
  168MPD2    N1 2571   3.398   1.906  11.886 -0.2169 -0.4903  1.0724
  168MPD2    H7 2572   3.462   1.899  11.965  1.0738  1.6128  0.1900
  169MPD1     C 2573   1.337   1.349   8.745  0.6047  1.1008 -0.0213
  169MPD1    C1 2574   1.244   1.337   8.840 -0.6060 -1.4522  0.8262
  169MPD1    C2 2575   1.284   1.272   8.953 -0.1635  0.3340  0.0053
  169MPD1    C3 2576   1.414   1.231   8.976  0.3916  0.6798  0.1268
  169MPD1    C4 2577   1.515   1.271   8.889 -0.2131 -0.0688 -0.2816
  169MPD1    C5 2578   1.465   1.325   8.774 -0.1163  0.4930  0.5680
  169MPD1     H 2579   1.215   1.247   9.033  1.7551 -2.0329  0.9143
  169MPD1    H1 2580   1.620   1.266   8.915 -0.2389  1.4024  0.1229
  169MPD1    H2 2581   1.311   1.397   8.651  1.2276 -1.9196 -1.7470
  169MPD1    H3 2582   1.529   1.367   8.698 -0.7075  0.0233 -0.1875
  169MPD1     N 2583   1.441   1.168   9.101  0.2731  0.1698 -0.1460
  169MPD1    H5 2584   1.359   1.154   9.159 -0.5728  0.9097 -1.1504
  169MPD1    N1 2585   1.108   1.373   8.820  0.2662 -0.9072  0.4413
  169MPD1    H6 2586   1.044   1.362   8.898 -1.4629  0.9046 -0.7214
  169MPD1    H7 2587   1.088   1.454   8.761  1.8789  0.0636  1.2096
  170MPD1     C 2588   4.176   4.554  12.929  0.0620  0.5439 -0.1986
  170MPD1    C1 2589   4.191   4.453  13.022 -0.3942 -0.3906 -0.4785
  170MPD1    C2 2590   4.306   4.448  13.099 -0.9091 -0.2666  0.2867
  170MPD1    C3 2591   4.398   4.550  13.093 -1.3984  0.2411  0.1606
  170MPD1    C4 2592   4.380   4.652  13.000  0.0628 -0.2303 -0.0197
  170MPD1    C5 2593   4.271   4.649  12.913  0.0002  0.0704 -0.1034
  170MPD1     H 2594   4.334   4.372  13.171 -0.5969 -0.0965  0.3445
  170MPD1    H1 2595   4.459   4.722  12.975 -1.9416  1.2899 -2.0130
  170MPD1    H2 2596   4.088   4.557  12.865  0.2992 -0.2566 -0.5560
  170MPD1    H3 2597   4.267   4.712  12.825 -1.3614  0.6733  0.3901
  170MPD1     N 2598   4.511   4.546  13.181  0.1579 -0.1146 -0.1743
  170MPD1    H5 2599   4.548   4.454  13.203 -1.7697 -0.4725  1.5598
  170MPD1    N1 2600   4.103   4.339  13.008  0.1103 -0.6527 -0.1677
  170MPD1    H6 2601   4.011   4.364  12.970  1.3527  0.7298 -2.2984
  170MPD1    H7 2602   4.087   4.291  13.096  0.6123  0.0366  0.2989
  171MPD1     C 2603   3.505   0.390  14.793 -0.7871 -0.3916  0.3589
  171MPD1    C1 2604   3.540   0.467  14.899 -0.1773 -0.3497 -0.0867
  171MPD1    C2 2605   3.558   0.404  15.023  0.2387  0.0102  0.1998
  171MPD1    C3 2606   3.554   0.261  15.033 -0.1897 -0.5263  0.9055
  171MPD1    C4 2607   3.526   0.192  14.921 -0.4146  0.1039  0.2026
  171MPD1    C5 2608   3.497   0.256  14.808  0.0037 -0.3305  0.0059
  171MPD1     H 2609   3.599   0.468  15.100 -1.0036 -1.1331  1.8056
  171MPD1    H1 2610   3.514   0.084  14.923 -2.6323  0.3319 -1.2900
  171MPD1    H2 2611   3.496   0.438  14.695 -0.6589  0.3421  0.7040
  171MPD1    H3 2612   3.470   0.204  14.717 -1.7457  1.2041 -0.3689
  171MPD1     N 2613   3.597   0.198  15.153 -0.4107  0.1382  0.5165
  171MPD1    H5 2614   3.624   0.100  15.155  1.0785  0.5519  1.0064
  171MPD1    N1 2615   3.543   0.606  14.892 -0.3974  0.4076 -0.1235
  171MPD1    H6 2616   3.604   0.662  14.951  0.4041  1.5089 -2.0086
  171MPD1    H7 2617   3.539   0.650  14.800 -1.1498  0.2542 -0.1576
  172MPD1     C 2618   2.895   4.252  17.348 -0.2223 -0.0679 -0.6566
  172MPD1    C1 2619   2.766   4.286  17.379 -0.2032  0.8369 -0.3414
  172MPD1    C2 2620   2.733   4.346  17.499 -0.2099 -0.4483 -0.0469
  172MPD1    C3 2621   2.832   4.368  17.591  0.5556 -0.1492 -0.7435
  172MPD1    C4 2622   2.960   4.336  17.557 -0.2832  0.6114 -0.5652
  172MPD1    C5 2623   2.987   4.277  17.435 -0.9438  0.3245 -0.1067
  172MPD1     H 2624   2.627   4.368  17.514  0.2088  2.8037 -1.7906
  172MPD1    H1 2625   3.035   4.355  17.632  0.2938 -0.6757 -0.8199
  172MPD1    H2 2626   2.912   4.205  17.251  2.2193 -0.7779  0.1365
  172MPD1    H3 2627   3.090   4.257  17.407 -1.7018  0.5326 -3.0260
  172MPD1     N 2628   2.817   4.410   0.017  0.3610 -0.4456  0.0731
  172MPD1    H5 2629   2.901   4.415   0.073  1.2052 -0.0465 -1.2338
  172MPD1    N1 2630   2.676   4.278  17.267  0.7324 -0.4191 -0.4300
  172MPD1    H6 2631   2.577   4.269  17.290  0.1243  2.9627 -1.6795
  172MPD1    H7 2632   2.704   4.196  17.213 -2.9778 -2.3900  0.6142
  173MPD1     C 2633   4.424   0.057  14.779 -0.1939 -0.2438 -0.4814
  173MPD1    C1 2634   4.373   0.032  14.656  0.2740 -0.1342 -0.5085
  173MPD1    C2 2635   4.273   4.663  14.642 -0.4622  0.8073  0.1114
  173MPD1    C3 2636   4.205   4.616  14.761  0.1243 -0.2738 -0.3400
  173MPD1    C4 2637   4.253   4.661  14.883 -0.0890 -0.0095  0.1482
  173MPD1    C5 2638   4.351   0.031  14.888 -0.1416  0.7389 -0.5026
  173MPD1     H 2639   4.236   4.633  14.544  2.2284 -1.7422 -0.1142
  173MPD1    H1 2640   4.210   4.629  14.978  0.4621 -2.3250 -0.4062
  173MPD1    H2 2641   4.511   0.121  14.789 -0.7594  0.5083 -0.3832
  173MPD1    H3 2642   4.391   0.067  14.982  1.9032  0.0258 -1.0984
  173MPD1     N 2643   4.095   4.523  14.744  0.3625  0.1732  0.4671
  173MPD1    H5 2644   4.074   4.499  14.647  0.0254 -1.4657  0.9378
  173MPD1    N1 2645   4.438   0.069  14.537 -0.1653 -0.5011  0.1915
  173MPD1    H6 2646   4.494   0.154  14.540 -0.8291 -0.0077 -1.6926
  173MPD1    H7 2647   4.379   0.066  14.455  0.1923 -2.6922  0.0019
  174MPD1     C 2648   3.749   3.913  14.095  0.0672 -0.6264  0.2215
  174MPD1    C1 2649   3.673   4.010  14.151  0.3980  0.3037 -0.0850
  174MPD1    C2 2650   3.705   4.063  14.274  0.0949 -0.4044  0.9480
  174MPD1    C3 2651   3.811   4.005  14.352  0.6847 -0.5204 -0.2942
  174MPD1    C4 2652   3.869   3.896  14.305  0.3697 -0.5383  0.1590
  174MPD1    C5 2653   3.839   3.851  14.176 -0.0379  0.9327  0.1675
  174MPD1     H 2654   3.641   4.142  14.311  0.1280 -1.5833  3.5123
  174MPD1    H1 2655   3.944   3.843  14.363  0.5552 -1.2805 -0.7601
  174MPD1    H2 2656   3.749   3.874  13.994  0.4814 -2.7997  1.0485
  174MPD1    H3 2657   3.888   3.764  14.134  1.6891  1.6781  0.6115
  174MPD1     N 2658   3.847   4.057  14.476  0.4958 -0.3744 -0.7970
  174MPD1    H5 2659   3.917   4.002  14.525  0.0792 -0.7586 -0.6392
  174MPD1    N1 2660   3.582   4.069  14.066  0.2164  0.2258 -0.1605
  174MPD1    H6 2661   3.545   4.005  13.997 -1.3414  0.9350  0.0129
  174MPD1    H7 2662   3.505   4.117  14.112  1.2280  1.3171  0.4038
  175MPD1     C 2663   3.353   0.599  15.799 -0.8378  0.7341 -0.4965
  175MPD1    C1 2664   3.386   0.540  15.920 -0.0124  0.1115 -0.0099
  175MPD1    C2 2665   3.280   0.490  15.993 -0.2955  0.2440  0.0454
  175MPD1    C3 2666   3.152   0.495  15.952 -0.4116  0.5476 -0.5048
  175MPD1    C4 2667   3.126   0.549  15.824  0.5163  1.1080 -0.4681
  175MPD1    C5 2668   3.228   0.601  15.755 -0.2703 -0.4337  0.5294
  175MPD1     H 2669   3.296   0.433  16.083 -1.7893  1.7209  1.2310
  175MPD1    H1 2670   3.028   0.560  15.779  0.7902  0.0007 -1.3601
  175MPD1    H2 2671   3.432   0.642  15.738 -1.3106 -0.1866 -1.7334
  175MPD1    H3 2672   3.211   0.647  15.658  0.2004 -0.6790  0.3314
  175MPD1     N 2673   3.040   0.449  16.023  0.0038  0.0764 -0.0236
  175MPD1    H5 2674   2.950   0.452  15.976  1.0910  1.5627 -2.0157
  175MPD1    N1 2675   3.519   0.535  15.968 -0.6731 -0.2660 -0.4090
  175MPD1    H6 2676   3.589   0.516  15.897  0.6206 -0.2266  0.8398
  175MPD1    H7 2677   3.531   0.465  16.041 -0.0741 -0.7690 -0.9957
  176MPD1     C 2678   4.137   1.371  16.533  0.4919 -0.1694 -0.3393
  176MPD1    C1 2679   4.175   1.357  16.669 -0.2850  0.1747  0.0171
  176MPD1    C2 2680   4.179   1.472  16.754 -0.3902  0.1714 -0.1365
  176MPD1    C3 2681   4.147   1.598  16.703  0.5460  0.0609 -0.3304
  176MPD1    C4 2682   4.095   1.601  16.575  0.0387  0.7231 -0.5342
  176MPD1    C5 2683   4.094   1.489  16.492  0.3206 -0.0882  0.8331
  176MPD1     H 2684   4.200   1.463  16.860 -0.8136  0.4953 -0.0256
  176MPD1    H1 2685   4.080   1.693  16.521 -3.4223  2.3673  3.2748
  176MPD1    H2 2686   4.127   1.283  16.471 -2.5221  1.1767 -1.7931
  176MPD1    H3 2687   4.066   1.495  16.388 -3.7159  1.5709  2.0346
  176MPD1     N 2688   4.151   1.715  16.785 -0.5570 -0.0042 -0.1136
  176MPD1    H5 2689   4.214   1.713  16.865  0.7834 -1.9514 -1.2110
  176MPD1    N1 2690   4.210   1.227  16.721 -0.0643  0.5897  0.2464
  176MPD1    H6 2691   4.245   1.223  16.816  1.2154 -0.5916 -0.2786
  176MPD1    H7 2692   4.280   1.177  16.667 -0.8671 -1.6173  1.2266
  177MPD1     C 2693   2.666   1.902  10.157  0.5675 -0.0252 -0.3449
  177MPD1    C1 2694   2.543   1.936  10.133  0.0504 -0.0798 -0.2622
  177MPD1    C2 2695   2.528   2.034  10.037  0.3515  0.1301 -0.6372
  177MPD1    C3 2696   2.621   2.118   9.990  1.1541  0.3594 -0.2410
  177MPD1    C4 2697   2.748   2.087  10.032 -0.3173  0.3718  0.1785
  177MPD1    C5 2698   2.766   1.977  10.108 -0.1670 -0.1320 -0.6839
  177MPD1     H 2699   2.431   2.049   9.990 -0.2015  0.6530  0.6784
  177MPD1    H1 2700   2.832   2.149  10.003  0.6049 -0.3356  1.3622
  177MPD1    H2 2701   2.698   1.819  10.218  0.1672  1.4399  1.8638
  177MPD1    H3 2702   2.861   1.945  10.149 -0.1840  0.1268 -0.4392
  177MPD1     N 2703   2.589   2.229   9.898  0.2332  0.2593  0.5807
  177MPD1    H5 2704   2.497   2.227   9.855  1.0902 -1.0802 -1.1502
  177MPD1    N1 2705   2.447   1.846  10.171  0.5769 -0.0069  0.4492
  177MPD1    H6 2706   2.452   1.801  10.262  0.4538 -1.8252 -0.4289
  177MPD1    H7 2707   2.355   1.890  10.166  0.8927  1.0250  3.8855
  178MPD1     C 2708   4.014   4.038  17.591  0.5165  0.8469 -0.1720
  178MPD1    C1 2709   3.943   3.929  17.538 -0.8551 -0.3672  0.0973
  178MPD1    C2 2710   4.017   3.831  17.483 -0.1452  0.1126  0.0887
  178MPD1    C3 2711   4.159   3.822  17.488  0.5445  0.3563  0.2988
  178MPD1    C4 2712   4.224   3.932  17.532 -0.1572  0.0785 -0.1739
  178MPD1    C5 2713   4.154   4.040  17.579 -0.2644 -0.2172  0.5567
  178MPD1     H 2714   3.959   3.751  17.439  1.8279 -0.6666 -1.0693
  178MPD1    H1 2715   4.332   3.940  17.535 -0.1801  0.6692 -1.2993
  178MPD1    H2 2716   3.959   4.118  17.640  2.5439  1.5891  0.8873
  178MPD1    H3 2717   4.220   4.120  17.611  0.7907 -1.5980  1.7875
  178MPD1     N 2718   4.240   3.713  17.441 -0.7575  1.0542  0.2707
  178MPD1    H5 2719   4.339   3.727  17.459 -0.3723  0.1220 -1.0648
  178MPD1    N1 2720   3.803   3.923  17.558 -0.0865 -0.2265 -0.0115
  178MPD1    H6 2721   3.743   3.897  17.480 -2.2263  0.5715  1.3829
  178MPD1    H7 2722   3.766   4.014  17.584  1.0766 -0.0944  1.1959
  179MPD1     C 2723   4.395   2.178  15.786  0.1096  0.0119  0.0226
  179MPD1    C1 2724   4.499   2.091  15.791 -0.6789 -0.1892  0.2418
  179MPD1    C2 2725   4.475   1.972  15.864 -0.0521 -0.4065 -0.3986
  179MPD1    C3 2726   4.347   1.926  15.887  0.0946 -0.4319 -0.8297
  179MPD1    C4 2727   4.245   2.016  15.862  0.1341 -0.8992 -0.3104
  179MPD1    C5 2728   4.264   2.148  15.819  0.4111 -0.4521 -0.1101
  179MPD1     H 2729   4.562   1.907  15.873 -0.8872 -1.4532  0.1824
  179MPD1    H1 2730   4.143   2.000  15.897 -0.2058 -1.0847 -1.3864
  179MPD1    H2 2731   4.423   2.269  15.735 -0.5407  0.4078  0.3682
  179MPD1    H3 2732   4.180   2.214  15.805  0.5510 -0.1169  0.6448
  179MPD1     N 2733   4.318   1.799  15.943  0.2110  0.6017 -0.1350
  179MPD1    H5 2734   4.221   1.778  15.966 -0.0057  0.8409 -0.8442
  179MPD1    N1 2735   4.629   2.140  15.771  0.1123  0.0019 -0.8078
  179MPD1    H6 2736   4.632   2.212  15.698 -1.6351  2.2979  1.3905
  179MPD1    H7 2737   4.705   2.072  15.760 -0.3348 -0.2763 -2.2594
  180MPD1     C 2738   4.131   3.101  15.320 -0.0215 -0.7188  0.0662
  180MPD1    C1 2739   4.217   3.090  15.213 -0.1318 -0.8480  0.2630
  180MPD1    C2 2740   4.166   3.040  15.093  0.0470  0.6653 -0.1165
  180MPD1    C3 2741   4.037   2.989  15.089 -0.1388 -0.0490 -0.5867
  180MPD1    C4 2742   3.956   2.988  15.202  0.5234 -0.8162 -0.9478
  180MPD1    C5 2743   4.004   3.053  15.315 -0.5938  0.0279 -0.9830
  180MPD1     H 2744   4.221   3.039  15.001 -0.2074  1.7763 -0.2784
  180MPD1    H1 2745   3.858   2.943  15.200  1.3678 -2.7281  0.8468
  180MPD1    H2 2746   4.162   3.150  15.411  0.7372 -0.1957 -0.4674
  180MPD1    H3 2747   3.930   3.062  15.394  0.3500 -2.8383  0.2262
  180MPD1     N 2748   3.994   2.941  14.967 -0.4563  0.4205  0.1582
  180MPD1    H5 2749   4.058   2.953  14.889 -1.6429 -0.0687 -0.8679
  180MPD1    N1 2750   4.341   3.149  15.220  0.0460  0.3913 -0.1393
  180MPD1    H6 2751   4.390   3.147  15.309 -1.1350 -1.2166  0.4886
  180MPD1    H7 2752   4.412   3.107  15.160 -0.2339  2.6712 -2.0412
  181MPD1     C 2753   0.726   4.066  10.032 -0.1246 -0.3332  0.5147
  181MPD1    C1 2754   0.746   4.206  10.051  0.3300  0.0678 -0.7680
  181MPD1    C2 2755   0.872   4.257  10.057  0.4158  0.0662  0.3580
  181MPD1    C3 2756   0.987   4.180  10.052 -0.0582  0.1677  0.5800
  181MPD1    C4 2757   0.970   4.043  10.040  0.4523  0.3899 -0.5106
  181MPD1    C5 2758   0.845   3.994  10.038  0.3486  0.6475  1.0417
  181MPD1     H 2759   0.890   4.364  10.051  0.4121  0.1530  1.9213
  181MPD1    H1 2760   1.053   3.975  10.045  0.1465  0.1386  1.0717
  181MPD1    H2 2761   0.637   4.006  10.029  0.6248 -1.5057  1.6766
  181MPD1    H3 2762   0.835   3.888  10.019 -0.6252  0.8265  0.5170
  181MPD1     N 2763   1.122   4.227  10.059  0.0473  0.3526  0.2930
  181MPD1    H5 2764   1.200   4.162  10.057 -0.8577 -0.7119  0.2860
  181MPD1    N1 2765   0.638   4.298  10.025  0.0876 -0.5080  0.3282
  181MPD1    H6 2766   0.548   4.257  10.049  0.2633 -1.2331 -0.2721
  181MPD1    H7 2767   0.651   4.387  10.073 -0.5199 -0.9166  1.2644
  182MPD1     C 2768   3.508   2.873   0.516 -0.4212 -0.3807  0.2857
  182MPD1    C1 2769   3.560   2.960   0.617 -0.3230 -0.2294  0.4574
  182MPD1    C2 2770   3.465   3.022   0.700  0.4856  0.0282  1.0415
  182MPD1    C3 2771   3.328   2.994   0.686 -0.9588  0.4752 -0.3277
  182MPD1    C4 2772   3.283   2.900   0.595 -0.0884 -0.6022 -0.4912
  182MPD1    C5 2773   3.372   2.844   0.506 -0.6568  0.3367 -0.0007
  182MPD1     H 2774   3.494   3.109   0.758 -1.9448  0.4521  1.6237
  182MPD1    H1 2775   3.177   2.882   0.578  0.2050 -1.8091 -1.0947
  182MPD1    H2 2776   3.573   2.845   0.434 -1.2962  2.5534 -1.4214
  182MPD1    H3 2777   3.334   2.772   0.434 -1.0738 -0.5597  1.1179
  182MPD1     N 2778   3.229   3.060   0.759 -0.0922 -0.1931  0.1707
  182MPD1    H5 2779   3.133   3.046   0.731 -0.2999  2.3190 -0.3938
  182MPD1    N1 2780   3.694   2.995   0.619 -0.2269 -0.8695 -0.5229
  182MPD1    H6 2781   3.725   3.005   0.716  0.1687 -0.4461 -0.6908
  182MPD1    H7 2782   3.755   2.923   0.580  0.2396 -0.7584 -0.0046
  183MPD1     C 2783   2.022   3.796   9.012  0.3259  0.0698 -0.1962
  183MPD1    C1 2784   1.953   3.879   9.089 -0.3886 -0.1725 -0.8034
  183MPD1    C2 2785   1.997   3.922   9.216 -0.4222  0.0643 -0.4594
  183MPD1    C3 2786   2.122   3.872   9.256  0.2137 -0.7976  0.3627
  183MPD1    C4 2787   2.202   3.801   9.170 -0.9495 -0.2340  0.0904
  183MPD1    C5 2788   2.148   3.754   9.054  0.0629  0.3497  0.5220
  183MPD1     H 2789   1.942   3.998   9.270  0.4788 -0.1601  0.7913
  183MPD1    H1 2790   2.305   3.770   9.187 -0.5173  2.1449  1.7945
  183MPD1    H2 2791   1.985   3.761   8.916  2.5099  1.4769 -1.5630
  183MPD1    H3 2792   2.210   3.695   8.988  0.1649  0.7387  0.2664
  183MPD1     N 2793   2.155   3.909   9.388  0.4485  0.2211 -0.6184
  183MPD1    H5 2794   2.101   3.977   9.441 -0.7982  0.1361 -1.7772
  183MPD1    N1 2795   1.838   3.937   9.035 -1.0898  0.1488 -0.2391
  183MPD1    H6 2796   1.801   3.878   8.960  0.3049  1.7835 -2.1813
  183MPD1    H7 2797   1.763   3.942   9.104 -0.2149  0.5026  0.6726
  184MPD1     C 2798   1.746   1.725  10.040 -0.4281  0.3567  0.0917
  184MPD1    C1 2799   1.708   1.691   9.911 -0.3667 -0.7671  0.1501
  184MPD1    C2 2800   1.764   1.750   9.796 -0.3341  0.1608  0.8879
  184MPD1    C3 2801   1.855   1.854   9.813  0.6520 -0.1710  0.3854
  184MPD1    C4 2802   1.884   1.892   9.946  0.3395 -0.3609 -0.2690
  184MPD1    C5 2803   1.822   1.834  10.051  0.0944 -1.0946 -0.3794
  184MPD1     H 2804   1.736   1.713   9.698 -2.3484  3.3429  0.2511
  184MPD1    H1 2805   1.953   1.974   9.966  0.0540 -0.1677 -0.0813
  184MPD1    H2 2806   1.715   1.671  10.129  0.0413 -0.6147 -0.3365
  184MPD1    H3 2807   1.844   1.857  10.154  0.5429  1.4939 -1.0615
  184MPD1     N 2808   1.912   1.932   9.710  0.3097  0.1337 -0.4737
  184MPD1    H5 2809   1.962   2.017   9.734  1.8584 -0.8407 -0.1708
  184MPD1    N1 2810   1.626   1.583   9.896  0.2646  0.5923  0.4661
  184MPD1    H6 2811   1.565   1.585   9.815 -2.4081 -1.2704  2.3889
  184MPD1    H7 2812   1.568   1.565   9.979 -0.7084  0.7991 -0.1704
  185MPD1     C 2813   1.606   2.006   8.743  0.6406  0.3301 -0.1455
  185MPD1    C1 2814   1.685   2.109   8.760 -0.3741 -0.4365 -0.2275
  185MPD1    C2 2815   1.754   2.119   8.878 -0.3718 -0.2610  0.5745
  185MPD1    C3 2816   1.739   2.027   8.975 -0.2882 -0.1147  0.0201
  185MPD1    C4 2817   1.657   1.914   8.956 -0.4522  0.1551  0.3279
  185MPD1    C5 2818   1.587   1.910   8.840 -0.6882  0.0480  0.2105
  185MPD1     H 2819   1.838   2.187   8.875  0.1591 -0.8847  1.4284
  185MPD1    H1 2820   1.650   1.836   9.031  0.6515 -0.8916 -0.6503
  185MPD1    H2 2821   1.558   1.991   8.647 -0.2400 -1.0506  0.5023
  185MPD1    H3 2822   1.518   1.827   8.827  0.0923 -0.5047 -0.4590
  185MPD1     N 2823   1.815   2.025   9.099  0.2422 -0.3006  0.5797
  185MPD1    H5 2824   1.788   1.946   9.158 -2.1207 -0.0296 -0.1490
  185MPD1    N1 2825   1.728   2.183   8.653 -0.3964 -0.3553 -0.1942
  185MPD1    H6 2826   1.768   2.263   8.702  0.9851 -0.2030 -1.5812
  185MPD1    H7 2827   1.663   2.201   8.577 -2.3837  1.8268  2.0271
  186MPD1     C 2828   0.196   1.370  15.765 -0.1600 -0.8273 -0.5616
  186MPD1    C1 2829   0.300   1.438  15.821 -0.0383  0.2205 -0.3031
  186MPD1    C2 2830   0.266   1.562  15.867  0.5629  0.1421 -0.1187
  186MPD1    C3 2831   0.135   1.609  15.873 -0.6473  0.1904 -0.2791
  186MPD1    C4 2832   0.035   1.527  15.841  0.2160  0.2112  0.3138
  186MPD1    C5 2833   0.064   1.413  15.770  0.3969  0.0206  0.2097
  186MPD1     H 2834   0.348   1.622  15.906  1.6617 -0.7251 -1.0976
  186MPD1    H1 2835   4.656   1.550  15.860  0.5982  2.1435  0.0913
  186MPD1    H2 2836   0.209   1.272  15.721  0.9993 -1.7510  1.8801
  186MPD1    H3 2837   4.709   1.351  15.733  1.5207 -0.7327 -0.9618
  186MPD1     N 2838   0.101   1.734  15.929 -0.5202  0.9336  0.1442
  186MPD1    H5 2839   0.003   1.729  15.954 -0.3373  1.1762  0.8941
  186MPD1    N1 2840   0.429   1.391  15.811  0.1374 -0.5125 -0.5787
  186MPD1    H6 2841   0.481   1.429  15.891 -0.4208  0.9453 -0.9007
  186MPD1    H7 2842   0.429   1.291  15.826 -1.5980 -0.5058 -0.6045
  187MPD1     C 2843   0.234   3.955  17.030  0.3120  0.1285  0.0011
  187MPD1    C1 2844   0.184   3.828  17.024  0.3467 -0.3493  0.0922
  187MPD1    C2 2845   0.050   3.810  17.044 -0.1424 -0.3667 -0.1573
  187MPD1    C3 2846   4.690   3.923  17.058 -0.1792 -0.8607  0.4230
  187MPD1    C4 2847   0.023   4.048  17.076 -0.1981 -0.0779 -0.1658
  187MPD1    C5 2848   0.156   4.064  17.060  0.0433  0.7188 -0.5662
  187MPD1     H 2849   0.001   3.713  17.049 -0.4102 -0.1783  0.8204
  187MPD1    H1 2850   4.681   4.133  17.076 -0.9940 -0.7019  0.8934
  187MPD1    H2 2851   0.341   3.965  17.019  0.8897 -3.3872  2.3695
  187MPD1    H3 2852   0.198   4.163  17.056  0.9542  0.3012 -1.3787
  187MPD1     N 2853   4.555   3.917  17.095  0.8154 -0.2858 -0.4700
  187MPD1    H5 2854   4.516   4.010  17.107  0.5202 -0.3252 -1.0935
  187MPD1    N1 2855   0.265   3.718  17.026 -0.0455 -0.1180 -0.6461
  187MPD1    H6 2856   0.361   3.752  17.021 -0.1069  0.1590 -0.0226
  187MPD1    H7 2857   0.247   3.673  17.116  0.7138  0.6576 -0.1009
  188MPD1     C 2858   3.394   3.626   9.509  0.1055 -0.5694  0.1560
  188MPD1    C1 2859   3.401   3.562   9.383 -0.8063 -0.1865  0.5097
  188MPD1    C2 2860   3.456   3.433   9.375  0.0444 -0.4760  0.7803
  188MPD1    C3 2861   3.503   3.372   9.492  0.1169 -0.2683 -0.0059
  188MPD1    C4 2862   3.504   3.442   9.605 -0.1291  0.0772  0.2025
  188MPD1    C5 2863   3.455   3.573   9.614 -0.2357 -0.3380  0.0430
  188MPD1     H 2864   3.466   3.376   9.283 -0.2518 -3.0186  2.3423
  188MPD1    H1 2865   3.565   3.406   9.688 -0.1151  0.2254  0.2556
  188MPD1    H2 2866   3.364   3.729   9.520  0.7712 -0.3371 -0.1625
  188MPD1    H3 2867   3.460   3.640   9.700  1.9127 -0.4237 -0.0132
  188MPD1     N 2868   3.558   3.244   9.500  0.5314 -0.1002 -0.2179
  188MPD1    H5 2869   3.624   3.222   9.575  1.3575 -0.6512 -1.1088
  188MPD1    N1 2870   3.360   3.627   9.265  0.0036  0.7793 -0.2583
  188MPD1    H6 2871   3.284   3.692   9.285  0.5027  1.2607  0.0990
  188MPD1    H7 2872   3.321   3.570   9.190 -0.8142  3.2178 -1.6927
  189MPD1     C 2873   1.365   3.730   0.447 -0.5672  0.3329  0.3434
  189MPD1    C1 2874   1.276   3.659   0.519  0.1056 -0.6279  0.0910
  189MPD1    C2 2875   1.139   3.695   0.514 -0.2887 -0.8568 -0.1012
  189MPD1    C3 2876   1.103   3.821   0.463 -0.1354  0.2393  0.5978
  189MPD1    C4 2877   1.201   3.893   0.395 -1.4376 -0.8633  0.0504
  189MPD1    C5 2878   1.336   3.853   0.389  0.1326  0.2051  1.0053
  189MPD1     H 2879   1.063   3.628   0.554 -3.7449  4.1594  1.6463
  189MPD1    H1 2880   1.178   3.985   0.342  0.1574  0.3170  1.3818
  189MPD1    H2 2881   1.453   3.682   0.405 -0.5514 -0.2175  1.0075
  189MPD1    H3 2882   1.412   3.905   0.331 -0.4112 -0.0943  0.0261
  189MPD1     N 2883   0.974   3.875   0.493  0.4834 -0.4218 -0.2572
  189MPD1    H5 2884   0.911   3.814   0.545  0.1207  0.1177 -0.0525
  189MPD1    N1 2885   1.311   3.526   0.561  0.0830  0.3360 -0.2555
  189MPD1    H6 2886   1.252   3.500   0.639 -0.2435  0.2733 -0.5231
  189MPD1    H7 2887   1.409   3.509   0.586  0.3204 -1.4448 -2.4431
  190MPD1     C 2888   3.512   2.614  15.340  0.4410  0.1193  0.3269
  190MPD1    C1 2889   3.539   2.685  15.455  0.6744 -0.7304 -0.2971
  190MPD1    C2 2890   3.673   2.715  15.475 -0.8549  0.2397  0.3495
  190MPD1    C3 2891   3.765   2.700  15.371 -0.0504 -0.5263  0.0950
  190MPD1    C4 2892   3.729   2.634  15.249  0.1332  0.7679 -0.5289
  190MPD1    C5 2893   3.602   2.585  15.246  0.1235 -0.3645 -0.2913
  190MPD1     H 2894   3.695   2.782  15.558 -0.4397 -1.1655  1.3892
  190MPD1    H1 2895   3.801   2.622  15.169 -0.5201 -0.3419 -0.9578
  190MPD1    H2 2896   3.415   2.570  15.317  2.1365 -3.0173 -0.9549
  190MPD1    H3 2897   3.571   2.531  15.157  0.9930 -0.0342 -0.7951
  190MPD1     N 2898   3.900   2.726  15.398  0.2658 -0.2373  0.2248
  190MPD1    H5 2899   3.926   2.775  15.483  0.8461  0.2306 -0.2107
  190MPD1    N1 2900   3.454   2.695  15.568  0.0003 -0.5498 -0.3906
  190MPD1    H6 2901   3.484   2.764  15.637 -1.7456  0.2527 -0.4233
  190MPD1    H7 2902   3.360   2.722  15.540 -0.3267 -0.9056  0.3499
  191MPD1     C 2903   4.395   0.310  12.451  0.4035 -0.1182 -0.0617
  191MPD1    C1 2904   4.527   0.276  12.425  0.8850 -0.2827  0.0392
  191MPD1    C2 2905   4.564   0.245  12.296  0.2424 -0.8221  0.4047
  191MPD1    C3 2906   4.475   0.265  12.193 -0.5580 -0.5633  1.1339
  191MPD1    C4 2907   4.343   0.290  12.220 -0.2158 -0.4737  0.4035
  191MPD1    C5 2908   4.310   0.313  12.349  0.3749  0.0817  0.0774
  191MPD1     H 2909   4.665   0.209  12.281  1.1855  1.4794  1.2544
  191MPD1    H1 2910   4.261   0.284  12.148  1.5689 -0.0214 -1.6715
  191MPD1    H2 2911   4.358   0.323  12.552  0.5724  1.6390 -0.2163
  191MPD1    H3 2912   4.204   0.315  12.368  0.3526  0.3544 -0.0649
  191MPD1     N 2913   4.531   0.248  12.065  0.0412  0.1578  0.0685
  191MPD1    H5 2914   4.625   0.210  12.062 -0.3630 -0.8488 -0.0567
  191MPD1    N1 2915   4.623   0.267  12.533  0.1458  1.4121  0.1587
  191MPD1    H6 2916   4.716   0.303  12.510  1.1157  0.3211  2.3514
  191MPD1    H7 2917   4.593   0.309  12.621  1.7605 -1.0132  1.8778
  192MPD1     C 2918   4.509   0.534  11.007 -0.0623 -0.4443  0.2877
  192MPD1    C1 2919   4.413   0.552  11.099  0.0655 -0.1919  0.3620
  192MPD1    C2 2920   4.430   0.505  11.230  0.0373  0.2893  0.4581
  192MPD1    C3 2921   4.552   0.454  11.267 -0.2049  0.6820 -0.0495
  192MPD1    C4 2922   4.649   0.437  11.167  0.2065  0.4345  0.2793
  192MPD1    C5 2923   4.630   0.472  11.038  0.2683 -0.3982  0.9706
  192MPD1     H 2924   4.352   0.525  11.303  0.4704  0.6499  0.8261
  192MPD1    H1 2925   0.014   0.380  11.187 -0.9601 -1.6064 -0.2878
  192MPD1    H2 2926   4.491   0.563  10.904  1.4079 -2.3056 -0.4993
  192MPD1    H3 2927   4.706   0.442  10.967 -0.6064  0.7861 -0.4694
  192MPD1     N 2928   4.578   0.389  11.388 -0.6261 -0.6475  0.5824
  192MPD1    H5 2929   4.671   0.348  11.393 -1.5085 -2.8779 -1.3086
  192MPD1    N1 2930   4.289   0.593  11.056 -0.6039  0.8643  0.3451
  192MPD1    H6 2931   4.238   0.661  11.112 -1.6689  0.8297 -0.5876
  192MPD1    H7 2932   4.285   0.617  10.958 -0.6454  0.7773  0.3257
  193MPD1     C 2933   3.196   0.242  16.782  0.2512  0.3657  0.2805
  193MPD1    C1 2934   3.299   0.155  16.794 -0.1805  0.8950 -0.2186
  193MPD1    C2 2935   3.413   0.185  16.871 -0.6165 -0.1602  0.7465
  193MPD1    C3 2936   3.423   0.306  16.943  0.3873 -0.7407 -0.1903
  193MPD1    C4 2937   3.303   0.381  16.955  0.3973 -0.1903  0.6761
  193MPD1    C5 2938   3.204   0.358  16.858  0.1232 -0.3944  0.7332
  193MPD1     H 2939   3.496   0.116  16.865 -0.0078  0.9188 -2.8330
  193MPD1    H1 2940   3.303   0.471  17.016  1.8495  0.2475  0.0233
  193MPD1    H2 2941   3.107   0.225  16.722  1.3899 -0.3322 -1.2388
  193MPD1    H3 2942   3.122   0.428  16.858  1.3506  1.0658 -2.1197
  193MPD1     N 2943   3.541   0.344  17.014  0.9756  0.2511  0.2159
  193MPD1    H5 2944   3.531   0.426  17.073  0.6361  1.6340 -1.8017
  193MPD1    N1 2945   3.312   0.050  16.698 -0.1203  0.0178  0.5329
  193MPD1    H6 2946   3.221   0.004  16.693 -0.2350  0.2012  0.9426
  193MPD1    H7 2947   3.371   4.711  16.750 -0.9378 -1.1219  0.0756
  194MPD1     C 2948   0.973   2.471  16.542 -0.0776  0.5173 -0.7149
  194MPD1    C1 2949   1.098   2.424  16.509  0.3608  0.2546  0.2724
  194MPD1    C2 2950   1.123   2.291  16.497 -0.0463 -0.2582  0.3011
  194MPD1    C3 2951   1.027   2.204  16.526  0.5846 -0.2902  0.0330
  194MPD1    C4 2952   0.904   2.246  16.566 -0.1795  0.7717 -1.1104
  194MPD1    C5 2953   0.868   2.380  16.560 -0.2823 -0.2793  0.6248
  194MPD1     H 2954   1.214   2.263  16.445  0.7021 -1.4367  2.2131
  194MPD1    H1 2955   0.822   2.183  16.597 -0.0336  1.6133  0.9723
  194MPD1    H2 2956   0.944   2.575  16.536  0.8791  0.8452  0.4040
  194MPD1    H3 2957   0.770   2.414  16.589 -0.6343 -0.0621 -0.7910
  194MPD1     N 2958   1.045   2.062  16.515  0.4031 -0.0058  0.1866
  194MPD1    H5 2959   0.982   1.998  16.561  1.3761 -0.6804  0.5790
  194MPD1    N1 2960   1.187   2.516  16.450 -0.0991  0.1854 -0.3410
  194MPD1    H6 2961   1.283   2.481  16.452  1.2869  4.0503  1.5495
  194MPD1    H7 2962   1.184   2.615  16.474  2.1703  0.4351 -1.0260
  195MPD1     C 2963   4.117   2.301   0.650  0.1474  0.3441 -0.3282
  195MPD1    C1 2964   4.089   2.416   0.586  0.8132 -0.0869  0.7008
  195MPD1    C2 2965   3.972   2.425   0.511 -0.0354  0.7336 -0.3544
  195MPD1    C3 2966   3.890   2.315   0.491  0.7544  0.3014 -0.1061
  195MPD1    C4 2967   3.931   2.196   0.553  0.3126 -0.4388 -0.4625
  195MPD1    C5 2968   4.036   2.188   0.632 -0.0688  0.1038 -0.1302
  195MPD1     H 2969   3.944   2.515   0.457 -0.5754 -0.0049 -1.3185
  195MPD1    H1 2970   3.886   2.102   0.525  0.3088 -1.0645  1.6906
  195MPD1    H2 2971   4.201   2.293   0.718 -2.5924 -0.9693  2.8975
  195MPD1    H3 2972   4.053   2.104   0.698 -1.8466  0.3516  0.6509
  195MPD1     N 2973   3.781   2.323   0.401 -0.4493 -0.2418 -0.0537
  195MPD1    H5 2974   3.729   2.237   0.389 -1.9188  0.5336  0.8314
  195MPD1    N1 2975   4.176   2.531   0.596 -0.4172 -0.1384  0.5252
  195MPD1    H6 2976   4.273   2.507   0.616  0.1623  0.5477 -1.5054
  195MPD1    H7 2977   4.160   2.597   0.520  1.0326 -2.7714 -2.0830
  196MPD1     C 2978   4.654   3.974   0.422 -0.3978  0.8148 -0.3068
  196MPD1    C1 2979   4.559   4.074   0.449 -0.4280 -0.0903 -1.0894
  196MPD1    C2 2980   4.429   4.037   0.473 -0.8005  0.8403  0.3815
  196MPD1    C3 2981   4.392   3.905   0.464 -0.1333 -0.4705  0.3033
  196MPD1    C4 2982   4.486   3.808   0.429 -0.1714  0.9043  0.5263
  196MPD1    C5 2983   4.621   3.844   0.417  0.0756 -0.3460  0.5458
  196MPD1     H 2984   4.355   4.109   0.503 -0.7163  1.8562 -1.8314
  196MPD1    H1 2985   4.455   3.704   0.418  0.2500  0.9277 -0.8559
  196MPD1    H2 2986   0.034   3.998   0.428 -0.0436 -0.8650  0.0670
  196MPD1    H3 2987   4.696   3.767   0.402  2.3370  2.1553 -0.9486
  196MPD1     N 2988   4.261   3.859   0.493 -0.0084 -0.1618 -0.6730
  196MPD1    H5 2989   4.235   3.761   0.498 -2.8079  0.6390  0.4813
  196MPD1    N1 2990   4.595   4.207   0.479  0.4137  0.3999 -0.0128
  196MPD1    H6 2991   4.675   4.232   0.422  0.4890  1.9874  0.7676
  196MPD1    H7 2992   4.518   4.272   0.464 -0.5356 -0.6648  0.2141
  197MPD1     C 2993   2.305   0.990   0.363  0.1769  0.3794  0.0447
  197MPD1    C1 2994   2.250   1.101   0.297  0.2671 -0.7005 -0.1376
  197MPD1    C2 2995   2.225   1.084   0.158  0.1254  0.1091 -0.1938
  197MPD1    C3 2996   2.262   0.972   0.087  0.4322  0.1438  0.1702
  197MPD1    C4 2997   2.319   0.869   0.156 -0.7428 -0.5558 -0.2698
  197MPD1    C5 2998   2.338   0.877   0.286 -0.1861  0.3370 -0.3917
  197MPD1     H 2999   2.180   1.166   0.104 -1.3264  1.1533  2.5622
  197MPD1    H1 3000   2.351   0.778   0.107  2.9675  1.3604 -1.4407
  197MPD1    H2 3001   2.326   0.993   0.470  2.2373  0.7013 -0.3840
  197MPD1    H3 3002   2.373   0.784   0.328  0.8841  0.5114 -0.8702
  197MPD1     N 3003   2.247   0.950  17.650 -0.3795 -0.2732 -0.4283
  197MPD1    H5 3004   2.279   0.860  17.616  2.0934  0.7310 -0.7526
  197MPD1    N1 3005   2.206   1.217   0.358  0.1215  1.0938  0.0606
  197MPD1    H6 3006   2.256   1.245   0.442  1.7425  0.7517 -0.7891
  197MPD1    H7 3007   2.208   1.294   0.293  0.0457  0.8924 -0.1798
  198MPD1     C 3008   4.175   3.681  14.974 -0.3234  0.2007 -0.5434
  198MPD1    C1 3009   4.287   3.749  14.950 -0.0298 -0.1793 -0.0503
  198MPD1    C2 3010   4.329   3.837  15.046  0.1349 -0.2756 -0.0002
  198MPD1    C3 3011   4.265   3.862  15.166  0.1808 -0.8041  0.3104
  198MPD1    C4 3012   4.147   3.793  15.192  0.3917 -0.3240  0.2091
  198MPD1    C5 3013   4.101   3.705  15.097 -0.1266  0.6780 -0.3303
  198MPD1     H 3014   4.428   3.880  15.044 -0.4113  0.9363 -1.1605
  198MPD1    H1 3015   4.084   3.824  15.274  1.4933  1.4197  0.3957
  198MPD1    H2 3016   4.131   3.617  14.898 -2.5421  0.2893  0.6723
  198MPD1    H3 3017   4.001   3.663  15.094 -0.0437  0.3144  2.1656
  198MPD1     N 3018   4.332   3.948  15.257  0.5257  0.4061 -0.2520
  198MPD1    H5 3019   4.417   3.990  15.221  0.2132  1.8785  0.7351
  198MPD1    N1 3020   4.378   3.706  14.848  0.0476  0.1632  0.1738
  198MPD1    H6 3021   4.341   3.669  14.761  1.1800 -0.3172 -0.1080
  198MPD1    H7 3022   4.442   3.778  14.815  1.3294 -0.6101  1.0073
  199MPD1     C 3023   1.301   4.111   9.614 -0.5798  0.0066 -0.2165
  199MPD1    C1 3024   1.389   4.205   9.589 -0.0864  0.3222  0.2176
  199MPD1    C2 3025   1.358   4.334   9.630 -0.0709 -0.0007 -0.1874
  199MPD1    C3 3026   1.239   4.360   9.699  0.5683 -0.3363  0.3367
  199MPD1    C4 3027   1.155   4.261   9.726 -0.0233 -0.4913 -0.2356
  199MPD1    C5 3028   1.194   4.131   9.687 -0.3704 -0.3455  0.5381
  199MPD1     H 3029   1.423   4.419   9.610  2.6802 -1.8885  0.7114
  199MPD1    H1 3030   1.063   4.278   9.781  0.2793 -0.0123  0.1251
  199MPD1    H2 3031   1.313   4.012   9.573  1.4541  0.6474 -1.1865
  199MPD1    H3 3032   1.129   4.050   9.718  1.3752 -2.0603 -0.3319
  199MPD1     N 3033   1.210   4.485   9.754  0.3922 -0.3740  1.0589
  199MPD1    H5 3034   1.123   4.488   9.806 -0.8375 -1.0368 -0.9549
  199MPD1    N1 3035   1.494   4.173   9.508 -0.1905  0.0844 -0.4985
  199MPD1    H6 3036   1.526   4.078   9.525  1.5680  1.0289  1.4828
  199MPD1    H7 3037   1.566   4.243   9.528 -0.6377  0.8380 -1.5148
  200MPD1     C 3038   0.600   0.498  14.030 -0.6240  0.1413  0.3794
  200MPD1    C1 3039   0.641   0.445  14.150  0.4045 -0.4146 -0.1726
  200MPD1    C2 3040   0.771   0.463  14.193 -0.3651 -1.1926  0.3426
  200MPD1    C3 3041   0.862   0.526  14.099  0.4764 -0.0837  0.2528
  200MPD1    C4 3042   0.822   0.579  13.980  0.7996  0.0980 -0.1132
  200MPD1    C5 3043   0.687   0.572  13.953 -0.0556  0.0624 -1.0634
  200MPD1     H 3044   0.800   0.432  14.293  0.1977  1.3977  1.0007
  200MPD1    H1 3045   0.887   0.625  13.906  0.9928  0.5434  0.3403
  200MPD1    H2 3046   0.499   0.489  13.992 -0.8577 -1.6122  1.4101
  200MPD1    H3 3047   0.658   0.612  13.857  0.1360 -1.0715 -1.5914
  200MPD1     N 3048   0.988   0.540  14.146 -0.6845  0.3152 -0.2632
  200MPD1    H5 3049   1.004   0.512  14.242 -0.3985 -3.1487 -1.3117
  200MPD1    N1 3050   0.547   0.369  14.224  0.4999 -0.2717 -0.0783
  200MPD1    H6 3051   0.571   0.371  14.323  0.1804 -0.7389  0.0060
  200MPD1    H7 3052   0.450   0.370  14.192  0.6324 -1.3563 -0.5135
  201MPD1     C 3053   3.749   4.634  12.959  0.5376  0.1335  0.3135
  201MPD1    C1 3054   3.665   4.582  13.056  0.3258 -0.8164  0.5137
  201MPD1    C2 3055   3.653   4.448  13.068 -0.5441 -0.2482 -0.2918
  201MPD1    C3 3056   3.711   4.365  12.976  0.7818  0.1120 -0.4610
  201MPD1    C4 3057   3.776   4.423  12.868  0.1135 -0.3991  0.6612
  201MPD1    C5 3058   3.795   4.558  12.861  0.1120 -0.6873  0.2055
  201MPD1     H 3059   3.592   4.408  13.148 -1.2347  0.7919 -0.3014
  201MPD1    H1 3060   3.818   4.365  12.787  1.0419  1.4232 -0.1647
  201MPD1    H2 3061   3.758   0.015  12.938  0.9838  0.2613  1.1490
  201MPD1    H3 3062   3.835   4.601  12.771 -1.2471 -0.7664 -0.4339
  201MPD1     N 3063   3.673   4.226  12.987  0.6568 -0.2325 -1.0180
  201MPD1    H5 3064   3.648   4.186  13.077  0.0463 -0.0774 -1.1193
  201MPD1    N1 3065   3.573   4.674  13.114  0.8854 -0.1969  0.5594
  201MPD1    H6 3066   3.620   0.037  13.133  0.2945  0.4068 -0.7971
  201MPD1    H7 3067   3.525   4.631  13.193 -2.5228 -0.7107 -1.7956
  202MPD1     C 3068   3.096   3.095   8.874  0.5426 -0.4183 -0.2247
  202MPD1    C1 3069   2.992   3.171   8.933  0.3066 -0.0381  0.2434
  202MPD1    C2 3070   3.013   3.204   9.065 -0.0859  0.5053  0.1379
  202MPD1    C3 3071   3.140   3.195   9.125 -0.3023 -1.0069  0.5300
  202MPD1    C4 3072   3.246   3.141   9.058  0.3448  0.1807  0.5314
  202MPD1    C5 3073   3.223   3.092   8.930  0.4392 -0.1623 -0.0525
  202MPD1     H 3074   2.936   3.257   9.120 -1.6298  0.3526 -1.9155
  202MPD1    H1 3075   3.342   3.122   9.105  0.0226  0.9218  1.4775
  202MPD1    H2 3076   3.082   3.059   8.773  1.8030 -2.6708  0.4073
  202MPD1    H3 3077   3.305   3.045   8.876  2.4718  1.9598  1.1892
  202MPD1     N 3078   3.168   3.226   9.259 -0.4762  0.2269 -0.0239
  202MPD1    H5 3079   3.262   3.209   9.294 -0.7645  3.1175  2.1617
  202MPD1    N1 3080   2.865   3.142   8.883 -1.0289 -0.9983  0.6185
  202MPD1    H6 3081   2.801   3.218   8.904  0.2503  0.3395 -0.3379
  202MPD1    H7 3082   2.862   3.134   8.782 -1.9762 -0.5519  0.6194
  203MPD1     C 3083   1.896   4.650  12.544 -0.1736  0.3359  0.6607
  203MPD1    C1 3084   1.909   4.538  12.460 -0.4027 -0.3045  0.7282
  203MPD1    C2 3085   2.002   4.441  12.501  0.3932 -0.5070 -0.0924
  203MPD1    C3 3086   2.067   4.460  12.623 -0.2275  0.1958  0.0004
  203MPD1    C4 3087   2.054   4.576  12.700 -0.4675 -0.3253  0.4504
  203MPD1    C5 3088   1.958   4.661  12.661 -0.5352 -0.1692 -0.3942
  203MPD1     H 3089   2.012   4.351  12.442 -3.2587 -1.6049  0.9321
  203MPD1    H1 3090   2.105   4.598  12.794 -0.1797 -2.4292  0.7806
  203MPD1    H2 3091   1.815   4.721  12.528 -0.4036  0.7141  3.4594
  203MPD1    H3 3092   1.932   0.018  12.726 -0.8697 -0.0509 -0.6797
  203MPD1     N 3093   2.149   4.353  12.658  0.7022 -0.3234 -0.5062
  203MPD1    H5 3094   2.133   4.268  12.605 -0.1318 -1.4558  1.5301
  203MPD1    N1 3095   1.809   4.514  12.362 -0.5141 -1.1611 -0.0238
  203MPD1    H6 3096   1.761   4.598  12.331  1.2930  0.0531  0.3925
  203MPD1    H7 3097   1.838   4.464  12.279  0.3746 -0.4429 -0.1490
  204MPD1     C 3098   0.578   0.581   0.048  0.5941  0.0400  0.0233
  204MPD1    C1 3099   0.656   0.475   0.110  0.0316  0.1039  0.0431
  204MPD1    C2 3100   0.758   0.419   0.031  0.0376  0.1677 -0.1165
  204MPD1    C3 3101   0.793   0.482  17.617 -0.7286  0.4705  0.4289
  204MPD1    C4 3102   0.728   0.594  17.570 -0.0442  0.5562 -0.1020
  204MPD1    C5 3103   0.620   0.641  17.637  0.5448  0.5488 -0.1306
  204MPD1     H 3104   0.830   0.346   0.065  1.2924  1.5165  0.1347
  204MPD1    H1 3105   0.755   0.646  17.478 -0.2672 -0.0476 -0.5051
  204MPD1    H2 3106   0.485   0.619   0.090 -0.2224 -0.0128 -1.7296
  204MPD1    H3 3107   0.568   0.724  17.591  0.3627  2.2077  3.0744
  204MPD1     N 3108   0.911   0.436  17.555 -0.9913 -0.5645 -0.8031
  204MPD1    H5 3109   0.961   0.361  17.601 -0.4896  0.8695  0.9834
  204MPD1    N1 3110   0.612   0.421   0.232  0.1647  0.6465  0.1357
  204MPD1    H6 3111   0.685   0.376   0.287  0.6847  0.0318 -1.0606
  204MPD1    H7 3112   0.571   0.486   0.298  0.4873 -0.6395  1.6102
  205MPD1     C 3113   1.350   3.947  16.726 -0.4395 -0.0196 -0.3527
  205MPD1    C1 3114   1.435   3.859  16.793  0.1852 -0.7615  0.7989
  205MPD1    C2 3115   1.427   3.852  16.927 -0.0668 -0.4812  0.3990
  205MPD1    C3 3116   1.325   3.924  16.991  0.6246 -0.1313  0.2096
  205MPD1    C4 3117   1.251   4.009  16.919 -0.6447  0.1593 -0.1929
  205MPD1    C5 3118   1.258   4.023  16.789  0.9545  0.4439  0.0326
  205MPD1     H 3119   1.488   3.780  16.980  2.4262  0.4859 -1.2071
  205MPD1    H1 3120   1.192   4.077  16.981  1.2861  0.9177  0.8109
  205MPD1    H2 3121   1.342   3.955  16.619  0.8392  1.2262 -0.3489
  205MPD1    H3 3122   1.199   4.095  16.733  0.8157 -0.9687 -1.6399
  205MPD1     N 3123   1.301   3.930  17.130  0.7508  0.4601 -0.2777
  205MPD1    H5 3124   1.225   3.989  17.162  0.9148 -0.1232  1.2020
  205MPD1    N1 3125   1.530   3.803  16.719 -0.6429 -0.1245  0.1288
  205MPD1    H6 3126   1.490   3.773  16.631  0.1726  2.0324 -0.9632
  205MPD1    H7 3127   1.572   3.727  16.774  0.4635 -0.8365 -1.7100
  206MPD1     C 3128   1.060   2.778  16.841 -0.8131 -0.5072  0.7419
  206MPD1    C1 3129   1.187   2.786  16.783  0.1289  0.1960 -1.4116
  206MPD1    C2 3130   1.199   2.793  16.643  0.0426  0.4115 -0.7737
  206MPD1    C3 3131   1.090   2.816  16.568 -0.2803  0.0098  0.8895
  206MPD1    C4 3132   0.964   2.816  16.620 -0.5910  0.2629 -0.3878
  206MPD1    C5 3133   0.955   2.804  16.759 -0.6987 -0.4490  0.4653
  206MPD1     H 3134   1.301   2.804  16.607  0.1588 -0.3023 -0.6668
  206MPD1    H1 3135   0.874   2.846  16.568 -1.7045  0.6280  1.7500
  206MPD1    H2 3136   1.056   2.772  16.949 -1.0994 -1.1523  0.6923
  206MPD1    H3 3137   0.855   2.817  16.800 -0.2870 -0.7544  1.5645
  206MPD1     N 3138   1.096   2.849  16.431 -0.1327  0.1100  1.1635
  206MPD1    H5 3139   1.010   2.859  16.378  0.5248 -1.5995 -0.2265
  206MPD1    N1 3140   1.288   2.754  16.863 -0.2424 -0.6044  0.4377
  206MPD1    H6 3141   1.371   2.798  16.823 -1.9475  2.2336  0.0439
  206MPD1    H7 3142   1.258   2.794  16.952  0.2571  0.3144  0.2005
  207MPD1     C 3143   3.351   4.487  10.464 -0.1801 -0.6907  0.4055
  207MPD1    C1 3144   3.425   4.542  10.367 -0.1774 -0.2079 -0.1252
  207MPD1    C2 3145   3.539   4.615  10.401  0.5830  0.1425 -0.4737
  207MPD1    C3 3146   3.570   4.631  10.536 -0.5032 -0.2843 -0.0722
  207MPD1    C4 3147   3.482   4.579  10.632  0.1917 -0.0420  0.2752
  207MPD1    C5 3148   3.374   4.515  10.592 -0.6052  0.2408  0.3417
  207MPD1     H 3149   3.601   4.659  10.324  1.4716 -2.1977 -1.1045
  207MPD1    H1 3150   3.501   4.593  10.738 -0.9459 -1.1420  0.6207
  207MPD1    H2 3151   3.260   4.429  10.450 -1.2236  1.4293 -1.5842
  207MPD1    H3 3152   3.305   4.488  10.671 -1.3846  1.8261  0.1986
  207MPD1     N 3153   3.689   4.691  10.587 -0.1343  0.1198  0.3392
  207MPD1    H5 3154   3.695   4.689  10.689 -1.1820  1.7195  0.4291
  207MPD1    N1 3155   3.404   4.506  10.234 -0.0200  0.1191  0.2936
  207MPD1    H6 3156   3.308   4.476  10.220  0.3251 -1.2171  0.7762
  207MPD1    H7 3157   3.435   4.572  10.163  2.7245 -0.5591  0.8303
  208MPD1     C 3158   2.829   3.966  17.634 -0.2467  0.0019  0.6948
  208MPD1    C1 3159   2.874   3.864   0.013  0.3786  0.1850 -0.5788
  208MPD1    C2 3160   2.782   3.766   0.053  0.0366 -0.5275 -0.4778
  208MPD1    C3 3161   2.660   3.746  17.692  0.0344  0.7080 -0.2995
  208MPD1    C4 3162   2.642   3.828  17.581  0.2943  0.1425  0.5360
  208MPD1    C5 3163   2.719   3.943  17.562  0.0411  0.1218  0.3550
  208MPD1     H 3164   2.811   3.697   0.131 -1.4667 -2.5793 -1.7540
  208MPD1    H1 3165   2.544   3.822  17.534  1.2340  0.6531 -1.4705
  208MPD1    H2 3166   2.896   4.047  17.610 -1.5026  0.9311  0.3072
  208MPD1    H3 3167   2.688   4.018  17.490 -1.4312 -0.4259  0.4188
  208MPD1     N 3168   2.578   3.639   0.030 -0.3608 -0.2960 -0.7650
  208MPD1    H5 3169   2.609   3.589   0.113  1.1072  0.9511 -0.5519
  208MPD1    N1 3170   2.991   3.889   0.091 -0.4278  0.1125  0.6108
  208MPD1    H6 3171   3.039   3.807   0.126 -0.0609 -0.0464 -0.2903
  208MPD1    H7 3172   3.065   3.950   0.056 -0.8385  0.4300  0.2938
  209MPD1     C 3173   4.543   3.740  11.946  0.5710 -0.2122 -0.4183
  209MPD1    C1 3174   4.552   3.856  12.017  0.0624  0.2041  0.5068
  209MPD1    C2 3175   4.553   3.976  11.947 -0.8561  0.2372 -0.4787
  209MPD1    C3 3176   4.528   3.980  11.812 -0.1746 -0.1021 -0.4139
  209MPD1    C4 3177   4.532   3.863  11.749 -0.1845 -0.0131  0.0200
  209MPD1    C5 3178   4.535   3.748  11.813 -0.6890 -0.1920 -0.2351
  209MPD1     H 3179   4.565   4.071  11.997  2.1041  0.2464 -1.2408
  209MPD1    H1 3180   4.519   3.859  11.642  2.0536  0.3484 -0.2510
  209MPD1    H2 3181   4.538   3.639  11.984 -2.4362  0.7036  1.6345
  209MPD1    H3 3182   4.534   3.651  11.766  1.2046  0.1351 -0.9491
  209MPD1     N 3183   4.528   4.107  11.751 -0.4429 -0.0421  0.2377
  209MPD1    H5 3184   4.561   4.189  11.801 -1.7515  0.0826  0.8903
  209MPD1    N1 3185   4.577   3.856  12.157 -0.7336  0.2788  0.3638
  209MPD1    H6 3186   4.547   3.946  12.195  0.0833  0.2914  0.9701
  209MPD1    H7 3187   4.522   3.783  12.201 -1.4240  0.8409  0.4273
  210MPD1     C 3188   0.429   4.673  11.842 -0.1473  0.3536  0.0384
  210MPD1    C1 3189   0.381   4.703  11.715 -0.4667  0.2066 -0.5066
  210MPD1    C2 3190   0.262   4.658  11.680  0.0804  0.1933  0.1289
  210MPD1    C3 3191   0.189   4.582  11.766  0.4490 -0.6800 -0.1784
  210MPD1    C4 3192   0.233   4.552  11.891  0.0643 -0.2749 -0.0173
  210MPD1    C5 3193   0.354   4.597  11.927 -0.2181 -0.5816 -0.1191
  210MPD1     H 3194   0.235   4.677  11.577 -3.2736 -1.5972  0.6491
  210MPD1    H1 3195   0.168   4.497  11.959  1.6268 -0.7933  1.0736
  210MPD1    H2 3196   0.531   4.696  11.871  0.1052 -0.9805  0.2069
  210MPD1    H3 3197   0.405   4.549  12.010  1.1111  0.3642 -0.3944
  210MPD1     N 3198   0.069   4.522  11.722 -0.0203  0.1577 -0.1856
  210MPD1    H5 3199   0.017   4.452  11.773 -1.0403 -0.8385 -2.6062
  210MPD1    N1 3200   0.469   0.011  11.610 -0.0937 -0.1244 -0.9504
  210MPD1    H6 3201   0.554   0.048  11.654 -0.0181 -2.3029  0.7141
  210MPD1    H7 3202   0.419   0.067  11.541 -0.5968 -1.0975 -1.3807
  211MPD1     C 3203   2.069   3.804  16.095 -0.4704 -0.5301  0.0533
  211MPD1    C1 3204   1.962   3.744  16.150 -0.4777 -0.1752 -0.6757
  211MPD1    C2 3205   1.840   3.814  16.166  0.0109  0.6135  0.3009
  211MPD1    C3 3206   1.822   3.940  16.117 -0.5895  0.7421  0.2072
  211MPD1    C4 3207   1.931   3.998  16.057 -0.2676 -0.6466 -0.0046
  211MPD1    C5 3208   2.052   3.931  16.046  0.2649 -0.3818 -0.6549
  211MPD1     H 3209   1.762   3.760  16.219  1.2700 -1.8217 -0.2908
  211MPD1    H1 3210   1.933   4.099  16.018  3.2458 -1.0867 -1.0242
  211MPD1    H2 3211   2.165   3.760  16.074 -0.8609 -0.9287 -0.8936
  211MPD1    H3 3212   2.135   3.983  15.999  0.2124 -0.1437 -0.4851
  211MPD1     N 3213   1.699   4.006  16.134  0.6060  0.1056 -0.4096
  211MPD1    H5 3214   1.624   3.944  16.162 -0.4169  0.8306 -1.5490
  211MPD1    N1 3215   1.996   3.624  16.220 -0.3192  0.5601 -0.4770
  211MPD1    H6 3216   2.063   3.565  16.172 -2.2880  0.3959 -3.0219
  211MPD1    H7 3217   1.911   3.570  16.239  0.5271 -0.5599  0.1331
  212MPD1     C 3218   0.423   3.134  16.131 -0.5479 -0.8021 -0.2101
  212MPD1    C1 3219   0.294   3.149  16.192  0.3104 -0.1778 -0.5549
  212MPD1    C2 3220   0.254   3.078  16.300  0.3970  0.4325  0.1612
  212MPD1    C3 3221   0.347   2.994  16.354  0.2619 -0.5182  0.5924
  212MPD1    C4 3222   0.477   2.990  16.299 -0.3435  0.8190  0.4641
  212MPD1    C5 3223   0.517   3.056  16.186  0.2809  0.0384 -0.3078
  212MPD1     H 3224   0.150   3.082  16.330  0.6796  0.1698  1.1841
  212MPD1    H1 3225   0.549   2.928  16.351 -1.3502 -0.3585  0.4486
  212MPD1    H2 3226   0.434   3.147  16.024  0.1499  1.4991  0.1408
  212MPD1    H3 3227   0.617   3.039  16.149  0.5463  3.1975 -1.0005
  212MPD1     N 3228   0.327   2.909  16.463  0.0239 -0.4658  0.1013
  212MPD1    H5 3229   0.396   2.835  16.476 -1.9927 -1.9320  2.6276
  212MPD1    N1 3230   0.196   3.217  16.115  0.4201  0.7352  0.1266
  212MPD1    H6 3231   0.243   3.291  16.062 -1.7596  1.7886 -0.3556
  212MPD1    H7 3232   0.126   3.259  16.176  0.5884 -0.5294  1.1822
  213MPD1     C 3233   3.936   3.154  15.715  0.0155 -0.5309 -0.4960
  213MPD1    C1 3234   3.807   3.109  15.701  0.2519 -0.6813 -0.6916
  213MPD1    C2 3235   3.745   3.155  15.587  0.1240  0.1916  0.3633
  213MPD1    C3 3236   3.784   3.279  15.542 -0.0819  0.0980  0.6296
  213MPD1    C4 3237   3.902   3.342  15.575 -0.5283 -0.1583  0.0798
  213MPD1    C5 3238   3.979   3.269  15.661  0.0220  0.4924  0.0992
  213MPD1     H 3239   3.651   3.110  15.558  1.1569 -2.0492  0.4263
  213MPD1    H1 3240   3.921   3.444  15.544 -0.3184 -0.3517 -0.4231
  213MPD1    H2 3241   4.004   3.110  15.787 -1.8131 -0.7265  1.1010
  213MPD1    H3 3242   4.071   3.314  15.697  0.2727  0.9625 -1.1628
  213MPD1     N 3243   3.685   3.335  15.458 -0.1402  0.3249 -0.8967
  213MPD1    H5 3244   3.600   3.283  15.438 -0.4060 -0.5501  2.5874
  213MPD1    N1 3245   3.769   2.978  15.741  0.3129 -0.5775  0.0857
  213MPD1    H6 3246   3.669   2.980  15.728  0.3009 -1.0148  0.1038
  213MPD1    H7 3247   3.791   2.963  15.839  0.0065  0.8122  0.3647
  214MPD1     C 3248   2.832   3.186  15.421 -0.5890  0.3660  0.5824
  214MPD1    C1 3249   2.881   3.139  15.303 -0.5491  0.6415  0.5830
  214MPD1    C2 3250   3.000   3.197  15.261 -0.1818 -0.6648 -0.2675
  214MPD1    C3 3251   3.081   3.270  15.343 -0.0658 -0.7959  0.7241
  214MPD1    C4 3252   3.033   3.306  15.462 -0.2734  0.9625  0.0155
  214MPD1    C5 3253   2.905   3.276  15.509  0.0945 -0.4309  0.1401
  214MPD1     H 3254   3.035   3.162  15.165  2.2681  0.4831  0.2128
  214MPD1    H1 3255   3.081   3.376  15.530 -1.4152 -0.1031  1.9343
  214MPD1    H2 3256   2.735   3.154  15.457 -1.0466  1.3464  0.2270
  214MPD1    H3 3257   2.866   3.318  15.601 -1.8731 -3.9314  0.9206
  214MPD1     N 3258   3.204   3.327  15.309 -0.2046  0.1515  0.5083
  214MPD1    H5 3259   3.250   3.386  15.377 -0.6860 -0.4628  1.3644
  214MPD1    N1 3260   2.797   3.074  15.217  0.2818 -0.0723 -0.6125
  214MPD1    H6 3261   2.856   3.021  15.153  2.7206  1.2739  0.5230
  214MPD1    H7 3262   2.737   3.007  15.265  0.5395 -0.8613 -1.3753
  215MPD1     C 3263   2.832   4.124  11.473  0.5825  0.9358  0.1852
  215MPD1    C1 3264   2.966   4.099  11.467 -0.6498  0.6928 -0.5637
  215MPD1    C2 3265   3.051   4.198  11.427  0.2519 -0.6284 -0.2736
  215MPD1    C3 3266   3.009   4.330  11.409  0.1438 -0.8762  0.2242
  215MPD1    C4 3267   2.872   4.357  11.418 -0.0149 -0.2319 -0.3421
  215MPD1    C5 3268   2.789   4.247  11.444  0.0632 -0.3791 -0.0895
  215MPD1     H 3269   3.155   4.172  11.417  0.3833  0.4424 -1.6012
  215MPD1    H1 3270   2.833   4.457  11.404  2.3436  0.8033  0.4656
  215MPD1    H2 3271   2.756   4.049  11.493  0.3597  1.3143  0.7283
  215MPD1    H3 3272   2.687   4.281  11.453  0.3654  0.4652  0.2043
  215MPD1     N 3273   3.105   4.424  11.374  0.5253 -0.2620 -0.2546
  215MPD1    H5 3274   3.201   4.393  11.381 -0.2598 -2.6766 -0.0567
  215MPD1    N1 3275   3.004   3.960  11.456  0.3578  0.2510  0.4835
  215MPD1    H6 3276   3.101   3.935  11.478  0.1886 -0.6533  0.2009
  215MPD1    H7 3277   2.955   3.884  11.500  3.1185 -1.1614  1.1206
  216MPD1     C 3278   1.599   1.873  15.634  0.9142  0.5490 -0.0667
  216MPD1    C1 3279   1.481   1.884  15.697  0.2509  0.1629 -0.7429
  216MPD1    C2 3280   1.427   1.760  15.748  0.1142  0.0836  0.8609
  216MPD1    C3 3281   1.502   1.644  15.764 -0.2841 -0.7410 -0.4603
  216MPD1    C4 3282   1.641   1.650  15.737  0.7312 -0.4347 -0.5929
  216MPD1    C5 3283   1.681   1.762  15.658 -0.0237 -0.2965 -0.5727
  216MPD1     H 3284   1.324   1.753  15.780 -0.0626  2.0927  0.7013
  216MPD1    H1 3285   1.713   1.574  15.763 -0.5456 -0.7766  1.9114
  216MPD1    H2 3286   1.643   1.951  15.573  0.2142  0.3825 -0.7820
  216MPD1    H3 3287   1.780   1.777  15.618 -0.1948  0.5360 -0.6845
  216MPD1     N 3288   1.449   1.526  15.828  0.0343 -0.0732 -0.4437
  216MPD1    H5 3289   1.355   1.531  15.866  0.3139  2.2732 -0.0961
  216MPD1    N1 3290   1.397   1.996  15.670 -0.2921 -0.5369 -0.0521
  216MPD1    H6 3291   1.448   2.084  15.659 -0.3454 -1.1209 -4.7567
  216MPD1    H7 3292   1.346   2.012  15.757  1.2828  1.0536  0.6016
  217MPD1     C 3293   2.171   1.852   8.681  0.0758 -0.2545 -0.5293
  217MPD1    C1 3294   2.255   1.954   8.642  0.2651  0.3939  0.3264
  217MPD1    C2 3295   2.238   2.068   8.709 -0.5328 -0.1846 -0.2816
  217MPD1    C3 3296   2.142   2.087   8.810  0.6143  0.1800  0.0924
  217MPD1    C4 3297   2.054   1.987   8.830  0.0745  0.3451 -0.2751
  217MPD1    C5 3298   2.069   1.868   8.770  0.1251 -0.1348  0.0758
  217MPD1     H 3299   2.289   2.161   8.687 -1.4343  0.4657  0.4055
  217MPD1    H1 3300   1.975   1.991   8.905  0.5141  2.0621  0.1116
  217MPD1    H2 3301   2.186   1.753   8.640  1.7134 -0.5694  0.8268
  217MPD1    H3 3302   2.002   1.785   8.790 -0.7018  0.9427  1.8019
  217MPD1     N 3303   2.137   2.210   8.881 -0.4135  0.2066 -0.1651
  217MPD1    H5 3304   2.050   2.236   8.926 -0.1913 -0.5676  0.7097
  217MPD1    N1 3305   2.343   1.933   8.537 -0.1241 -0.2717 -0.3346
  217MPD1    H6 3306   2.367   1.834   8.538  0.7143 -0.0301  3.2462
  217MPD1    H7 3307   2.423   1.994   8.539 -0.4680  0.0937  2.1666
  218MPD1     C 3308   3.963   3.813  12.841  0.3638 -0.5068  0.0959
  218MPD1    C1 3309   4.012   3.888  12.939  0.1506  0.1891  0.0301
  218MPD1    C2 3310   4.077   4.008  12.901 -0.3040 -0.3448  0.0564
  218MPD1    C3 3311   4.072   4.054  12.773 -0.2857  0.5481 -0.6326
  218MPD1    C4 3312   4.025   3.975  12.673  0.2351  0.5397 -0.6173
  218MPD1    C5 3313   3.975   3.852  12.709  0.8496 -0.5216  0.4092
  218MPD1     H 3314   4.124   4.063  12.982 -0.5136 -1.6805  1.0892
  218MPD1    H1 3315   4.040   3.995  12.567  0.5943 -2.6493 -1.1618
  218MPD1    H2 3316   3.925   3.712  12.835  0.0376 -0.4316  0.8810
  218MPD1    H3 3317   3.950   3.783  12.629  1.8132 -1.6382  1.0713
  218MPD1     N 3318   4.137   4.178  12.751  0.5973 -0.2205 -0.3592
  218MPD1    H5 3319   4.164   4.229  12.835 -0.6002 -1.0395  0.5285
  218MPD1    N1 3320   4.037   3.825  13.063  0.0148 -0.2852  0.5080
  218MPD1    H6 3321   4.065   3.893  13.133  0.2092 -1.4105  1.5195
  218MPD1    H7 3322   3.959   3.764  13.089 -1.5460  0.9309 -1.3780
  219MPD1     C 3323   0.144   0.041  12.163  0.5187 -0.3020  0.0047
  219MPD1    C1 3324   0.030   4.704  12.121  0.4423 -0.0814  0.1535
  219MPD1    C2 3325   4.675   4.636  12.207 -0.2808 -0.1042 -0.5029
  219MPD1    C3 3326   4.708   4.643  12.340  0.4840  0.0771 -0.1225
  219MPD1    C4 3327   0.098   4.699  12.385 -0.7544  0.5922 -0.6832
  219MPD1    C5 3328   0.182   0.041  12.297 -0.2522  0.2978  0.0616
  219MPD1     H 3329   4.581   4.587  12.182  1.1247 -2.6664 -0.7631
  219MPD1    H1 3330   0.142   4.694  12.484  0.5203 -0.3995 -1.2907
  219MPD1    H2 3331   0.205   0.103  12.098 -0.6121  0.1297 -0.6408
  219MPD1    H3 3332   0.274   0.086  12.333 -0.7941 -0.1572  2.0205
  219MPD1     N 3333   4.633   4.581  12.444 -0.5438  0.4702 -0.3835
  219MPD1    H5 3334   4.672   4.581  12.538 -1.8869 -2.1643  0.1776
  219MPD1    N1 3335   4.717   4.717  11.988 -0.1422  0.3675  0.0456
  219MPD1    H6 3336   4.656   4.641  11.958 -0.2238  0.3959  0.1380
  219MPD1    H7 3337   0.068   4.718  11.921 -0.1445 -0.1280  0.0362
  220MPD1     C 3338   3.039   0.467   9.589  0.9642 -0.2959 -0.1646
  220MPD1    C1 3339   3.144   0.484   9.676 -0.1853 -0.4596  0.3811
  220MPD1    C2 3340   3.151   0.401   9.786 -0.1795 -0.4224  0.0850
  220MPD1    C3 3341   3.061   0.292   9.801  0.6043  0.1392  0.4804
  220MPD1    C4 3342   2.964   0.270   9.702  0.6656  0.0032 -0.1428
  220MPD1    C5 3343   2.946   0.369   9.612  0.0938 -0.8456 -0.3215
  220MPD1     H 3344   3.245   0.403   9.840 -0.7350 -0.7989  1.0702
  220MPD1    H1 3345   2.894   0.188   9.691 -0.9096  1.3140  0.1825
  220MPD1    H2 3346   3.027   0.534   9.505  0.5053 -0.7884 -0.4912
  220MPD1    H3 3347   2.861   0.364   9.545 -1.6508  0.2713  1.7767
  220MPD1     N 3348   3.084   0.211   9.915 -0.2719  0.3662  0.4581
  220MPD1    H5 3349   3.162   0.239   9.974  0.3581 -1.2655  0.3906
  220MPD1    N1 3350   3.243   0.575   9.645 -0.4280 -0.4559  0.1543
  220MPD1    H6 3351   3.276   0.622   9.729  0.5884 -0.7943 -0.0568
  220MPD1    H7 3352   3.217   0.651   9.583  1.5427  0.8441  0.9158
  221MPD1     C 3353   2.272   3.088  16.879  1.1145  0.8270 -0.2645
  221MPD1    C1 3354   2.222   3.189  16.963 -0.5418 -0.0550 -0.2077
  221MPD1    C2 3355   2.154   3.299  16.903  0.3367 -0.1933 -0.0011
  221MPD1    C3 3356   2.126   3.297  16.764  0.1743  0.4526 -0.4183
  221MPD1    C4 3357   2.165   3.187  16.690 -0.0497 -0.6843 -0.0258
  221MPD1    C5 3358   2.245   3.096  16.748  0.1051  0.1007 -0.4658
  221MPD1     H 3359   2.115   3.375  16.970 -0.8275 -1.6904  1.0402
  221MPD1    H1 3360   2.142   3.173  16.585 -0.8023  0.6813 -0.0370
  221MPD1    H2 3361   2.323   3.002  16.922  0.2528  0.3266 -0.2397
  221MPD1    H3 3362   2.284   3.018  16.683  0.3639 -0.8497  0.8228
  221MPD1     N 3363   2.051   3.397  16.697  0.9107  0.4125 -0.2962
  221MPD1    H5 3364   2.025   3.369  16.603  1.5819 -0.7446 -0.1350
  221MPD1    N1 3365   2.240   3.192  17.101 -0.5098  0.3753  0.3389
  221MPD1    H6 3366   2.165   3.247  17.142 -0.7497 -0.1178  0.5602
  221MPD1    H7 3367   2.313   3.260  17.121 -0.3413  0.6233 -1.0963
  222MPD1     C 3368   0.177   2.213   0.009 -0.3728 -0.4054  0.2549
  222MPD1    C1 3369   0.112   2.303   0.086 -0.0340  0.4840 -0.3944
  222MPD1    C2 3370   0.097   2.434   0.041  0.1724 -0.5467 -0.1277
  222MPD1    C3 3371   0.156   2.472  17.628  0.5185  0.0521 -0.6222
  222MPD1    C4 3372   0.241   2.383  17.563 -0.1637  0.1426  0.2148
  222MPD1    C5 3373   0.241   2.254  17.601 -0.6077 -0.5211  0.1286
  222MPD1     H 3374   0.035   2.503   0.098  2.2049  0.5100  0.8006
  222MPD1    H1 3375   0.287   2.412  17.470  1.2307  1.2121  1.2341
  222MPD1    H2 3376   0.171   2.107   0.032 -2.6251 -0.5606 -1.0804
  222MPD1    H3 3377   0.295   2.181  17.542  0.0665  0.0122  0.0929
  222MPD1     N 3378   0.127   2.601  17.561 -0.2406  0.4343 -0.7459
  222MPD1    H5 3379   0.173   2.609  17.471  0.6143  1.3284 -0.2266
  222MPD1    N1 3380   0.029   2.250   0.188 -0.0042 -0.0993 -0.0830
  222MPD1    H6 3381   0.028   2.305   0.274  0.0814 -0.1301 -0.0623
  222MPD1    H7 3382   0.066   2.160   0.215  2.4227  1.0623  0.4669
  223MPD1     C 3383   4.433   3.599   0.001 -0.2586  0.1375  0.5509
  223MPD1    C1 3384   4.563   3.606  17.676 -0.3918 -0.5799  0.5143
  223MPD1    C2 3385   4.618   3.492  17.626 -0.6290 -1.2571 -1.2319
  223MPD1    C3 3386   4.551   3.372  17.619  0.5370  0.6955 -0.0719
  223MPD1    C4 3387   4.422   3.364  17.659  0.4661  0.0312  0.0190
  223MPD1    C5 3388   4.366   3.480   0.001 -0.7317 -0.1944  0.1536
  223MPD1     H 3389   4.720   3.493  17.590 -0.6499 -1.8890 -1.3183
  223MPD1    H1 3390   4.362   3.274  17.652 -0.7894  0.7596  1.3073
  223MPD1    H2 3391   4.389   3.691   0.040 -0.8945 -0.0542  0.2856
  223MPD1    H3 3392   4.268   3.474   0.047 -1.3523 -0.2531 -1.1479
  223MPD1     N 3393   4.619   3.256  17.566 -0.1059  0.6109 -0.3717
  223MPD1    H5 3394   4.717   3.262  17.540 -0.7704  1.6610 -2.6413
  223MPD1    N1 3395   4.626   3.731  17.675 -0.0281  0.1606 -0.6831
  223MPD1    H6 3396   4.725   3.722  17.699 -0.0383 -0.6696 -0.9373
  223MPD1    H7 3397   4.596   3.798   0.043 -0.7800 -1.4111  0.5217
  224MPD1     C 3398   1.923   3.339   8.895 -0.2857 -0.3447 -0.6754
  224MPD1    C1 3399   1.820   3.384   8.972 -0.1863  0.0471 -0.0058
  224MPD1    C2 3400   1.851   3.426   9.097  0.1096  0.4266  0.2431
  224MPD1    C3 3401   1.985   3.433   9.145 -0.0017  0.1248  0.1357
  224MPD1    C4 3402   2.080   3.388   9.056 -0.4390  0.0040 -0.1758
  224MPD1    C5 3403   2.049   3.334   8.939  0.0047 -0.2898  0.1717
  224MPD1     H 3404   1.775   3.455   9.169  0.7483  0.5005  0.8846
  224MPD1    H1 3405   2.187   3.393   9.072 -0.3203 -0.0687 -0.9522
  224MPD1    H2 3406   1.902   3.299   8.796 -0.7280 -0.1710 -0.6526
  224MPD1    H3 3407   2.132   3.312   8.873  0.5279  1.8939  0.1167
  224MPD1     N 3408   2.026   3.484   9.269  0.0521  0.0560  0.6769
  224MPD1    H5 3409   2.125   3.486   9.291  0.8391  3.4633 -3.1160
  224MPD1    N1 3410   1.688   3.372   8.932 -0.5113 -0.2025 -0.5012
  224MPD1    H6 3411   1.660   3.274   8.923 -2.0924  0.2486 -0.5822
  224MPD1    H7 3412   1.623   3.416   8.997  0.6047  0.0811  0.4113
  225MPD1     C 3413   3.754   0.760  13.015  0.5316 -0.2435 -0.3285
  225MPD1    C1 3414   3.785   0.647  12.946 -0.3990 -0.4082  0.0324
  225MPD1    C2 3415   3.724   0.616  12.825 -0.0588  0.1223  0.1606
  225MPD1    C3 3416   3.611   0.691  12.786 -0.3069 -0.3350  0.0567
  225MPD1    C4 3417   3.566   0.800  12.864 -0.3464  1.1374 -0.0128
  225MPD1    C5 3418   3.643   0.834  12.971 -0.7025 -0.0248  0.4550
  225MPD1     H 3419   3.773   0.538  12.769  2.4469 -0.2130  2.8192
  225MPD1    H1 3420   3.484   0.865  12.834  1.0356  1.5759 -2.8549
  225MPD1    H2 3421   3.813   0.794  13.100 -0.1512  1.0015 -0.3520
  225MPD1    H3 3422   3.619   0.929  13.018 -0.1006  0.2436  0.2311
  225MPD1     N 3423   3.534   0.664  12.669 -0.0483  0.6087  0.9870
  225MPD1    H5 3424   3.456   0.727  12.656 -0.0394  0.4963  0.3860
  225MPD1    N1 3425   3.907   0.587  12.969 -0.0172 -0.0739  0.3578
  225MPD1    H6 3426   3.925   0.495  12.930 -0.5046 -0.8317  1.9225
  225MPD1    H7 3427   3.926   0.587  13.069 -0.7167 -0.5260  0.4913
  226MPD1     C 3428   1.647   0.733   9.172  0.3558  0.1091  0.4912
  226MPD1    C1 3429   1.568   0.674   9.272 -0.3840 -0.3093  0.3206
  226MPD1    C2 3430   1.635   0.597   9.362  0.1418  0.0049  0.3480
  226MPD1    C3 3431   1.772   0.603   9.375 -0.3222 -0.1459 -0.0454
  226MPD1    C4 3432   1.849   0.678   9.288 -0.2391  0.0606 -0.1527
  226MPD1    C5 3433   1.788   0.743   9.185  0.1046 -0.1411  0.2502
  226MPD1     H 3434   1.578   0.539   9.433  1.1112 -1.0683  0.2386
  226MPD1    H1 3435   1.957   0.669   9.296 -0.4120 -0.7880  1.1820
  226MPD1    H2 3436   1.609   0.772   9.078 -1.7936 -0.1959  1.2409
  226MPD1    H3 3437   1.848   0.786   9.106  0.0750  0.3202  0.4804
  226MPD1     N 3438   1.830   0.523   9.476  0.3724 -0.1519  0.1959
  226MPD1    H5 3439   1.764   0.482   9.543  0.0406  0.3310  0.1671
  226MPD1    N1 3440   1.430   0.666   9.261  0.0976  0.0962 -0.4738
  226MPD1    H6 3441   1.382   0.726   9.194 -0.6175 -2.0392 -1.8664
  226MPD1    H7 3442   1.381   0.652   9.349  0.3321  2.0308 -0.0310
  227MPD1     C 3443   2.591   0.073  10.132 -0.4639 -0.0141  0.7740
  227MPD1    C1 3444   2.539   4.702  10.048 -0.6031  0.3757  0.5111
  227MPD1    C2 3445   2.448   0.021   9.961  0.1984  0.0029 -0.0608
  227MPD1    C3 3446   2.404   0.152   9.950  0.6387 -0.2092 -0.0290
  227MPD1    C4 3447   2.458   0.246  10.032 -0.6957  0.5244 -0.2246
  227MPD1    C5 3448   2.545   0.202  10.128  0.3425  0.0554 -0.6082
  227MPD1     H 3449   2.398   4.669   9.903  0.4596 -1.7111  1.9918
  227MPD1    H1 3450   2.433   0.350  10.021  1.8035  0.8899 -2.4186
  227MPD1    H2 3451   2.669   0.045  10.202 -0.8264 -3.1254 -0.0785
  227MPD1    H3 3452   2.589   0.266  10.204 -0.2796 -2.2182  1.6807
  227MPD1     N 3453   2.302   0.183   9.861  0.1723  0.2470 -0.3918
  227MPD1    H5 3454   2.248   0.104   9.827  0.8191 -1.1101  1.6710
  227MPD1    N1 3455   2.554   4.565  10.081 -0.3293 -0.8272  0.2677
  227MPD1    H6 3456   2.547   4.501  10.002  2.3323 -1.8782  0.8833
  227MPD1    H7 3457   2.648   4.553  10.118 -0.0839 -0.6719 -0.2973
  228MPD1     C 3458   0.275   2.689  13.179  0.2784 -0.1489 -0.0242
  228MPD1    C1 3459   0.201   2.608  13.255  0.0199 -0.2108 -0.0346
  228MPD1    C2 3460   0.070   2.573  13.215 -0.3026  0.4179 -0.1586
  228MPD1    C3 3461   0.018   2.608  13.092  0.5240 -0.3615 -0.0050
  228MPD1    C4 3462   0.098   2.677  13.007  0.6646  0.5011  0.4334
  228MPD1    C5 3463   0.220   2.728  13.054 -0.0018 -0.3761 -0.4399
  228MPD1     H 3464   0.006   2.520  13.284  1.7146 -0.6824  0.8688
  228MPD1    H1 3465   0.079   2.693  12.902  1.6191  0.0303  0.1868
  228MPD1    H2 3466   0.372   2.723  13.212 -1.7472  1.7683  4.0292
  228MPD1    H3 3467   0.286   2.783  12.988 -1.4597 -0.9759 -2.4010
  228MPD1     N 3468   4.616   2.560  13.055 -0.0049  0.0369  0.8941
  228MPD1    H5 3469   4.568   2.498  13.120 -0.7722 -1.1746 -0.8250
  228MPD1    N1 3470   0.251   2.591  13.384  0.8387  0.2525 -0.3676
  228MPD1    H6 3471   0.221   2.513  13.442  1.3722  2.1941  2.5321
  228MPD1    H7 3472   0.352   2.598  13.380  0.8383  0.2390 -0.4010
  229MPD1     C 3473   3.908   1.894  14.106 -0.3570 -0.7071  0.2317
  229MPD1    C1 3474   3.888   1.982  14.212 -0.2941 -0.0948  0.1406
  229MPD1    C2 3475   3.974   1.975  14.323  0.1156 -0.6065 -0.1028
  229MPD1    C3 3476   4.054   1.862  14.337  0.3993  0.2799  0.3677
  229MPD1    C4 3477   4.064   1.770  14.239  0.2390  0.0369 -0.0974
  229MPD1    C5 3478   4.002   1.791  14.112  0.4262  0.4037  0.6282
  229MPD1     H 3479   3.953   2.052  14.396 -0.0358 -1.9819  1.2940
  229MPD1    H1 3480   4.134   1.687  14.239 -1.6889 -1.6095 -3.1453
  229MPD1    H2 3481   3.846   1.907  14.018 -0.7654  0.9426  0.7721
  229MPD1    H3 3482   4.019   1.717  14.034  0.5680  0.5664  0.5042
  229MPD1     N 3483   4.141   1.842  14.446 -0.0086 -0.1335 -0.1326
  229MPD1    H5 3484   4.203   1.763  14.431 -2.4211 -2.3195  1.5110
  229MPD1    N1 3485   3.799   2.094  14.199 -0.0397 -0.1110 -0.4733
  229MPD1    H6 3486   3.735   2.068  14.125  1.8885 -0.5553 -2.0023
  229MPD1    H7 3487   3.750   2.128  14.281 -1.3068  0.0217 -1.2919
  230MPD1     C 3488   4.347   1.907  15.509  0.4763  0.0181  0.1870
  230MPD1    C1 3489   4.402   1.788  15.468  0.9586  0.4350  0.4736
  230MPD1    C2 3490   4.404   1.769  15.329  0.1400 -0.3458 -0.3271
  230MPD1    C3 3491   4.376   1.873  15.243 -0.3375  0.0586  0.1175
  230MPD1    C4 3492   4.339   1.995  15.296 -0.7986 -0.0098 -0.3623
  230MPD1    C5 3493   4.321   2.009  15.432 -0.2876  0.3363 -0.6044
  230MPD1     H 3494   4.439   1.673  15.292  0.5363 -0.7801  1.1585
  230MPD1    H1 3495   4.318   2.083  15.236 -1.1944 -0.2175 -0.5217
  230MPD1    H2 3496   4.324   1.922  15.614 -0.0687  1.3842 -0.1228
  230MPD1    H3 3497   4.274   2.099  15.467 -1.3833 -0.5599  0.2338
  230MPD1     N 3498   4.362   1.840  15.104 -0.3104 -0.4464 -0.1015
  230MPD1    H5 3499   4.375   1.742  15.080 -0.5858 -0.4506 -0.2308
  230MPD1    N1 3500   4.430   1.685  15.557  0.0172 -0.7324 -0.2960
  230MPD1    H6 3501   4.459   1.728  15.644 -1.5760  0.7091 -0.4819
  230MPD1    H7 3502   4.507   1.630  15.519 -0.2975 -1.0851 -0.4295
  231MPD1     C 3503   2.359   3.577  15.630 -0.3890 -0.2525  0.9264
  231MPD1    C1 3504   2.370   3.478  15.536 -0.4041 -0.2152  0.3648
  231MPD1    C2 3505   2.482   3.470  15.462  0.0881  0.4329 -0.1357
  231MPD1    C3 3506   2.584   3.563  15.479  0.2562  0.0735  0.0044
  231MPD1    C4 3507   2.568   3.677  15.561 -0.1342  0.1734  0.4566
  231MPD1    C5 3508   2.456   3.673  15.637  0.7600 -0.1722  1.1650
  231MPD1     H 3509   2.494   3.381  15.400  1.0591 -0.0648  0.7623
  231MPD1    H1 3510   2.650   3.746  15.577  0.4394 -0.5427  0.6089
  231MPD1    H2 3511   2.269   3.589  15.688  0.4665 -0.0778  2.2245
  231MPD1    H3 3512   2.452   3.748  15.716 -1.6317  0.5487  0.3623
  231MPD1     N 3513   2.698   3.559  15.398 -0.0777 -0.0450  0.1012
  231MPD1    H5 3514   2.695   3.493  15.321  2.7018  0.4237 -0.4199
  231MPD1    N1 3515   2.276   3.373  15.518 -0.5793 -0.7153  0.2740
  231MPD1    H6 3516   2.182   3.388  15.554 -0.6222 -0.5052  0.0714
  231MPD1    H7 3517   2.270   3.327  15.427 -0.9758  0.5550 -0.3395
  232MPD1     C 3518   4.706   1.501  16.946  0.0168  0.9159  0.0890
  232MPD1    C1 3519   4.592   1.433  16.973 -0.2791 -0.1330  0.2376
  232MPD1    C2 3520   4.570   1.381  17.094 -0.2052 -0.3498 -0.0963
  232MPD1    C3 3521   4.671   1.383  17.184 -0.4116 -0.0947  0.2388
  232MPD1    C4 3522   0.070   1.433  17.155  0.1847  0.6765 -0.0279
  232MPD1    C5 3523   0.086   1.497  17.035  0.0497  0.3029 -0.0242
  232MPD1     H 3524   4.474   1.335  17.112 -0.7655  1.1570  0.7645
  232MPD1    H1 3525   0.159   1.431  17.216  0.4763  0.4955 -0.4554
  232MPD1    H2 3526   0.003   1.566  16.862  3.2150 -3.5365 -2.5302
  232MPD1    H3 3527   0.177   1.551  17.012  1.5070 -1.7943  0.8654
  232MPD1     N 3528   4.644   1.325  17.307  0.2415  0.2947  0.3132
  232MPD1    H5 3529   4.551   1.287  17.318 -0.4476  1.7871 -0.3260
  232MPD1    N1 3530   4.492   1.431  16.874  0.3615 -0.2392 -1.0480
  232MPD1    H6 3531   4.527   1.468  16.786  1.2734  0.2591 -0.4651
  232MPD1    H7 3532   4.449   1.339  16.865 -1.9284  0.6859  0.4225
  233MPD1     C 3533   1.831   3.955   1.703  0.5066  1.3209 -0.4166
  233MPD1    C1 3534   1.908   3.952   1.589 -0.2086 -0.1656  0.4181
  233MPD1    C2 3535   2.045   3.933   1.598  1.4416  0.7714 -0.1506
  233MPD1    C3 3536   2.104   3.912   1.723  0.5052  0.3548 -0.2058
  233MPD1    C4 3537   2.024   3.907   1.837  0.3460 -0.1661  0.3493
  233MPD1    C5 3538   1.891   3.946   1.825 -0.7106 -0.4688  0.4512
  233MPD1     H 3539   2.103   3.917   1.507  0.2435  0.3345 -0.8255
  233MPD1    H1 3540   2.062   3.901   1.938  0.4065  0.2405  0.3470
  233MPD1    H2 3541   1.727   3.982   1.684  0.3544  0.5156 -0.7164
  233MPD1    H3 3542   1.831   3.964   1.913 -0.9118  0.7788  0.0652
  233MPD1     N 3543   2.238   3.873   1.733  0.0364  0.4809 -0.0704
  233MPD1    H5 3544   2.284   3.869   1.824 -3.2417 -0.5968  1.5466
  233MPD1    N1 3545   1.849   3.941   1.461 -0.0301  0.3682 -0.2604
  233MPD1    H6 3546   1.769   4.003   1.471 -1.1261 -0.7309 -2.1629
  233MPD1    H7 3547   1.910   3.984   1.391  3.0592 -1.3614  1.3544
  234MPD1     C 3548   3.099   2.208   9.639 -0.4891  0.4159 -0.2736
  234MPD1    C1 3549   3.144   2.260   9.522  0.0479 -0.2319  0.4990
  234MPD1    C2 3550   3.117   2.391   9.496 -0.8473  0.0162 -0.1924
  234MPD1    C3 3551   3.072   2.480   9.595 -1.0494  0.9882 -0.4036
  234MPD1    C4 3552   3.051   2.429   9.724 -0.3539  0.8068  0.3115
  234MPD1    C5 3553   3.065   2.291   9.741 -0.6230 -0.3457 -0.3022
  234MPD1     H 3554   3.138   2.432   9.398 -0.3143 -2.1242 -0.9708
  234MPD1    H1 3555   3.016   2.487   9.808  2.1365  0.3303  1.6703
  234MPD1    H2 3556   3.084   2.103   9.661  0.3259  0.3718  0.0801
  234MPD1    H3 3557   3.020   2.247   9.829 -1.2984 -0.1462 -0.5420
  234MPD1     N 3558   3.059   2.615   9.564  0.4202 -0.0409  0.0852
  234MPD1    H5 3559   3.061   2.628   9.463 -2.1707 -1.1592 -0.0998
  234MPD1    N1 3560   3.170   2.174   9.417 -0.8788  0.1528  0.1766
  234MPD1    H6 3561   3.230   2.215   9.346  0.3574  1.2293  1.8756
  234MPD1    H7 3562   3.223   2.091   9.443  0.3150  0.6612 -0.6813
  235MPD1     C 3563   3.840   0.351  10.764  0.3499  0.5312 -0.0167
  235MPD1    C1 3564   3.799   0.429  10.654  0.2661 -0.0900 -0.5817
  235MPD1    C2 3565   3.884   0.531  10.606 -0.2236  0.3197 -0.1799
  235MPD1    C3 3566   3.999   0.555  10.675  0.0063  0.1678  0.5317
  235MPD1    C4 3567   4.034   0.483  10.784 -0.4359  0.4738 -0.4637
  235MPD1    C5 3568   3.953   0.386  10.833  0.2804 -0.2883 -0.3727
  235MPD1     H 3569   3.871   0.594  10.519  0.6172  0.8376  0.0726
  235MPD1    H1 3570   4.132   0.502  10.827 -1.5072  0.2344  2.1228
  235MPD1    H2 3571   3.789   0.261  10.796  0.4989  1.3502  2.5125
  235MPD1    H3 3572   3.995   0.317  10.906  2.2028  1.8064  0.5202
  235MPD1     N 3573   4.080   0.666  10.633  0.1794 -0.4021 -0.2472
  235MPD1    H5 3574   4.049   0.713  10.549 -1.0895 -0.1332  0.3883
  235MPD1    N1 3575   3.693   0.389  10.574  0.4036  0.6675  0.2520
  235MPD1    H6 3576   3.632   0.329  10.629  0.6173 -0.7102 -1.0318
  235MPD1    H7 3577   3.645   0.454  10.512 -0.6853 -1.6482 -1.3142
  236MPD1     C 3578   3.531   1.680   9.788  0.4155  0.4102 -0.1666
  236MPD1    C1 3579   3.517   1.559   9.854 -0.8355 -0.3157  0.7139
  236MPD1    C2 3580   3.571   1.544   9.980  0.0617 -0.1436  0.5075
  236MPD1    C3 3581   3.658   1.640  10.032  0.3705  0.1440 -0.3814
  236MPD1    C4 3582   3.672   1.760   9.963 -0.4249  0.9788 -0.0206
  236MPD1    C5 3583   3.609   1.774   9.841  0.2209 -0.0806  0.3082
  236MPD1     H 3584   3.544   1.455  10.036 -1.6079  1.2622  1.9510
  236MPD1    H1 3585   3.719   1.844  10.013 -0.4718 -0.1364  1.8916
  236MPD1    H2 3586   3.475   1.706   9.699 -1.5937  0.5208  1.1444
  236MPD1    H3 3587   3.618   1.872   9.797  0.2377 -1.0038 -1.7388
  236MPD1     N 3588   3.720   1.631  10.164  0.3675  0.3372  0.1747
  236MPD1    H5 3589   3.783   1.705  10.195 -0.9366  2.3657 -2.0675
  236MPD1    N1 3590   3.423   1.473   9.801 -0.0629 -0.1390 -0.1035
  236MPD1    H6 3591   3.434   1.457   9.702  0.5892 -3.5399  0.5431
  236MPD1    H7 3592   3.435   1.385   9.851 -1.9163 -0.1135  0.3949
  237MPD1     C 3593   3.917   4.083  15.492  0.3734 -0.0633  0.9244
  237MPD1    C1 3594   3.801   4.012  15.511  0.4871 -0.2485  0.5808
  237MPD1    C2 3595   3.684   4.068  15.458  0.0521 -0.0500 -0.3771
  237MPD1    C3 3596   3.677   4.182  15.387  0.4057 -0.0600 -0.4359
  237MPD1    C4 3597   3.797   4.251  15.369  1.5370 -0.3425  0.2037
  237MPD1    C5 3598   3.916   4.208  15.423 -0.1589  1.1628  0.4612
  237MPD1     H 3599   3.599   4.001  15.470  0.2980 -0.3061 -0.0294
  237MPD1    H1 3600   3.806   4.342  15.312 -0.2845  0.1274  0.6390
  237MPD1    H2 3601   4.009   4.048  15.538  0.2574  0.1585  1.3223
  237MPD1    H3 3602   4.014   4.254  15.421  1.2890 -1.8214  1.5298
  237MPD1     N 3603   3.562   4.235  15.327 -0.3067  0.4365 -0.0008
  237MPD1    H5 3604   3.577   4.305  15.256 -2.4091  0.4025 -0.4774
  237MPD1    N1 3605   3.797   3.906  15.603  0.0987  0.3191  0.3355
  237MPD1    H6 3606   3.887   3.859  15.614 -0.5706 -0.3752  2.8731
  237MPD1    H7 3607   3.724   3.836  15.592  0.6034 -0.0431 -0.6990
  238MPD1     C 3608   4.440   4.032  14.285 -0.5648  0.1895  0.4397
  238MPD1    C1 3609   4.453   3.985  14.414 -0.1227 -0.7819 -0.9875
  238MPD1    C2 3610   4.395   3.863  14.443  0.3487 -0.3464  0.2430
  238MPD1    C3 3611   4.313   3.804  14.346  0.2047 -0.1694  0.5993
  238MPD1    C4 3612   4.295   3.861  14.223 -0.1280 -0.3017  0.2000
  238MPD1    C5 3613   4.359   3.972  14.189  0.9877 -0.2315  0.9360
  238MPD1     H 3614   4.421   3.810  14.534  0.9989 -0.5160 -0.0410
  238MPD1    H1 3615   4.244   3.812  14.140 -0.8661 -0.1859  0.5867
  238MPD1    H2 3616   4.491   4.122  14.254 -0.7832  0.2639  0.2928
  238MPD1    H3 3617   4.343   4.023  14.094  0.3254  0.1024  1.2257
  238MPD1     N 3618   4.253   3.676  14.365  0.3352 -0.6414 -0.2913
  238MPD1    H5 3619   4.196   3.640  14.290  0.1575  0.8870 -0.8687
  238MPD1    N1 3620   4.559   4.040  14.488  0.5171 -0.5008  0.0608
  238MPD1    H6 3621   4.568   4.141  14.481 -0.0739 -0.4165  0.4852
  238MPD1    H7 3622   4.565   4.017  14.587  1.3277 -3.4711 -0.6945
  239MPD1     C 3623   0.436   4.278  14.938  0.7353  0.5128  0.1645
  239MPD1    C1 3624   0.556   4.298  14.874 -0.1405 -0.4241 -0.9331
  239MPD1    C2 3625   0.551   4.348  14.746 -0.3554 -0.1780  0.1526
  239MPD1    C3 3626   0.432   4.398  14.687  0.2711 -0.0263  0.6690
  239MPD1    C4 3627   0.316   4.394  14.761 -0.5045  0.0325  0.6180
  239MPD1    C5 3628   0.324   4.320  14.878  0.2158 -0.3079 -0.2371
  239MPD1     H 3629   0.646   4.361  14.695 -0.9145 -0.0971 -0.8540
  239MPD1    H1 3630   0.229   4.449  14.727 -0.4821  0.2732  0.9549
  239MPD1    H2 3631   0.435   4.233  15.036  0.6374  0.3095  0.0700
  239MPD1    H3 3632   0.233   4.318  14.937 -0.4133  0.4418 -1.1856
  239MPD1     N 3633   0.420   4.467  14.566  0.0244 -0.6385  0.1686
  239MPD1    H5 3634   0.331   4.509  14.542  0.0308  1.1841  3.3615
  239MPD1    N1 3635   0.674   4.244  14.928 -0.1330  0.1154  0.5139
  239MPD1    H6 3636   0.671   4.245  15.030 -1.0602 -2.4115  0.5066
  239MPD1    H7 3637   0.753   4.303  14.901 -1.9424  1.8563 -1.0020
  240MPD1     C 3638   4.346   4.233  13.447 -0.5850  0.3492  0.2935
  240MPD1    C1 3639   4.216   4.181  13.493 -0.3572 -0.0233 -0.0043
  240MPD1    C2 3640   4.212   4.064  13.567 -0.5022 -0.8438  0.3160
  240MPD1    C3 3641   4.331   3.990  13.591  0.2169 -0.1799 -0.0886
  240MPD1    C4 3642   4.451   4.049  13.561 -0.6813  0.3756  0.3599
  240MPD1    C5 3643   4.459   4.169  13.495 -0.3240 -0.3999  0.5837
  240MPD1     H 3644   4.113   4.020  13.579 -2.2236  2.1051 -3.1786
  240MPD1    H1 3645   4.543   3.992  13.572  0.7889  2.5285 -0.7582
  240MPD1    H2 3646   4.349   4.318  13.380 -2.4153  2.5500  3.0120
  240MPD1    H3 3647   4.553   4.201  13.452 -1.2364 -0.6390 -1.5996
  240MPD1     N 3648   4.319   3.863  13.659 -0.1671  0.4083 -1.1318
  240MPD1    H5 3649   4.230   3.827  13.693  0.7844 -1.4629 -0.5636
  240MPD1    N1 3650   4.098   4.244  13.450 -0.1828  0.1179 -0.1607
  240MPD1    H6 3651   4.114   4.342  13.427  0.2243 -0.3548 -1.9054
  240MPD1    H7 3652   4.011   4.221  13.497  1.3657 -2.5268  1.3834
  241MPD1     C 3653   0.056   3.143  14.333 -0.5121  0.6008  0.0589
  241MPD1    C1 3654   0.115   3.241  14.261  0.6379  0.5365 -0.1768
  241MPD1    C2 3655   0.035   3.294  14.164  0.6152 -0.5677 -0.0344
  241MPD1    C3 3656   4.625   3.264  14.145 -0.0498  0.4567  0.0208
  241MPD1    C4 3657   4.571   3.173  14.228  0.4939  0.2565 -0.3953
  241MPD1    C5 3658   4.652   3.105  14.313 -0.5443  0.1795  0.5089
  241MPD1     H 3659   0.086   3.372  14.109 -0.2605  0.6540  0.9002
  241MPD1    H1 3660   4.467   3.144  14.227  0.1730  1.4553 -2.3245
  241MPD1    H2 3661   0.114   3.085  14.404  0.2627 -1.1888 -2.0491
  241MPD1    H3 3662   4.601   3.030  14.373  0.0739 -2.0489 -1.7361
  241MPD1     N 3663   4.546   3.324  14.045  0.2565 -0.7092 -0.1388
  241MPD1    H5 3664   4.455   3.279  14.035 -0.5695  0.6715  1.3476
  241MPD1    N1 3665   0.250   3.282  14.284 -0.2292 -0.2274  0.4610
  241MPD1    H6 3666   0.268   3.378  14.254  0.2643 -0.5513 -0.2972
  241MPD1    H7 3667   0.290   3.280  14.377 -0.8255  1.7694  0.7699
  242MPD1     C 3668   3.316   2.325  15.969 -0.0537  0.2368 -0.1154
  242MPD1    C1 3669   3.240   2.339  15.852  0.2105 -0.7944 -0.1838
  242MPD1    C2 3670   3.311   2.338  15.737 -0.3095  0.7430  0.2928
  242MPD1    C3 3671   3.445   2.313  15.732  0.1841 -0.2312 -0.3123
  242MPD1    C4 3672   3.516   2.292  15.849 -0.0399  0.5606 -0.5139
  242MPD1    C5 3673   3.446   2.298  15.967  0.0511  0.4184 -0.3370
  242MPD1     H 3674   3.259   2.366  15.647 -0.0004  2.9127  0.7839
  242MPD1    H1 3675   3.622   2.269  15.839 -0.6677 -2.0883 -1.0511
  242MPD1    H2 3676   3.269   2.337  16.066 -0.1664 -0.6438 -0.0585
  242MPD1    H3 3677   3.498   2.280  16.061  0.8511  2.1287 -0.4553
  242MPD1     N 3678   3.520   2.323  15.613  0.1504  0.4433  0.1246
  242MPD1    H5 3679   3.621   2.329  15.620  0.2334 -0.4232 -0.4097
  242MPD1    N1 3680   3.102   2.372  15.848  0.1895 -0.4204 -0.1237
  242MPD1    H6 3681   3.050   2.355  15.763 -0.5192  2.3349 -0.2485
  242MPD1    H7 3682   3.050   2.324  15.922 -0.1414  0.3130  0.1161
  243MPD1     C 3683   1.066   0.128  17.065 -0.3782  0.0073  0.2641
  243MPD1    C1 3684   1.148   0.034  17.007 -0.6596  0.2479 -0.6774
  243MPD1    C2 3685   1.183   0.058  16.877 -0.0627  0.7641 -0.4032
  243MPD1    C3 3686   1.149   0.174  16.814  0.3779  0.4343  0.5477
  243MPD1    C4 3687   1.072   0.270  16.875  0.6802 -0.0873 -0.3024
  243MPD1    C5 3688   1.024   0.240  16.997  0.3777  0.7928 -0.2103
  243MPD1     H 3689   1.220   4.698  16.822  1.5865  0.5416  1.0504
  243MPD1    H1 3690   1.027   0.358  16.831 -1.3298 -0.7117  0.4759
  243MPD1    H2 3691   1.028   0.114  17.165 -1.6929  1.1411 -0.0783
  243MPD1    H3 3692   0.964   0.313  17.050  0.3772  0.1520  0.6504
  243MPD1     N 3693   1.187   0.189  16.675 -0.3355  0.0857  0.3097
  243MPD1    H5 3694   1.249   0.118  16.638 -1.1336 -0.8523  0.7505
  243MPD1    N1 3695   1.159   4.636  17.071  0.7048  0.1552 -0.0580
  243MPD1    H6 3696   1.235   4.586  17.026  0.4733  0.7031 -1.0640
  243MPD1    H7 3697   1.185   4.646  17.169 -0.8035  0.8818  0.2667
  244MPD1     C 3698   1.696   4.336  16.430 -0.4618 -1.1946 -0.3919
  244MPD1    C1 3699   1.572   4.334  16.492 -0.2068 -0.1401 -0.0238
  244MPD1    C2 3700   1.496   4.453  16.479  0.7551  0.0860  0.4735
  244MPD1    C3 3701   1.541   4.558  16.403 -0.1865  0.7502  0.4183
  244MPD1    C4 3702   1.661   4.549  16.337 -0.8088 -0.9826  0.1591
  244MPD1    C5 3703   1.736   4.437  16.351  0.8514  0.0045 -0.8219
  244MPD1     H 3704   1.397   4.462  16.523 -0.2176 -2.6384 -1.1699
  244MPD1    H1 3705   1.679   4.623  16.260 -0.9391 -0.3849  0.7080
  244MPD1    H2 3706   1.764   4.252  16.433 -1.0059 -1.7048 -2.4453
  244MPD1    H3 3707   1.831   4.416  16.304  1.6877  0.6909  0.5625
  244MPD1     N 3708   1.463   4.670  16.395  0.2200  0.0553 -0.1084
  244MPD1    H5 3709   1.382   4.677  16.456  0.2133  0.4673 -0.1642
  244MPD1    N1 3710   1.543   4.225  16.579 -0.0480 -0.0878 -0.6017
  244MPD1    H6 3711   1.443   4.209  16.593  0.5195 -3.4125 -0.3619
  244MPD1    H7 3712   1.585   4.134  16.567  1.1269  0.2751  0.6601
  245MPD1     C 3713   2.757   0.901  13.327  0.5785 -0.1938 -0.5208
  245MPD1    C1 3714   2.889   0.934  13.344  0.3434  0.2916  0.2597
  245MPD1    C2 3715   2.913   1.063  13.381  0.1343 -0.1631  0.2521
  245MPD1    C3 3716   2.819   1.160  13.396 -0.3935  0.4532 -0.0936
  245MPD1    C4 3717   2.684   1.120  13.379 -0.2785 -0.6200  0.1889
  245MPD1    C5 3718   2.657   0.992  13.350  0.7433  0.3898  0.0061
  245MPD1     H 3719   3.016   1.097  13.392  0.5312 -1.0683 -0.7060
  245MPD1    H1 3720   2.601   1.189  13.381  1.1584  1.1239 -0.3171
  245MPD1    H2 3721   2.724   0.800  13.306 -4.3248  0.7524  2.5806
  245MPD1    H3 3722   2.557   0.958  13.330  1.2711 -0.0164 -1.9934
  245MPD1     N 3723   2.852   1.293  13.412 -0.0588 -0.6371  0.2443
  245MPD1    H5 3724   2.950   1.313  13.432 -0.0329 -1.0520  0.5338
  245MPD1    N1 3725   2.992   0.840  13.360 -0.2928  0.1645  0.2119
  245MPD1    H6 3726   3.082   0.876  13.326  0.4303 -0.8297  1.0779
  245MPD1    H7 3727   2.962   0.755  13.313 -0.9870  1.0545 -0.9288
  246MPD1     C 3728   3.832   3.350   9.192 -1.3121 -0.1012 -0.3329
  246MPD1    C1 3729   3.963   3.327   9.216  0.2636  0.5008  0.1173
  246MPD1    C2 3730   4.014   3.206   9.173 -0.1257  0.1420 -1.0900
  246MPD1    C3 3731   3.939   3.120   9.102 -0.1996 -0.2546 -0.4551
  246MPD1    C4 3732   3.807   3.151   9.069  0.1227  0.3509  0.0832
  246MPD1    C5 3733   3.753   3.260   9.131  0.4141 -0.0991 -0.2705
  246MPD1     H 3734   4.116   3.172   9.184  0.1034  0.6587 -1.6349
  246MPD1    H1 3735   3.741   3.090   9.008 -1.6287  2.0330  0.2844
  246MPD1    H2 3736   3.783   3.431   9.244 -0.5220  0.1837 -0.0341
  246MPD1    H3 3737   3.651   3.292   9.114  1.2859  2.1242 -1.3245
  246MPD1     N 3738   4.002   2.999   9.063 -0.5184 -1.0189  0.3145
  246MPD1    H5 3739   4.097   2.984   9.096 -0.7210  1.4723  2.0834
  246MPD1    N1 3740   4.044   3.417   9.290  0.4040  0.0587 -0.3929
  246MPD1    H6 3741   4.019   3.513   9.266 -3.3317 -0.3952  1.7233
  246MPD1    H7 3742   4.142   3.416   9.261  0.8451  1.2501  1.0913
  247MPD1     C 3743   2.044   1.429  16.716  0.7033  0.2501 -0.4802
  247MPD1    C1 3744   2.110   1.426  16.602 -0.2157  0.0954 -0.3843
  247MPD1    C2 3745   2.194   1.324  16.574 -0.0228 -0.0952  0.4943
  247MPD1    C3 3746   2.215   1.221  16.660 -0.4636 -0.5561  0.2561
  247MPD1    C4 3747   2.151   1.222  16.783  0.3912  0.2813 -1.2328
  247MPD1    C5 3748   2.064   1.331  16.808  0.2000 -0.1941 -0.1783
  247MPD1     H 3749   2.258   1.325  16.486  1.2044 -0.1720  1.3746
  247MPD1    H1 3750   2.155   1.140  16.854 -1.7216  0.1584 -1.2542
  247MPD1    H2 3751   1.988   1.513  16.757 -0.8647 -2.2262  2.4396
  247MPD1    H3 3752   2.020   1.337  16.907 -2.0408 -2.2901 -1.0464
  247MPD1     N 3753   2.294   1.106  16.629  0.0739 -0.2259  0.5020
  247MPD1    H5 3754   2.305   1.039  16.704  1.2473  0.7844  1.2233
  247MPD1    N1 3755   2.125   1.538  16.516  0.9855  0.1187  0.2428
  247MPD1    H6 3756   2.184   1.591  16.580  1.1779  0.9925 -0.6482
  247MPD1    H7 3757   2.034   1.584  16.518  0.8359 -0.2526  1.7878
  248MPD1     C 3758   2.072   1.500   1.105 -0.2982  0.0785  0.4314
  248MPD1    C1 3759   2.052   1.409   1.005  1.0200  0.6670 -0.4605
  248MPD1    C2 3760   2.141   1.301   0.986  0.2655 -0.9684 -0.0649
  248MPD1    C3 3761   2.241   1.280   1.077 -0.2490  0.3339 -0.6985
  248MPD1    C4 3762   2.274   1.381   1.164  0.1476 -0.1853  0.6161
  248MPD1    C5 3763   2.183   1.484   1.186  0.4622  0.6068  0.0286
  248MPD1     H 3764   2.131   1.230   0.905  2.5971 -1.7847  0.3632
  248MPD1    H1 3765   2.355   1.375   1.235  0.5086 -0.5468  0.1650
  248MPD1    H2 3766   2.009   1.587   1.116  1.0307  0.6539  3.4658
  248MPD1    H3 3767   2.208   1.561   1.259  0.5239  1.4086 -0.8373
  248MPD1     N 3768   2.324   1.166   1.058  0.0826 -0.2843 -0.5224
  248MPD1    H5 3769   2.301   1.110   0.976 -1.6841  2.7318 -2.0994
  248MPD1    N1 3770   1.964   1.450   0.908 -0.1565  0.1761  0.2310
  248MPD1    H6 3771   1.882   1.499   0.943  0.1206  0.9690 -0.2272
  248MPD1    H7 3772   1.937   1.378   0.840 -1.7664 -1.3890  2.5273
  249MPD1     C 3773   0.206   4.318  11.409 -0.2948 -0.5207  0.1036
  249MPD1    C1 3774   0.190   4.440  11.348 -0.4980  0.0831  0.3642
  249MPD1    C2 3775   0.086   4.449  11.256 -0.0824 -0.3267 -0.1638
  249MPD1    C3 3776   4.719   4.351  11.233  0.3300  0.9719 -0.5358
  249MPD1    C4 3777   0.010   4.229  11.302 -0.8805  0.1608  0.2610
  249MPD1    C5 3778   0.119   4.215  11.393 -0.7269 -0.2774  0.2692
  249MPD1     H 3779   0.074   4.542  11.201 -0.4312 -0.3874 -0.1958
  249MPD1    H1 3780   4.670   4.144  11.289 -1.0413  0.1129  1.3505
  249MPD1    H2 3781   0.293   4.307  11.473  1.3558 -2.0614 -2.3961
  249MPD1    H3 3782   0.133   4.123  11.447  0.2373  1.9842  3.8623
  249MPD1     N 3783   4.629   4.372  11.128  0.3298 -0.6526 -0.2458
  249MPD1    H5 3784   4.639   4.450  11.065 -1.7974 -1.5593 -1.7253
  249MPD1    N1 3785   0.283   4.542  11.348 -0.5671 -0.4736  0.0633
  249MPD1    H6 3786   0.322   4.566  11.439  0.9643 -0.0486 -0.7108
  249MPD1    H7 3787   0.251   4.628  11.305  2.7583  1.5561  1.6032
  250MPD2     C 3788   1.737   0.093  13.397  0.0370 -0.2576  0.0860
  250MPD2    C1 3789   1.653   0.149  13.302  0.3665 -0.5572 -0.7232
  250MPD2    C2 3790   1.569   0.072  13.230 -0.4761 -0.4135  0.3031
  250MPD2    C3 3791   1.583   4.659  13.237  0.2168  0.2127 -0.2172
  250MPD2    C4 3792   1.654   4.597  13.337  0.5802 -0.3372 -0.0706
  250MPD2    C5 3793   1.730   4.677  13.415 -0.0993 -0.3078 -0.7976
  250MPD2     H 3794   1.519   0.113  13.143 -2.0314 -1.0085  0.9134
  250MPD2    H1 3795   1.655   4.489  13.339  1.1453 -0.3489 -0.9562
  250MPD2    H2 3796   1.813   0.142  13.458 -1.4270  2.0099  0.0799
  250MPD2    H3 3797   1.787   4.644  13.501 -1.1342  1.7807  0.6788
  250MPD2     N 3798   1.506   4.581  13.147 -0.2753  0.3998  0.4437
  250MPD2    H5 3799   1.522   4.482  13.160  1.0396  0.7235  1.3168
  250MPD2    N1 3800   1.666   0.288  13.288 -0.1290  0.1968 -0.1936
  250MPD2    H7 3801   1.747   0.327  13.335 -0.5255  0.2617  0.4440
  251TMC3    C1 3802   1.643   0.506  13.197  0.2792  0.0323  0.3402
  251TMC3    C2 3803   1.556   0.613  13.178  0.2702 -0.1112 -0.1969
  251TMC3    C3 3804   1.611   0.719  13.096 -0.2480 -0.6065  0.9658
  251TMC3    C4 3805   1.775   0.503  13.152 -0.1754  0.0615  0.0872
  251TMC3    C5 3806   1.818   0.607  13.077  0.0049  0.3936  0.2710
  251TMC3    C6 3807   1.741   0.717  13.046 -0.4095  0.0184  0.8339
  251TMC3     C 3808   1.588   0.373  13.220  0.2661  1.2857 -1.0433
  251TMC3     O 3809   1.473   0.358  13.186 -0.1652  0.3739  0.4046
  251TMC3     H 3810   1.449   0.618  13.192  0.0891  3.8632 -2.9831
  251TMC3    H1 3811   1.834   0.414  13.165 -1.1895 -0.2802  2.2993
  251TMC3    H2 3812   1.777   0.795  12.981 -2.0928 -0.7505 -1.0098
  251TMC3    C7 3813   1.959   0.609  13.060 -0.7836 -0.8101 -0.2714
  251TMC3    C8 3814   1.537   0.842  13.110 -0.6214 -0.3488 -0.2608
  251TMC3    O1 3815   2.024   0.515  13.110  0.1689  0.0243  0.3073
  251TMC3    O2 3816   1.484   0.855  13.217 -0.3779  0.3529  0.2707
  252TMC3    C1 3817   1.568   1.054   9.275 -0.9186 -1.0993  0.1913
  252TMC3    C2 3818   1.689   1.034   9.335  0.3539 -0.6916 -0.3955
  252TMC3    C3 3819   1.701   0.982   9.458 -0.3974  0.4505  1.0477
  252TMC3    C4 3820   1.449   1.009   9.326  0.0803  0.1905 -0.2227
  252TMC3    C5 3821   1.464   0.944   9.443 -0.2043 -0.9209 -0.3207
  252TMC3    C6 3822   1.583   0.932   9.510 -0.2523 -0.4133 -0.4372
  252TMC3     C 3823   1.565   1.126   9.147  0.8200 -0.0488  0.7458
  252TMC3     O 3824   1.675   1.145   9.098 -0.1084  1.2109 -0.0954
  252TMC3     H 3825   1.775   1.078   9.286 -1.6381  2.9980 -0.6161
  252TMC3    H1 3826   1.355   1.004   9.272 -1.0879  2.2184  1.6147
  252TMC3    H2 3827   1.578   0.899   9.613  0.2196 -1.3389 -0.7082
  252TMC3    C7 3828   1.347   0.902   9.509  0.1705  0.8046 -0.0563
  252TMC3    C8 3829   1.837   0.944   9.495 -0.2792 -0.2374 -0.0631
  252TMC3    O1 3830   1.241   0.955   9.476  0.1928 -0.1210 -0.1680
  252TMC3    O2 3831   1.924   0.977   9.414  0.0572  0.8700 -0.0173
  253MPD2     C 3832   2.537   4.690  15.034  0.8029  0.3146  0.0987
  253MPD2    C1 3833   2.432   0.048  15.057  0.2671  0.9720  0.2817
  253MPD2    C2 3834   2.440   0.141  15.164 -0.3154  0.4084  1.1496
  253MPD2    C3 3835   2.560   0.159  15.236  0.8890 -0.4081 -0.0675
  253MPD2    C4 3836   2.671   0.084  15.196  0.3464  0.4301 -0.1680
  253MPD2    C5 3837   2.650   4.715  15.102 -0.3100 -0.3642  0.8854
  253MPD2     H 3838   2.346   0.192  15.181  0.7025  1.7412  2.8305
  253MPD2    H1 3839   2.762   0.090  15.255 -1.0166 -2.5171  2.2385
  253MPD2    H2 3840   2.542   4.619  14.953 -0.6934  2.2018 -1.6363
  253MPD2    H3 3841   2.727   4.640  15.087 -0.5311  0.2110 -3.0245
  253MPD2     N 3842   2.571   0.236  15.352  0.2163  0.0327 -0.1685
  253MPD2    H5 3843   2.660   0.244  15.399  0.3561 -0.2061 -0.3976
  253MPD2    N1 3844   2.309   0.040  14.987  0.6733  0.0026  0.2446
  253MPD2    H7 3845   2.229   0.090  15.024 -0.3887 -1.4463 -0.1112
  254TMC3    C1 3846   2.504   0.373  15.539  0.1998 -0.3669  0.1364
  254TMC3    C2 3847   2.407   0.466  15.566 -0.2757 -0.4222 -0.2437
  254TMC3    C3 3848   2.380   0.499  15.691  0.8558 -0.0173 -0.1741
  254TMC3    C4 3849   2.559   0.299  15.639 -0.6282 -0.0748 -0.5938
  254TMC3    C5 3850   2.524   0.333  15.765  0.4514 -0.0933 -0.0384
  254TMC3    C6 3851   2.436   0.433  15.793 -0.4737  0.4351 -0.4405
  254TMC3     C 3852   2.470   0.305  15.411 -0.8462 -0.7850  0.3574
  254TMC3     O 3853   2.357   0.329  15.372  0.4039  0.0857 -0.0726
  254TMC3     H 3854   2.367   0.529  15.487  0.1310  0.3152  0.1440
  254TMC3    H1 3855   2.604   0.203  15.616  1.7763  0.5504  1.5018
  254TMC3    H2 3856   2.425   0.473  15.893 -1.7098 -1.1006  0.0313
  254TMC3    C7 3857   2.588   0.270  15.880 -0.1785  0.3784 -0.8326
  254TMC3    C8 3858   2.251   0.561  15.696  0.3114 -0.1309  0.0596
  254TMC3    O1 3859   2.537   0.254  15.986 -0.3792 -1.2725  0.4171
  254TMC3    O2 3860   2.202   0.621  15.601 -0.2139  0.0850 -0.1278
  255MPD2     C 3861   1.425   2.349  10.362 -0.4797  0.6132  0.1998
  255MPD2    C1 3862   1.428   2.399  10.233 -0.3135  0.3399  0.1244
  255MPD2    C2 3863   1.467   2.319  10.129  0.0459  0.0647 -1.1697
  255MPD2    C3 3864   1.482   2.188  10.148 -0.7389 -0.4452  1.2033
  255MPD2    C4 3865   1.478   2.133  10.272 -0.8160 -0.0712  0.1377
  255MPD2    C5 3866   1.462   2.217  10.382 -0.5704 -0.3590  0.1543
  255MPD2     H 3867   1.467   2.353  10.027  0.3419 -0.4828 -1.3547
  255MPD2    H1 3868   1.490   2.027  10.287 -1.2479 -0.1050  0.2499
  255MPD2    H2 3869   1.402   2.411  10.448 -1.1764 -0.2555  0.6360
  255MPD2    H3 3870   1.463   2.175  10.482  0.7327 -1.6608 -0.4000
  255MPD2     N 3871   1.502   2.109  10.037 -0.3816 -0.0226 -0.5515
  255MPD2    H5 3872   1.516   2.155   9.947 -3.4256 -0.3799 -1.2084
  255MPD2    N1 3873   1.366   2.524  10.209  0.2382 -0.5585  0.4392
  255MPD2    H7 3874   1.308   2.582  10.268 -1.6041  1.3459 -3.2336
  256TMC3    C1 3875   1.321   2.704  10.071 -0.0587 -0.4099 -0.0209
  256TMC3    C2 3876   1.390   2.799  10.001 -0.6221 -0.0353  0.0625
  256TMC3    C3 3877   1.315   2.877   9.922 -0.3927  0.1477 -0.1826
  256TMC3    C4 3878   1.186   2.679  10.041  0.5630  0.7227 -0.2629
  256TMC3    C5 3879   1.120   2.759   9.951  0.1325  0.2526  0.2141
  256TMC3    C6 3880   1.182   2.862   9.890  1.1008  0.2150  0.7311
  256TMC3     C 3881   1.394   2.590  10.091 -0.7476 -0.4686  0.1797
  256TMC3     O 3882   1.485   2.571  10.011  0.2970  1.0638 -0.1113
  256TMC3     H 3883   1.497   2.809  10.013 -0.4490 -0.3092 -1.2954
  256TMC3    H1 3884   1.140   2.583  10.064  0.6373  0.6434 -0.4449
  256TMC3    H2 3885   1.130   2.940   9.836  0.1783 -0.3694  0.7716
  256TMC3    C7 3886   0.991   2.716   9.897  0.0849  0.3284 -0.8104
  256TMC3    C8 3887   1.387   2.974   9.845 -0.1879  0.0878 -1.0139
  256TMC3    O1 3888   0.954   2.776   9.794 -0.3018  0.1472 -0.7932
  256TMC3    O2 3889   1.494   3.008   9.893 -0.1812 -0.4191 -0.4475
  257MPD2     C 3890   0.483   0.535  13.131  0.2532  0.0058  0.5297
  257MPD2    C1 3891   0.457   0.453  13.023  0.2373  0.2649  0.0359
  257MPD2    C2 3892   0.409   0.328  13.049 -0.6566  0.3216  0.1667
  257MPD2    C3 3893   0.378   0.279  13.177 -0.2495  0.2113  0.2884
  257MPD2    C4 3894   0.388   0.364  13.279 -0.1627 -0.3396  0.0433
  257MPD2    C5 3895   0.441   0.488  13.256  0.2987 -0.3797 -0.2565
  257MPD2     H 3896   0.391   0.266  12.962 -1.2562  0.6735  0.0378
  257MPD2    H1 3897   0.347   0.340  13.376 -0.2348 -1.7323 -0.3337
  257MPD2    H2 3898   0.516   0.638  13.132 -0.6173  0.3119 -1.0575
  257MPD2    H3 3899   0.433   0.562  13.335  1.5690 -1.4979  0.9418
  257MPD2     N 3900   0.317   0.153  13.182  0.6084  0.1852  0.0139
  257MPD2    H5 3901   0.293   0.109  13.093  0.5452  1.2305 -0.4929
  257MPD2    N1 3902   0.482   0.500  12.887 -0.3715 -1.0164  0.6296
  257MPD2    H7 3903   0.530   0.589  12.878  0.0742 -1.4424 -1.2137
  258TMC3    C1 3904   0.224   4.684  13.276  0.1804 -0.0404 -0.5741
  258TMC3    C2 3905   0.105   4.706  13.218  0.2854  0.8146  0.4926
  258TMC3    C3 3906   0.007   4.611  13.240  0.3120 -0.3312  0.2060
  258TMC3    C4 3907   0.251   4.577  13.361 -0.7014 -0.0687 -0.5598
  258TMC3    C5 3908   0.146   4.489  13.378 -0.1741  0.2720 -0.4479
  258TMC3    C6 3909   0.025   4.498  13.317  0.5740  0.2573 -0.2910
  258TMC3     C 3910   0.305   0.077  13.296 -0.4319  0.1990  0.0418
  258TMC3     O 3911   0.349   0.094  13.410 -0.0489  0.5133  0.1556
  258TMC3     H 3912   0.078   0.071  13.165  0.9955  0.7278 -0.0099
  258TMC3    H1 3913   0.344   4.559  13.413 -0.8193  0.9221 -0.0233
  258TMC3    H2 3914   4.665   4.437  13.345 -0.3525  1.3366 -0.7482
  258TMC3    C7 3915   0.140   4.410  13.499  0.1294 -0.1101  0.1158
  258TMC3    C8 3916   4.597   4.651  13.211 -0.1232 -0.3000 -0.2084
  258TMC3    O1 3917   0.030   4.367  13.531 -0.3479  0.5646  0.0385
  258TMC3    O2 3918   4.570   0.041  13.228  0.0645 -0.1790 -0.5550
  259MPD2     C 3919   3.073   1.428   0.861 -0.5311  0.0042 -0.0753
  259MPD2    C1 3920   3.168   1.369   0.939  0.6419 -0.3582 -0.1988
  259MPD2    C2 3921   3.291   1.337   0.890 -0.1863  0.3452 -0.0646
  259MPD2    C3 3922   3.320   1.354   0.755 -0.0741 -0.3050 -0.0303
  259MPD2    C4 3923   3.216   1.406   0.674  0.3419  0.0846 -0.0760
  259MPD2    C5 3924   3.100   1.446   0.728 -0.1839 -0.7574 -0.0625
  259MPD2     H 3925   3.368   1.292   0.953 -0.1803 -1.8224 -1.6288
  259MPD2    H1 3926   3.228   1.426   0.568  2.3261  1.8862  0.4923
  259MPD2    H2 3927   2.977   1.467   0.894 -0.2693  1.4091 -1.0028
  259MPD2    H3 3928   3.022   1.477   0.660 -1.3596 -2.0020  0.7232
  259MPD2     N 3929   3.447   1.317   0.702 -0.3855  0.3213  0.1540
  259MPD2    H5 3930   3.518   1.274   0.760  0.2566  1.2383  0.0385
  259MPD2    N1 3931   3.132   1.358   1.077  0.6464 -0.4934 -0.1406
  259MPD2    H7 3932   3.051   1.411   1.106  1.2859  0.6970 -0.5503
  260TMC3    C1 3933   3.621   1.323   0.548  0.1236  0.4441 -0.0459
  260TMC3    C2 3934   3.675   1.415   0.460 -0.1356 -0.8778  0.6381
  260TMC3    C3 3935   3.810   1.430   0.466  0.0640  0.1789  0.5578
  260TMC3    C4 3936   3.689   1.242   0.634 -0.0994  0.1283  0.4069
  260TMC3    C5 3937   3.828   1.259   0.620 -0.1620  0.0054  0.3086
  260TMC3    C6 3938   3.894   1.354   0.541 -0.8250  0.4540  0.1319
  260TMC3     C 3939   3.482   1.340   0.571  0.1142 -0.1840  0.1382
  260TMC3     O 3940   3.424   1.407   0.484 -0.9611 -0.3894  0.1547
  260TMC3     H 3941   3.616   1.482   0.397 -1.5558 -0.0864  2.8067
  260TMC3    H1 3942   3.638   1.168   0.694 -2.7536  0.8978 -0.9077
  260TMC3    H2 3943   4.001   1.363   0.530 -0.5560 -1.1455  1.4434
  260TMC3    C7 3944   3.899   1.130   0.613  0.0793 -0.4921  0.0024
  260TMC3    C8 3945   3.854   1.489   0.339  0.8547 -0.0960  0.0907
  260TMC3    O1 3946   4.002   1.139   0.551 -0.0559 -0.3055 -0.2142
  260TMC3    O2 3947   3.788   1.580   0.288  0.0689  0.1043 -0.3383
  261MPD2     C 3948   0.947   4.490  12.526 -0.9011 -0.0627  0.2348
  261MPD2    C1 3949   1.028   4.574  12.607  1.0424  0.3088 -0.4127
  261MPD2    C2 3950   1.076   4.693  12.546 -0.3732 -0.5387 -0.2622
  261MPD2    C3 3951   1.056   4.722  12.413 -0.4307  0.3213  0.5053
  261MPD2    C4 3952   0.968   4.645  12.344  0.2902 -0.1630  0.1107
  261MPD2    C5 3953   0.923   4.530  12.399 -0.0147 -0.0327  0.2714
  261MPD2     H 3954   1.145   0.023  12.610 -0.1684  0.2395 -1.1589
  261MPD2    H1 3955   0.942   4.662  12.240  0.0737  0.0132  0.1921
  261MPD2    H2 3956   0.916   4.389  12.549  2.7241 -1.0973  0.6523
  261MPD2    H3 3957   0.849   4.471  12.345  0.7197  1.2897 -2.2124
  261MPD2     N 3958   1.124   0.110  12.353 -0.3877 -0.6600 -0.5642
  261MPD2    H5 3959   1.190   0.159  12.413  0.0676 -1.7681 -0.1589
  261MPD2    N1 3960   1.071   4.544  12.740  0.4870  0.2329  0.3123
  261MPD2    H7 3961   1.140   4.600  12.789  0.6131  1.7247 -1.5973
  262TMC3    C1 3962   1.148   0.292  12.198 -0.0633 -0.2109  0.2987
  262TMC3    C2 3963   1.083   0.379  12.113 -0.3653 -0.0488 -0.6648
  262TMC3    C3 3964   1.151   0.489  12.064 -0.3542  0.0085  0.5206
  262TMC3    C4 3965   1.287   0.304  12.229 -0.1847  0.0497  0.6325
  262TMC3    C5 3966   1.351   0.419  12.175 -0.4820 -0.2776  0.2425
  262TMC3    C6 3967   1.282   0.502  12.092  0.1898  0.3189 -0.2496
  262TMC3     C 3968   1.093   0.162  12.225  0.5191 -0.4836  0.4192
  262TMC3     O 3969   1.006   0.134  12.145  0.0085  0.1885  0.2924
  262TMC3     H 3970   0.976   0.372  12.097 -0.6282  0.2231  0.9637
  262TMC3    H1 3971   1.347   0.237  12.289 -0.3292 -0.6382  0.0102
  262TMC3    H2 3972   1.332   0.594  12.064  1.4133 -0.1070  0.5458
  262TMC3    C7 3973   1.488   0.407  12.128 -0.6581  0.4620 -0.4226
  262TMC3    C8 3974   1.091   0.564  11.957  0.4659 -0.0255 -0.3642
  262TMC3    O1 3975   1.568   0.471  12.200 -0.6034  0.6375  0.5297
  262TMC3    O2 3976   1.143   0.673  11.944  0.2506 -0.6921 -0.0713
  263MPD2     C 3977   1.790   3.847  11.835 -0.8338 -0.3386  0.3096
  263MPD2    C1 3978   1.898   3.865  11.754 -0.0829 -0.2044 -0.7554
  263MPD2    C2 3979   1.878   3.921  11.626 -0.4464  0.3904  0.7549
  263MPD2    C3 3980   1.752   3.948  11.581  0.4736  0.1253  0.3099
  263MPD2    C4 3981   1.643   3.937  11.666  0.0436  0.0062  0.0876
  263MPD2    C5 3982   1.664   3.891  11.799 -0.3823 -0.3000 -0.3091
  263MPD2     H 3983   1.957   3.925  11.552  0.2954 -1.2744  1.4601
  263MPD2    H1 3984   1.546   3.971  11.630  0.6028  1.7209  0.2135
  263MPD2    H2 3985   1.796   3.802  11.933  0.5938 -0.8191  0.0128
  263MPD2    H3 3986   1.584   3.884  11.871  1.2878  2.3505  1.8029
  263MPD2     N 3987   1.741   4.003  11.453  0.0098 -0.0664  0.2113
  263MPD2    H5 3988   1.831   4.027  11.411  0.4052  1.4716  1.9133
  263MPD2    N1 3989   2.019   3.822  11.808 -0.7903  0.2193  0.3292
  263MPD2    H7 3990   2.033   3.810  11.908 -0.4344  0.6038  0.3280
  264TMC3    C1 3991   1.669   4.102  11.275  0.5737  0.2602  0.7662
  264TMC3    C2 3992   1.755   4.208  11.303 -0.2197  0.0204 -0.2324
  264TMC3    C3 3993   1.784   4.294  11.201  0.1706  0.5001 -0.4434
  264TMC3    C4 3994   1.635   4.070  11.145 -0.5835  0.2951 -1.0062
  264TMC3    C5 3995   1.690   4.149  11.041 -0.4367  0.3254 -0.2348
  264TMC3    C6 3996   1.761   4.261  11.072 -0.4613  0.3685 -0.1040
  264TMC3     C 3997   1.629   4.021  11.382 -0.2757  0.2419  0.1994
  264TMC3     O 3998   1.512   3.990  11.397  0.1113  0.1285 -0.3744
  264TMC3     H 3999   1.758   4.237  11.408  0.4147 -2.1738  0.3418
  264TMC3    H1 4000   1.567   3.986  11.134 -1.2715  0.4655  1.9192
  264TMC3    H2 4001   1.771   4.340  10.998  0.7426  1.2824  1.0168
  264TMC3    C7 4002   1.753   4.078  10.941  0.1246 -0.1421 -0.4775
  264TMC3    C8 4003   1.846   4.422  11.231  0.0173  0.2910  0.2910
  264TMC3    O1 4004   1.862   4.132  10.907 -0.9870  1.2622  0.1083
  264TMC3    O2 4005   1.874   4.496  11.135  0.7922 -0.0389 -0.1256
  265MPD2     C 4006   4.146   4.548  15.476  0.3627  0.0552  0.2952
  265MPD2    C1 4007   4.046   4.557  15.381 -0.2228  0.0423 -0.4421
  265MPD2    C2 4008   4.044   4.472  15.272  0.2076  1.1186  0.2091
  265MPD2    C3 4009   4.153   4.392  15.247  0.2545 -0.5738  0.2143
  265MPD2    C4 4010   4.254   4.384  15.342 -0.0683 -0.7472 -0.3193
  265MPD2    C5 4011   4.241   4.452  15.461  0.5344 -0.0508  0.0597
  265MPD2     H 4012   3.958   4.484  15.207  0.6278  2.1577 -0.1429
  265MPD2    H1 4013   4.337   4.314  15.331  0.2433 -0.7051  1.8711
  265MPD2    H2 4014   4.136   4.594  15.574  0.9474 -1.8946  1.2544
  265MPD2    H3 4015   4.313   4.437  15.541 -0.4297 -1.2517  0.7214
  265MPD2     N 4016   4.164   4.332  15.115  0.0589 -0.1622  0.2934
  265MPD2    H5 4017   4.096   4.361  15.046 -1.1567 -0.3600  1.4040
  265MPD2    N1 4018   3.944   4.651  15.392  0.2973 -0.1055 -0.5754
  265MPD2    H7 4019   3.867   4.652  15.326 -1.0758  3.4569  1.0858
  266TMC3    C1 4020   3.820   0.113  15.484 -0.3739 -0.0712  0.0373
  266TMC3    C2 4021   3.766   0.127  15.609  0.3127  0.2581 -0.1307
  266TMC3    C3 4022   3.638   0.176  15.615 -1.0095 -0.3535 -0.2439
  266TMC3    C4 4023   3.751   0.128  15.367 -0.0526 -0.3666 -0.5677
  266TMC3    C5 4024   3.619   0.166  15.378 -0.4999 -0.0304 -0.3387
  266TMC3    C6 4025   3.562   0.190  15.498  0.1734  0.1478  0.5610
  266TMC3     C 4026   3.943   0.031  15.484 -0.2522 -0.1190 -0.0507
  266TMC3     O 4027   4.023   0.070  15.568 -0.4767 -0.1165 -0.5289
  266TMC3     H 4028   3.824   0.111  15.699  0.8348 -0.2085 -0.5474
  266TMC3    H1 4029   3.804   0.125  15.272  1.4103 -2.0835  0.3112
  266TMC3    H2 4030   3.469   0.244  15.511  0.5902  0.7768  0.9502
  266TMC3    C7 4031   3.577   0.253  15.274 -0.4252 -0.2227 -0.6963
  266TMC3    C8 4032   3.565   0.157  15.742 -0.4207  0.3907  0.2438
  266TMC3    O1 4033   3.523   0.360  15.312 -0.1772  0.0338 -0.1868
  266TMC3    O2 4034   3.446   0.136  15.724  0.1859 -0.1882  0.0431
  267MPD2     C 4035   1.775   0.759  16.457 -0.0751  0.2287  0.1007
  267MPD2    C1 4036   1.690   0.844  16.518  0.2644 -0.3862  0.0476
  267MPD2    C2 4037   1.634   0.947  16.445 -0.9418 -0.3022 -0.4179
  267MPD2    C3 4038   1.655   0.962  16.307  0.0571  0.2364 -0.6096
  267MPD2    C4 4039   1.744   0.877  16.248 -0.7263 -0.4158 -0.5732
  267MPD2    C5 4040   1.810   0.782  16.324  0.0988 -0.1368 -0.3137
  267MPD2     H 4041   1.580   1.026  16.496  0.5313  0.8557 -0.6412
  267MPD2    H1 4042   1.784   0.901  16.150  0.4996  1.1434  0.2937
  267MPD2    H2 4043   1.809   0.668  16.505 -0.5722 -0.2766 -0.5073
  267MPD2    H3 4044   1.885   0.725  16.270 -0.4546 -0.6310 -0.5613
  267MPD2     N 4045   1.605   1.070  16.229  0.3230  1.0009 -0.4399
  267MPD2    H5 4046   1.644   1.077  16.135  0.0591 -0.3171 -0.6474
  267MPD2    N1 4047   1.652   0.829  16.648 -0.4266  0.6558 -0.3722
  267MPD2    H7 4048   1.711   0.784  16.718 -1.5241  0.8085  0.6432
  268TMC3    C1 4049   1.540   0.889  16.847  0.3593 -0.2041 -0.1879
  268TMC3    C2 4050   1.450   0.971  16.904  0.3089 -0.1224 -0.4920
  268TMC3    C3 4051   1.399   0.940  17.019  0.3998  0.2175 -0.3256
  268TMC3    C4 4052   1.586   0.779  16.915 -0.4152  0.2852 -0.4221
  268TMC3    C5 4053   1.540   0.761  17.045 -0.6134  0.0165 -0.4803
  268TMC3    C6 4054   1.449   0.844  17.099 -0.1671  0.2651  0.6121
  268TMC3     C 4055   1.538   0.889  16.704 -0.3410  0.1924  0.1768
  268TMC3     O 4056   1.439   0.938  16.658 -0.6715  0.0668 -0.0385
  268TMC3     H 4057   1.417   1.063  16.856  1.2812  1.7484  2.4549
  268TMC3    H1 4058   1.654   0.710  16.866  0.0792 -0.3138  1.1097
  268TMC3    H2 4059   1.410   0.824  17.199  0.3754  1.1989  1.0114
  268TMC3    C7 4060   1.576   0.653  17.139  0.0041  0.0270  0.4634
  268TMC3    C8 4061   1.285   1.020  17.078 -0.6212 -0.4658 -0.1312
  268TMC3    O1 4062   1.568   0.672  17.261 -0.1865  0.3833  0.1939
  268TMC3    O2 4063   1.299   1.047  17.195 -0.2752  0.1913  0.0024
  269MPD2     C 4064   1.706   0.812  15.560 -0.1794 -0.3648  0.0383
  269MPD2    C1 4065   1.580   0.829  15.605 -0.2470  0.4073  0.7036
  269MPD2    C2 4066   1.537   0.955  15.604 -0.2461 -0.1287 -0.8549
  269MPD2    C3 4067   1.618   1.064  15.575 -0.1128  0.8398 -0.2676
  269MPD2    C4 4068   1.746   1.041  15.545  0.0782  0.6438  0.3279
  269MPD2    C5 4069   1.792   0.912  15.535  0.2566 -0.6832 -0.1174
  269MPD2     H 4070   1.442   0.985  15.646  0.2423 -2.1679  1.7717
  269MPD2    H1 4071   1.817   1.119  15.523 -0.7075  1.2843  0.0570
  269MPD2    H2 4072   1.754   0.715  15.553  1.1755  0.2168  1.2338
  269MPD2    H3 4073   1.891   0.888  15.499  0.0027 -2.0393  0.0614
  269MPD2     N 4074   1.558   1.190  15.566 -0.3224 -0.3460 -0.9311
  269MPD2    H5 4075   1.462   1.200  15.595  0.2438 -0.3727  0.9140
  269MPD2    N1 4076   1.495   0.716  15.626  0.1221  0.1965 -0.7273
  269MPD2    H7 4077   1.541   0.626  15.629  0.1912  0.2363 -0.6095
  270TMC3    C1 4078   1.310   0.584  15.621  0.0234  0.5360  0.2064
  270TMC3    C2 4079   1.206   0.555  15.532  0.4200  0.2587  0.1508
  270TMC3    C3 4080   1.193   0.421  15.508 -0.3264  0.7016  0.1597
  270TMC3    C4 4081   1.372   0.496  15.703  0.1043 -0.9293  0.5646
  270TMC3    C5 4082   1.351   0.367  15.671 -0.8480 -0.3405  0.0155
  270TMC3    C6 4083   1.260   0.325  15.577  0.9040 -0.3865  0.2535
  270TMC3     C 4084   1.356   0.723  15.624 -0.2951  0.2113  0.4534
  270TMC3     O 4085   1.271   0.809  15.609  0.1715 -0.0255  0.6750
  270TMC3     H 4086   1.156   0.639  15.486  1.1929  0.3629 -0.5030
  270TMC3    H1 4087   1.432   0.527  15.787  0.1362  0.1970  0.1313
  270TMC3    H2 4088   1.230   0.222  15.559  0.1262 -0.1453  0.1638
  270TMC3    C7 4089   1.451   0.271  15.706  0.3195 -0.3548 -0.4960
  270TMC3    C8 4090   1.110   0.383  15.398  0.1460 -0.6145  0.2275
  270TMC3    O1 4091   1.453   0.173  15.635  0.6010  0.1249 -0.4522
  270TMC3    O2 4092   1.017   0.461  15.380  0.2235 -0.4652 -0.0507
  271MPD2     C 4093   0.765   0.409  13.661  0.0699 -0.4611 -0.5209
  271MPD2    C1 4094   0.724   0.322  13.763  0.1377 -0.2524  0.0373
  271MPD2    C2 4095   0.593   0.300  13.781 -0.8085 -0.4835 -0.9963
  271MPD2    C3 4096   0.494   0.358  13.704  0.9369  0.0245  0.2690
  271MPD2    C4 4097   0.538   0.457  13.612  0.6106 -0.0981 -0.2864
  271MPD2    C5 4098   0.668   0.473  13.588  0.0591  0.1651  0.5228
  271MPD2     H 4099   0.569   0.241  13.868  0.5053 -1.6196 -1.4131
  271MPD2    H1 4100   0.469   0.511  13.548 -1.1126  0.3475  1.9526
  271MPD2    H2 4101   0.868   0.425  13.630  0.9513 -1.3177  1.9159
  271MPD2    H3 4102   0.710   0.538  13.513  0.1326 -1.0723 -0.5063
  271MPD2     N 4103   0.359   0.322  13.704 -0.1922  0.3683  0.0626
  271MPD2    H5 4104   0.297   0.385  13.656  3.2737  2.3039 -1.8884
  271MPD2    N1 4105   0.804   0.241  13.845  0.4084  0.0752  0.2298
  271MPD2    H7 4106   0.761   0.184  13.917  1.5385 -1.9624 -0.7064
  272TMC3    C1 4107   1.004   0.177  13.957  0.0881  0.2808  0.4540
  272TMC3    C2 4108   1.128   0.127  13.929 -0.2462 -0.2587  0.0827
  272TMC3    C3 4109   1.195   0.063  14.022  0.0297  0.7038  0.4947
  272TMC3    C4 4110   0.942   0.172  14.076 -0.2368  0.5946 -0.2085
  272TMC3    C5 4111   1.010   0.099  14.169 -0.2610  0.1695 -0.4435
  272TMC3    C6 4112   1.140   0.048  14.144 -0.0199 -0.4731  0.2440
  272TMC3     C 4113   0.945   0.248  13.846 -0.0163 -0.0334 -1.0389
  272TMC3     O 4114   1.013   0.278  13.745 -0.2007  0.0714 -0.1747
  272TMC3     H 4115   1.155   0.134  13.825  0.8311  0.1617  0.3829
  272TMC3    H1 4116   0.848   0.225  14.088 -1.6993 -1.5508 -2.4174
  272TMC3    H2 4117   1.208   0.014  14.221  1.1673 -1.1590 -1.1098
  272TMC3    C7 4118   0.982   0.131  14.305  0.0970 -0.5857  0.4141
  272TMC3    C8 4119   1.299   4.704  13.977 -0.3595 -0.0490  0.2678
  272TMC3    O1 4120   1.079   0.148  14.379  0.2482  0.3890 -0.0453
  272TMC3    O2 4121   1.341   4.716  13.862 -0.7550  0.0055 -0.2844
  273MPD2     C 4122   2.351   2.755  11.560  0.1600 -0.4539  0.4958
  273MPD2    C1 4123   2.477   2.804  11.544  0.2956  0.7415  0.5150
  273MPD2    C2 4124   2.560   2.745  11.447 -0.1848  0.2347  0.6270
  273MPD2    C3 4125   2.501   2.647  11.362 -0.5915 -0.1542 -0.1893
  273MPD2    C4 4126   2.375   2.597  11.383 -0.4048  0.2374 -0.4423
  273MPD2    C5 4127   2.301   2.655  11.483  0.1304  0.0714 -0.2696
  273MPD2     H 4128   2.667   2.765  11.441 -0.1622 -0.0917 -0.0916
  273MPD2    H1 4129   2.335   2.511  11.331  0.8664  0.5389 -1.9442
  273MPD2    H2 4130   2.294   2.794  11.644  1.3967 -1.1132  1.6426
  273MPD2    H3 4131   2.201   2.622  11.510 -0.0878  0.1839 -0.9378
  273MPD2     N 4132   2.562   2.591  11.239 -0.5291  0.2424 -0.4889
  273MPD2    H5 4133   2.495   2.544  11.179 -0.0451  0.0393 -0.8711
  273MPD2    N1 4134   2.513   2.897  11.639  0.2872  0.5131  0.4008
  273MPD2    H7 4135   2.434   2.931  11.693 -0.8923 -0.2378 -0.8841
  274TMC3    C1 4136   2.613   2.787  11.113  0.1576  0.5474 -0.4557
  274TMC3    C2 4137   2.492   2.775  11.058 -0.2884  0.4199 -0.0854
  274TMC3    C3 4138   2.396   2.869  11.072  0.3670  0.6644 -1.0325
  274TMC3    C4 4139   2.653   2.902  11.178 -0.1121 -0.4261 -0.2304
  274TMC3    C5 4140   2.553   2.992  11.194  0.4513 -0.4462 -0.1104
  274TMC3    C6 4141   2.425   2.970  11.159  0.0498 -0.2674  0.1841
  274TMC3     C 4142   2.659   2.662  11.177 -0.5354  0.0753  0.4982
  274TMC3     O 4143   2.768   2.666  11.229 -0.6100  0.3630 -0.0342
  274TMC3     H 4144   2.461   2.682  11.011  2.5242 -0.2488 -0.6209
  274TMC3    H1 4145   2.725   2.894  11.258 -0.6824 -0.9207  0.2383
  274TMC3    H2 4146   2.356   3.053  11.147  2.4158  1.7128  0.1913
  274TMC3    C7 4147   2.563   3.113  11.272  0.4817  1.0672 -0.1137
  274TMC3    C8 4148   2.251   2.853  11.046  0.5035  0.5871 -0.1516
  274TMC3    O1 4149   2.460   3.169  11.304  0.1737 -0.0800 -0.3866
  274TMC3    O2 4150   2.165   2.901  11.118 -1.0025 -0.5024 -0.4454
  275MPD2     C 4151   2.467   1.129  14.412  0.4347  0.1080  0.0312
  275MPD2    C1 4152   2.421   1.068  14.529 -0.6983  0.6704  0.4751
  275MPD2    C2 4153   2.289   1.037  14.550  0.8151 -0.5867 -0.3189
  275MPD2    C3 4154   2.198   1.060  14.442 -0.2629 -0.3524  0.1126
  275MPD2    C4 4155   2.238   1.112  14.324  0.1529  0.2329 -0.0463
  275MPD2    C5 4156   2.370   1.144  14.319  0.4125 -0.6218  0.0842
  275MPD2     H 4157   2.255   0.987  14.639 -2.3149  2.0685 -0.0081
  275MPD2    H1 4158   2.174   1.133  14.239 -1.6834 -0.3038  1.2233
  275MPD2    H2 4159   2.565   1.165  14.384 -0.4800  1.0263 -2.0295
  275MPD2    H3 4160   2.410   1.186  14.227  0.9499  0.0823  0.6327
  275MPD2     N 4161   2.064   1.015  14.445  0.1964 -0.4291 -0.5128
  275MPD2    H5 4162   2.002   1.033  14.367  0.4805  0.6908 -0.4765
  275MPD2    N1 4163   2.506   1.032  14.631  0.3757  0.7349 -1.3306
  275MPD2    H7 4164   2.469   1.000  14.720  1.9164 -0.1777 -1.0247
  276TMC3    C1 4165   2.688   1.008  14.763  0.4279 -0.2568  0.0008
  276TMC3    C2 4166   2.626   0.896  14.813  0.0803 -0.5880 -0.2990
  276TMC3    C3 4167   2.613   0.885  14.948 -1.0283  1.1516  0.4496
  276TMC3    C4 4168   2.748   1.095  14.846 -0.0344  0.4448 -0.5422
  276TMC3    C5 4169   2.745   1.074  14.978  0.0038  0.2130  0.4865
  276TMC3    C6 4170   2.674   0.971  15.033  0.5385  0.4030 -0.2590
  276TMC3     C 4171   2.638   1.059  14.638  0.5744  0.7329 -0.2553
  276TMC3     O 4172   2.711   1.129  14.570 -0.1993  0.1862 -0.1007
  276TMC3     H 4173   2.575   0.824  14.750 -0.6229  0.7465 -1.2769
  276TMC3    H1 4174   2.785   1.189  14.807  0.4874  0.4071 -0.1318
  276TMC3    H2 4175   2.660   0.973  15.141  1.5242 -0.1257 -0.1180
  276TMC3    C7 4176   2.801   1.169  15.075 -0.3165 -0.8572 -0.0008
  276TMC3    C8 4177   2.484   0.842  14.994  0.7719 -0.2811 -0.2785
  276TMC3    O1 4178   2.752   1.175  15.188  0.6784  0.0791  0.0908
  276TMC3    O2 4179   2.438   0.886  15.094 -0.0037  0.4217 -0.4887
  277MPD2     C 4180   4.492   4.613  13.562  0.4150 -0.0119  0.3520
  277MPD2    C1 4181   4.356   4.616  13.545 -0.2038 -0.4718  0.2817
  277MPD2    C2 4182   4.287   4.542  13.642  0.5984  0.0395 -0.1684
  277MPD2    C3 4183   4.346   4.466  13.736  0.3058  0.2623  0.1626
  277MPD2    C4 4184   4.477   4.473  13.760  0.2940 -0.0354  0.2865
  277MPD2    C5 4185   4.545   4.547  13.669  0.2258  0.1050 -0.2402
  277MPD2     H 4186   4.180   4.525  13.643  0.5952  0.0740  0.0894
  277MPD2    H1 4187   4.532   4.425  13.840 -0.3926 -2.5284 -0.7312
  277MPD2    H2 4188   4.556   4.678  13.504 -0.6475 -0.0384 -0.8581
  277MPD2    H3 4189   4.649   4.574  13.685 -0.3716  0.1538  3.6042
  277MPD2     N 4190   4.256   4.379  13.808  0.2492 -0.1517 -0.6009
  277MPD2    H5 4191   4.157   4.374  13.784  0.0817  1.2083 -0.1804
  277MPD2    N1 4192   4.299   4.684  13.433 -0.3209 -0.2475 -0.0339
  277MPD2    H7 4193   4.357   0.006  13.364  0.5252  1.6913  2.0288
  278TMC3    C1 4194   4.174   4.231  13.954  0.4043 -0.1703  0.3966
  278TMC3    C2 4195   4.151   4.095  13.918  0.4527 -0.1969 -0.2522
  278TMC3    C3 4196   4.021   4.056  13.900 -0.0018  0.1877 -0.3338
  278TMC3    C4 4197   4.063   4.312  13.958 -0.3485  0.0459 -0.7764
  278TMC3    C5 4198   3.930   4.263  13.947 -0.5885  0.2662 -0.4937
  278TMC3    C6 4199   3.909   4.132  13.922  0.1059  0.1959 -0.1913
  278TMC3     C 4200   4.294   4.279  13.896 -0.3477  0.2600 -0.1154
  278TMC3     O 4201   4.403   4.223  13.923 -0.2232 -0.1070 -0.2025
  278TMC3     H 4202   4.225   4.019  13.895 -0.4389 -1.2590  0.3805
  278TMC3    H1 4203   4.070   4.419  13.977 -1.3127  0.0149 -0.2109
  278TMC3    H2 4204   3.812   4.093  13.893  0.4544  0.6656 -2.0091
  278TMC3    C7 4205   3.831   4.363  13.907  0.3397 -0.5628  0.6699
  278TMC3    C8 4206   3.995   3.933  13.825  0.4386  0.6031  0.0597
  278TMC3    O1 4207   3.872   4.480  13.889  0.0928  0.0815  0.0854
  278TMC3    O2 4208   4.080   3.842  13.836 -0.0941 -0.2217  0.3709
  279MPD2     C 4209   3.320   0.083   0.295 -0.2855 -0.6768 -0.4678
  279MPD2    C1 4210   3.254   4.701   0.238 -0.8521  0.3806  0.4780
  279MPD2    C2 4211   3.295   4.653   0.117 -0.2197 -0.4258 -0.8922
  279MPD2    C3 4212   3.399   4.725   0.049 -1.1603 -0.4371  0.3602
  279MPD2    C4 4213   3.461   0.106   0.107  0.7350 -0.3358 -0.1383
  279MPD2    C5 4214   3.427   0.143   0.232  0.0786  0.0033 -1.2920
  279MPD2     H 4215   3.253   4.567   0.066 -1.8827 -0.7303  1.0154
  279MPD2    H1 4216   3.535   0.163   0.052  0.2509 -0.3030 -0.7518
  279MPD2    H2 4217   3.293   0.119   0.393  0.4954 -0.3136 -0.3834
  279MPD2    H3 4218   3.486   0.219   0.281  0.9452 -0.9843 -0.8162
  279MPD2     N 4219   3.446   4.684  17.630 -0.4134 -0.6408  0.1380
  279MPD2    H5 4220   3.523   0.010  17.587  1.0001 -2.0237  1.0425
  279MPD2    N1 4221   3.151   4.641   0.313  0.2729  0.2602 -0.1063
  279MPD2    H7 4222   3.126   4.683   0.402  1.1647 -0.6481  0.5662
  280TMC3    C1 4223   2.932   4.570   0.320 -0.4928 -0.2732 -0.1167
  280TMC3    C2 4224   2.856   4.470   0.265  0.0981  0.0266  0.2548
  280TMC3    C3 4225   2.733   4.504   0.209 -0.5012 -0.4178  0.0883
  280TMC3    C4 4226   2.898   4.698   0.344  0.1701 -0.9002  0.8588
  280TMC3    C5 4227   2.774   0.004   0.282  0.2880  0.5839  0.9346
  280TMC3    C6 4228   2.695   4.633   0.229  0.5488 -0.1740  0.1587
  280TMC3     C 4229   3.062   4.552   0.260  0.3762  0.5160  0.5021
  280TMC3     O 4230   3.063   4.489   0.156 -0.3930 -0.6800  0.0714
  280TMC3     H 4231   2.896   4.370   0.262 -1.0745 -0.4248 -0.3106
  280TMC3    H1 4232   2.968   0.051   0.369 -1.3438  0.5235  0.6892
  280TMC3    H2 4233   2.600   4.658   0.181  0.8584  1.3805  0.3385
  280TMC3    C7 4234   2.754   0.145   0.257 -0.2730 -0.6196 -0.7037
  280TMC3    C8 4235   2.704   4.450   0.080 -0.3454  0.1577 -0.4249
  280TMC3    O1 4236   2.815   0.219   0.335 -0.4137  0.6653 -0.1072
  280TMC3    O2 4237   2.585   4.452   0.047 -0.0791  0.3271  0.2878
  281TMC3    C1 4238   2.234   0.424  13.348 -0.0301 -0.8200 -0.1098
  281TMC3    C2 4239   2.316   0.490  13.269  0.5093 -0.2514 -0.6849
  281TMC3    C3 4240   2.360   0.423  13.153 -0.3105  0.4515  0.0979
  281TMC3    C4 4241   2.198   0.294  13.324  0.1940  0.7367 -0.3398
  281TMC3    C5 4242   2.242   0.230  13.207 -0.4871 -0.0606  0.0685
  281TMC3    C6 4243   2.332   0.298  13.127 -0.0772  0.1706  0.2888
  281TMC3     C 4244   2.170   0.490  13.462 -0.6279 -0.6537  0.5662
  281TMC3     O 4245   2.140   0.430  13.566 -0.0748 -1.1676  0.3861
  281TMC3     H 4246   2.339   0.594  13.287  0.1901 -0.5199  1.2685
  281TMC3    H1 4247   2.123   0.244  13.385 -0.6510  0.8584 -1.2640
  281TMC3    H2 4248   2.373   0.246  13.041  1.4334  2.1923 -0.2155
  281TMC3    C7 4249   2.198   0.099  13.163  0.0559 -0.1644  0.3455
  281TMC3    C8 4250   2.473   0.475  13.084  0.4320 -0.1635  0.3974
  281TMC3    O1 4251   2.222   0.061  13.047  0.4243  0.0085 -0.7206
  281TMC3    O2 4252   2.580   0.414  13.085 -0.0099 -0.2672 -0.3094
  282MPD2     C 4253   3.591   1.910  15.296 -0.3992  0.0335  0.5635
  282MPD2    C1 4254   3.455   1.891  15.299 -0.1525  0.0938 -0.0065
  282MPD2    C2 4255   3.391   1.859  15.179  0.2356 -0.1262  0.2159
  282MPD2    C3 4256   3.468   1.832  15.065  0.7009  0.1517  0.7095
  282MPD2    C4 4257   3.603   1.851  15.066 -0.2699  0.0021  0.1828
  282MPD2    C5 4258   3.668   1.896  15.184 -0.5834  0.4802 -0.0674
  282MPD2     H 4259   3.284   1.843  15.178  0.3671 -0.8435 -2.0620
  282MPD2    H1 4260   3.665   1.836  14.978  2.0328 -0.5917  1.8896
  282MPD2    H2 4261   3.643   1.940  15.387  0.2211 -1.5518  0.7437
  282MPD2    H3 4262   3.774   1.919  15.185 -1.1183  3.0252 -1.0501
  282MPD2     N 4263   3.398   1.791  14.952  0.4196 -0.6956  0.1733
  282MPD2    H5 4264   3.299   1.777  14.973  0.3993  1.0014  1.3106
  282MPD2    N1 4265   3.379   1.924  15.412  0.6727 -0.1519 -0.6768
  282MPD2    H7 4266   3.278   1.910  15.406  0.5971 -0.2262  0.6532
  283TMC3    C1 4267   3.314   1.988  15.618  0.5096  0.3305  0.3371
  283TMC3    C2 4268   3.204   2.051  15.564 -0.1219  0.3004  0.3637
  283TMC3    C3 4269   3.098   2.076  15.644 -0.9562 -0.0132  0.0586
  283TMC3    C4 4270   3.323   1.939  15.749 -0.4499 -0.1268  0.2956
  283TMC3    C5 4271   3.208   1.965  15.823  0.3425 -0.2659 -0.2398
  283TMC3    C6 4272   3.100   2.028  15.771 -0.7289 -0.0781  0.3716
  283TMC3     C 4273   3.422   1.968  15.530 -0.5463  0.5273 -0.2976
  283TMC3     O 4274   3.525   1.926  15.587  0.1328  0.4336  0.1305
  283TMC3     H 4275   3.207   2.093  15.464  1.2871  0.2241  0.3653
  283TMC3    H1 4276   3.416   1.892  15.776 -0.7142 -0.6794  0.2402
  283TMC3    H2 4277   3.012   2.041  15.833 -0.6979  0.2551  0.3452
  283TMC3    C7 4278   3.172   1.878  15.934 -0.0983  1.2306  0.6056
  283TMC3    C8 4279   3.013   2.189  15.608 -0.4896  0.0380  0.6992
  283TMC3    O1 4280   3.088   1.918  16.016  0.2385  0.1623 -0.0148
  283TMC3    O2 4281   2.925   2.209  15.690  0.0498 -0.3929 -0.2588
  284MPD2     C 4282   2.638   0.473  12.277 -0.9522 -0.2633 -0.8152
  284MPD2    C1 4283   2.509   0.524  12.281  0.8715  0.2003 -0.1636
  284MPD2    C2 4284   2.408   0.451  12.336  0.4353  0.5824  0.2227
  284MPD2    C3 4285   2.433   0.323  12.384 -0.3505 -0.0572 -0.6486
  284MPD2    C4 4286   2.567   0.280  12.393  0.5227 -0.5126  0.0022
  284MPD2    C5 4287   2.667   0.355  12.336  0.1790  0.2563 -0.7713
  284MPD2     H 4288   2.305   0.485  12.328  0.2333 -0.1712 -0.4140
  284MPD2    H1 4289   2.597   0.185  12.434  3.7443  1.4547  2.2145
  284MPD2    H2 4290   2.718   0.533  12.236 -1.6323  2.0408  1.2291
  284MPD2    H3 4291   2.768   0.317  12.339 -0.6204 -1.8270  0.5057
  284MPD2     N 4292   2.335   0.232  12.422  0.1502  0.1488 -0.4747
  284MPD2    H5 4293   2.368   0.144  12.460 -0.7481 -0.1661 -0.4240
  284MPD2    N1 4294   2.480   0.651  12.222  0.6295 -0.1299  0.2539
  284MPD2    H7 4295   2.380   0.671  12.225  0.3014 -1.6872 -0.5608
  285TMC3    C1 4296   2.489   0.856  12.122 -0.1013  0.1164 -0.1585
  285TMC3    C2 4297   2.376   0.836  12.046  0.1775 -0.0619  0.1735
  285TMC3    C3 4298   2.336   0.933  11.961 -1.0593 -0.0533 -0.1935
  285TMC3    C4 4299   2.561   0.970  12.107 -0.3936  0.7300 -0.6779
  285TMC3    C5 4300   2.506   1.074  12.041 -0.3607  0.8823 -0.2234
  285TMC3    C6 4301   2.392   1.059  11.964 -0.1800 -0.5039  0.5774
  285TMC3     C 4302   2.562   0.749  12.184 -0.1437 -0.6613  0.0872
  285TMC3     O 4303   2.685   0.754  12.194 -0.3933 -0.0296  0.1486
  285TMC3     H 4304   2.333   0.737  12.038 -1.7099  0.7291  0.3236
  285TMC3    H1 4305   2.659   0.982  12.150  0.3265 -0.3083 -2.0058
  285TMC3    H2 4306   2.371   1.139  11.894 -0.6798 -1.5656 -0.4995
  285TMC3    C7 4307   2.591   1.188  12.013  0.1097  0.6606  0.7995
  285TMC3    C8 4308   2.319   0.889  11.824  0.4649 -0.1055 -0.2132
  285TMC3    O1 4309   2.606   1.213  11.894  0.3460  0.2460  0.0230
  285TMC3    O2 4310   2.246   0.794  11.797 -0.0387  0.2355 -0.2959
  286MPD2     C 4311   2.759   4.154   1.582  0.7073  0.6926  0.8668
  286MPD2    C1 4312   2.696   4.095   1.477  0.4237  0.0493  0.6265
  286MPD2    C2 4313   2.768   4.025   1.378  0.0935 -0.4916  0.1584
  286MPD2    C3 4314   2.905   3.995   1.399  0.4220 -0.4937 -0.5026
  286MPD2    C4 4315   2.967   4.046   1.509  0.1436 -0.1770  0.3370
  286MPD2    C5 4316   2.894   4.126   1.598 -0.5311  0.2464 -0.5678
  286MPD2     H 4317   2.718   3.983   1.291 -1.5606  1.8801 -0.0401
  286MPD2    H1 4318   3.072   4.029   1.529  1.0171  2.4349 -2.0621
  286MPD2    H2 4319   2.707   4.219   1.652  1.0062  2.0709 -0.1830
  286MPD2    H3 4320   2.940   4.168   1.687 -0.2484 -1.3986  0.0583
  286MPD2     N 4321   2.973   3.907   1.313 -0.2000  0.1135 -0.5220
  286MPD2    H5 4322   3.072   3.899   1.338  0.2880  2.1952 -1.8306
  286MPD2    N1 4323   2.558   4.111   1.447 -0.2076  0.1188 -0.3738
  286MPD2    H7 4324   2.518   4.067   1.365  0.0450 -2.3510  0.8083
  287TMC3    C1 4325   3.037   3.744   1.154  1.1888 -0.3261  0.0059
  287TMC3    C2 4326   3.038   3.704   1.025  1.1090 -0.0549 -0.1747
  287TMC3    C3 4327   3.155   3.667   0.965  0.2845 -0.4547  0.0816
  287TMC3    C4 4328   3.163   3.745   1.215  0.0732  0.2851  0.4954
  287TMC3    C5 4329   3.279   3.706   1.156  0.2307 -0.1828  0.1266
  287TMC3    C6 4330   3.283   3.670   1.024  0.1773  0.6942  0.1933
  287TMC3     C 4331   2.931   3.829   1.203 -0.2091  0.3808 -0.5660
  287TMC3     O 4332   2.824   3.826   1.141 -0.0790  0.0334 -0.3498
  287TMC3     H 4333   2.945   3.688   0.971  0.5525  1.8142  0.2422
  287TMC3    H1 4334   3.171   3.758   1.323  0.4604 -1.1566  0.6332
  287TMC3    H2 4335   3.370   3.623   0.980 -0.0672  0.6170 -0.2086
  287TMC3    C7 4336   3.403   3.749   1.228  0.3426  0.2749 -0.2267
  287TMC3    C8 4337   3.143   3.594   0.841 -0.0925 -0.2391 -0.0583
  287TMC3    O1 4338   3.400   3.747   1.350 -0.2544 -0.0777  0.1481
  287TMC3    O2 4339   3.027   3.566   0.810 -0.5202  0.2777  0.0223
  288TMC3    C1 4340   3.858   4.214  14.649  0.5298  0.1244  0.1195
  288TMC3    C2 4341   3.803   4.141  14.742 -0.0778  0.0528  0.3487
  288TMC3    C3 4342   3.809   4.197  14.870 -0.4962 -0.4219 -0.3945
  288TMC3    C4 4343   3.906   4.338  14.668  0.2437 -0.3048 -0.0672
  288TMC3    C5 4344   3.919   4.381  14.798  1.0751 -0.7154 -0.4604
  288TMC3    C6 4345   3.866   4.313  14.902  0.5204 -0.1418 -0.4752
  288TMC3     C 4346   3.822   4.185  14.512 -0.2012  0.4587  0.0269
  288TMC3     O 4347   3.780   4.275  14.441 -0.1912 -0.4475 -0.1533
  288TMC3     H 4348   3.762   4.044  14.720 -0.4202  0.0326  1.0633
  288TMC3    H1 4349   3.935   4.388  14.576 -0.7007  1.6042  0.6595
  288TMC3    H2 4350   3.882   4.340  15.005 -0.7947  1.6921 -0.7647
  288TMC3    C7 4351   4.012   4.482  14.847  0.0998 -0.0490  0.3758
  288TMC3    C8 4352   3.792   4.114  14.979  0.5151 -0.5287 -0.3194
  288TMC3    O1 4353   4.008   4.521  14.962  0.6058 -0.0256  0.3732
  288TMC3    O2 4354   3.898   4.087  15.039  0.4693  0.1844  0.1122
  289MPD2     C 4355   3.959   3.111  13.857  0.2084  0.1398 -0.9090
  289MPD2    C1 4356   3.992   3.235  13.906 -0.5504 -0.1569 -0.3141
  289MPD2    C2 4357   3.909   3.300  13.998  0.6680  0.0013  0.8002
  289MPD2    C3 4358   3.793   3.241  14.043 -0.0254  0.1563 -0.1469
  289MPD2    C4 4359   3.761   3.121  13.987 -0.7375  0.3537  0.5218
  289MPD2    C5 4360   3.838   3.064  13.888 -0.0970  0.3272 -0.5311
  289MPD2     H 4361   3.942   3.393  14.041  2.5242 -0.4496  0.3270
  289MPD2    H1 4362   3.674   3.067  14.024 -0.1603 -1.6476 -1.0091
  289MPD2    H2 4363   4.009   3.060  13.776  1.3524  2.2541 -1.5336
  289MPD2    H3 4364   3.803   2.972  13.842  1.3143  0.0013 -0.9553
  289MPD2     N 4365   3.710   3.294  14.141  0.4371  0.6403 -0.0780
  289MPD2    H5 4366   3.615   3.259  14.152  1.1139 -1.2908 -0.3192
  289MPD2    N1 4367   4.106   3.295  13.852 -0.1593 -0.4595  0.0406
  289MPD2    H7 4368   4.177   3.236  13.811 -1.2223 -0.9489 -1.0966
  290TMC3    C1 4369   3.624   3.449  14.301  0.2399  0.2091  0.4541
  290TMC3    C2 4370   3.635   3.582  14.333  0.6128 -0.2926 -0.2347
  290TMC3    C3 4371   3.547   3.620  14.433 -0.5059 -0.2105  0.4691
  290TMC3    C4 4372   3.552   3.349  14.366 -0.3833  0.6345 -0.6568
  290TMC3    C5 4373   3.467   3.396  14.460 -0.7159 -0.6073  0.8258
  290TMC3    C6 4374   3.468   3.532  14.496 -0.2873 -0.0089  0.3662
  290TMC3     C 4375   3.725   3.413  14.208  0.6368 -0.1960  0.1901
  290TMC3     O 4376   3.811   3.501  14.194 -0.1982 -0.9259 -0.0624
  290TMC3     H 4377   3.676   3.660  14.269  0.1070  1.9818  2.2324
  290TMC3    H1 4378   3.566   3.244  14.346  0.8014 -0.0012  3.6662
  290TMC3    H2 4379   3.376   3.575  14.535 -0.7399 -0.6497  0.0018
  290TMC3    C7 4380   3.343   3.324  14.468 -0.1715 -0.2446 -0.1013
  290TMC3    C8 4381   3.475   3.735  14.392 -0.5389  0.2417 -0.5306
  290TMC3    O1 4382   3.243   3.390  14.497 -0.2340  0.3984 -0.0813
  290TMC3    O2 4383   3.438   3.723  14.278  0.0630  0.0872 -0.2149
  291MPD2     C 4384   2.884   2.639   0.512 -0.1536  0.7738  0.0896
  291MPD2    C1 4385   2.904   2.614   0.374  0.2485  0.4295  0.0171
  291MPD2    C2 4386   3.023   2.551   0.337 -1.0112  0.5451  0.4740
  291MPD2    C3 4387   3.128   2.528   0.420  1.1243  0.1791  0.1088
  291MPD2    C4 4388   3.121   2.575   0.551  0.6068  0.1156  0.9856
  291MPD2    C5 4389   2.999   2.624   0.595  0.5668 -0.6926 -0.6522
  291MPD2     H 4390   3.031   2.526   0.232 -0.1186  2.3787  0.0925
  291MPD2    H1 4391   3.202   2.548   0.618  2.6890  2.3505 -0.6071
  291MPD2    H2 4392   2.794   2.669   0.564 -0.2583  1.8665 -0.7168
  291MPD2    H3 4393   2.992   2.641   0.702 -2.1980 -0.4970 -0.8617
  291MPD2     N 4394   3.248   2.461   0.380 -0.0835 -0.0639  0.1768
  291MPD2    H5 4395   3.325   2.450   0.445  0.6180 -0.6068 -0.7567
  291MPD2    N1 4396   2.798   2.633   0.275 -0.4010 -0.9067  0.4728
  291MPD2    H7 4397   2.804   2.590   0.183  1.3307 -1.1433  0.6802
  292TMC3    C1 4398   2.571   2.673   0.217 -0.4915  0.3162 -0.0872
  292TMC3    C2 4399   2.443   2.689   0.269  0.3298  0.0425  0.1031
  292TMC3    C3 4400   2.340   2.649   0.203 -0.3022  0.1390 -0.4656
  292TMC3    C4 4401   2.587   2.614   0.097  0.0025 -0.5373 -0.0467
  292TMC3    C5 4402   2.474   2.572   0.026 -0.5587 -0.3553  0.6474
  292TMC3    C6 4403   2.346   2.586   0.078  0.6338  0.0225 -0.2557
  292TMC3     C 4404   2.680   2.690   0.308 -0.5451  0.1160  0.1751
  292TMC3     O 4405   2.643   2.750   0.406  0.1271  0.3235  0.1875
  292TMC3     H 4406   2.427   2.732   0.367  0.1754 -0.3117  0.2348
  292TMC3    H1 4407   2.683   2.603   0.049 -0.7480 -0.0930 -1.6568
  292TMC3    H2 4408   2.255   2.545   0.037  1.1678 -0.2034 -1.2194
  292TMC3    C7 4409   2.505   2.488  17.613 -0.0013 -0.3391 -0.2394
  292TMC3    C8 4410   2.213   2.677   0.265 -0.0482 -0.2886  0.1611
  292TMC3    O1 4411   2.617   2.444  17.610 -0.8375  0.0278  0.3041
  292TMC3    O2 4412   2.209   2.762   0.357  0.2442 -0.3058 -0.3239
  293MPD2     C 4413   0.587   4.696  12.447 -0.2443  0.2573  0.0118
  293MPD2    C1 4414   0.507   4.652  12.544 -0.5048  0.0415  0.4078
  293MPD2    C2 4415   0.520   4.693  12.677 -0.1616  0.3091 -0.1358
  293MPD2    C3 4416   0.620   0.051  12.720 -0.7354  0.6881 -0.0440
  293MPD2    C4 4417   0.714   0.091  12.619  0.5964 -0.5519  0.7319
  293MPD2    C5 4418   0.696   0.055  12.490  0.5153  0.0993 -0.0918
  293MPD2     H 4419   0.452   4.649  12.749  0.5957 -1.7009 -0.6492
  293MPD2    H1 4420   0.804   0.149  12.634  0.4337  0.2748 -1.5439
  293MPD2    H2 4421   0.582   4.668  12.342 -0.8768  0.1908  0.0622
  293MPD2    H3 4422   0.767   0.091  12.416  0.4988 -0.3820 -0.3433
  293MPD2     N 4423   0.637   0.089  12.854  0.5069  0.2160  0.3220
  293MPD2    H5 4424   0.572   0.060  12.926 -0.0458 -2.3662 -1.1907
  293MPD2    N1 4425   0.402   4.562  12.506  0.2669 -0.3992  0.1292
  293MPD2    H7 4426   0.396   4.545  12.406  1.4100 -0.0494  0.0010
  294TMC3    C1 4427   0.223   4.406  12.525  0.2221 -0.1998 -0.4258
  294TMC3    C2 4428   0.141   4.329  12.605 -0.2551  0.1542  0.1858
  294TMC3    C3 4429   0.043   4.258  12.540  0.1425 -0.3905  0.4751
  294TMC3    C4 4430   0.214   4.393  12.386  0.7731 -0.3856  0.0258
  294TMC3    C5 4431   0.115   4.324  12.331 -0.6017 -0.1994 -0.2494
  294TMC3    C6 4432   0.027   4.255  12.403  0.3165 -0.5032  0.1563
  294TMC3     C 4433   0.301   4.506  12.590  0.3182  0.7174 -0.0598
  294TMC3     O 4434   0.261   4.546  12.704  0.3539  0.2585 -0.7895
  294TMC3     H 4435   0.153   4.316  12.712  3.3539 -2.3428 -0.4991
  294TMC3    H1 4436   0.271   4.464  12.328 -1.1477 -2.4476 -4.3365
  294TMC3    H2 4437   4.674   4.205  12.348  0.9632 -1.9447  0.5446
  294TMC3    C7 4438   0.126   4.283  12.192  0.1106 -0.4028  0.3373
  294TMC3    C8 4439   4.692   4.162  12.631  0.0682  0.6945 -0.6388
  294TMC3    O1 4440   0.036   4.215  12.153  0.2418  0.3355  0.7901
  294TMC3    O2 4441   4.725   4.143  12.745 -0.2478 -0.2568  0.6765
  295MPD2     C 4442   0.755   3.492   0.566 -0.9445 -0.2022 -0.5426
  295MPD2    C1 4443   0.671   3.447   0.463 -0.2027  0.7826  0.4279
  295MPD2    C2 4444   0.538   3.435   0.484  0.6152  0.2772  0.1049
  295MPD2    C3 4445   0.481   3.483   0.601  0.1455 -0.4494  0.1723
  295MPD2    C4 4446   0.560   3.541   0.697 -0.0454  0.1490  0.5135
  295MPD2    C5 4447   0.699   3.544   0.681 -0.2299  0.1849 -0.5479
  295MPD2     H 4448   0.484   3.397   0.397 -0.0265 -2.1050  1.5235
  295MPD2    H1 4449   0.520   3.588   0.786 -2.4774  0.8492 -0.9647
  295MPD2    H2 4450   0.863   3.495   0.554 -0.7690  0.6594  1.2916
  295MPD2    H3 4451   0.764   3.597   0.749  1.6221 -0.9345 -1.4257
  295MPD2     N 4452   0.343   3.488   0.620 -0.3399 -0.4745 -0.9607
  295MPD2    H5 4453   0.304   3.531   0.703  0.0481 -0.9043 -0.5541
  295MPD2    N1 4454   0.726   3.425   0.333 -0.3938  0.8777 -0.1487
  295MPD2    H7 4455   0.665   3.377   0.268  1.8645  0.7774 -2.1670
  296TMC3    C1 4456   0.119   3.447   0.587 -0.7251 -0.5132 -0.4999
  296TMC3    C2 4457   0.089   3.561   0.653 -0.1483  0.0905 -0.3408
  296TMC3    C3 4458   4.691   3.565   0.714  0.2329  0.5288  0.0544
  296TMC3    C4 4459   0.037   3.342   0.586 -1.0035 -0.4664  1.2338
  296TMC3    C5 4460   4.641   3.352   0.649 -0.3911  0.3483 -0.1296
  296TMC3    C6 4461   4.604   3.464   0.712 -0.2319  0.8679 -0.0132
  296TMC3     C 4462   0.253   3.427   0.532  0.0338 -0.0389 -0.4932
  296TMC3     O 4463   0.268   3.343   0.444 -0.7352  0.0277 -0.5481
  296TMC3     H 4464   0.146   3.652   0.641 -2.1604  1.4591  0.3855
  296TMC3    H1 4465   0.062   3.243   0.551  0.0716 -0.0129  0.7281
  296TMC3    H2 4466   4.504   3.473   0.751 -0.3331 -0.0814 -0.0636
  296TMC3    C7 4467   4.565   3.232   0.675  0.1653  0.0319  0.1003
  296TMC3    C8 4468   4.663   3.686   0.789 -0.0477 -0.3865 -0.7173
  296TMC3    O1 4469   4.599   3.136   0.607  0.3222  0.1944  0.0541
  296TMC3    O2 4470   4.552   3.732   0.811  0.2536 -0.5154 -0.1151
  297MPD2     C 4471   2.842   0.468  16.769  0.1193  0.1194  0.7784
  297MPD2    C1 4472   2.885   0.504  16.646  0.8083  0.1681  0.1200
  297MPD2    C2 4473   2.957   0.619  16.635 -0.3452 -0.2757  0.6821
  297MPD2    C3 4474   2.963   0.705  16.739  0.9479 -0.1858 -0.4862
  297MPD2    C4 4475   2.909   0.677  16.863  0.5468 -0.3903  0.0156
  297MPD2    C5 4476   2.856   0.550  16.879 -0.4329  0.3042  0.1645
  297MPD2     H 4477   2.990   0.638  16.533  0.1830 -2.8633  0.3746
  297MPD2    H1 4478   2.917   0.732  16.956 -3.7314 -2.6210  1.7038
  297MPD2    H2 4479   2.801   0.368  16.782 -0.5887  0.5046  1.5863
  297MPD2    H3 4480   2.813   0.520  16.974 -1.1747  0.4246 -0.1308
  297MPD2     N 4481   3.022   0.827  16.713  0.0204 -0.0292 -0.5763
  297MPD2    H5 4482   3.051   0.831  16.616 -1.2554 -0.9862 -1.0080
  297MPD2    N1 4483   2.876   0.421  16.534 -0.3289 -0.5755 -0.0898
  297MPD2    H7 4484   2.927   0.452  16.452 -1.3872 -0.4716 -0.7076
  298TMC3    C1 4485   2.784   0.290  16.371  0.0915  0.2814  0.2706
  298TMC3    C2 4486   2.907   0.323  16.320 -0.0780  0.8779 -0.2651
  298TMC3    C3 4487   2.901   0.393  16.213  0.8641  0.7663  0.5198
  298TMC3    C4 4488   2.666   0.328  16.324 -0.3344 -0.0236 -0.5200
  298TMC3    C5 4489   2.668   0.412  16.217  0.0884  0.1479  0.0968
  298TMC3    C6 4490   2.787   0.444  16.159  0.1444 -0.1113  0.2203
  298TMC3     C 4491   2.791   0.315  16.514 -0.7547  0.0067  0.0023
  298TMC3     O 4492   2.700   0.265  16.580 -0.1632  0.3716 -0.2771
  298TMC3     H 4493   2.991   0.271  16.365  1.5731  3.3761 -0.4581
  298TMC3    H1 4494   2.572   0.292  16.365  1.1240 -1.2473  1.7383
  298TMC3    H2 4495   2.799   0.508  16.072  2.0579 -0.7861 -0.0167
  298TMC3    C7 4496   2.554   0.505  16.213 -0.5442  0.0080 -0.0136
  298TMC3    C8 4497   3.033   0.411  16.154  0.4725  0.4500 -0.2732
  298TMC3    O1 4498   2.475   0.501  16.306 -0.3485  0.5961  0.0159
  298TMC3    O2 4499   3.129   0.384  16.229  0.2941 -0.7679 -0.0825
  299MPD2     C 4500   3.255   0.638  11.046 -0.2320  0.1021 -0.1690
  299MPD2    C1 4501   3.337   0.627  10.942  0.0252 -0.5171 -0.0676
  299MPD2    C2 4502   3.287   0.623  10.818 -0.0486  0.4141 -0.5455
  299MPD2    C3 4503   3.149   0.609  10.796 -0.3885  0.2965 -0.3282
  299MPD2    C4 4504   3.072   0.611  10.906  0.5017  0.0793 -0.1319
  299MPD2    C5 4505   3.119   0.618  11.032  0.5503 -0.0187 -0.9141
  299MPD2     H 4506   3.362   0.622  10.739  0.5029 -0.8570 -0.0021
  299MPD2    H1 4507   2.964   0.603  10.894  0.8683 -0.4820 -3.0558
  299MPD2    H2 4508   3.293   0.634  11.148 -0.5465 -1.9659 -0.1256
  299MPD2    H3 4509   3.055   0.609  11.119 -1.1623 -0.5528 -2.2335
  299MPD2     N 4510   3.088   0.606  10.667 -0.3143 -0.3393 -0.2731
  299MPD2    H5 4511   2.988   0.591  10.666  0.0803 -3.0318  0.6929
  299MPD2    N1 4512   3.475   0.615  10.980  0.6149  0.3442  0.2028
  299MPD2    H7 4513   3.490   0.599  11.079  1.5408 -0.5928 -0.0989
  300TMC3    C1 4514   3.088   0.536  10.448 -0.1539 -0.1726 -0.8637
  300TMC3    C2 4515   3.133   0.555  10.323  0.4817 -0.3423 -0.4673
  300TMC3    C3 4516   3.069   0.489  10.219  0.3011 -0.0036  0.2034
  300TMC3    C4 4517   2.997   0.437  10.475 -0.5050  0.1634  0.5258
  300TMC3    C5 4518   2.922   0.389  10.373  0.5825  0.2354 -0.2143
  300TMC3    C6 4519   2.967   0.398  10.244  0.0313  0.3072 -0.1181
  300TMC3     C 4520   3.162   0.595  10.553 -0.1540 -0.2802 -0.2712
  300TMC3     O 4521   3.282   0.612  10.527  0.2786 -0.2943 -0.0523
  300TMC3     H 4522   3.209   0.631  10.307 -0.8098  1.3434  1.4919
  300TMC3    H1 4523   2.972   0.412  10.578  0.4248 -0.1187  0.6791
  300TMC3    H2 4524   2.903   0.353  10.169 -0.4409 -0.7295  0.9092
  300TMC3    C7 4525   2.819   0.294  10.403 -0.5199 -0.1232 -0.5089
  300TMC3    C8 4526   3.061   0.567  10.098  0.1765  0.6883  0.6219
  300TMC3    O1 4527   2.808   0.205  10.328  0.3590 -0.4418 -0.1724
  300TMC3    O2 4528   3.159   0.640  10.070 -0.0218  0.3057 -0.1866
  301MPD2     C 4529   1.171   1.360   1.224  0.0184 -0.7387 -0.2050
  301MPD2    C1 4530   1.064   1.313   1.151  0.3577 -1.0179  0.0346
  301MPD2    C2 4531   1.074   1.202   1.071 -0.0569  0.4714 -0.0735
  301MPD2    C3 4532   1.187   1.121   1.068  0.8448 -0.1389  0.1364
  301MPD2    C4 4533   1.298   1.174   1.133 -0.1048 -0.0649  0.5179
  301MPD2    C5 4534   1.296   1.296   1.205 -0.3133  0.6447  0.0979
  301MPD2     H 4535   0.985   1.159   1.028  0.6389 -1.4001  0.3586
  301MPD2    H1 4536   1.400   1.138   1.133  1.1654  3.5118  0.7453
  301MPD2    H2 4537   1.167   1.443   1.293 -2.5092 -2.3685  1.5751
  301MPD2    H3 4538   1.386   1.328   1.256  0.2945 -2.6306  1.1063
  301MPD2     N 4539   1.185   1.002   0.994  0.0621  0.7020  0.3125
  301MPD2    H5 4540   1.107   0.974   0.935 -0.1362 -0.7022  1.2683
  301MPD2    N1 4541   0.935   1.362   1.167 -0.2526 -0.4355 -0.2571
  301MPD2    H7 4542   0.866   1.307   1.117  0.4699 -0.8833 -0.7605
  302TMC3    C1 4543   1.226   0.781   0.957  0.1937 -0.1323 -0.5263
  302TMC3    C2 4544   1.258   0.655   1.008  0.2330  0.0551 -0.3320
  302TMC3    C3 4545   1.283   0.547   0.926 -0.4835  0.3114 -0.3544
  302TMC3    C4 4546   1.198   0.787   0.824  0.6138 -0.2683  0.6141
  302TMC3    C5 4547   1.188   0.671   0.753 -0.0927 -0.3397  0.1254
  302TMC3    C6 4548   1.241   0.552   0.795  0.0886 -0.5339 -0.0023
  302TMC3     C 4549   1.273   0.901   1.017 -0.9585 -0.4574  0.5154
  302TMC3     O 4550   1.355   0.890   1.107 -0.5241  0.2917 -0.3446
  302TMC3     H 4551   1.284   0.649   1.114 -2.5675 -0.8806  0.2931
  302TMC3    H1 4552   1.183   0.880   0.771  0.2493 -0.6064  0.1273
  302TMC3    H2 4553   1.261   0.473   0.723 -0.2170  1.3314 -2.1344
  302TMC3    C7 4554   1.123   0.669   0.625 -0.1351  0.3147  0.1430
  302TMC3    C8 4555   1.365   0.434   0.965  0.4137 -0.2983 -1.1567
  302TMC3    O1 4556   1.186   0.610   0.534 -0.4905  0.0820  0.0132
  302TMC3    O2 4557   1.346   0.322   0.911  0.6260  0.1444 -0.2045
  303MPD2     C 4558   1.378   4.009  10.264  0.3455  0.2884  0.1398
  303MPD2    C1 4559   1.309   3.889  10.276  0.1281 -0.5950 -0.5805
  303MPD2    C2 4560   1.188   3.898  10.340  0.6365  0.5353 -0.9386
  303MPD2    C3 4561   1.138   4.021  10.389 -0.3594 -0.0253 -1.3700
  303MPD2    C4 4562   1.219   4.136  10.379  0.4241  0.5149  0.8283
  303MPD2    C5 4563   1.336   4.122  10.317  0.1243 -0.1667 -0.4610
  303MPD2     H 4564   1.129   3.807  10.344  0.7918  0.5713  2.2095
  303MPD2    H1 4565   1.180   4.229  10.419  0.6181  0.9566 -0.0210
  303MPD2    H2 4566   1.476   4.009  10.218 -0.4371 -1.0970 -1.5168
  303MPD2    H3 4567   1.398   4.207  10.292 -0.5574  0.3995 -0.2150
  303MPD2     N 4568   1.003   4.036  10.422 -0.0604  0.2971  0.0077
  303MPD2    H5 4569   0.976   4.130  10.450 -0.6437  1.2753 -3.7769
  303MPD2    N1 4570   1.360   3.770  10.215  0.2930  0.8858  0.1511
  303MPD2    H7 4571   1.440   3.781  10.154  0.5493  0.2353  0.3746
  304TMC3    C1 4572   1.385   3.538  10.157 -0.3667  0.0085  0.0779
  304TMC3    C2 4573   1.369   3.414  10.212 -0.5427 -0.1265 -0.2995
  304TMC3    C3 4574   1.379   3.310  10.127  0.1129 -0.3325 -0.0999
  304TMC3    C4 4575   1.407   3.568  10.023  0.1723 -0.1322 -0.3538
  304TMC3    C5 4576   1.411   3.461   9.941  0.0034  0.2427 -0.8810
  304TMC3    C6 4577   1.401   3.334   9.995  0.6240 -0.2758  0.3518
  304TMC3     C 4578   1.314   3.641  10.242  0.2325 -0.9100  0.5529
  304TMC3     O 4579   1.235   3.604  10.331 -0.4325 -0.4344  0.3925
  304TMC3     H 4580   1.354   3.404  10.319 -0.9560  0.3958 -0.3098
  304TMC3    H1 4581   1.393   3.666   9.980  2.3377  0.7183  0.8741
  304TMC3    H2 4582   1.413   3.248   9.931  1.0787 -1.8969  2.6412
  304TMC3    C7 4583   1.324   3.466   9.826  0.0642 -0.4638 -0.2716
  304TMC3    C8 4584   1.299   3.194  10.152  0.5111 -0.1843 -0.7659
  304TMC3    O1 4585   1.339   3.557   9.745 -0.0528  0.3478 -0.3056
  304TMC3    O2 4586   1.232   3.166  10.051  0.6444 -0.2878 -0.2883
  305MPD2     C 4587   3.398   1.760  13.813  0.3256  0.4718 -0.5699
  305MPD2    C1 4588   3.489   1.676  13.868  0.0654  0.0460 -1.0094
  305MPD2    C2 4589   3.506   1.548  13.819  0.2024  0.1482 -0.4716
  305MPD2    C3 4590   3.447   1.519  13.691 -0.3164 -0.0733  0.0581
  305MPD2    C4 4591   3.359   1.610  13.632 -0.2211  0.0049 -0.5310
  305MPD2    C5 4592   3.327   1.727  13.699  0.0204 -0.7280 -0.1719
  305MPD2     H 4593   3.571   1.483  13.876  0.3488  1.3269  0.6860
  305MPD2    H1 4594   3.323   1.595  13.531  1.1775 -2.1914 -0.6841
  305MPD2    H2 4595   3.382   1.857  13.860 -1.2897 -1.2612  2.4094
  305MPD2    H3 4596   3.259   1.799  13.657 -2.4222 -2.9668 -0.0611
  305MPD2     N 4597   3.471   1.395  13.628 -0.0283  0.3486 -0.3168
  305MPD2    H5 4598   3.418   1.377  13.543  1.1900 -4.6364 -0.0141
  305MPD2    N1 4599   3.541   1.713  13.994  0.3162 -0.6344 -0.1212
  305MPD2    H7 4600   3.514   1.806  14.021 -0.4883 -0.8211 -0.2906
  306TMC3    C1 4601   3.636   1.700  14.211 -0.4575  0.6890  0.2061
  306TMC3    C2 4602   3.735   1.650  14.291 -0.7111  0.1921  0.1168
  306TMC3    C3 4603   3.737   1.686  14.426 -0.0770  0.3999 -0.5310
  306TMC3    C4 4604   3.556   1.808  14.244 -0.1190 -0.1835 -0.1337
  306TMC3    C5 4605   3.572   1.852  14.372  0.5478 -1.0335 -0.7059
  306TMC3    C6 4606   3.652   1.787  14.470 -0.2765  0.2965 -0.7022
  306TMC3     C 4607   3.626   1.643  14.072 -0.3562  0.4915 -0.7504
  306TMC3     O 4608   3.699   1.551  14.050 -0.8881 -0.1506 -0.5009
  306TMC3     H 4609   3.799   1.574  14.246 -0.2136  1.4521 -1.3002
  306TMC3    H1 4610   3.488   1.862  14.179  2.3523  2.0959 -0.7979
  306TMC3    H2 4611   3.646   1.799  14.577  2.6355  1.7526 -0.7194
  306TMC3    C7 4612   3.493   1.964  14.416 -0.0014  0.4429  0.4144
  306TMC3    C8 4613   3.847   1.632  14.514  0.5821  0.2753 -0.3890
  306TMC3    O1 4614   3.403   2.011  14.344  0.2313 -0.6871 -0.3161
  306TMC3    O2 4615   3.903   1.529  14.477 -0.1534 -0.3390 -0.2492
  307MPD2     C 4616   1.822   3.865   0.368 -0.3690  0.0053  0.5397
  307MPD2    C1 4617   1.734   3.973   0.367  0.3218 -0.7167  0.2857
  307MPD2    C2 4618   1.645   3.990   0.474  0.1127 -0.5494 -1.0364
  307MPD2    C3 4619   1.636   3.903   0.576 -0.1484 -0.3587 -0.4845
  307MPD2    C4 4620   1.716   3.794   0.575  0.2713  0.8827 -0.2745
  307MPD2    C5 4621   1.806   3.776   0.471 -0.0338  0.0998  0.1741
  307MPD2     H 4622   1.603   4.088   0.491 -1.9170 -1.2644 -1.8862
  307MPD2    H1 4623   1.726   3.717   0.651 -1.5053  0.8307 -0.0839
  307MPD2    H2 4624   1.908   3.851   0.304 -0.0662  2.2862  0.4377
  307MPD2    H3 4625   1.870   3.688   0.472 -2.1143 -1.3809  1.2545
  307MPD2     N 4626   1.551   3.932   0.691  0.4646 -0.2441 -0.5528
  307MPD2    H5 4627   1.494   4.016   0.687 -0.7403 -1.0442 -0.3761
  307MPD2    N1 4628   1.727   4.064   0.263 -0.2269 -0.6215 -0.7146
  307MPD2    H7 4629   1.649   4.129   0.259  0.0687 -0.2070  0.1812
  308TMC3    C1 4630   1.170   3.931   0.891 -0.9287  0.8208  0.2588
  308TMC3    C2 4631   1.202   4.049   0.961  0.2515  0.3324  0.3358
  308TMC3    C3 4632   1.335   4.079   0.969  0.3593 -1.2164  0.3509
  308TMC3    C4 4633   1.272   3.852   0.840  0.1648 -0.7038 -0.4948
  308TMC3    C5 4634   1.399   3.885   0.865 -0.0307  1.0756  0.5936
  308TMC3    C6 4635   1.432   4.003   0.919  0.1521  0.0100 -0.4332
  308TMC3     C 4636   1.028   3.894   0.867 -0.6950  0.0703 -0.2516
  308TMC3     O 4637   1.001   3.776   0.853  0.0997 -0.4601 -0.3496
  308TMC3     H 4638   1.123   4.111   1.003 -0.8941 -0.2279 -1.0051
  308TMC3    H1 4639   1.241   3.771   0.775 -0.3667 -2.8347  2.4331
  308TMC3    H2 4640   1.535   4.037   0.919  0.6432 -1.4650 -0.1358
  308TMC3    C7 4641   1.505   3.838   0.779 -0.4089 -0.4353  0.1690
  308TMC3    C8 4642   1.376   4.206   1.012 -0.4637  0.5399  0.0781
  308TMC3    O1 4643   1.518   3.715   0.768  0.6453 -0.2845  0.1068
  308TMC3    O2 4644   1.480   4.214   1.079 -0.2104 -0.1655 -0.0360
  309MPD2     C 4645   0.776   0.134  17.252  0.7983 -0.4838  0.0345
  309MPD2    C1 4646   0.692   0.213  17.180 -0.5295 -0.3576  0.0080
  309MPD2    C2 4647   0.611   0.301  17.251 -0.7128 -0.4015  0.6424
  309MPD2    C3 4648   0.598   0.290  17.395  0.4254 -0.0051  0.4636
  309MPD2    C4 4649   0.681   0.202  17.460 -0.3854  0.0318  0.1405
  309MPD2    C5 4650   0.768   0.125  17.390  0.2241 -0.0254 -0.3387
  309MPD2     H 4651   0.547   0.362  17.189  2.2072  1.3462 -0.6942
  309MPD2    H1 4652   0.686   0.191  17.567 -0.1076 -1.0648  0.0195
  309MPD2    H2 4653   0.845   0.069  17.199  2.1665  0.6002  0.4973
  309MPD2    H3 4654   0.831   0.059  17.449 -1.1702 -0.3488  0.7996
  309MPD2     N 4655   0.503   0.365  17.469 -0.5284  0.2269 -0.5424
  309MPD2    H5 4656   0.496   0.332  17.565 -0.0967 -0.4864 -0.7569
  309MPD2    N1 4657   0.677   0.209  17.038  0.2595  0.2367 -0.3862
  309MPD2    H7 4658   0.621   0.285  17.000 -0.0055 -0.0656 -0.5971
  310TMC3    C1 4659   0.716   0.140  16.805  0.0825  0.4809  0.3297
  310TMC3    C2 4660   0.604   0.207  16.756 -0.1608 -0.0911 -0.3324
  310TMC3    C3 4661   0.616   0.242  16.619 -0.2946  0.6823 -0.0828
  310TMC3    C4 4662   0.817   0.093  16.724 -0.0210  0.3631  0.8926
  310TMC3    C5 4663   0.820   0.131  16.595 -0.7922 -0.2182 -0.0909
  310TMC3    C6 4664   0.719   0.204  16.540  0.8023  0.3879  0.0210
  310TMC3     C 4665   0.728   0.120  16.949 -0.5651 -0.0854  0.9326
  310TMC3     O 4666   0.776   0.013  16.984  0.0428  0.2003  0.5801
  310TMC3     H 4667   0.517   0.230  16.815 -0.3912  0.9819 -1.0940
  310TMC3    H1 4668   0.898   0.033  16.765  1.8918  2.2153 -0.1929
  310TMC3    H2 4669   0.708   0.221  16.434  1.2434 -0.4249 -0.1542
  310TMC3    C7 4670   0.899   0.051  16.507 -0.4353  0.3465 -0.2524
  310TMC3    C8 4671   0.535   0.350  16.572 -0.0573  0.4230  0.1153
  310TMC3    O1 4672   0.941   4.672  16.554  0.6369  0.4190 -0.7708
  310TMC3    O2 4673   0.566   0.387  16.460 -0.4531  0.8985  0.1950
  311MPD2     C 4674   2.992   1.317  13.054  0.5169 -0.1778 -0.0580
  311MPD2    C1 4675   2.995   1.442  13.000  0.6985 -0.7055 -0.2287
  311MPD2    C2 4676   2.880   1.512  12.990 -0.4096 -0.5658  0.3230
  311MPD2    C3 4677   2.761   1.449  12.992 -0.3446  0.4014  0.2695
  311MPD2    C4 4678   2.756   1.316  13.037 -0.4552  0.0805 -0.2166
  311MPD2    C5 4679   2.873   1.249  13.059 -0.5846 -0.3365  0.4594
  311MPD2     H 4680   2.890   1.611  12.947 -1.1116 -1.1420 -1.1869
  311MPD2    H1 4681   2.671   1.251  13.051  0.0937 -0.8732 -1.3737
  311MPD2    H2 4682   3.077   1.256  13.083  0.7952 -0.5189 -1.5941
  311MPD2    H3 4683   2.871   1.148  13.099  0.8574  0.9488  3.7741
  311MPD2     N 4684   2.640   1.525  12.967  0.1056 -0.2128  0.0696
  311MPD2    H5 4685   2.642   1.623  12.940 -0.3835  0.2868  1.8846
  311MPD2    N1 4686   3.120   1.503  12.968  0.2686 -0.1596  0.2424
  311MPD2    H7 4687   3.112   1.603  12.952 -1.9786 -0.0665  1.9198
  312TMC3    C1 4688   2.412   1.566  12.997  0.0248  0.2729 -0.3293
  312TMC3    C2 4689   2.298   1.559  12.927 -1.0360  0.0689  0.3801
  312TMC3    C3 4690   2.202   1.651  12.957 -0.6030  0.1723 -0.0137
  312TMC3    C4 4691   2.437   1.654  13.101 -0.5317  0.9801 -0.3539
  312TMC3    C5 4692   2.336   1.740  13.139  0.0779  0.6615  0.6286
  312TMC3    C6 4693   2.220   1.741  13.063  0.6170  0.1827 -0.9785
  312TMC3     C 4694   2.515   1.469  12.974 -0.1201  0.0178 -0.4831
  312TMC3     O 4695   2.473   1.354  12.963 -0.0447  0.0772  0.2343
  312TMC3     H 4696   2.272   1.472  12.868 -0.3547  1.0665 -1.3920
  312TMC3    H1 4697   2.530   1.639  13.154 -1.6168  1.2677  1.6188
  312TMC3    H2 4698   2.135   1.799  13.096  0.3485  0.6080 -2.3941
  312TMC3    C7 4699   2.328   1.780  13.281  0.3809  1.0878  0.4081
  312TMC3    C8 4700   2.072   1.623  12.903  0.4358  0.0362  0.5604
  312TMC3    O1 4701   2.261   1.881  13.315 -0.5522  0.1590  0.6453
  312TMC3    O2 4702   2.055   1.507  12.874 -0.0495 -0.0602 -0.4553
  313MPD2     C 4703   2.402   0.837  10.956  0.1566  0.0476  0.0768
  313MPD2    C1 4704   2.298   0.752  10.978 -0.0865 -0.4795 -0.7082
  313MPD2    C2 4705   2.267   0.658  10.877 -0.0388  0.4077 -0.1577
  313MPD2    C3 4706   2.333   0.653  10.756 -0.0516 -0.1837  0.3142
  313MPD2    C4 4707   2.434   0.743  10.742 -0.3542 -0.5465 -0.2978
  313MPD2    C5 4708   2.471   0.826  10.844  0.7835  0.2106 -0.3102
  313MPD2     H 4709   2.183   0.592  10.892  0.0043  0.0988 -1.2840
  313MPD2    H1 4710   2.493   0.757  10.652  1.6802 -1.4242  0.9155
  313MPD2    H2 4711   2.425   0.916  11.026  0.6840  1.3619 -1.5946
  313MPD2    H3 4712   2.556   0.890  10.826  1.6403 -1.3216 -1.7414
  313MPD2     N 4713   2.286   0.556  10.670 -1.1084  0.5556  0.3510
  313MPD2    H5 4714   2.215   0.490  10.702  0.6902 -3.1607 -3.3707
  313MPD2    N1 4715   2.226   0.762  11.097 -0.3646  0.1855  0.3866
  313MPD2    H7 4716   2.144   0.703  11.110 -0.3903 -0.0374 -0.8308
  314TMC3    C1 4717   2.108   0.869  11.281  1.1175 -0.1297  0.0565
  314TMC3    C2 4718   2.101   0.985  11.360  0.5939 -0.0688  0.2417
  314TMC3    C3 4719   1.974   1.026  11.397 -0.5341 -0.2300 -0.3441
  314TMC3    C4 4720   1.993   0.807  11.241 -0.6934  0.4438  0.0055
  314TMC3    C5 4721   1.870   0.862  11.282  1.7629 -0.4802  0.3791
  314TMC3    C6 4722   1.859   0.960  11.374 -0.0060 -0.9204  0.4762
  314TMC3     C 4723   2.216   0.875  11.180  1.0744 -0.2731  1.5553
  314TMC3     O 4724   2.289   0.974  11.185  0.2607 -0.3086  0.0382
  314TMC3     H 4725   2.179   1.055  11.387  0.2184  0.2276  0.5567
  314TMC3    H1 4726   1.990   0.720  11.175  1.5333  0.4362 -0.0731
  314TMC3    H2 4727   1.763   1.008  11.388  0.8175  1.0327 -0.5404
  314TMC3    C7 4728   1.771   0.850  11.177 -0.5515  0.0680 -0.0618
  314TMC3    C8 4729   1.963   1.163  11.433 -0.4521  0.4369  0.5903
  314TMC3    O1 4730   1.648   0.860  11.201  0.4186  0.3029 -0.1727
  314TMC3    O2 4731   1.859   1.201  11.484 -0.0019  0.1267 -0.0461
  315MPD2     C 4732   1.998   4.487  17.215  0.0762  0.6483 -0.6494
  315MPD2    C1 4733   2.068   4.534  17.322  0.4878 -0.4576  0.5129
  315MPD2    C2 4734   2.109   4.668  17.330 -0.0542  0.4864 -0.8382
  315MPD2    C3 4735   2.104   0.025  17.216  0.2308 -0.2826 -0.5704
  315MPD2    C4 4736   2.043   4.697  17.101 -0.0371  0.4842 -0.0373
  315MPD2    C5 4737   1.989   4.574  17.107 -0.0181  0.0468 -0.1930
  315MPD2     H 4738   2.166   4.703  17.415 -0.3507  1.4961 -1.0496
  315MPD2    H1 4739   2.049   0.025  17.007  0.6830  0.0974 -0.2150
  315MPD2    H2 4740   1.961   4.385  17.211  1.8411 -0.0535  1.0459
  315MPD2    H3 4741   1.956   4.546  17.007 -0.8434  2.5995 -0.6327
  315MPD2     N 4742   2.159   0.155  17.231 -0.5848 -0.2591 -0.6711
  315MPD2    H5 4743   2.205   0.182  17.317 -1.9399  0.9382 -0.3209
  315MPD2    N1 4744   2.073   4.462  17.445 -0.5689 -0.8148  0.1095
  315MPD2    H7 4745   2.120   4.511  17.519 -0.1319 -0.2673 -0.5294
  316TMC3    C1 4746   2.160   0.387  17.209  0.4996  0.1749  0.0731
  316TMC3    C2 4747   2.251   0.394  17.308 -0.5996 -0.1827  0.2260
  316TMC3    C3 4748   2.239   0.511  17.386 -0.1106 -0.7754 -0.0413
  316TMC3    C4 4749   2.064   0.484  17.195  0.8794 -0.1065  0.1112
  316TMC3    C5 4750   2.058   0.592  17.283 -0.3952 -0.4956 -0.1939
  316TMC3    C6 4751   2.145   0.603  17.387  0.2428 -0.1362  0.2586
  316TMC3     C 4752   2.133   0.261  17.146  0.3560  0.6274 -0.5638
  316TMC3     O 4753   2.056   0.263  17.056  0.0509 -0.3012 -0.2589
  316TMC3     H 4754   2.329   0.322  17.330 -0.0002 -0.2716 -2.1562
  316TMC3    H1 4755   1.988   0.470  17.119  1.1484  0.7056 -0.3104
  316TMC3    H2 4756   2.144   0.681  17.461  3.2348 -1.6997  1.9453
  316TMC3    C7 4757   1.975   0.705  17.260  0.0301 -0.7761 -0.0762
  316TMC3    C8 4758   2.343   0.535  17.485  0.1618 -1.0413 -0.2289
  316TMC3    O1 4759   1.955   0.779  17.360 -0.3458  0.7902  0.7204
  316TMC3    O2 4760   2.350   0.655  17.514 -0.2635 -0.4386 -0.2018
  317MPD2     C 4761   4.152   3.475  12.785  0.3674 -0.6087  0.6118
  317MPD2    C1 4762   4.177   3.356  12.725  0.3141  0.6690  0.2329
  317MPD2    C2 4763   4.291   3.285  12.759  0.5787  0.2551 -0.5515
  317MPD2    C3 4764   4.381   3.334  12.847 -0.6180 -0.0586  0.8701
  317MPD2    C4 4765   4.348   3.451  12.912 -0.2426 -0.3669  0.3670
  317MPD2    C5 4766   4.228   3.516  12.894  0.1332  0.6916  0.2245
  317MPD2     H 4767   4.311   3.188  12.714  0.1083 -1.0447  2.0491
  317MPD2    H1 4768   4.413   3.480  12.993  1.1137 -0.3907 -0.7239
  317MPD2    H2 4769   4.057   3.526  12.770 -0.1064 -1.4152  0.9178
  317MPD2    H3 4770   4.198   3.599  12.958  0.8319  0.3877  0.9445
  317MPD2     N 4771   4.504   3.275  12.887  0.0881 -0.1018 -0.5318
  317MPD2    H5 4772   4.550   3.307  12.972  0.9562 -1.8199 -0.3647
  317MPD2    N1 4773   4.098   3.304  12.618 -0.1142 -0.3787  0.4484
  317MPD2    H7 4774   4.108   3.209  12.583 -1.7847  0.0837 -1.2520
  318TMC3    C1 4775   4.623   3.086  12.936 -0.9750  0.8923  0.6220
  318TMC3    C2 4776   4.551   2.973  12.967 -0.1087 -0.1531 -0.6840
  318TMC3    C3 4777   4.576   2.925  13.094  0.4293  0.4987 -0.3753
  318TMC3    C4 4778   4.723   3.142  13.013  0.5957 -0.1809  0.0070
  318TMC3    C5 4779   0.034   3.069  13.122  0.6071  0.5117  0.1541
  318TMC3    C6 4780   4.678   2.970  13.178 -0.3045  0.0882  0.6391
  318TMC3     C 4781   4.552   3.158  12.836 -0.2455  0.3491  0.4487
  318TMC3     O 4782   4.527   3.113  12.725 -0.1914  0.0721 -0.6233
  318TMC3     H 4783   4.475   2.939  12.898  0.3332 -0.9294 -0.7832
  318TMC3    H1 4784   0.054   3.233  12.996 -0.9781  0.8081  0.0991
  318TMC3    H2 4785   4.685   2.927  13.277  1.5754 -0.8239  0.1174
  318TMC3    C7 4786   0.138   3.124  13.204  0.4682 -0.1346  0.0469
  318TMC3    C8 4787   4.469   2.859  13.165  0.4321  0.0886  0.4886
  318TMC3    O1 4788   0.170   3.241  13.184  0.0025  0.0118 -0.1515
  318TMC3    O2 4789   4.490   2.806  13.275  0.3019 -0.0341 -0.1608
  319MPD2     C 4790   0.212   4.668  16.200  0.6572  0.3828 -0.1832
  319MPD2    C1 4791   0.084   4.681  16.253 -0.1982 -0.4816 -0.2338
  319MPD2    C2 4792   4.701   4.703  16.167  0.2482  1.0261 -0.7713
  319MPD2    C3 4793   0.001   0.003  16.032  0.5367  0.1854  0.2096
  319MPD2    C4 4794   0.128   4.720  15.983 -0.6940 -0.0294 -0.5716
  319MPD2    C5 4795   0.232   4.687  16.067  0.1885  0.4339 -0.0044
  319MPD2     H 4796   4.605   4.723  16.214 -1.1412 -2.5613 -2.0691
  319MPD2    H1 4797   0.150   4.724  15.877 -0.7865  0.0135 -0.5895
  319MPD2    H2 4798   0.295   4.640  16.263 -1.2784  0.1625  2.2938
  319MPD2    H3 4799   0.330   4.675  16.022 -0.7167 -1.3889 -1.4857
  319MPD2     N 4800   4.614   0.039  15.952  0.3028  0.2152 -0.6165
  319MPD2    H5 4801   4.524   0.027  15.996  0.4144  0.2117 -0.3881
  319MPD2    N1 4802   0.060   4.682  16.392  0.9455 -0.0326 -0.4232
  319MPD2    H7 4803   4.691   4.682  16.431  0.5412  0.9943 -1.3847
  320TMC3    C1 4804   4.492   0.096  15.760 -0.6766 -0.3169 -0.1832
  320TMC3    C2 4805   4.450   0.214  15.718 -0.4625  0.3219 -0.0251
  320TMC3    C3 4806   4.310   0.227  15.711  0.2354 -0.1418 -0.5303
  320TMC3    C4 4807   4.412   4.715  15.796 -0.5330 -0.6770  0.6892
  320TMC3    C5 4808   4.277   0.011  15.803 -0.3717  0.0971 -0.0405
  320TMC3    C6 4809   4.227   0.131  15.762  0.2378 -0.1449  0.8362
  320TMC3     C 4810   4.620   0.106  15.828  0.3598  0.1102 -0.4930
  320TMC3     O 4811   4.720   0.147  15.764 -0.1380  0.3982 -0.1243
  320TMC3     H 4812   4.517   0.297  15.695  0.2826  0.1751  1.6099
  320TMC3    H1 4813   4.455   4.624  15.837 -2.3672 -1.0467  1.8039
  320TMC3    H2 4814   4.124   0.158  15.783  0.2808  0.7785 -0.1909
  320TMC3    C7 4815   4.199   4.627  15.834 -0.2966  0.1992 -0.7390
  320TMC3    C8 4816   4.257   0.362  15.694  0.7197  0.4464 -0.3522
  320TMC3    O1 4817   4.261   4.534  15.879  0.4828 -0.1580  0.1856
  320TMC3    O2 4818   4.326   0.450  15.743  0.1679  0.1532  0.3072
  321TMC3    C1 4819   0.098   4.716  16.617 -0.0640 -0.2223  0.3425
  321TMC3    C2 4820   0.018   4.605  16.649  0.1838  0.6000  0.1256
  321TMC3    C3 4821   4.724   4.585  16.781  0.1185  0.4985 -0.1288
  321TMC3    C4 4822   0.139   0.080  16.708 -0.7483 -0.4496 -0.4237
  321TMC3    C5 4823   0.099   0.066  16.838 -0.3356  0.4257 -0.2552
  321TMC3    C6 4824   0.028   4.680  16.876  0.3593  0.4573  0.0097
  321TMC3     C 4825   0.153   0.002  16.483  0.6485 -0.8800  0.2410
  321TMC3     O 4826   0.259   0.059  16.460 -0.5298 -0.1362  0.2992
  321TMC3     H 4827   4.706   4.544  16.567  0.9403 -1.8351  1.6128
  321TMC3    H1 4828   0.208   0.158  16.678 -1.6893  0.3590 -0.5103
  321TMC3    H2 4829   0.012   4.668  16.983 -1.0756 -0.3718 -0.2995
  321TMC3    C7 4830   0.181   0.142  16.930  0.7945 -1.1253  0.3061
  321TMC3    C8 4831   0.032   4.456  16.838 -0.5757 -0.0388 -0.4468
  321TMC3    O1 4832   0.298   0.141  16.898  0.3594 -0.0465 -0.7310
  321TMC3    O2 4833   0.036   4.444  16.963  0.0175  0.6626 -0.4903
  322MPD2     C 4834   3.387   0.966  13.902  0.0625 -0.0438  0.1876
  322MPD2    C1 4835   3.523   0.969  13.905  0.0966  0.1092  0.1283
  322MPD2    C2 4836   3.588   0.887  13.808  0.2705 -0.0715  0.9265
  322MPD2    C3 4837   3.526   0.833  13.695 -0.8338  0.1410  0.4203
  322MPD2    C4 4838   3.388   0.837  13.689 -0.4479  0.0472 -0.3302
  322MPD2    C5 4839   3.322   0.902  13.798  0.3303 -0.0062 -0.5755
  322MPD2     H 4840   3.696   0.873  13.810  0.2726 -0.3193 -0.6311
  322MPD2    H1 4841   3.339   0.796  13.602  1.2657 -2.4822 -0.0863
  322MPD2    H2 4842   3.326   1.023  13.972 -0.5903 -1.6100  0.8859
  322MPD2    H3 4843   3.214   0.895  13.795  0.3864 -1.5909  1.4640
  322MPD2     N 4844   3.614   0.764  13.607 -0.4705  0.4341 -0.1907
  322MPD2    H5 4845   3.711   0.753  13.637 -0.4919 -0.1091 -0.3205
  322MPD2    N1 4846   3.595   1.056  13.988 -0.7428 -0.3171 -0.0466
  322MPD2    H7 4847   3.548   1.115  14.057  1.6442  0.0703  1.2332
  323TMC3    C1 4848   3.791   1.176  14.058 -0.0578 -0.1702 -0.3473
  323TMC3    C2 4849   3.882   1.266  14.015  0.9671  0.0490  0.3248
  323TMC3    C3 4850   3.965   1.328  14.107 -0.0191 -0.7810  0.4514
  323TMC3    C4 4851   3.777   1.143  14.193 -0.1373 -0.6206  0.3969
  323TMC3    C5 4852   3.854   1.212  14.285  0.3314  0.2297  0.2394
  323TMC3    C6 4853   3.945   1.306  14.249  0.1806  0.8997  0.0461
  323TMC3     C 4854   3.726   1.098  13.959 -0.4763  0.6160  0.0486
  323TMC3     O 4855   3.789   1.076  13.857  0.6596  0.2749 -0.2868
  323TMC3     H 4856   3.891   1.290  13.910 -0.6761  1.2708  0.4585
  323TMC3    H1 4857   3.697   1.080  14.228  1.0693 -3.2138 -1.4907
  323TMC3    H2 4858   4.003   1.348  14.330  1.0336  0.9591 -0.5953
  323TMC3    C7 4859   3.875   1.139  14.404 -0.0078  0.7175 -0.0929
  323TMC3    C8 4860   4.082   1.406  14.069  0.2186  0.7018  0.3955
  323TMC3    O1 4861   3.893   1.019  14.392  0.4102  0.1934  0.2028
  323TMC3    O2 4862   4.153   1.446  14.157  0.0137  0.0464 -0.5524
  324MPD2     C 4863   0.870   1.864  14.552  0.8027 -0.3360  0.2291
  324MPD2    C1 4864   0.849   1.982  14.490 -0.2557 -1.0919  0.1553
  324MPD2    C2 4865   0.723   2.038  14.491  0.3277  0.2779 -0.4189
  324MPD2    C3 4866   0.621   1.988  14.570 -0.1324 -0.3749  0.3540
  324MPD2    C4 4867   0.638   1.870  14.637  0.0180 -0.0123  1.1214
  324MPD2    C5 4868   0.765   1.812  14.628 -0.2051  0.8360  0.0590
  324MPD2     H 4869   0.709   2.126  14.429 -0.4755  1.2854  1.2007
  324MPD2    H1 4870   0.557   1.818  14.687 -0.4660  0.5201  0.8838
  324MPD2    H2 4871   0.964   1.811  14.556  0.4806 -0.9923 -0.9655
  324MPD2    H3 4872   0.785   1.722  14.684 -0.2428  1.6195  1.3359
  324MPD2     N 4873   0.489   2.036  14.571  0.1917 -0.0341 -0.4573
  324MPD2    H5 4874   0.412   1.979  14.602  2.1311 -1.9519  0.8336
  324MPD2    N1 4875   0.951   2.051  14.426  0.1487 -0.0029 -0.2612
  324MPD2    H7 4876   0.929   2.142  14.388  1.6813  0.6191  0.3614
  325TMC3    C1 4877   0.304   2.175  14.531 -0.5530  0.0209  0.2603
  325TMC3    C2 4878   0.219   2.067  14.563  0.4037  0.9038 -0.0576
  325TMC3    C3 4879   0.092   2.099  14.608 -0.9742  0.5247  0.5432
  325TMC3    C4 4880   0.271   2.307  14.545  0.2461  0.0969 -0.0043
  325TMC3    C5 4881   0.141   2.330  14.588 -0.3613  0.8822 -0.5123
  325TMC3    C6 4882   0.048   2.230  14.620  0.0850 -1.1786  0.2238
  325TMC3     C 4883   0.449   2.160  14.519 -0.0995  0.2281 -0.2053
  325TMC3     O 4884   0.518   2.255  14.481  0.0691 -0.2706  0.4673
  325TMC3     H 4885   0.247   1.965  14.542  0.7431  0.8094  0.8975
  325TMC3    H1 4886   0.335   2.388  14.513 -0.8536  0.6789 -0.7344
  325TMC3    H2 4887   4.676   2.243  14.667  0.1425 -3.5126  0.9674
  325TMC3    C7 4888   0.098   2.463  14.634  0.9094 -0.1198  1.1216
  325TMC3    C8 4889   4.721   1.998  14.575 -0.4566  0.2928 -0.0208
  325TMC3    O1 4890   0.178   2.549  14.664  0.2630 -0.1037 -0.0723
  325TMC3    O2 4891   0.044   1.891  14.538  0.1002 -0.1287 -0.1220
  326MPD2     C 4892   1.892   3.207  11.343 -0.0148  0.4346 -0.7485
  326MPD2    C1 4893   1.831   3.246  11.227 -0.1472 -0.5004  0.1053
  326MPD2    C2 4894   1.884   3.358  11.170  0.0235 -0.5276 -0.3884
  326MPD2    C3 4895   2.004   3.416  11.214 -0.0339 -0.5161  0.1004
  326MPD2    C4 4896   2.046   3.385  11.340  0.3067  1.0611  0.3918
  326MPD2    C5 4897   1.996   3.273  11.396  0.5003  0.2444 -0.4579
  326MPD2     H 4898   1.839   3.401  11.081  1.8027 -0.0843 -1.0661
  326MPD2    H1 4899   2.137   3.427  11.383  0.1156 -0.5156  2.3095
  326MPD2    H2 4900   1.852   3.127  11.404  1.1536  1.4354  1.3455
  326MPD2    H3 4901   2.037   3.230  11.486 -0.1909  1.4579  0.4368
  326MPD2     N 4902   2.078   3.513  11.141  0.2616 -0.2685  0.3546
  326MPD2    H5 4903   2.130   3.584  11.191  3.7834 -1.8591 -1.0749
  326MPD2    N1 4904   1.720   3.184  11.172  0.5359 -0.0311 -0.5263
  326MPD2    H7 4905   1.671   3.239  11.102  0.3653  1.9761  1.1464
  327TMC3    C1 4906   1.574   2.999  11.119  0.1657  0.1616 -0.3491
  327TMC3    C2 4907   1.502   3.087  11.036 -0.8566 -0.2580  0.3503
  327TMC3    C3 4908   1.442   3.033  10.923  0.5247  0.1401  0.4446
  327TMC3    C4 4909   1.582   2.863  11.092 -0.1112  0.5857 -0.4409
  327TMC3    C5 4910   1.541   2.822  10.970  0.5462  0.0217 -0.5316
  327TMC3    C6 4911   1.462   2.903  10.895 -0.5044 -0.7151  0.0862
  327TMC3     C 4912   1.691   3.053  11.196 -0.2957 -0.1682 -0.1141
  327TMC3     O 4913   1.747   2.968  11.263 -0.0313  0.5478 -0.1266
  327TMC3     H 4914   1.491   3.193  11.058 -1.4237 -0.3649  0.6004
  327TMC3    H1 4915   1.633   2.793  11.158 -0.6617 -0.5186 -1.1769
  327TMC3    H2 4916   1.442   2.878  10.792 -2.0738  0.0058  0.2256
  327TMC3    C7 4917   1.626   2.739  10.892  0.4043 -0.3202  0.4977
  327TMC3    C8 4918   1.370   3.122  10.831  0.1146 -0.0764  0.4770
  327TMC3    O1 4919   1.602   2.737  10.773  0.0157 -0.0051 -1.2819
  327TMC3    O2 4920   1.384   3.118  10.705 -0.2316  0.1975  0.0964
  328MPD2     C 4921   3.827   2.471  17.183 -0.3199  0.0756  0.4053
  328MPD2    C1 4922   3.857   2.432  17.051 -0.6867  0.3998  0.2027
  328MPD2    C2 4923   3.859   2.525  16.947  0.3044  0.1638  0.0587
  328MPD2    C3 4924   3.821   2.654  16.984 -0.1534  0.7212  0.4971
  328MPD2    C4 4925   3.796   2.692  17.112 -0.2780 -0.4389  0.0153
  328MPD2    C5 4926   3.786   2.597  17.207 -0.5997 -0.4746  0.1205
  328MPD2     H 4927   3.877   2.502  16.843 -1.0070  2.0333 -0.5958
  328MPD2    H1 4928   3.764   2.794  17.132  0.4403 -0.3962  0.9838
  328MPD2    H2 4929   3.819   2.403  17.267  0.1911  3.1325  2.9608
  328MPD2    H3 4930   3.755   2.618  17.309 -0.0700 -1.0222  0.3920
  328MPD2     N 4931   3.809   2.759  16.890  0.5242 -0.4284 -0.0030
  328MPD2    H5 4932   3.774   2.845  16.930 -2.0436 -1.0833 -0.8323
  328MPD2    N1 4933   3.897   2.303  17.027 -0.6001  0.0521 -0.6457
  328MPD2    H7 4934   3.902   2.238  17.105 -1.0161 -0.0907 -0.7376
  329TMC3    C1 4935   3.980   2.112  16.937 -0.3423 -0.2192  0.1829
  329TMC3    C2 4936   3.972   2.061  17.066 -0.0579 -0.2717 -0.3732
  329TMC3    C3 4937   4.047   1.948  17.093 -1.1599  0.5120 -0.3023
  329TMC3    C4 4938   4.064   2.050  16.841  0.0368  0.0652  0.4340
  329TMC3    C5 4939   4.116   1.926  16.868 -0.4861  0.0787 -0.0339
  329TMC3    C6 4940   4.106   1.875  16.997 -0.6664 -0.0444  0.8692
  329TMC3     C 4941   3.934   2.245  16.912  0.7906 -0.7712  0.1454
  329TMC3     O 4942   3.928   2.281  16.794  0.0682 -0.6686 -0.0094
  329TMC3     H 4943   3.885   2.095  17.121  1.2176  0.0770  1.4498
  329TMC3    H1 4944   4.076   2.099  16.745 -0.6736  0.2359  0.4335
  329TMC3    H2 4945   4.155   1.781  17.019  2.1542  1.4038  0.8206
  329TMC3    C7 4946   4.098   1.834  16.755  0.4100  0.0801  0.1678
  329TMC3    C8 4947   4.004   1.877  17.208  0.0621  0.0172 -0.3462
  329TMC3    O1 4948   4.020   1.872  16.669 -0.5815 -0.5967 -0.0946
  329TMC3    O2 4949   4.030   1.758  17.210  0.3495  0.3761  0.6440
  330TMC3    C1 4950   2.683   2.594   9.608  0.6671  0.6465 -0.2261
  330TMC3    C2 4951   2.613   2.533   9.508 -0.1949 -0.4469 -0.4351
  330TMC3    C3 4952   2.571   2.406   9.523  0.0562 -0.1072 -0.6443
  330TMC3    C4 4953   2.718   2.519   9.720 -0.5242  1.0346  0.8262
  330TMC3    C5 4954   2.665   2.395   9.737 -0.0535 -0.0362 -0.2687
  330TMC3    C6 4955   2.586   2.339   9.640 -0.0358 -0.8953 -0.1904
  330TMC3     C 4956   2.649   2.732   9.642 -0.3720 -0.2196  0.3949
  330TMC3     O 4957   2.679   2.765   9.756  0.4615 -0.0383 -0.4281
  330TMC3     H 4958   2.581   2.576   9.414 -0.4979 -2.1253 -1.0833
  330TMC3    H1 4959   2.780   2.561   9.798 -0.3215 -0.6286  1.5547
  330TMC3    H2 4960   2.557   2.235   9.653 -2.1688 -0.4380 -1.3726
  330TMC3    C7 4961   2.675   2.329   9.869 -0.5281  0.2874  0.0577
  330TMC3    C8 4962   2.518   2.345   9.399  0.0964 -0.6654 -0.1758
  330TMC3    O1 4963   2.766   2.377   9.938 -0.7521 -0.3513 -0.2950
  330TMC3    O2 4964   2.540   2.400   9.289  0.5648  0.1762 -0.4893
  331MPD2     C 4965   4.531   1.271  12.680  0.5210  0.0593 -0.0203
  331MPD2    C1 4966   4.574   1.336  12.568  0.2549  0.4165 -0.0099
  331MPD2    C2 4967   4.682   1.285  12.500  0.4011  0.2362  0.4647
  331MPD2    C3 4968   0.012   1.162  12.540  0.0588  0.1775 -0.2167
  331MPD2    C4 4969   4.700   1.095  12.653 -0.8104 -0.2657  0.6014
  331MPD2    C5 4970   4.588   1.153  12.719 -0.6368  0.0184 -0.6134
  331MPD2     H 4971   4.712   1.334  12.408 -0.1245 -0.0484  0.1384
  331MPD2    H1 4972   0.019   1.006  12.696  1.0725 -1.0613 -3.0042
  331MPD2    H2 4973   4.438   1.306  12.725  1.1221 -0.2761  1.4762
  331MPD2    H3 4974   4.550   1.099  12.805 -0.6827 -0.9783 -1.2503
  331MPD2     N 4975   0.124   1.118  12.466  0.2812  0.0769 -0.6875
  331MPD2    H5 4976   0.148   1.162  12.377  0.3052  1.2239 -0.1162
  331MPD2    N1 4977   4.507   1.456  12.522  0.4363 -0.6852 -0.8439
  331MPD2    H7 4978   4.444   1.504  12.585  1.1068 -1.1673  0.1976
  332TMC3    C1 4979   0.311   0.977  12.413 -0.2359 -0.3397  0.9542
  332TMC3    C2 4980   0.327   1.030  12.288 -0.3803 -0.1551  0.6632
  332TMC3    C3 4981   0.452   1.012  12.234 -0.7010  1.3876  0.7308
  332TMC3    C4 4982   0.405   0.890  12.470  0.8476  0.0515 -0.1640
  332TMC3    C5 4983   0.530   0.882  12.409 -0.0877 -0.3597  0.6752
  332TMC3    C6 4984   0.553   0.937  12.290 -0.1532 -0.1780  0.5976
  332TMC3     C 4985   0.206   1.008  12.502 -0.0325  0.4467 -0.4157
  332TMC3     O 4986   0.181   0.917  12.577 -0.3695 -0.3983 -0.2713
  332TMC3     H 4987   0.258   1.104  12.248 -0.5297 -0.2446  0.7563
  332TMC3    H1 4988   0.397   0.836  12.564 -0.7240  1.8071  0.7063
  332TMC3    H2 4989   0.650   0.939  12.242 -0.8921 -2.2259 -1.0345
  332TMC3    C7 4990   0.634   0.883  12.511  0.1360 -0.1041  0.0709
  332TMC3    C8 4991   0.502   1.124  12.164  0.2433 -0.4185 -0.0223
  332TMC3    O1 4992   0.613   0.844  12.621 -0.1177  0.3797  0.4862
  332TMC3    O2 4993   0.616   1.155  12.186 -0.2716 -1.0026  0.0752
  333MPD2     C 4994   0.789   1.587  11.332  0.1219 -0.4708 -0.2527
  333MPD2    C1 4995   0.748   1.492  11.245  0.0751 -0.1047  0.6072
  333MPD2    C2 4996   0.658   1.392  11.276 -0.7447  0.0768  0.0172
  333MPD2    C3 4997   0.607   1.394  11.406 -1.3128  0.4149  0.2217
  333MPD2    C4 4998   0.645   1.491  11.495 -0.0581 -0.1662  0.1810
  333MPD2    C5 4999   0.740   1.581  11.463 -0.6360  0.0581  0.4491
  333MPD2     H 5000   0.635   1.320  11.198  3.6805 -0.8231 -0.4599
  333MPD2    H1 5001   0.588   1.505  11.586  0.2451 -1.8860  0.6306
  333MPD2    H2 5002   0.868   1.655  11.300  1.3342 -1.2110  1.1517
  333MPD2    H3 5003   0.770   1.653  11.538  0.8042 -0.0845  0.0121
  333MPD2     N 5004   0.514   1.292  11.431 -0.7589 -0.3299 -0.2416
  333MPD2    H5 5005   0.480   1.244  11.348  0.4065 -0.6820 -0.5064
  333MPD2    N1 5006   0.826   1.483  11.129  0.2249  0.4949 -0.2337
  333MPD2    H7 5007   0.887   1.561  11.106  1.1251 -0.0303  0.3558
  334TMC3    C1 5008   0.939   1.411  10.933 -0.2669 -0.8973  0.1456
  334TMC3    C2 5009   1.000   1.301  10.877  0.2287  0.6701 -0.2439
  334TMC3    C3 5010   1.103   1.325  10.787 -0.4901  0.5172 -0.6653
  334TMC3    C4 5011   0.972   1.536  10.901 -0.0043 -0.1075  0.4342
  334TMC3    C5 5012   1.077   1.555  10.818  0.9425  0.1659  0.6220
  334TMC3    C6 5013   1.148   1.455  10.765  0.4493 -0.2761 -0.4984
  334TMC3     C 5014   0.840   1.378  11.039 -0.5835 -0.4039 -0.3307
  334TMC3     O 5015   0.796   1.266  11.044 -0.0264  0.3094 -1.1499
  334TMC3     H 5016   0.970   1.200  10.904 -0.3733  0.0812 -3.1077
  334TMC3    H1 5017   0.893   1.610  10.904 -0.4286 -0.5251 -0.6070
  334TMC3    H2 5018   1.233   1.485  10.706  1.9196 -1.1110  1.1728
  334TMC3    C7 5019   1.109   1.691  10.782  0.2799  0.5373  0.0883
  334TMC3    C8 5020   1.175   1.209  10.728  0.1613  0.3526 -0.4287
  334TMC3    O1 5021   1.094   1.781  10.865  0.1895  0.3012  0.2748
  334TMC3    O2 5022   1.131   1.103  10.763  0.0231 -0.0925  0.5437
  335TMC3    C1 5023   4.285   3.481  17.356  0.4636  0.0882 -0.6015
  335TMC3    C2 5024   4.231   3.371  17.289 -0.2831  0.1596  0.4156
  335TMC3    C3 5025   4.303   3.323  17.188  0.7828 -0.1670  0.2446
  335TMC3    C4 5026   4.420   3.512  17.347  0.6217 -0.6166 -0.1282
  335TMC3    C5 5027   4.493   3.446  17.248  0.2143 -0.4294 -0.4153
  335TMC3    C6 5028   4.429   3.354  17.163 -0.0850 -0.1087 -0.1288
  335TMC3     C 5029   4.192   3.583  17.415 -0.6581 -0.4511 -0.1094
  335TMC3     O 5030   4.074   3.550  17.406 -0.4660 -0.1845  0.3412
  335TMC3     H 5031   4.127   3.344  17.300 -0.0939 -0.8378 -0.2880
  335TMC3    H1 5032   4.466   3.575  17.423  1.4906 -1.3563 -0.0490
  335TMC3    H2 5033   4.490   3.300  17.091 -0.3471  0.1278 -0.5276
  335TMC3    C7 5034   4.636   3.454  17.241 -0.4025  0.0598  0.5951
  335TMC3    C8 5035   4.246   3.205  17.135 -0.2613 -0.1563  0.5581
  335TMC3    O1 5036   4.690   3.360  17.190  0.0147 -0.1133  0.0530
  335TMC3    O2 5037   4.205   3.127  17.222  0.4868  0.1363 -0.8242
  336MPD2     C 5038   4.497   1.186  16.564 -0.2428 -0.1947 -0.2063
  336MPD2    C1 5039   4.511   1.148  16.432  0.3800 -0.9986  0.0202
  336MPD2    C2 5040   4.538   1.017  16.401  0.0607  0.0256 -0.0458
  336MPD2    C3 5041   4.525   0.924  16.505 -0.1775  0.3459  0.0295
  336MPD2    C4 5042   4.518   0.958  16.637  0.0258 -0.6369  0.2057
  336MPD2    C5 5043   4.496   1.090  16.667 -0.1840  0.0188 -0.1412
  336MPD2     H 5044   4.547   0.991  16.296 -0.3391 -1.7029  0.3473
  336MPD2    H1 5045   4.508   0.887  16.718  4.2657 -3.1399 -1.4516
  336MPD2    H2 5046   4.491   1.293  16.582 -0.9861 -0.6144  2.0711
  336MPD2    H3 5047   4.481   1.118  16.770  0.3293  1.2431 -0.3928
  336MPD2     N 5048   4.565   0.790  16.487 -0.2990  0.1179  0.2592
  336MPD2    H5 5049   4.554   0.727  16.566  0.2442  0.9294  0.9755
  336MPD2    N1 5050   4.493   1.237  16.320  0.6709  0.2062 -0.1658
  336MPD2    H7 5051   4.493   1.189  16.230  0.3043 -1.6359  0.8080
  337TMC3    C1 5052   4.413   1.407  16.182 -0.1823 -0.1490  0.0839
  337TMC3    C2 5053   4.294   1.341  16.145  0.3143  0.1136 -0.2754
  337TMC3    C3 5054   4.209   1.399  16.051  0.6443  1.0692 -0.1300
  337TMC3    C4 5055   4.432   1.536  16.139 -0.1237  0.4383  0.6878
  337TMC3    C5 5056   4.347   1.588  16.045 -0.2253  0.7196  0.6544
  337TMC3    C6 5057   4.241   1.524  15.997 -0.4681 -0.7123  0.6577
  337TMC3     C 5058   4.478   1.377  16.309 -0.4018  0.4761  0.8113
  337TMC3     O 5059   4.472   1.454  16.404 -0.4199 -0.1799  0.0114
  337TMC3     H 5060   4.260   1.245  16.181  1.3656 -0.2568 -0.2559
  337TMC3    H1 5061   4.508   1.600  16.183  1.6465 -1.2936  0.1357
  337TMC3    H2 5062   4.170   1.577  15.934  1.1133  0.1560 -0.3943
  337TMC3    C7 5063   4.410   1.706  15.982  0.5199 -0.1346 -0.0779
  337TMC3    C8 5064   4.078   1.344  16.062  0.1386 -0.7468  0.0877
  337TMC3    O1 5065   4.533   1.704  15.964  0.5931  0.3229  0.0974
  337TMC3    O2 5066   4.046   1.263  16.149 -0.2504  0.1384 -0.0642
  338MPD2     C 5067   0.543   0.284   1.024 -0.5067 -0.1009  0.8763
  338MPD2    C1 5068   0.436   0.265   0.942  0.1359  0.2333  0.2301
  338MPD2    C2 5069   0.330   0.351   0.954 -0.3967  0.1512 -0.7629
  338MPD2    C3 5070   0.328   0.462   1.041  0.0356  0.2653  0.2643
  338MPD2    C4 5071   0.434   0.478   1.125 -0.0875 -0.1753 -0.9078
  338MPD2    C5 5072   0.541   0.392   1.104 -0.6543 -0.3690  0.6355
  338MPD2     H 5073   0.247   0.343   0.886 -0.1442 -2.2696 -0.8133
  338MPD2    H1 5074   0.444   0.560   1.195 -1.2340  1.6450 -2.9068
  338MPD2    H2 5075   0.639   0.234   1.012 -1.3641 -1.9354  1.6303
  338MPD2    H3 5076   0.634   0.423   1.149 -0.1406 -1.1556  0.1294
  338MPD2     N 5077   0.221   0.546   1.031 -0.4656  0.0989  0.2705
  338MPD2    H5 5078   0.169   0.517   0.949 -0.5974  1.4224 -0.1180
  338MPD2    N1 5079   0.437   0.160   0.843  0.2656  0.3442  0.5044
  338MPD2    H7 5080   0.353   0.144   0.789  0.3479 -0.5668  0.6408
  339TMC3    C1 5081   0.066   0.718   1.042  0.9127 -0.3626 -0.4319
  339TMC3    C2 5082   4.683   0.750   1.109  0.0063  0.1510  0.6560
  339TMC3    C3 5083   4.582   0.809   1.038 -0.0400 -0.3486 -0.0628
  339TMC3    C4 5084   0.087   0.747   0.909 -0.2250 -0.1108  0.1997
  339TMC3    C5 5085   4.701   0.800   0.844 -0.7351  0.3345 -0.2911
  339TMC3    C6 5086   4.581   0.828   0.905 -0.7310 -0.4682 -0.5696
  339TMC3     C 5087   0.176   0.647   1.115 -0.5288  0.2537  0.3536
  339TMC3     O 5088   0.202   0.668   1.232 -0.1289 -0.0397  0.5933
  339TMC3     H 5089   4.682   0.740   1.217 -1.2827  2.0617  0.8306
  339TMC3    H1 5090   0.185   0.734   0.865  0.0256  0.5888  0.5563
  339TMC3    H2 5091   4.504   0.888   0.858 -1.6565 -1.1995  0.0187
  339TMC3    C7 5092   4.701   0.824   0.701 -0.5592 -0.0551 -0.0319
  339TMC3    C8 5093   4.465   0.851   1.106  0.5300 -0.2917  0.0061
  339TMC3    O1 5094   4.608   0.882   0.650 -0.0471 -0.6049  0.1692
  339TMC3    O2 5095   4.395   0.934   1.050 -0.1740  0.8085 -0.7004
  340MPD2     C 5096   0.591   2.404   9.928 -0.4143 -0.3312 -0.3014
  340MPD2    C1 5097   0.637   2.469   9.815  0.3538 -0.1312  0.2092
  340MPD2    C2 5098   0.742   2.555   9.836 -0.1426 -0.1997 -0.2474
  340MPD2    C3 5099   0.806   2.554   9.959  0.1732  0.6085  0.4577
  340MPD2    C4 5100   0.764   2.486  10.067  0.4137  0.2927 -0.4660
  340MPD2    C5 5101   0.658   2.404  10.049  0.4583 -0.4043 -0.4128
  340MPD2     H 5102   0.783   2.618   9.758 -0.2749  0.3707  0.1445
  340MPD2    H1 5103   0.815   2.490  10.162  1.0205  3.1005 -0.8839
  340MPD2    H2 5104   0.510   2.332   9.920 -1.8966  0.8976  3.4454
  340MPD2    H3 5105   0.630   2.336  10.128 -0.8917 -1.9320 -2.1822
  340MPD2     N 5106   0.930   2.629   9.982  0.3087 -0.3404 -0.0052
  340MPD2    H5 5107   0.962   2.632  10.078  2.5703 -0.3292 -0.7692
  340MPD2    N1 5108   0.577   2.440   9.692  1.1441 -0.3151 -0.3118
  340MPD2    H7 5109   0.499   2.375   9.694  1.8164 -1.0585  1.5267
  341TMC3    C1 5110   0.535   2.435   9.464  0.0073  0.3413 -0.3712
  341TMC3    C2 5111   0.404   2.389   9.480 -0.0409 -0.7501  0.2680
  341TMC3    C3 5112   0.334   2.337   9.377  0.0580  0.4535 -0.3708
  341TMC3    C4 5113   0.593   2.426   9.340 -0.0794  0.1181 -0.0196
  341TMC3    C5 5114   0.538   2.351   9.244 -0.3338  0.1250 -0.5545
  341TMC3    C6 5115   0.407   2.305   9.258  0.3420  0.2864 -0.2842
  341TMC3     C 5116   0.611   2.497   9.578  0.1164 -0.3513  0.2088
  341TMC3     O 5117   0.718   2.553   9.552  0.1426 -0.0041 -0.3721
  341TMC3     H 5118   0.359   2.382   9.579  0.3045  0.9127  0.5471
  341TMC3    H1 5119   0.700   2.443   9.338  0.2205 -1.7950 -0.9935
  341TMC3    H2 5120   0.375   2.233   9.184  0.8021 -1.1464  0.9125
  341TMC3    C7 5121   0.627   2.297   9.141 -0.2292 -0.1241 -0.1790
  341TMC3    C8 5122   0.229   2.246   9.410 -0.1213 -0.3727  0.0798
  341TMC3    O1 5123   0.743   2.267   9.172  0.2355  0.7316 -0.0392
  341TMC3    O2 5124   0.185   2.246   9.525 -0.0810  0.9122 -0.0414
  342MPD2     C 5125   2.585   1.154   0.101 -0.0685 -1.2002 -0.0312
  342MPD2    C1 5126   2.648   1.130  17.686 -0.1788  0.5756  0.9020
  342MPD2    C2 5127   2.652   1.229  17.586  0.1183  0.1474  0.0660
  342MPD2    C3 5128   2.601   1.350  17.608  0.2659 -0.1003 -0.1277
  342MPD2    C4 5129   2.534   1.376   0.027 -0.3677  0.8566 -0.0424
  342MPD2    C5 5130   2.524   1.272   0.121  0.1566  0.1274 -0.5938
  342MPD2     H 5131   2.708   1.197  17.498 -0.5551  0.2839 -0.4072
  342MPD2    H1 5132   2.498   1.475   0.054  1.0825  1.1771  0.6879
  342MPD2    H2 5133   2.585   1.079   0.180  2.3865 -2.6785 -1.4559
  342MPD2    H3 5134   2.466   1.293   0.210  2.0472 -1.6909  1.0569
  342MPD2     N 5135   2.604   1.458  17.521  0.4376 -0.4020  0.3551
  342MPD2    H5 5136   2.572   1.549  17.554  1.1429 -0.5292  1.4254
  342MPD2    N1 5137   2.726   1.008  17.671 -0.1647  0.1955 -0.0174
  342MPD2    H7 5138   2.749   0.981  17.576 -3.1849 -0.0153 -0.6853
  343TMC3    C1 5139   2.875   0.838   0.027  0.2363 -0.4380 -0.0648
  343TMC3    C2 5140   3.006   0.858   0.066 -0.0679  0.1498 -0.9324
  343TMC3    C3 5141   3.090   0.753   0.022  0.0468 -0.9302  0.3150
  343TMC3    C4 5142   2.841   0.747  17.631  0.1685  0.0487 -0.1366
  343TMC3    C5 5143   2.930   0.652  17.594 -0.0024 -0.2849 -0.3485
  343TMC3    C6 5144   3.055   0.645  17.647  0.3260  0.4197  0.3673
  343TMC3     C 5145   2.779   0.936   0.073 -0.3814  0.4391  0.3576
  343TMC3     O 5146   2.768   0.950   0.196  0.0283 -0.0372 -0.5453
  343TMC3     H 5147   3.036   0.939   0.130  0.6221 -0.9347  0.1160
  343TMC3    H1 5148   2.738   0.727  17.604  0.6199 -0.3113 -1.6012
  343TMC3    H2 5149   3.133   0.574  17.619  0.0556 -0.0553  0.8317
  343TMC3    C7 5150   2.870   0.528  17.542 -0.6365 -0.5698  0.4464
  343TMC3    C8 5151   3.236   0.791   0.040  0.2432 -0.3756  0.5565
  343TMC3    O1 5152   2.790   0.543  17.451  0.0205 -0.3611 -0.3195
  343TMC3    O2 5153   3.269   0.830   0.152  0.0508 -0.3010 -0.0068
  344MPD2     C 5154   4.180   1.037  11.012  0.0848  0.4631 -0.3060
  344MPD2    C1 5155   4.108   0.988  10.907  0.8562  0.1931  0.1452
  344MPD2    C2 5156   4.114   1.044  10.784 -0.3623 -0.1850 -0.0002
  344MPD2    C3 5157   4.193   1.154  10.749  0.6498  1.0763  0.5021
  344MPD2    C4 5158   4.255   1.205  10.858  0.2953 -0.1767 -0.4433
  344MPD2    C5 5159   4.255   1.146  10.981  0.5698 -0.1795  0.1310
  344MPD2     H 5160   4.055   0.996  10.706 -1.8188 -1.2961  1.7998
  344MPD2    H1 5161   4.317   1.293  10.852 -0.2122  0.2363  0.3775
  344MPD2    H2 5162   4.184   0.989  11.109  0.8982 -0.2080 -0.6660
  344MPD2    H3 5163   4.331   1.180  11.050 -1.6876  1.6053  1.7195
  344MPD2     N 5164   4.201   1.212  10.626 -0.1071  0.2582 -0.2133
  344MPD2    H5 5165   4.254   1.298  10.626 -0.3368  0.3992 -0.1949
  344MPD2    N1 5166   4.027   0.878  10.915 -0.4910  0.0140 -0.1919
  344MPD2    H7 5167   3.972   0.850  10.835 -1.1947  0.9046 -0.0223
  345TMC3    C1 5168   4.209   1.227  10.402  0.4621 -0.3806 -0.4991
  345TMC3    C2 5169   4.337   1.277  10.424  0.0916 -1.1670 -0.4814
  345TMC3    C3 5170   4.373   1.385  10.349  0.0244 -0.3163 -0.0845
  345TMC3    C4 5171   4.127   1.275  10.311 -0.3767 -0.5698  0.4159
  345TMC3    C5 5172   4.169   1.379  10.238  0.2358 -0.3930 -0.0028
  345TMC3    C6 5173   4.293   1.429  10.248 -0.0907 -0.2849 -0.2649
  345TMC3     C 5174   4.147   1.159  10.512 -0.0654  0.3911 -0.0944
  345TMC3     O 5175   4.061   1.074  10.483 -0.5312 -0.2196  0.3589
  345TMC3     H 5176   4.402   1.248  10.505 -0.6882  1.8446  1.2145
  345TMC3    H1 5177   4.026   1.236  10.300  0.2883 -1.4669 -2.6339
  345TMC3    H2 5178   4.327   1.507  10.180  0.2261  0.1686  0.4147
  345TMC3    C7 5179   4.096   1.437  10.135  0.0828  0.0798  0.0697
  345TMC3    C8 5180   4.502   1.442  10.382  0.8672  0.2557  0.5468
  345TMC3    O1 5181   4.110   1.556  10.121  0.1312 -0.1881  0.0927
  345TMC3    O2 5182   4.533   1.451  10.504  0.3898 -0.0662  0.0157
  346MPD2     C 5183   3.561   2.762  14.021 -0.4805 -0.1943 -0.0177
  346MPD2    C1 5184   3.630   2.644  14.026 -0.0654 -0.5870 -0.5039
  346MPD2    C2 5185   3.706   2.618  14.139 -0.2499 -0.2280 -0.1533
  346MPD2    C3 5186   3.710   2.708  14.248  0.0640 -0.4695  0.1748
  346MPD2    C4 5187   3.644   2.826  14.239  0.6423  0.6085  0.6202
  346MPD2    C5 5188   3.563   2.851  14.130 -0.0952  0.7124  0.0783
  346MPD2     H 5189   3.759   2.524  14.146 -0.7024 -0.5131 -0.6267
  346MPD2    H1 5190   3.652   2.905  14.313 -1.6721  1.1471  0.2715
  346MPD2    H2 5191   3.503   2.785  13.932  1.1790  0.8492 -0.8387
  346MPD2    H3 5192   3.508   2.943  14.120 -0.8422  0.6333  3.4290
  346MPD2     N 5193   3.765   2.665  14.372  0.6921 -0.0382 -0.7589
  346MPD2    H5 5194   3.829   2.587  14.362  1.1438  0.0351  1.6168
  346MPD2    N1 5195   3.633   2.551  13.920 -0.4192 -0.0663  0.0391
  346MPD2    H7 5196   3.690   2.468  13.936 -0.3573 -0.5409 -2.5226
  347TMC3    C1 5197   3.838   2.730  14.589 -0.6801 -0.4779  0.4022
  347TMC3    C2 5198   3.959   2.671  14.566  0.3622 -0.5915 -0.0186
  347TMC3    C3 5199   4.048   2.670  14.663  0.6898  0.5626  0.3454
  347TMC3    C4 5200   3.815   2.810  14.702  1.2540 -0.1430  0.1833
  347TMC3    C5 5201   3.904   2.801  14.808 -0.2216  0.0488 -0.2301
  347TMC3    C6 5202   4.023   2.733  14.785 -0.3059  0.1664  0.5512
  347TMC3     C 5203   3.731   2.725  14.496 -1.0430  0.2109 -0.5005
  347TMC3     O 5204   3.638   2.797  14.522 -0.0916  0.0171 -0.0925
  347TMC3     H 5205   3.976   2.622  14.471 -1.3311  1.1775 -1.2505
  347TMC3    H1 5206   3.722   2.865  14.712  1.2072 -0.4582  1.5229
  347TMC3    H2 5207   4.089   2.723  14.870 -0.4954 -1.3867  0.5117
  347TMC3    C7 5208   3.887   2.860  14.941  0.0869  0.5925  0.1428
  347TMC3    C8 5209   4.186   2.632  14.623 -0.0880 -0.4258  0.0296
  347TMC3    O1 5210   3.794   2.821  15.008  0.2014 -0.5708 -0.5460
  347TMC3    O2 5211   4.218   2.545  14.543 -0.6783 -0.0168  0.1584
  348MPD2     C 5212   2.482   2.472  12.011 -0.0893 -0.0165 -0.1990
  348MPD2    C1 5213   2.614   2.433  12.012 -0.0281 -0.5520  0.0901
  348MPD2    C2 5214   2.687   2.417  11.894  0.0556  0.2941  0.0803
  348MPD2    C3 5215   2.620   2.426  11.776  0.9745 -0.2478 -0.2565
  348MPD2    C4 5216   2.484   2.449  11.766 -0.2633  0.1382  0.1174
  348MPD2    C5 5217   2.425   2.474  11.885  0.1727 -0.6396  0.5262
  348MPD2     H 5218   2.792   2.389  11.893  0.6885  2.7167 -0.0856
  348MPD2    H1 5219   2.424   2.452  11.676 -0.7352 -0.2761  0.4175
  348MPD2    H2 5220   2.419   2.495  12.096 -0.3626  0.0013 -0.4076
  348MPD2    H3 5221   2.319   2.499  11.890  0.3526  0.4256 -0.9583
  348MPD2     N 5222   2.697   2.403  11.657  0.0775  0.0262 -0.2777
  348MPD2    H5 5223   2.797   2.422  11.656  0.8014 -3.8915 -0.1270
  348MPD2    N1 5224   2.690   2.420  12.137 -0.1670 -0.0892 -0.3337
  348MPD2    H7 5225   2.790   2.407  12.138 -0.2131 -0.4757 -1.0826
  349TMC3    C1 5226   2.734   2.386  12.365 -0.6222 -1.3667 -0.4599
  349TMC3    C2 5227   2.697   2.273  12.437 -0.2808  0.7262 -0.0681
  349TMC3    C3 5228   2.808   2.214  12.497  0.4259 -0.3427  0.5118
  349TMC3    C4 5229   2.864   2.437  12.352  1.3589  0.1537  0.1273
  349TMC3    C5 5230   2.967   2.357  12.399  0.1986 -0.1954 -0.6088
  349TMC3    C6 5231   2.938   2.244  12.471 -0.0293 -0.1929  0.5340
  349TMC3     C 5232   2.638   2.415  12.264 -0.6171  0.4836 -0.0997
  349TMC3     O 5233   2.524   2.406  12.298  0.1683 -0.2486  0.4860
  349TMC3     H 5234   2.598   2.231  12.440  0.5602 -1.1918  0.6172
  349TMC3    H1 5235   2.886   2.524  12.291 -1.5774  2.2507  2.0364
  349TMC3    H2 5236   3.016   2.177  12.505  0.9469 -0.5473 -2.3931
  349TMC3    C7 5237   3.034   2.309  12.277 -0.8375  0.1555  0.2807
  349TMC3    C8 5238   2.792   2.079  12.554 -0.3752 -0.2620  0.3132
  349TMC3    O1 5239   3.053   2.189  12.278  0.3636  0.6041  0.1545
  349TMC3    O2 5240   2.890   2.013  12.589 -0.3271  0.1121  0.0748
  350MPD2     C 5241   1.644   0.218  10.020  0.3472 -0.8372 -0.8550
  350MPD2    C1 5242   1.716   0.100  10.068  0.6014  0.2802  0.7588
  350MPD2    C2 5243   1.849   0.109  10.097 -0.1528  0.2846 -0.2603
  350MPD2    C3 5244   1.919   0.229  10.102  0.0764 -0.8422 -0.0321
  350MPD2    C4 5245   1.843   0.345  10.079 -0.0410  0.0846  0.0981
  350MPD2    C5 5246   1.714   0.338  10.028 -0.6627  0.1601  0.3952
  350MPD2     H 5247   1.912   0.023  10.116 -1.0646 -0.7470 -1.9613
  350MPD2    H1 5248   1.886   0.444  10.089 -0.7334  0.1867  2.1865
  350MPD2    H2 5249   1.541   0.221   9.987  0.2482 -1.9615 -0.6411
  350MPD2    H3 5250   1.665   0.431  10.002  1.5799  0.7942 -1.5165
  350MPD2     N 5251   2.052   0.234  10.143 -0.2829 -0.6401 -0.2215
  350MPD2    H5 5252   2.090   0.140  10.150  2.3255  0.3470 -1.1964
  350MPD2    N1 5253   1.658   4.700  10.078 -0.1288 -0.5655 -0.0821
  350MPD2    H7 5254   1.727   4.627  10.091 -0.3007 -0.7318 -0.1159
  351TMC3    C1 5255   1.478   4.540  10.061  0.3798 -0.6199 -0.6052
  351TMC3    C2 5256   1.561   4.450  10.009  0.7214  0.1640  0.1903
  351TMC3    C3 5257   1.522   4.325   9.989 -0.0187 -0.3872  0.3754
  351TMC3    C4 5258   1.352   4.513  10.095  0.0707  0.5768 -0.1489
  351TMC3    C5 5259   1.307   4.388  10.077  0.0249 -0.6931  0.2833
  351TMC3    C6 5260   1.387   4.292  10.009  0.1026 -1.2345  0.0627
  351TMC3     C 5261   1.520   4.678  10.070  0.2002  0.1071  0.0178
  351TMC3     O 5262   1.421   0.030  10.072 -0.3479 -0.4160  0.6389
  351TMC3     H 5263   1.667   4.470   9.998  0.6710  1.2796  1.7436
  351TMC3    H1 5264   1.293   4.583  10.152  1.8001  0.8447  1.3257
  351TMC3    H2 5265   1.350   4.192   9.991  1.8638 -1.2602 -3.4582
  351TMC3    C7 5266   1.162   4.355  10.091  0.2741  0.3659 -0.4804
  351TMC3    C8 5267   1.617   4.211   9.977  0.4270  0.0335 -1.1671
  351TMC3    O1 5268   1.095   4.445  10.137 -0.1864 -0.7057 -0.0867
  351TMC3    O2 5269   1.559   4.107   9.935 -0.1147 -0.1414  0.2546
  352MPD2     C 5270   0.335   2.185   1.224  0.0325  0.5534 -0.4662
  352MPD2    C1 5271   0.264   2.076   1.182  0.2919 -0.0424 -0.2654
  352MPD2    C2 5272   0.333   1.950   1.194 -0.4997  0.3409  0.0035
  352MPD2    C3 5273   0.445   1.932   1.267  0.2166 -0.3280 -0.5190
  352MPD2    C4 5274   0.499   2.048   1.323  0.0387 -0.2934  0.0562
  352MPD2    C5 5275   0.447   2.172   1.290  0.4787 -0.1167 -0.1608
  352MPD2     H 5276   0.296   1.864   1.140 -0.0322  0.6418 -0.8011
  352MPD2    H1 5277   0.583   2.042   1.391  0.3883 -2.1704 -0.5526
  352MPD2    H2 5278   0.293   2.284   1.210 -1.4231  0.2290  1.5931
  352MPD2    H3 5279   0.479   2.264   1.337 -0.9985  2.2827 -3.9182
  352MPD2     N 5280   0.505   1.807   1.296 -0.2335 -0.0387 -0.1774
  352MPD2    H5 5281   0.591   1.803   1.350 -0.8596  0.5583  0.8623
  352MPD2    N1 5282   0.135   2.091   1.115 -0.0920  0.4193 -0.2447
  352MPD2    H7 5283   0.107   2.188   1.104  0.8060  0.4741 -2.1273
  353TMC3    C1 5284   0.545   1.566   1.292 -0.0142 -0.0900 -0.1852
  353TMC3    C2 5285   0.679   1.572   1.303  0.5855  0.2094 -0.3521
  353TMC3    C3 5286   0.748   1.461   1.266 -0.0444 -0.2211 -0.8129
  353TMC3    C4 5287   0.473   1.452   1.285 -0.4426  0.4413  0.1828
  353TMC3    C5 5288   0.546   1.335   1.265  0.1483  0.2505  0.1095
  353TMC3    C6 5289   0.683   1.343   1.254 -0.2198 -0.5191  1.1132
  353TMC3     C 5290   0.472   1.684   1.244 -0.0896  0.0093  0.0799
  353TMC3     O 5291   0.392   1.656   1.152 -0.2673  0.3590 -0.8688
  353TMC3     H 5292   0.732   1.666   1.296 -0.2000  0.8063  1.6881
  353TMC3    H1 5293   0.366   1.458   1.274 -0.2251  0.6188 -1.9709
  353TMC3    H2 5294   0.736   1.253   1.223 -0.6729  0.0773 -1.3766
  353TMC3    C7 5295   0.487   1.242   1.165  0.0517  0.5235 -0.2236
  353TMC3    C8 5296   0.890   1.472   1.244 -0.4900  0.2665  0.2284
  353TMC3    O1 5297   0.569   1.197   1.083 -0.0818 -0.0873 -0.1628
  353TMC3    O2 5298   0.959   1.555   1.301 -0.4353 -0.4120 -0.0398
  354TMC3    C1 5299   2.433   3.472  13.522  0.0211  0.4298 -0.0196
  354TMC3    C2 5300   2.441   3.606  13.471 -0.6352  0.0680 -0.7135
  354TMC3    C3 5301   2.534   3.634  13.373  0.4041  0.3434 -0.5178
  354TMC3    C4 5302   2.520   3.374  13.482 -0.7761  0.7968  0.2261
  354TMC3    C5 5303   2.601   3.409  13.378  0.6349  0.6530 -0.3032
  354TMC3    C6 5304   2.612   3.536  13.327  0.6946 -0.1663  0.4461
  354TMC3     C 5305   2.312   3.437  13.599 -0.0750 -0.4266 -0.1859
  354TMC3     O 5306   2.217   3.514  13.592 -0.2204  0.0324  0.0307
  354TMC3     H 5307   2.376   3.682  13.512  0.1170 -0.5428  1.6412
  354TMC3    H1 5308   2.516   3.269  13.506  0.0917  0.0067 -3.0231
  354TMC3    H2 5309   2.689   3.564  13.256  1.5592 -3.8473 -0.0887
  354TMC3    C7 5310   2.686   3.307  13.324  0.7999  0.2651  0.1386
  354TMC3    C8 5311   2.576   3.770  13.369  0.7001 -0.1680  0.8251
  354TMC3    O1 5312   2.716   3.209  13.391  0.1993  0.4171  0.4596
  354TMC3    O2 5313   2.490   3.858  13.374  0.4364 -0.1309 -0.0436
  355MPD2     C 5314   2.209   4.085  11.947  0.4093  0.2174  0.2007
  355MPD2    C1 5315   2.210   4.161  11.833 -0.2597 -0.1478 -0.7406
  355MPD2    C2 5316   2.328   4.229  11.803 -0.1707  0.0545  0.5558
  355MPD2    C3 5317   2.439   4.221  11.892 -0.0460 -0.1649 -0.1784
  355MPD2    C4 5318   2.428   4.146  12.001 -0.7656 -1.4301  0.4535
  355MPD2    C5 5319   2.319   4.071  12.027  0.3515  0.4302  0.1698
  355MPD2     H 5320   2.334   4.302  11.723  3.5678 -0.9841 -0.1171
  355MPD2    H1 5321   2.507   4.147  12.076  2.0940 -0.7364 -2.5428
  355MPD2    H2 5322   2.118   4.036  11.979 -0.8179  0.8602 -2.3491
  355MPD2    H3 5323   2.313   4.016  12.121 -1.2757  3.6885  1.9865
  355MPD2     N 5324   2.562   4.289  11.869 -0.0652 -0.2457  0.6248
  355MPD2    H5 5325   2.631   4.283  11.942  0.0815 -1.7079  0.3640
  355MPD2    N1 5326   2.085   4.168  11.769  1.2775  0.3679  0.2553
  355MPD2    H7 5327   2.023   4.090  11.790  2.0669 -0.9545 -2.2380
  356TMC3    C1 5328   2.698   4.457  11.762  0.1339  0.3923  0.1671
  356TMC3    C2 5329   2.753   4.529  11.663 -1.5889 -0.2099 -0.1752
  356TMC3    C3 5330   2.847   4.624  11.680  0.5925 -0.1646  1.0918
  356TMC3    C4 5331   2.737   4.491  11.894 -0.4591  0.4367  0.1115
  356TMC3    C5 5332   2.835   4.587  11.913 -0.9680  0.7007  0.3509
  356TMC3    C6 5333   2.892   4.651  11.808  0.8355 -0.0917  0.3361
  356TMC3     C 5334   2.592   4.355  11.743 -0.1542  0.2392 -0.6547
  356TMC3     O 5335   2.542   4.350  11.632  0.6272  0.2828  0.6447
  356TMC3     H 5336   2.720   4.506  11.562 -0.9459 -1.5003 -0.0903
  356TMC3    H1 5337   2.698   4.440  11.982  1.7189  1.2698  1.5626
  356TMC3    H2 5338   2.967   0.001  11.828  1.6205 -1.0527  0.9778
  356TMC3    C7 5339   2.907   4.580  12.040 -0.3093 -0.0851 -0.1279
  356TMC3    C8 5340   2.879   4.706  11.564  0.2116  0.1725 -0.3327
  356TMC3    O1 5341   2.879   4.483  12.112  0.0596  0.5458 -0.3501
  356TMC3    O2 5342   2.810   4.683  11.465  0.0964 -0.2068  0.0887
  357MPD2     C 5343   3.240   3.478   1.434  0.4198 -0.6726 -0.6662
  357MPD2    C1 5344   3.117   3.477   1.374  0.1578  0.4318 -0.0399
  357MPD2    C2 5345   3.016   3.547   1.434 -0.5111  0.2010 -0.3347
  357MPD2    C3 5346   3.026   3.621   1.551  0.7201 -0.5171  0.5717
  357MPD2    C4 5347   3.146   3.629   1.604  0.2718  0.3737 -0.3088
  357MPD2    C5 5348   3.246   3.555   1.548 -0.3297  0.3181  0.7959
  357MPD2     H 5349   2.918   3.526   1.392 -1.0254  0.5978  0.6603
  357MPD2    H1 5350   3.160   3.699   1.686  0.8075 -0.9977  0.7686
  357MPD2    H2 5351   3.326   3.443   1.378 -0.1596  0.5780 -2.3430
  357MPD2    H3 5352   3.347   3.562   1.588 -0.2785  0.6497  0.6054
  357MPD2     N 5353   2.916   3.696   1.611  0.1864 -0.2200  0.4822
  357MPD2    H5 5354   2.929   3.750   1.696  2.0303  0.1346 -0.0183
  357MPD2    N1 5355   3.099   3.406   1.249 -0.1833 -0.5090  0.2184
  357MPD2    H7 5356   3.180   3.351   1.221  0.2157  0.2609 -0.1383
  358TMC3    C1 5357   3.002   3.328   1.046  0.2091 -0.0288  0.5685
  358TMC3    C2 5358   2.897   3.343   0.967  0.2069  0.0152 -0.1853
  358TMC3    C3 5359   2.913   3.290   0.837  0.2421 -0.4013  0.1031
  358TMC3    C4 5360   3.121   3.278   1.008  0.1280 -0.0146 -0.1978
  358TMC3    C5 5361   3.135   3.229   0.881 -0.2392 -0.3667 -0.0149
  358TMC3    C6 5362   3.031   3.234   0.796 -0.5865  0.3077  0.5435
  358TMC3     C 5363   2.986   3.403   1.170  0.2196 -0.0333  0.7074
  358TMC3     O 5364   2.882   3.472   1.179  0.3290 -0.0518 -0.3882
  358TMC3     H 5365   2.797   3.368   0.999 -0.3960  0.0003 -2.0674
  358TMC3    H1 5366   3.196   3.258   1.084  1.2559 -0.2109 -1.3551
  358TMC3    H2 5367   3.032   3.203   0.692 -0.9588 -0.7822  0.8612
  358TMC3    C7 5368   3.256   3.155   0.850 -0.7020  0.3004 -0.0035
  358TMC3    C8 5369   2.807   3.288   0.741 -0.6381  0.6342 -0.2372
  358TMC3    O1 5370   3.354   3.196   0.916  0.5832  0.1866 -0.4828
  358TMC3    O2 5371   2.835   3.291   0.623 -0.3114 -0.0224 -0.1041
  359MPD2     C 5372   2.285   3.267  12.244  0.5983 -0.9324  0.2873
  359MPD2    C1 5373   2.256   3.205  12.124  0.4272  0.7011 -0.3679
  359MPD2    C2 5374   2.131   3.159  12.101 -0.6927  0.2302  0.4574
  359MPD2    C3 5375   2.023   3.194  12.188 -0.2240 -0.3724 -0.1828
  359MPD2    C4 5376   2.053   3.278  12.292 -0.5667 -0.6218 -0.5889
  359MPD2    C5 5377   2.179   3.314  12.309  0.1749  0.4702 -0.1342
  359MPD2     H 5378   2.123   3.086  12.021  0.2188  1.0809 -0.4084
  359MPD2    H1 5379   1.975   3.313  12.359  0.3439 -2.7810  1.5571
  359MPD2    H2 5380   2.384   3.301  12.270 -0.2017  1.5652  0.0685
  359MPD2    H3 5381   2.210   3.381  12.389  0.7043  0.9716 -0.7642
  359MPD2     N 5382   1.890   3.156  12.171 -0.7617 -0.3172 -0.7034
  359MPD2    H5 5383   1.827   3.164  12.250  1.5845 -0.6820  1.2059
  359MPD2    N1 5384   2.355   3.171  12.027 -0.1453  0.1644  0.3934
  359MPD2    H7 5385   2.330   3.101  11.958 -2.4972 -2.1740  3.5939
  360TMC3    C1 5386   2.578   3.180  11.933  0.1020  0.1479 -0.8101
  360TMC3    C2 5387   2.701   3.250  11.930 -0.0856 -0.8280 -0.1949
  360TMC3    C3 5388   2.803   3.204  11.855  0.5833 -0.0405 -0.2713
  360TMC3    C4 5389   2.561   3.075  11.844 -0.1179 -0.4070  0.4317
  360TMC3    C5 5390   2.668   3.037  11.766 -0.1109  0.5379  0.4420
  360TMC3    C6 5391   2.782   3.111  11.760 -0.2089  0.0380 -0.0461
  360TMC3     C 5392   2.482   3.221  12.035 -0.3521 -1.0205  0.0378
  360TMC3     O 5393   2.525   3.315  12.101  0.1960  0.0670  0.1217
  360TMC3     H 5394   2.722   3.321  12.009  1.2658 -1.8633  0.3850
  360TMC3    H1 5395   2.468   3.020  11.853  0.6863 -1.8890 -0.3856
  360TMC3    H2 5396   2.846   3.102  11.673  1.4356 -0.4772  1.2202
  360TMC3    C7 5397   2.648   2.939  11.656 -0.7072  0.1002  0.1407
  360TMC3    C8 5398   2.924   3.279  11.854 -0.6909  0.4578 -0.6993
  360TMC3    O1 5399   2.752   2.902  11.599  0.3056 -0.0714 -0.1402
  360TMC3    O2 5400   2.936   3.393  11.902  0.2584 -0.2273 -0.3107
  361MPD2     C 5401   3.451   1.311  16.822  0.8443  0.5072  0.1918
  361MPD2    C1 5402   3.513   1.417  16.877 -0.2665  0.0416  0.0879
  361MPD2    C2 5403   3.648   1.412  16.894  0.7510  0.1975  0.2340
  361MPD2    C3 5404   3.729   1.304  16.867  0.4316  0.3755  0.1149
  361MPD2    C4 5405   3.659   1.196  16.812  0.6940 -0.2064 -0.1635
  361MPD2    C5 5406   3.525   1.198  16.801 -0.4540 -0.2415 -0.3706
  361MPD2     H 5407   3.695   1.499  16.939 -0.6553  0.7954  0.5521
  361MPD2    H1 5408   3.713   1.111  16.772  1.2485 -1.2601  2.7857
  361MPD2    H2 5409   3.343   1.308  16.812  0.7516  0.5993  1.1368
  361MPD2    H3 5410   3.473   1.108  16.771  1.7500 -1.6314 -0.0979
  361MPD2     N 5411   3.862   1.299  16.914  0.3304 -0.8236 -0.6430
  361MPD2    H5 5412   3.908   1.210  16.897 -0.7810 -1.2354 -1.4949
  361MPD2    N1 5413   3.443   1.529  16.919 -0.1023  0.1284  0.3061
  361MPD2    H7 5414   3.504   1.608  16.938  0.1864  0.2477 -1.1354
  362TMC3    C1 5415   3.275   1.692  16.933  0.0713  0.2369 -0.2081
  362TMC3    C2 5416   3.165   1.731  16.993 -0.1238  0.2919 -0.3511
  362TMC3    C3 5417   3.129   1.860  17.011 -0.2204  0.0221 -0.7609
  362TMC3    C4 5418   3.337   1.781  16.850  0.2970 -0.3443  0.3366
  362TMC3    C5 5419   3.301   1.918  16.866  0.1895  0.4012 -1.1182
  362TMC3    C6 5420   3.205   1.959  16.955  0.1125 -0.3432  0.0767
  362TMC3     C 5421   3.306   1.551  16.916 -0.2234 -0.3714  0.5001
  362TMC3     O 5422   3.211   1.471  16.917  0.9730 -0.5552  0.0237
  362TMC3     H 5423   3.092   1.652  17.014 -1.0442  0.8155 -1.5795
  362TMC3    H1 5424   3.426   1.754  16.795  1.0205 -2.9914  2.8255
  362TMC3    H2 5425   3.180   2.063  16.970  0.7588 -0.0377 -0.9888
  362TMC3    C7 5426   3.332   2.014  16.756 -1.2772  0.3171 -0.0780
  362TMC3    C8 5427   2.990   1.888  17.033 -0.6488 -0.3448 -0.4414
  362TMC3    O1 5428   3.283   2.127  16.771  0.0686 -0.1518 -0.4106
  362TMC3    O2 5429   2.908   1.799  17.023  0.9470  0.7618  0.3032
  363TMC3    C1 5430   2.282   3.940   9.574 -0.0410  0.1601  0.0253
  363TMC3    C2 5431   2.393   3.904   9.654 -0.0695 -0.0794 -0.5839
  363TMC3    C3 5432   2.417   3.972   9.775 -0.0992  0.2925 -0.2307
  363TMC3    C4 5433   2.211   4.049   9.607  0.9084 -0.6359 -0.1647
  363TMC3    C5 5434   2.239   4.117   9.725 -0.6126 -0.5458  0.0249
  363TMC3    C6 5435   2.339   4.079   9.811  0.0935  0.2839 -0.6623
  363TMC3     C 5436   2.279   3.876   9.444  0.4294 -0.3875 -0.1083
  363TMC3     O 5437   2.359   3.795   9.401 -0.6971  0.0599  0.5242
  363TMC3     H 5438   2.460   3.838   9.600 -0.3037 -1.2950  0.5882
  363TMC3    H1 5439   2.168   4.107   9.526 -0.6669 -0.3512  0.8919
  363TMC3    H2 5440   2.358   4.126   9.907  1.1656 -2.0832  0.2856
  363TMC3    C7 5441   2.163   4.236   9.758 -0.8016 -0.3833 -0.6425
  363TMC3    C8 5442   2.542   3.954   9.854 -0.0817 -0.0755  0.2699
  363TMC3    O1 5443   2.215   4.322   9.829  0.5008 -0.0861 -0.2932
  363TMC3    O2 5444   2.563   4.032   9.945  0.2380 -0.1963  0.3905
  364MPD2     C 5445   1.252   3.618  10.813  0.3719  0.1528 -0.3250
  364MPD2    C1 5446   1.330   3.536  10.728  0.3460 -0.1854 -0.4957
  364MPD2    C2 5447   1.343   3.402  10.753  1.2061  0.6825 -0.5064
  364MPD2    C3 5448   1.280   3.351  10.865  0.3388  0.9198 -0.5400
  364MPD2    C4 5449   1.197   3.426  10.941  0.3160 -0.6214  0.5000
  364MPD2    C5 5450   1.177   3.561  10.911  0.7357  0.9336  0.5990
  364MPD2     H 5451   1.413   3.340  10.698  0.0647  0.3754 -1.6226
  364MPD2    H1 5452   1.146   3.382  11.025 -0.7148 -0.2003  0.0948
  364MPD2    H2 5453   1.262   3.726  10.803 -3.9175  0.6381  0.6833
  364MPD2    H3 5454   1.099   3.611  10.968 -1.4389  0.9224 -2.3616
  364MPD2     N 5455   1.301   3.219  10.904  0.4261 -0.0098  0.0076
  364MPD2    H5 5456   1.288   3.187  11.000 -0.3446  2.3230  0.6721
  364MPD2    N1 5457   1.398   3.611  10.625  0.4784  0.3300  0.6390
  364MPD2    H7 5458   1.384   3.711  10.620 -0.9482  0.0961 -0.2670
  365TMC3    C1 5459   1.584   3.660  10.490 -0.8101 -0.2891 -0.2379
  365TMC3    C2 5460   1.652   3.628  10.378  0.2184  0.5373  0.8324
  365TMC3    C3 5461   1.714   3.731  10.305  0.3444  0.3971 -0.1897
  365TMC3    C4 5462   1.576   3.786  10.535  0.0962 -0.0360 -0.1920
  365TMC3    C5 5463   1.632   3.887  10.461 -0.3210 -0.5016 -0.1822
  365TMC3    C6 5464   1.701   3.860  10.342  0.2205  0.1997  0.2751
  365TMC3     C 5465   1.513   3.559  10.566  0.1195 -0.2029 -0.2382
  365TMC3     O 5466   1.545   3.440  10.556 -0.4759  1.0553 -1.2720
  365TMC3     H 5467   1.650   3.526  10.342  2.1375  0.1590  1.7884
  365TMC3    H1 5468   1.556   3.807  10.640  0.5406 -1.0018  0.0808
  365TMC3    H2 5469   1.714   3.936  10.266 -1.6164  0.9364  0.7079
  365TMC3    C7 5470   1.647   4.026  10.513  0.0602 -0.2327 -0.2199
  365TMC3    C8 5471   1.718   3.699  10.161 -0.0849  0.3480 -0.2744
  365TMC3    O1 5472   1.736   4.090  10.465  0.4315  0.3810  0.0715
  365TMC3    O2 5473   1.641   3.776  10.101  0.2809  0.4278  0.5477
  366MPD2     C 5474   4.395   0.128  15.348 -0.2409 -0.1239  0.2239
  366MPD2    C1 5475   4.477   0.237  15.342 -0.4230  0.1992  0.3655
  366MPD2    C2 5476   4.617   0.226  15.351 -0.5730 -0.1189 -1.0276
  366MPD2    C3 5477   4.679   0.105  15.377  0.1094  0.0345  0.5976
  366MPD2    C4 5478   4.595   4.718  15.395 -0.4245 -0.2079 -0.0715
  366MPD2    C5 5479   4.463   0.013  15.375  0.5305  0.1846  0.8482
  366MPD2     H 5480   4.679   0.313  15.338  0.6448 -1.1788 -2.2903
  366MPD2    H1 5481   4.626   4.619  15.426  1.6036  0.6250  0.5080
  366MPD2    H2 5482   4.288   0.136  15.333 -0.2733 -1.3030 -0.1696
  366MPD2    H3 5483   4.398   4.651  15.374  2.9582 -1.6283  0.5178
  366MPD2     N 5484   0.097   0.107  15.389 -0.0144 -0.6572 -0.1151
  366MPD2    H5 5485   0.146   0.189  15.353 -1.5248  1.4484  2.6062
  366MPD2    N1 5486   4.430   0.364  15.335 -0.2833 -0.1632 -0.1935
  366MPD2    H7 5487   4.501   0.436  15.340 -1.0108  0.7323 -2.8296
  367TMC3    C1 5488   4.294   0.546  15.346  0.4630 -1.2798 -0.6673
  367TMC3    C2 5489   4.359   0.611  15.457  0.1560  0.7448 -0.5894
  367TMC3    C3 5490   4.356   0.746  15.476 -0.3516  0.4007 -1.1895
  367TMC3    C4 5491   4.203   0.625  15.276 -0.6145  0.0895  0.5260
  367TMC3    C5 5492   4.203   0.759  15.301 -0.1884  0.2852 -0.0183
  367TMC3    C6 5493   4.273   0.820  15.397  0.6989  0.2723 -0.6184
  367TMC3     C 5494   4.300   0.400  15.332  0.6099 -0.0725  0.2582
  367TMC3     O 5495   4.200   0.344  15.292  0.0591  0.0657 -0.0484
  367TMC3     H 5496   4.415   0.550  15.527 -1.0214 -0.6315 -0.8300
  367TMC3    H1 5497   4.136   0.586  15.201 -0.3190 -0.2760  0.4501
  367TMC3    H2 5498   4.283   0.928  15.401 -0.0751  0.3448 -0.6369
  367TMC3    C7 5499   4.093   0.839  15.257 -0.3212 -0.5754 -0.0487
  367TMC3    C8 5500   4.419   0.808  15.594  0.4306 -0.3380 -0.0567
  367TMC3    O1 5501   4.063   0.936  15.327  0.2106 -0.2718 -0.1191
  367TMC3    O2 5502   4.515   0.750  15.640  0.7226 -0.9211  0.2272
  368MPD2     C 5503   0.926   2.040  13.143 -0.2087  0.5374 -0.1597
  368MPD2    C1 5504   0.938   2.178  13.139  0.3887  0.0371 -0.6083
  368MPD2    C2 5505   1.049   2.233  13.072  0.7172 -0.6270  0.3385
  368MPD2    C3 5506   1.147   2.148  13.023  0.1136 -0.2379  0.7031
  368MPD2    C4 5507   1.124   2.017  13.017  0.1346  0.3493  0.3438
  368MPD2    C5 5508   1.020   1.962  13.085 -0.3523 -0.9208  0.8285
  368MPD2     H 5509   1.066   2.340  13.081 -1.3517 -0.0755 -2.3719
  368MPD2    H1 5510   1.197   1.943  12.989 -0.2245  1.4061 -3.3163
  368MPD2    H2 5511   0.837   2.000  13.190  0.4640  0.4862  1.0685
  368MPD2    H3 5512   1.008   1.854  13.082  1.5071 -1.1764  2.7424
  368MPD2     N 5513   1.269   2.195  12.971 -0.2168 -0.0340  0.7962
  368MPD2    H5 5514   1.341   2.130  12.942  0.6548 -0.0800  3.1674
  368MPD2    N1 5515   0.832   2.255  13.193  0.1789 -0.1281  0.4863
  368MPD2    H7 5516   0.760   2.198  13.237  0.0917 -0.6650 -0.3628
  369TMC3    C1 5517   0.691   2.444  13.203 -0.6372  0.6331  0.3054
  369TMC3    C2 5518   0.655   2.543  13.116 -0.3599  0.3999 -0.4695
  369TMC3    C3 5519   0.530   2.534  13.065 -0.7117 -0.1418 -0.2471
  369TMC3    C4 5520   0.606   2.344  13.254 -0.9300  0.3725 -0.2137
  369TMC3    C5 5521   0.480   2.347  13.203  0.0186 -0.0726 -0.0773
  369TMC3    C6 5522   0.440   2.437  13.103 -0.2504 -0.2831 -0.2051
  369TMC3     C 5523   0.822   2.392  13.166 -0.5634  0.3769 -0.0982
  369TMC3     O 5524   0.883   2.468  13.097  0.5232 -0.2832 -0.9914
  369TMC3     H 5525   0.725   2.626  13.113 -0.3868  0.5190  1.6026
  369TMC3    H1 5526   0.632   2.266  13.324 -0.5181  0.7551  0.0623
  369TMC3    H2 5527   0.338   2.432  13.065  0.3638 -0.3246 -1.8429
  369TMC3    C7 5528   0.392   2.240  13.260 -0.4841  0.3452  0.1990
  369TMC3    C8 5529   0.521   2.580  12.927  0.3397 -0.6620 -0.0809
  369TMC3    O1 5530   0.403   2.220  13.379  0.1988  0.3685 -0.3014
  369TMC3    O2 5531   0.416   2.564  12.869  0.4875 -0.0872  0.0351
  370TMC3    C1 5532   4.498   2.936  16.096  0.4465  0.4601  0.9069
  370TMC3    C2 5533   4.481   2.853  16.205 -0.3156 -0.1471 -0.4342
  370TMC3    C3 5534   4.504   2.719  16.181 -0.4607 -0.4033 -0.5039
  370TMC3    C4 5535   4.514   2.883  15.972  0.9608  0.1713  0.7960
  370TMC3    C5 5536   4.531   2.747  15.954 -0.2746 -0.5231 -0.7973
  370TMC3    C6 5537   4.540   2.668  16.058  0.0815  0.4714  0.5185
  370TMC3     C 5538   4.509   3.077  16.132  0.3051  0.5874  0.1371
  370TMC3     O 5539   4.461   3.119  16.236  0.1592  0.8521  0.2541
  370TMC3     H 5540   4.476   2.894  16.305  0.7622 -2.3976  0.5444
  370TMC3    H1 5541   4.512   2.944  15.882 -0.7812 -0.6832  0.2452
  370TMC3    H2 5542   4.540   2.562  16.034  1.9174  0.6434 -0.2247
  370TMC3    C7 5543   4.598   2.714  15.837 -0.2119  0.6829 -0.6758
  370TMC3    C8 5544   4.527   2.629  16.290  0.3133 -0.6249 -0.1201
  370TMC3    O1 5545   4.594   2.787  15.739  0.4764 -0.3928 -0.7986
  370TMC3    O2 5546   4.564   2.519  16.261 -0.1996  0.3224  0.3859
  371TMC3    C1 5547   1.529   1.415  15.490 -0.7637 -0.6066 -0.6938
  371TMC3    C2 5548   1.399   1.400  15.507 -0.0338 -0.4859  0.0844
  371TMC3    C3 5549   1.316   1.507  15.485 -0.3474 -1.0626 -0.5005
  371TMC3    C4 5550   1.587   1.533  15.442  0.2502 -0.0322  0.4619
  371TMC3    C5 5551   1.502   1.634  15.406 -0.4139 -0.3409  0.1799
  371TMC3    C6 5552   1.365   1.626  15.433 -0.2547  0.4734 -0.2170
  371TMC3     C 5553   1.622   1.306  15.526 -0.0719 -0.6338  0.2717
  371TMC3     O 5554   1.738   1.328  15.493 -0.5642 -0.1595 -0.3890
  371TMC3     H 5555   1.360   1.302  15.531 -0.9436 -0.1552 -0.0321
  371TMC3    H1 5556   1.694   1.545  15.432  0.1682 -0.7471 -1.3504
  371TMC3    H2 5557   1.303   1.703  15.389 -1.7166 -1.4421 -1.5492
  371TMC3    C7 5558   1.551   1.750  15.333 -0.0151  0.0464  0.1244
  371TMC3    C8 5559   1.187   1.510  15.548 -0.3467  0.5556  0.5705
  371TMC3    O1 5560   1.485   1.853  15.336 -0.5178 -0.6028  0.1374
  371TMC3    O2 5561   1.153   1.402  15.594  0.3725  0.1757  0.1977
  372MPD2     C 5562   1.219   2.510  13.393 -0.4907  0.4454 -0.0061
  372MPD2    C1 5563   1.301   2.403  13.435 -0.3924  0.3068 -0.0323
  372MPD2    C2 5564   1.237   2.299  13.494  0.1910  1.0880  0.1590
  372MPD2    C3 5565   1.099   2.279  13.510 -0.0577  0.3630 -0.6430
  372MPD2    C4 5566   1.018   2.377  13.457  0.9063 -0.6608  0.4513
  372MPD2    C5 5567   1.082   2.496  13.420 -0.0875 -0.1531 -0.0149
  372MPD2     H 5568   1.297   2.214  13.526 -0.9843 -0.1775 -0.9841
  372MPD2    H1 5569   0.910   2.368  13.455  1.0558 -2.2503 -0.2898
  372MPD2    H2 5570   1.252   2.599  13.341 -0.2762 -0.4246 -1.3742
  372MPD2    H3 5571   1.024   2.585  13.398 -1.9587 -1.0550  1.3190
  372MPD2     N 5572   1.049   2.158  13.560 -0.0293  0.0011 -0.3081
  372MPD2    H5 5573   1.123   2.096  13.592 -0.1972 -0.1307 -0.1829
  372MPD2    N1 5574   1.443   2.402  13.424 -0.5251  0.2229  1.3008
  372MPD2    H7 5575   1.493   2.330  13.476 -1.8253 -2.0924 -0.6441
  373TMC3    C1 5576   0.930   1.988  13.628  1.0093 -0.0463  0.5482
  373TMC3    C2 5577   0.833   1.944  13.714 -0.4695 -0.1723 -0.2793
  373TMC3    C3 5578   0.856   1.828  13.783 -0.0764 -0.0899 -0.2601
  373TMC3    C4 5579   1.049   1.920  13.614  0.6734 -0.4075  0.2165
  373TMC3    C5 5580   1.062   1.797  13.678  0.0845 -0.2846 -0.5193
  373TMC3    C6 5581   0.963   1.751  13.765  0.8067 -0.1854  0.8013
  373TMC3     C 5582   0.932   2.117  13.568 -0.6621  0.9872 -0.2320
  373TMC3     O 5583   0.823   2.169  13.555 -0.2348 -0.2455  0.4101
  373TMC3     H 5584   0.737   1.990  13.732 -0.6722 -0.2733 -1.0980
  373TMC3    H1 5585   1.127   1.947  13.545  0.4103  0.4165  0.2435
  373TMC3    H2 5586   0.955   1.647  13.795 -0.3018 -0.2504  0.2768
  373TMC3    C7 5587   1.173   1.711  13.640  0.1590  0.1552 -0.3114
  373TMC3    C8 5588   0.736   1.755  13.797 -0.4035 -0.7597 -0.3971
  373TMC3    O1 5589   1.205   1.711  13.521 -0.3838  0.3892 -0.2296
  373TMC3    O2 5590   0.662   1.777  13.702  0.1066 -0.1066 -0.0218
  374TMC3    C1 5591   1.960   2.004   9.487  0.0201  0.1026  0.4370
  374TMC3    C2 5592   2.030   2.105   9.537 -0.4343  0.5248 -0.6990
  374TMC3    C3 5593   2.060   2.213   9.456  0.3175  0.1660  0.2130
  374TMC3    C4 5594   1.919   2.005   9.354 -0.2264 -0.0758  0.1737
  374TMC3    C5 5595   1.958   2.108   9.274 -0.2175 -0.3850 -0.0327
  374TMC3    C6 5596   2.032   2.218   9.324 -0.1444 -0.0442  0.1232
  374TMC3     C 5597   1.905   1.903   9.577 -0.1403 -0.1140  0.1051
  374TMC3     O 5598   1.842   1.811   9.527  0.2673 -0.1109 -0.0566
  374TMC3     H 5599   2.081   2.088   9.631 -1.7849  0.0772 -0.0455
  374TMC3    H1 5600   1.854   1.927   9.317 -1.4340  1.2450 -0.5127
  374TMC3    H2 5601   2.062   2.301   9.261  0.3066 -0.0652  0.3088
  374TMC3    C7 5602   1.897   2.124   9.146  0.1498 -0.2792 -0.0763
  374TMC3    C8 5603   2.115   2.340   9.510  0.1042 -0.4324 -0.7155
  374TMC3    O1 5604   1.938   2.225   9.084 -0.0645  0.4812  0.1489
  374TMC3    O2 5605   2.127   2.431   9.430 -0.5935  0.1116  0.3207
  375MPD2     C 5606   1.178   3.115  16.957 -0.1423 -0.1214 -0.4049
  375MPD2    C1 5607   1.088   3.161  16.863 -0.4345  0.4421  0.2399
  375MPD2    C2 5608   1.135   3.180  16.732 -0.0837 -0.0089  0.4395
  375MPD2    C3 5609   1.268   3.166  16.698  0.2103 -0.6104 -0.2807
  375MPD2    C4 5610   1.353   3.114  16.793 -0.0654  0.0710 -0.2508
  375MPD2    C5 5611   1.307   3.089  16.920  0.2470 -0.2554 -0.2624
  375MPD2     H 5612   1.062   3.218  16.661 -1.1081 -1.5589  0.6496
  375MPD2    H1 5613   1.457   3.099  16.770 -0.1032  1.0205 -1.0368
  375MPD2    H2 5614   1.149   3.081  17.056 -0.5417 -0.8845 -0.7848
  375MPD2    H3 5615   1.375   3.039  16.988 -0.0309 -1.9263 -1.1979
  375MPD2     N 5616   1.324   3.159  16.572  0.5850  0.3870 -0.2577
  375MPD2    H5 5617   1.420   3.129  16.559  0.2538 -1.3791  1.4550
  375MPD2    N1 5618   0.955   3.184  16.891 -0.1041  0.0591  0.1893
  375MPD2    H7 5619   0.879   3.193  16.824  0.1183  3.6314  0.4447
  376TMC3    C1 5620   1.360   3.211  16.349 -0.5985  0.5169 -0.0877
  376TMC3    C2 5621   1.490   3.166  16.372 -0.6979  0.9432 -0.6552
  376TMC3    C3 5622   1.566   3.162  16.260 -0.3363  0.1411 -0.3644
  376TMC3    C4 5623   1.312   3.242  16.226  0.3816 -0.2953 -0.8206
  376TMC3    C5 5624   1.399   3.219  16.122  0.4606 -0.0603  0.1676
  376TMC3    C6 5625   1.523   3.172  16.131 -0.1636  0.5776 -0.0928
  376TMC3     C 5626   1.266   3.201  16.456 -0.1855  0.2801  0.5573
  376TMC3     O 5627   1.152   3.251  16.442 -0.9268  0.4577 -0.5097
  376TMC3     H 5628   1.537   3.179  16.469  1.4082  1.2038 -1.7198
  376TMC3    H1 5629   1.208   3.261  16.206  0.4514 -1.0267 -1.9117
  376TMC3    H2 5630   1.594   3.192  16.052 -2.3090  1.8860 -1.6982
  376TMC3    C7 5631   1.344   3.243  15.992 -0.2042  0.2144  0.2991
  376TMC3    C8 5632   1.705   3.118  16.275  0.3489  0.1979  0.2608
  376TMC3    O1 5633   1.239   3.301  15.981 -0.2370 -0.2347 -0.6683
  376TMC3    O2 5634   1.783   3.154  16.185 -0.4172 -0.1781 -0.6847
  377MPD2     C 5635   4.233   2.203  12.538  0.0013  0.1922  0.4864
  377MPD2    C1 5636   4.311   2.166  12.639 -1.0293 -0.6194  0.1609
  377MPD2    C2 5637   4.257   2.106  12.752  0.0070  0.0713  0.7919
  377MPD2    C3 5638   4.122   2.074  12.756 -0.2143  0.3687  1.2582
  377MPD2    C4 5639   4.046   2.101  12.653  0.3718 -0.3128  0.0248
  377MPD2    C5 5640   4.100   2.179  12.547 -0.1352 -0.2871  0.6237
  377MPD2     H 5641   4.310   2.089  12.844  0.0454 -3.8745  0.0262
  377MPD2    H1 5642   3.941   2.076  12.662  0.4780 -0.7794 -0.0379
  377MPD2    H2 5643   4.270   2.254  12.450  2.2804 -0.7100  0.9391
  377MPD2    H3 5644   4.034   2.207  12.465  1.3899 -0.8297 -0.7989
  377MPD2     N 5645   4.069   2.015  12.873 -0.8647  0.4558  0.3429
  377MPD2    H5 5646   3.970   1.995  12.874 -0.7318 -0.2004  0.5642
  377MPD2    N1 5647   4.454   2.204  12.628  0.0669  0.4497  0.9126
  377MPD2    H7 5648   4.490   2.230  12.536  0.5665 -1.6358  0.5243
  378TMC3    C1 5649   0.048   2.457  12.565  0.1383 -0.1823 -0.2719
  378TMC3    C2 5650   4.673   2.364  12.571 -0.0358 -0.0329  0.2132
  378TMC3    C3 5651   4.674   2.275  12.677  0.2745  0.0522 -0.6005
  378TMC3    C4 5652   0.155   2.435  12.642 -0.0833  0.3930  0.2263
  378TMC3    C5 5653   0.165   2.331  12.732 -0.2139  0.0902 -0.0113
  378TMC3    C6 5654   0.058   2.254  12.757 -0.4050  0.1339 -0.0866
  378TMC3     C 5655   0.042   2.561  12.464  1.1456 -0.3661 -0.4246
  378TMC3     O 5656   4.671   2.548  12.389  0.1648  0.4151 -0.7379
  378TMC3     H 5657   4.586   2.388  12.512  1.0104  1.6211 -0.6499
  378TMC3    H1 5658   0.233   2.510  12.642 -0.1218  0.4329  0.1432
  378TMC3    H2 5659   0.060   2.181  12.837  0.1071  1.9462  1.5528
  378TMC3    C7 5660   0.296   2.290  12.790  0.3094  0.6709 -0.9279
  378TMC3    C8 5661   4.545   2.220  12.729  0.5814  0.2553  0.2055
  378TMC3    O1 5662   0.311   2.237  12.904  0.0448  0.1107  0.0556
  378TMC3    O2 5663   4.538   2.186  12.846  0.3608 -0.0192 -0.3713
  379MPD2     C 5664   0.175   0.734  16.605  1.1141 -0.6255 -0.3697
  379MPD2    C1 5665   0.256   0.691  16.498  0.5744 -0.2498 -0.5859
  379MPD2    C2 5666   0.349   0.586  16.511  0.2597  0.0618  0.5485
  379MPD2    C3 5667   0.344   0.509  16.633  0.0397  0.0263  0.4215
  379MPD2    C4 5668   0.251   0.543  16.731 -0.0964 -0.4213  0.1257
  379MPD2    C5 5669   0.178   0.657  16.721 -0.3557 -0.0657  0.3626
  379MPD2     H 5670   0.413   0.553  16.431 -0.0707 -0.3386  0.4471
  379MPD2    H1 5671   0.242   0.480  16.819 -1.9928  2.8289  2.2423
  379MPD2    H2 5672   0.112   0.821  16.592 -0.0908 -1.4961 -0.3175
  379MPD2    H3 5673   0.109   0.687  16.799 -0.4842  0.7503 -0.0583
  379MPD2     N 5674   0.440   0.403  16.659  0.0471  0.1732  0.5350
  379MPD2    H5 5675   0.438   0.369  16.755  3.1988  1.2094  0.9870
  379MPD2    N1 5676   0.254   0.768  16.375  0.0827  0.0688  0.1181
  379MPD2    H7 5677   0.193   0.848  16.378  0.5710  0.4053  1.1097
  380TMC3    C1 5678   0.311   0.868  16.171  0.0298  0.1273  0.1688
  380TMC3    C2 5679   0.400   0.881  16.075  0.0858  0.0679  0.0417
  380TMC3    C3 5680   0.399   1.000  16.009  0.0971  0.3541 -0.7371
  380TMC3    C4 5681   0.203   0.957  16.179  0.0736 -0.3572  0.0770
  380TMC3    C5 5682   0.199   1.070  16.101  0.3806  0.7389 -0.7499
  380TMC3    C6 5683   0.300   1.094  16.019 -0.6602 -0.0920  0.4165
  380TMC3     C 5684   0.334   0.754  16.262  0.4965 -0.1142 -0.2607
  380TMC3     O 5685   0.437   0.690  16.244 -0.2558 -0.0026 -0.5741
  380TMC3     H 5686   0.489   0.822  16.057 -0.7180 -1.6009  1.5824
  380TMC3    H1 5687   0.122   0.938  16.249  1.1393 -1.3585  1.0472
  380TMC3    H2 5688   0.287   1.172  15.945  1.2913  2.6136  2.9463
  380TMC3    C7 5689   0.074   1.123  16.051  0.3319  0.3112 -0.2952
  380TMC3    C8 5690   0.474   1.009  15.885 -0.5062 -0.1416 -0.0185
  380TMC3    O1 5691   0.036   1.232  16.088  0.4965  0.1668  0.4578
  380TMC3    O2 5692   0.481   1.119  15.833  0.3045  0.0878  1.0451
  381TMC3    C1 5693   0.129   1.951  16.022  0.3313  0.1203  0.5178
  381TMC3    C2 5694   0.208   2.060  16.028  0.2710 -0.0456 -0.3244
  381TMC3    C3 5695   0.180   2.145  16.133 -0.2089  0.5051  0.1177
  381TMC3    C4 5696   0.041   1.915  16.117  0.5696  0.1470  0.1933
  381TMC3    C5 5697   0.032   1.988  16.227  0.1480  0.4258  0.6561
  381TMC3    C6 5698   0.093   2.110  16.230 -0.7329 -0.0663  0.1203
  381TMC3     C 5699   0.186   1.843  15.937 -0.7640 -0.3240  0.3657
  381TMC3     O 5700   0.296   1.865  15.884  0.1254  0.4487  0.5266
  381TMC3     H 5701   0.282   2.078  15.950  1.8896 -2.5520  0.6070
  381TMC3    H1 5702   0.004   1.813  16.120  0.3968  0.1960 -0.2832
  381TMC3    H2 5703   0.071   2.176  16.313 -0.8295 -0.5463  0.4759
  381TMC3    C7 5704   4.700   1.920  16.343 -0.3811 -0.2693 -0.1896
  381TMC3    C8 5705   0.258   2.269  16.130 -0.2651 -0.0993  0.5442
  381TMC3    O1 5706   0.007   1.803  16.357 -0.3647  0.3932  0.1510
  381TMC3    O2 5707   0.349   2.272  16.052  0.0240  0.2949  0.3163
  382MPD2     C 5708   3.884   4.502  17.501  0.5332 -0.9074 -0.2914
  382MPD2    C1 5709   4.016   4.512  17.462  0.3888  0.4575  0.0895
  382MPD2    C2 5710   4.079   4.416  17.383 -0.0445 -0.6214 -0.4661
  382MPD2    C3 5711   4.001   4.307  17.345 -0.2305 -0.0079 -0.2136
  382MPD2    C4 5712   3.866   4.301  17.378 -0.7115  0.7298  0.6362
  382MPD2    C5 5713   3.808   4.399  17.450 -0.0699  0.3229  0.2890
  382MPD2     H 5714   4.185   4.420  17.364 -0.2147  1.3849 -0.9723
  382MPD2    H1 5715   3.803   4.218  17.350  1.0041 -0.1448 -0.7057
  382MPD2    H2 5716   3.841   4.586  17.554  2.5147 -0.8136  1.1641
  382MPD2    H3 5717   3.705   4.395  17.482 -0.1043 -1.3203  0.0085
  382MPD2     N 5718   4.040   4.191  17.279 -0.0042  0.5686 -0.4176
  382MPD2    H5 5719   3.967   4.120  17.275 -2.0803  2.7563 -1.0342
  382MPD2    N1 5720   4.111   4.609  17.512  0.0275 -0.2130 -0.6180
  382MPD2    H7 5721   4.205   4.590  17.481  0.3014  1.7743 -1.0148
  383TMC3    C1 5722   4.184   4.025  17.198 -0.4744  0.9376  0.0524
  383TMC3    C2 5723   4.082   3.955  17.145  0.0044 -0.4972  0.0806
  383TMC3    C3 5724   4.106   3.829  17.089 -0.3620  0.4699 -0.0167
  383TMC3    C4 5725   4.315   3.981  17.190  0.0223 -0.2818 -0.4252
  383TMC3    C5 5726   4.330   3.857  17.131  0.1355  0.0665  0.3405
  383TMC3    C6 5727   4.228   3.775  17.080 -0.8332  0.0084  0.0326
  383TMC3     C 5728   4.172   4.163  17.245 -0.5221  0.1139 -0.4118
  383TMC3     O 5729   4.272   4.228  17.269  0.1554 -0.2962  0.0103
  383TMC3     H 5730   3.981   3.993  17.150  0.0065 -0.6104  1.0483
  383TMC3    H1 5731   4.398   4.040  17.228  1.2266 -0.8000 -2.2628
  383TMC3    H2 5732   4.243   3.668  17.082 -0.5800  0.0920  3.3332
  383TMC3    C7 5733   4.465   3.811  17.108  0.4778 -0.5560 -0.3549
  383TMC3    C8 5734   3.991   3.749  17.056  0.2707 -0.7121  0.4132
  383TMC3    O1 5735   4.480   3.696  17.066  0.3028 -0.0041 -0.0883
  383TMC3    O2 5736   3.882   3.795  17.076  0.0242  0.1513  0.1677
  384MPD2     C 5737   1.777   0.268  12.359  0.3197  0.5538  0.1881
  384MPD2    C1 5738   1.694   0.231  12.464  0.1321  0.2780  0.1258
  384MPD2    C2 5739   1.588   0.141  12.434  0.4136  0.1306 -0.8660
  384MPD2    C3 5740   1.570   0.095  12.303  0.3325  0.0389  0.4412
  384MPD2    C4 5741   1.653   0.140  12.202 -0.2282 -0.0297  0.0024
  384MPD2    C5 5742   1.753   0.226  12.238 -0.4741  0.4698  0.1440
  384MPD2     H 5743   1.529   0.118  12.522  1.6421  0.3864  0.0347
  384MPD2    H1 5744   1.644   0.106  12.100 -1.1722  4.6295 -1.4838
  384MPD2    H2 5745   1.868   0.326  12.372  0.1803  0.2793  2.3368
  384MPD2    H3 5746   1.827   0.264  12.168  1.5395  0.2715  2.1520
  384MPD2     N 5747   1.479   4.716  12.264  0.5376  0.1565 -1.0670
  384MPD2    H5 5748   1.485   4.678  12.170 -3.4479 -1.1524 -0.8035
  384MPD2    N1 5749   1.699   0.284  12.593 -0.4115  0.0365  0.5886
  384MPD2    H7 5750   1.635   0.241  12.658 -0.3640  0.2223  0.7578
  385TMC3    C1 5751   1.319   4.551  12.308 -0.0122  0.1784 -0.8729
  385TMC3    C2 5752   1.368   4.504  12.188  0.3002 -0.3529  0.3749
  385TMC3    C3 5753   1.428   4.377  12.184 -0.0685  0.8278 -0.0958
  385TMC3    C4 5754   1.314   4.467  12.419 -0.8177  0.4093 -0.6600
  385TMC3    C5 5755   1.378   4.347  12.413 -0.2514  0.0011  0.6204
  385TMC3    C6 5756   1.433   4.297  12.295 -0.3420 -0.9917 -1.2806
  385TMC3     C 5757   1.390   4.666  12.357  0.2817 -0.6042  0.3138
  385TMC3     O 5758   1.385   4.687  12.479 -0.1928  0.4671 -0.0028
  385TMC3     H 5759   1.376   4.569  12.102  2.9557 -0.1663  0.7763
  385TMC3    H1 5760   1.250   4.492  12.503 -3.0516  1.2672 -2.6051
  385TMC3    H2 5761   1.485   4.202  12.291  1.6960 -0.0068  1.7515
  385TMC3    C7 5762   1.459   4.327  12.525  0.4673 -0.2261  0.6894
  385TMC3    C8 5763   1.488   4.329  12.058  0.1012 -0.2569 -0.1549
  385TMC3    O1 5764   1.502   4.212  12.546  0.1965 -0.2379 -0.2082
  385TMC3    O2 5765   1.574   4.243  12.058  0.1795 -0.4622 -0.4774
  386TMC3    C1 5766   1.291   1.928  11.545  0.2156  0.4694  0.2876
  386TMC3    C2 5767   1.400   1.995  11.501 -0.0604  0.6488 -0.5414
  386TMC3    C3 5768   1.386   2.134  11.490  0.3655 -0.1831  0.4919
  386TMC3    C4 5769   1.172   1.993  11.578 -0.5267 -0.2195 -0.3538
  386TMC3    C5 5770   1.175   2.127  11.572  0.0324 -0.2606 -0.1526
  386TMC3    C6 5771   1.277   2.202  11.527 -0.3152  0.3377  0.0310
  386TMC3     C 5772   1.279   1.785  11.530 -0.3169 -0.6271 -0.2903
  386TMC3     O 5773   1.177   1.738  11.478 -0.0467  0.2986  0.4544
  386TMC3     H 5774   1.488   1.947  11.461  1.8247  2.1512  1.8730
  386TMC3    H1 5775   1.091   1.945  11.631  0.1104 -1.1528 -0.2317
  386TMC3    H2 5776   1.263   2.309  11.516 -0.7422 -0.0519 -3.1003
  386TMC3    C7 5777   1.077   2.193  11.657  0.1216 -0.4437  0.5631
  386TMC3    C8 5778   1.469   2.202  11.392 -0.4942  0.0202  0.1403
  386TMC3    O1 5779   0.960   2.152  11.663 -0.5001  0.2935  0.6497
  386TMC3    O2 5780   1.423   2.314  11.361 -0.3307  0.7132 -0.7134
  387MPD2     C 5781   3.621   2.482   9.075 -0.8552 -0.3249  0.3519
  387MPD2    C1 5782   3.721   2.515   9.159 -0.6841 -0.4681 -0.3649
  387MPD2    C2 5783   3.803   2.417   9.216  0.5082  0.0754  0.5673
  387MPD2    C3 5784   3.770   2.282   9.202 -0.4580 -0.5682 -0.2190
  387MPD2    C4 5785   3.666   2.253   9.116 -0.8876 -0.2842 -0.0546
  387MPD2    C5 5786   3.599   2.350   9.051  0.5554 -0.2132  0.0003
  387MPD2     H 5787   3.889   2.448   9.275 -0.0245 -0.1798  1.4724
  387MPD2    H1 5788   3.642   2.150   9.090  1.9628 -0.9104 -0.1419
  387MPD2    H2 5789   3.539   2.550   9.050 -1.6749 -1.7455 -0.8165
  387MPD2    H3 5790   3.518   2.317   8.986  0.3905  1.1275 -0.4687
  387MPD2     N 5791   3.837   2.185   9.276  0.3467 -0.2968  0.4067
  387MPD2    H5 5792   3.910   2.223   9.337  1.4374 -2.3361  0.3550
  387MPD2    N1 5793   3.757   2.653   9.192  0.5315  0.3626  0.4512
  387MPD2    H7 5794   3.846   2.664   9.241  1.3727  1.1934 -1.2488
  388TMC3    C1 5795   3.706   2.866   9.285  0.0057 -0.4537 -0.3376
  388TMC3    C2 5796   3.611   2.968   9.296  0.8701  0.2308 -0.0182
  388TMC3    C3 5797   3.601   3.027   9.420  0.0768  0.1263 -0.0119
  388TMC3    C4 5798   3.791   2.829   9.387  0.3083 -0.6268  0.5108
  388TMC3    C5 5799   3.778   2.903   9.505  0.1074  0.2677 -0.5459
  388TMC3    C6 5800   3.675   2.985   9.528  0.6193 -0.8305  0.4975
  388TMC3     C 5801   3.678   2.762   9.176  0.0760  0.0198  0.3894
  388TMC3     O 5802   3.574   2.777   9.110 -0.2068  0.3535 -1.1628
  388TMC3     H 5803   3.541   2.980   9.214  0.2799  1.0298  0.5978
  388TMC3    H1 5804   3.883   2.777   9.364  0.1884 -0.3020 -0.7062
  388TMC3    H2 5805   3.651   3.030   9.624  0.7218 -2.9041  1.4822
  388TMC3    C7 5806   3.827   2.835   9.622  0.3751 -0.3772 -0.2110
  388TMC3    C8 5807   3.526   3.148   9.411 -0.2269 -0.0485  0.5571
  388TMC3    O1 5808   3.828   2.893   9.728 -0.2518 -0.0110  0.3392
  388TMC3    O2 5809   3.443   3.159   9.324 -0.5210  1.0547 -0.4120
  389MPD2     C 5810   3.021   1.124  11.317  0.0463 -0.0140  0.2240
  389MPD2    C1 5811   2.986   1.010  11.258  0.1638  0.2605  0.1091
  389MPD2    C2 5812   2.943   0.907  11.332  0.0129 -0.6768 -0.1472
  389MPD2    C3 5813   2.930   0.924  11.469  1.1912  1.3561  0.5137
  389MPD2    C4 5814   2.943   1.048  11.523 -0.2660  0.2235 -0.3270
  389MPD2    C5 5815   2.998   1.143  11.447  0.2715 -0.5929  0.3293
  389MPD2     H 5816   2.921   0.815  11.278 -0.4318 -1.9543  2.2200
  389MPD2    H1 5817   2.940   1.068  11.630 -1.5085  1.4805 -0.6032
  389MPD2    H2 5818   3.061   1.205  11.257 -1.0676 -0.4489 -1.0898
  389MPD2    H3 5819   3.017   1.243  11.484 -1.0044 -0.1118 -0.3318
  389MPD2     N 5820   2.876   0.824  11.554 -0.2562 -0.0393 -0.1660
  389MPD2    H5 5821   2.853   0.847  11.651  0.0310 -0.9400  0.1136
  389MPD2    N1 5822   3.001   1.001  11.119  0.3688 -0.3420  0.0383
  389MPD2    H7 5823   3.061   1.073  11.080  1.3981 -0.2963  1.7104
  390TMC3    C1 5824   2.816   0.633  11.646 -0.4676  0.3953  0.4991
  390TMC3    C2 5825   2.864   0.501  11.662 -0.4553 -0.0052 -0.4077
  390TMC3    C3 5826   2.838   0.444  11.784 -0.3389 -0.3371 -0.7525
  390TMC3    C4 5827   2.737   0.691  11.738 -0.2415 -0.1568 -0.6225
  390TMC3    C5 5828   2.694   0.624  11.850  0.2733  0.2067 -0.0204
  390TMC3    C6 5829   2.768   0.515  11.879 -1.0118 -0.0773  0.3092
  390TMC3     C 5830   2.865   0.693  11.526 -0.1148 -0.0440 -0.1108
  390TMC3     O 5831   2.924   0.630  11.442 -0.1046 -0.1478  0.0523
  390TMC3     H 5832   2.920   0.443  11.589  0.7153  1.0001 -0.3044
  390TMC3    H1 5833   2.680   0.778  11.710 -0.6080 -0.7382 -1.6834
  390TMC3    H2 5834   2.772   0.485  11.983  1.4951 -1.1844 -0.1133
  390TMC3    C7 5835   2.553   0.587  11.825 -0.0670 -0.4664  0.0364
  390TMC3    C8 5836   2.791   0.303  11.774  0.3101 -0.2815  0.0819
  390TMC3    O1 5837   2.515   0.607  11.710  0.0903 -0.3135  0.1600
  390TMC3    O2 5838   2.745   0.274  11.661 -0.2751  0.1057  0.1600
  391MPD2     C 5839   2.507   1.970  11.018 -0.4793  0.2835  0.1228
  391MPD2    C1 5840   2.611   2.059  10.994 -0.1058 -0.0670 -0.2437
  391MPD2    C2 5841   2.627   2.102  10.864  0.2944  0.8033  0.1881
  391MPD2    C3 5842   2.546   2.053  10.764  0.0446 -0.4858  0.5890
  391MPD2    C4 5843   2.445   1.966  10.789 -0.6582  0.1620  0.0643
  391MPD2    C5 5844   2.429   1.921  10.918 -0.0828 -0.2939 -0.4296
  391MPD2     H 5845   2.703   2.172  10.833  0.5789  0.6548  0.5435
  391MPD2    H1 5846   2.369   1.937  10.718 -0.0455 -0.8119 -0.1961
  391MPD2    H2 5847   2.479   1.929  11.114  1.4052  0.1833  0.6228
  391MPD2    H3 5848   2.342   1.864  10.947 -0.5774  0.9116  0.4743
  391MPD2     N 5849   2.558   2.107  10.634 -0.0814  0.1842 -0.1465
  391MPD2    H5 5850   2.637   2.170  10.620  0.0323 -0.1938 -1.2072
  391MPD2    N1 5851   2.680   2.105  11.105  0.2061  0.5133  0.4615
  391MPD2    H7 5852   2.649   2.075  11.196 -0.7062 -0.7508 -0.2611
  392TMC3    C1 5853   2.503   2.188  10.422  0.2095  0.1935 -0.0450
  392TMC3    C2 5854   2.404   2.221  10.335  0.0709  0.1851 -0.7627
  392TMC3    C3 5855   2.431   2.310  10.233  0.2688 -0.0918 -0.1137
  392TMC3    C4 5856   2.634   2.235  10.406  0.2863 -0.0902  0.0755
  392TMC3    C5 5857   2.664   2.317  10.304  0.4501  1.3167  0.0305
  392TMC3    C6 5858   2.559   2.358  10.220  0.1753 -0.5704 -0.1627
  392TMC3     C 5859   2.465   2.103  10.528  0.2046 -0.3306  1.0240
  392TMC3     O 5860   2.350   2.059  10.519  0.0744  0.2886 -0.0159
  392TMC3     H 5861   2.308   2.170  10.338  0.2563  0.0618  2.8931
  392TMC3    H1 5862   2.716   2.208  10.472 -0.0659 -0.2737  0.4382
  392TMC3    H2 5863   2.588   2.432  10.146  0.1795 -1.4167 -1.0135
  392TMC3    C7 5864   2.776   2.410  10.323 -0.0970 -0.1185 -0.1238
  392TMC3    C8 5865   2.333   2.331  10.126  0.0213 -0.3219 -0.4081
  392TMC3    O1 5866   2.810   2.416  10.441  0.2257 -0.3638  0.0709
  392TMC3    O2 5867   2.244   2.241  10.113 -0.1634 -0.2067  0.6258
  393TMC3    C1 5868   1.301   0.213  10.293  0.2612 -0.1708 -0.3319
  393TMC3    C2 5869   1.176   0.169  10.322  0.0438  0.0083  0.2270
  393TMC3    C3 5870   1.158   0.053  10.395  0.3976 -0.5359  0.5920
  393TMC3    C4 5871   1.408   0.139  10.337 -0.6034 -0.3996 -0.0292
  393TMC3    C5 5872   1.386   0.022  10.396  0.3758 -0.8083 -0.2521
  393TMC3    C6 5873   1.262   4.696  10.419  0.4051  1.3191 -0.0952
  393TMC3     C 5874   1.307   0.351  10.245 -0.3767  0.4751 -0.6074
  393TMC3     O 5875   1.210   0.408  10.206  0.5091  0.1124  0.2792
  393TMC3     H 5876   1.094   0.237  10.302  0.5063  0.3277 -0.5471
  393TMC3    H1 5877   1.509   0.167  10.311 -0.8206  1.4065  1.1023
  393TMC3    H2 5878   1.253   4.598  10.463  0.0371  2.0062  1.3421
  393TMC3    C7 5879   1.493   4.649  10.405  0.4317 -0.2487 -0.5508
  393TMC3    C8 5880   1.026   0.030  10.451 -0.2658 -0.1872 -0.5079
  393TMC3    O1 5881   1.461   4.531  10.395  0.2195  0.2422 -0.3992
  393TMC3    O2 5882   0.931   0.101  10.412  0.6382  0.3127 -0.1746
  394TMC3    C1 5883   2.981   0.934  10.915  0.0992 -0.5452 -0.8910
  394TMC3    C2 5884   2.883   0.931  10.824  0.1488  0.6720  0.1054
  394TMC3    C3 5885   2.918   0.953  10.696 -0.4772  0.2318 -0.0616
  394TMC3    C4 5886   3.111   0.959  10.884  0.0394 -0.3962 -0.2478
  394TMC3    C5 5887   3.144   0.969  10.757 -0.7222 -0.2328 -0.5389
  394TMC3    C6 5888   3.050   0.966  10.659  0.6107  0.1571 -0.1759
  394TMC3     C 5889   2.935   0.912  11.047 -0.6369 -0.2110  0.6197
  394TMC3     O 5890   2.835   0.842  11.076  0.0373  0.3934  0.2971
  394TMC3     H 5891   2.781   0.905  10.848  0.3110 -0.5561 -0.5182
  394TMC3    H1 5892   3.184   0.959  10.964  0.9788  0.1805 -1.1166
  394TMC3    H2 5893   3.078   1.001  10.560  2.6672  0.1847  0.4119
  394TMC3    C7 5894   3.280   1.003  10.722  1.2769 -0.1591 -0.0635
  394TMC3    C8 5895   2.821   0.904  10.593  0.2544 -0.3802  0.2539
  394TMC3    O1 5896   3.298   1.038  10.606  0.1852  0.0821 -0.0103
  394TMC3    O2 5897   2.705   0.894  10.623 -0.3929 -0.2601 -0.2343
  395TMC3    C1 5898   2.275   2.767  15.036  1.2625  0.2365 -0.1982
  395TMC3    C2 5899   2.251   2.690  14.928 -1.0883 -0.0784  0.4253
  395TMC3    C3 5900   2.325   2.724  14.814  0.1038 -0.9169 -0.1960
  395TMC3    C4 5901   2.366   2.873  15.038  0.3317 -0.5940 -0.9870
  395TMC3    C5 5902   2.433   2.899  14.924  0.4201  0.0362 -0.3224
  395TMC3    C6 5903   2.419   2.822  14.811 -0.3673 -0.4074  0.0454
  395TMC3     C 5904   2.243   2.697  15.161  0.6352  0.5065  0.2354
  395TMC3     O 5905   2.222   2.576  15.162 -0.2788  0.2218 -0.1902
  395TMC3     H 5906   2.191   2.601  14.916 -1.3162  0.1144  0.1398
  395TMC3    H1 5907   2.390   2.934  15.124 -0.8724 -0.2612 -0.8963
  395TMC3    H2 5908   2.454   2.861  14.715 -0.1296 -2.3577 -0.6520
  395TMC3    C7 5909   2.528   3.013  14.928  0.3992 -0.7209 -0.2144
  395TMC3    C8 5910   2.328   2.644  14.693 -0.1463 -0.3757  0.2599
  395TMC3    O1 5911   2.526   3.087  15.027  0.2069  0.2375 -0.6370
  395TMC3    O2 5912   2.412   2.667  14.610  0.5849  0.4167  0.1250
  396MPD2     C 5913   2.408   3.955  16.819 -0.9536  0.2579  0.5366
  396MPD2    C1 5914   2.519   4.006  16.891  0.1710  0.1634 -0.7625
  396MPD2    C2 5915   2.572   4.127  16.848 -0.5793 -0.8996  0.3735
  396MPD2    C3 5916   2.519   4.201  16.736 -0.4895 -0.4874 -0.1732
  396MPD2    C4 5917   2.408   4.146  16.673 -0.5206  0.1733  0.2233
  396MPD2    C5 5918   2.345   4.031  16.724  0.6269  0.2964  0.0229
  396MPD2     H 5919   2.654   4.176  16.900  2.5405 -1.7817 -3.6382
  396MPD2    H1 5920   2.360   4.192  16.588 -2.0515  2.9474  2.6099
  396MPD2    H2 5921   2.358   3.863  16.845  0.2293 -0.5085  0.1000
  396MPD2    H3 5922   2.255   3.999  16.672  1.9273 -3.2945  0.0232
  396MPD2     N 5923   2.574   4.330  16.707 -0.0279 -0.4895  0.0529
  396MPD2    H5 5924   2.651   4.353  16.769 -0.7846 -2.4485  1.7071
  396MPD2    N1 5925   2.554   3.915  16.996 -0.2214 -0.9003 -0.0629
  396MPD2    H7 5926   2.492   3.836  17.004 -2.4481  0.5998 -2.7893
  397TMC3    C1 5927   2.670   3.857  17.206 -0.3511 -0.2957 -0.2780
  397TMC3    C2 5928   2.804   3.840  17.232 -0.2778 -0.3910 -0.3264
  397TMC3    C3 5929   2.867   3.718  17.230 -0.2655  0.0914 -0.9220
  397TMC3    C4 5930   2.595   3.749  17.213 -0.4259  1.1194  0.1285
  397TMC3    C5 5931   2.652   3.620  17.224  0.0797  0.2956  0.2582
  397TMC3    C6 5932   2.786   3.607  17.234  0.7541 -0.3785  0.2015
  397TMC3     C 5933   2.654   3.948  17.086  0.8716  0.2607 -0.0496
  397TMC3     O 5934   2.725   4.050  17.090 -0.0893 -0.1792 -0.0394
  397TMC3     H 5935   2.869   3.919  17.198 -1.4723  1.2684  1.2122
  397TMC3    H1 5936   2.488   3.746  17.198 -0.3934  0.0387  0.0544
  397TMC3    H2 5937   2.836   3.511  17.238  1.6160  0.1771  2.2934
  397TMC3    C7 5938   2.567   3.513  17.260  0.3631  0.2225 -0.3356
  397TMC3    C8 5939   2.960   3.710  17.119  0.2360  0.8438 -0.2261
  397TMC3    O1 5940   2.449   3.514  17.229 -1.1265 -0.0087  0.1922
  397TMC3    O2 5941   2.919   3.655  17.015 -0.0912 -0.2709  0.0137
  398MPD2     C 5942   0.541   4.578   0.371 -0.4764  0.0598 -0.0010
  398MPD2    C1 5943   0.642   4.526   0.444  0.6405  0.7542 -0.2008
  398MPD2    C2 5944   0.731   4.614   0.499  0.9280 -0.0796 -0.2068
  398MPD2    C3 5945   0.727   0.020   0.459  0.3732  0.0551 -0.0850
  398MPD2    C4 5946   0.632   0.071   0.372 -0.1521 -0.0386 -0.1460
  398MPD2    C5 5947   0.537   4.709   0.342  0.0074 -0.2445 -0.2251
  398MPD2     H 5948   0.802   4.581   0.574  1.9847  2.7113  0.0122
  398MPD2    H1 5949   0.625   0.175   0.343 -1.2630  0.1767  0.9340
  398MPD2    H2 5950   0.462   4.512   0.336 -1.4268  2.1342 -1.7519
  398MPD2    H3 5951   0.451   0.024   0.290 -0.7346 -2.6147 -0.8317
  398MPD2     N 5952   0.840   0.100   0.504 -0.1130 -0.1936 -0.3322
  398MPD2    H5 5953   0.913   0.060   0.562  0.5281 -0.2042 -1.1475
  398MPD2    N1 5954   0.638   4.388   0.493 -0.3935 -0.1978 -0.2954
  398MPD2    H7 5955   0.702   4.363   0.568  0.8115  1.1287 -0.8724
  399TMC3    C1 5956   0.603   4.159   0.500 -0.0979  0.2318 -0.0683
  399TMC3    C2 5957   0.746   4.139   0.514 -0.4691  0.2126 -0.3360
  399TMC3    C3 5958   0.794   4.010   0.516  0.7246 -0.0042 -0.6716
  399TMC3    C4 5959   0.522   4.047   0.476 -0.3109  0.1065 -0.1980
  399TMC3    C5 5960   0.572   3.923   0.480 -0.0407  0.0190  0.3575
  399TMC3    C6 5961   0.705   3.902   0.493 -0.0812 -0.0924 -0.5960
  399TMC3     C 5962   0.559   4.289   0.451  0.0739 -0.0326  0.1050
  399TMC3     O 5963   0.456   4.289   0.387  0.3594  0.1086 -0.6634
  399TMC3     H 5964   0.818   4.220   0.516  0.2374 -0.3957 -1.0579
  399TMC3    H1 5965   0.416   4.062   0.459 -0.2914 -1.2263 -1.4650
  399TMC3    H2 5966   0.734   3.800   0.472 -0.5283  0.0036 -1.6750
  399TMC3    C7 5967   0.503   3.820   0.403  0.0429 -0.5025 -0.0378
  399TMC3    C8 5968   0.933   4.001   0.478 -0.4887  0.4877 -0.6979
  399TMC3    O1 5969   0.387   3.800   0.432  0.0228  0.2754  0.6038
  399TMC3    O2 5970   1.000   4.102   0.449  0.6406  0.0627  0.1422
  400TMC3    C1 5971   3.792   2.884  16.695  0.5421 -0.1642 -0.4953
  400TMC3    C2 5972   3.662   2.925  16.719  0.5003  0.7598 -0.2088
  400TMC3    C3 5973   3.634   3.051  16.678  0.1604 -0.1613 -0.4290
  400TMC3    C4 5974   3.886   2.957  16.632 -0.2805 -1.1258  1.1066
  400TMC3    C5 5975   3.851   3.080  16.595 -0.1931 -0.8477 -0.1759
  400TMC3    C6 5976   3.724   3.123  16.614 -0.0755  0.3052  0.4599
  400TMC3     C 5977   3.842   2.760  16.759  0.4306 -0.2110  0.3103
  400TMC3     O 5978   3.905   2.692  16.679  0.1341  0.0508  0.1568
  400TMC3     H 5979   3.596   2.859  16.773  3.1633 -0.6179  1.3824
  400TMC3    H1 5980   3.986   2.916  16.627  0.6222  1.4143 -1.8590
  400TMC3    H2 5981   3.690   3.216  16.571  0.9382  0.3011 -0.3617
  400TMC3    C7 5982   3.949   3.168  16.538 -0.1784  0.3031 -1.1356
  400TMC3    C8 5983   3.495   3.097  16.668 -0.3962  0.3840  0.6382
  400TMC3    O1 5984   4.031   3.117  16.465 -0.1043  0.3332  0.6506
  400TMC3    O2 5985   3.471   3.213  16.672 -0.0364 -0.1418  0.5146
  401MPD2     C 5986   1.850   1.474  17.676 -0.4358  0.2120  0.0226
  401MPD2    C1 5987   1.831   1.472   0.108  0.6423  0.4794 -0.3942
  401MPD2    C2 5988   1.829   1.352   0.172  0.4065  0.2520  0.2782
  401MPD2    C3 5989   1.864   1.231   0.117 -0.4231  0.5548  0.4266
  401MPD2    C4 5990   1.899   1.243  17.687  0.3366  0.0471 -0.1525
  401MPD2    C5 5991   1.885   1.359  17.616  0.0656  0.7584 -0.1579
  401MPD2     H 5992   1.823   1.349   0.281  0.4980  4.0546  0.3663
  401MPD2    H1 5993   1.925   1.157  17.627 -1.5384 -0.6392  0.0164
  401MPD2    H2 5994   1.851   1.566  17.619 -0.3202 -1.0024 -1.9455
  401MPD2    H3 5995   1.909   1.360  17.510 -2.5674  0.0117 -0.7730
  401MPD2     N 5996   1.898   1.120   0.193 -0.8297  0.0446 -0.1887
  401MPD2    H5 5997   1.901   1.132   0.293 -1.0169 -1.4835 -0.0028
  401MPD2    N1 5998   1.804   1.588   0.186  0.1609  0.0942  0.3947
  401MPD2    H7 5999   1.795   1.578   0.287 -0.5404 -1.9237  0.1383
  402TMC3    C1 6000   1.928   0.895   0.249  0.1072 -0.5533  0.3604
  402TMC3    C2 6001   1.875   0.918   0.378 -0.5540 -0.2640 -0.5178
  402TMC3    C3 6002   1.854   0.805   0.458 -0.1004  0.3361 -0.0191
  402TMC3    C4 6003   1.987   0.777   0.217  0.5858  0.3366  0.1577
  402TMC3    C5 6004   1.987   0.680   0.310  0.8821  0.2931 -0.3608
  402TMC3    C6 6005   1.923   0.696   0.434 -0.0272 -0.0295  0.3385
  402TMC3     C 6006   1.918   0.996   0.144 -0.2724  0.4515 -0.0368
  402TMC3     O 6007   1.896   0.960   0.028 -0.2781 -0.1154  0.4011
  402TMC3     H 6008   1.823   1.011   0.397 -1.0551 -0.7215  0.3247
  402TMC3    H1 6009   2.040   0.756   0.124 -1.0385  0.2369 -0.7524
  402TMC3    H2 6010   1.930   0.629   0.519  0.3128 -0.0441  0.3020
  402TMC3    C7 6011   2.105   0.606   0.319  0.4321  1.0484 -0.7032
  402TMC3    C8 6012   1.834   0.844   0.595 -0.0248 -0.6247 -0.5182
  402TMC3    O1 6013   2.162   0.572   0.219 -0.1151  0.6045 -0.5776
  402TMC3    O2 6014   1.927   0.813   0.670 -0.0645  0.1038  0.2696
  403MPD2     C 6015   0.869   0.770  13.093  0.4184  0.1578  0.9020
  403MPD2    C1 6016   0.867   0.696  13.206  0.0570  0.3238  0.4561
  403MPD2    C2 6017   0.950   0.723  13.316 -0.0710  0.0699  0.3438
  403MPD2    C3 6018   1.036   0.837  13.314 -0.3627 -0.7522  0.4028
  403MPD2    C4 6019   1.038   0.909  13.197 -0.1771  0.1045 -0.0694
  403MPD2    C5 6020   0.958   0.874  13.095 -1.4821 -0.2302  0.4358
  403MPD2     H 6021   0.946   0.659  13.404 -1.2515 -3.3205 -2.1487
  403MPD2    H1 6022   1.125   0.972  13.178  0.5068 -0.7962  0.0474
  403MPD2    H2 6023   0.816   0.735  13.005  1.0029  1.3291  0.0754
  403MPD2    H3 6024   0.976   0.932  13.005  1.7403 -0.1987  1.1027
  403MPD2     N 6025   1.134   0.859  13.416  0.1556  0.2612 -0.3143
  403MPD2    H5 6026   1.121   0.807  13.503 -0.0909  1.6421  0.4710
  403MPD2    N1 6027   0.801   0.574  13.200  0.4652  0.1762  0.0344
  403MPD2    H7 6028   0.740   0.557  13.120  0.9085  1.0245 -0.4846
  404TMC3    C1 6029   0.763   0.346  13.224 -0.5500  0.0686  0.4356
  404TMC3    C2 6030   0.726   0.247  13.307 -0.6454  0.3625  0.1586
  404TMC3    C3 6031   0.681   0.127  13.261 -0.2438 -0.3746  0.5085
  404TMC3    C4 6032   0.760   0.330  13.086 -0.2845  0.1182  0.2367
  404TMC3    C5 6033   0.717   0.201  13.041  0.4205 -0.4966  0.7501
  404TMC3    C6 6034   0.673   0.098  13.123  0.1101 -0.7306  0.8635
  404TMC3     C 6035   0.822   0.466  13.282 -0.2021  0.3059 -1.0705
  404TMC3     O 6036   0.890   0.441  13.383  0.1533  0.2763  0.3232
  404TMC3     H 6037   0.738   0.254  13.414 -0.2334  1.0562  0.0678
  404TMC3    H1 6038   0.812   0.401  13.023  2.0853 -0.6577  1.3424
  404TMC3    H2 6039   0.651   4.722  13.090  0.7552 -0.0429 -1.6747
  404TMC3    C7 6040   0.726   0.185  12.906 -0.8773  0.7308 -0.6411
  404TMC3    C8 6041   0.718   0.018  13.349  0.0239 -0.4374 -0.3916
  404TMC3    O1 6042   0.816   0.250  12.858  0.5782 -0.5149  0.0661
  404TMC3    O2 6043   0.811   4.677  13.308 -0.0443  0.2980  0.2717
  405MPD2     C 6044   0.764   0.664  14.535  0.3547  0.3731  0.2402
  405MPD2    C1 6045   0.780   0.757  14.438 -0.2596  1.1334  0.1089
  405MPD2    C2 6046   0.666   0.793  14.369  0.0307  0.2298  0.2042
  405MPD2    C3 6047   0.543   0.740  14.394  0.1991  0.4841 -0.0098
  405MPD2    C4 6048   0.532   0.635  14.484 -0.3037 -0.0127  0.5786
  405MPD2    C5 6049   0.641   0.603  14.558 -0.4242  0.4781  0.2736
  405MPD2     H 6050   0.668   0.866  14.289 -2.5968 -0.1405 -0.1918
  405MPD2    H1 6051   0.433   0.597  14.508 -0.3970 -0.1629 -0.0455
  405MPD2    H2 6052   0.856   0.625  14.577  0.4621  1.5455  1.1149
  405MPD2    H3 6053   0.619   0.535  14.640  0.9200 -0.3033 -0.0128
  405MPD2     N 6054   0.432   0.779  14.310  0.7920 -0.1641  0.1134
  405MPD2    H5 6055   0.449   0.851  14.241 -0.3173  0.9346  0.9943
  405MPD2    N1 6056   0.902   0.812  14.413 -0.2294 -0.0180  0.2031
  405MPD2    H7 6057   0.984   0.770  14.457  0.0361  0.9310  0.6178
  406TMC3    C1 6058   0.064   0.826  14.065 -0.2440  0.9802 -0.4891
  406TMC3    C2 6059   0.137   0.841  13.947  0.3452  0.0485 -0.2148
  406TMC3    C3 6060   0.265   0.812  13.954  0.3634 -0.2770 -0.3684
  406TMC3    C4 6061   0.111   0.776  14.180  0.6301  0.1223  0.4470
  406TMC3    C5 6062   0.243   0.747  14.180  0.5551  0.1787  0.2283
  406TMC3    C6 6063   0.322   0.759  14.073 -0.0191 -0.5676 -0.1874
  406TMC3     C 6064   4.685   0.921  14.076  0.1508 -0.5677 -0.1643
  406TMC3     O 6065   4.629   0.962  13.979  0.5600 -0.3141  0.2254
  406TMC3     H 6066   0.085   0.880  13.860 -0.6206 -0.6678  0.0408
  406TMC3    H1 6067   0.056   0.761  14.272 -0.7693 -0.4709 -0.4991
  406TMC3    H2 6068   0.421   0.715  14.073  0.7781  1.2659  1.2663
  406TMC3    C7 6069   0.308   0.720  14.304 -0.5463  0.3163 -0.8447
  406TMC3    C8 6070   0.348   0.858  13.844  0.8834 -0.4012 -0.1282
  406TMC3    O1 6071   0.243   0.667  14.395 -0.1894  0.3099 -0.3284
  406TMC3    O2 6072   0.302   0.843  13.730 -0.1980 -0.2705  0.4257
  407MPD2     C 6073   3.343   1.705   9.412  0.3405  0.4114  0.3186
  407MPD2    C1 6074   3.440   1.790   9.376  0.2844 -0.8500  0.9250
  407MPD2    C2 6075   3.462   1.901   9.462 -0.0767  1.1861 -0.1761
  407MPD2    C3 6076   3.375   1.945   9.560  0.4628 -0.2893  0.5424
  407MPD2    C4 6077   3.269   1.864   9.583  0.1855 -0.6264 -0.1576
  407MPD2    C5 6078   3.256   1.747   9.514  0.3179 -0.0101 -0.0174
  407MPD2     H 6079   3.547   1.962   9.432  2.1832 -1.1604  1.4922
  407MPD2    H1 6080   3.191   1.869   9.659  1.0029 -0.8276  0.6959
  407MPD2    H2 6081   3.320   1.611   9.363  3.0657  0.3616 -0.9137
  407MPD2    H3 6082   3.165   1.695   9.543 -0.1204  0.3125 -0.8036
  407MPD2     N 6083   3.400   2.051   9.654  0.2843 -0.3668 -0.3161
  407MPD2    H5 6084   3.325   2.071   9.720  1.2154 -0.7478  0.8366
  407MPD2    N1 6085   3.535   1.770   9.270  0.2717 -0.4526 -0.1911
  407MPD2    H7 6086   3.605   1.844   9.264  0.6554 -0.9107 -1.2235
  408TMC3    C1 6087   3.657   1.669   9.099 -0.1686  0.3052 -0.3897
  408TMC3    C2 6088   3.765   1.591   9.124  0.1533  0.4949  0.3170
  408TMC3    C3 6089   3.887   1.624   9.073  0.3146 -0.0866  0.3107
  408TMC3    C4 6090   3.669   1.786   9.027 -0.2870  0.0247  0.5776
  408TMC3    C5 6091   3.789   1.805   8.967  0.4888  0.4810  0.3603
  408TMC3    C6 6092   3.895   1.720   8.981 -0.0529 -0.1288  0.0866
  408TMC3     C 6093   3.540   1.663   9.185 -0.3280 -0.9203  0.0610
  408TMC3     O 6094   3.471   1.564   9.189  0.1308 -0.3948 -0.4987
  408TMC3     H 6095   3.751   1.517   9.202  0.1511 -2.2527 -2.2805
  408TMC3    H1 6096   3.588   1.859   9.026  0.5771  0.9700 -0.5483
  408TMC3    H2 6097   3.986   1.729   8.922  0.7376 -1.9283  1.0244
  408TMC3    C7 6098   3.821   1.923   8.894  0.2384 -0.3748 -0.1799
  408TMC3    C8 6099   3.987   1.621   9.176 -0.2794  0.7159 -1.0108
  408TMC3    O1 6100   3.939   1.954   8.890  0.5170  0.5683  0.5193
  408TMC3    O2 6101   3.996   1.524   9.249  0.0438  0.4549  0.0221
  409MPD2     C 6102   2.620   3.162  17.019 -0.9533  0.5275 -0.0178
  409MPD2    C1 6103   2.748   3.127  17.067  0.1592  0.0799  0.7280
  409MPD2    C2 6104   2.862   3.189  17.021 -0.3646 -0.1222  0.3991
  409MPD2    C3 6105   2.850   3.289  16.923 -0.1214 -0.2133 -0.1941
  409MPD2    C4 6106   2.724   3.314  16.866  0.3750  0.2801 -0.6740
  409MPD2    C5 6107   2.613   3.248  16.916  0.6064 -0.2648  0.8715
  409MPD2     H 6108   2.956   3.152  17.060 -1.7372 -3.5356  0.4061
  409MPD2    H1 6109   2.708   3.388  16.789 -0.7492  1.1066  0.3545
  409MPD2    H2 6110   2.531   3.118  17.062  0.9633 -2.6015  0.6940
  409MPD2    H3 6111   2.517   3.278  16.875  1.2802  0.5640 -0.1183
  409MPD2     N 6112   2.950   3.365  16.867 -0.3052 -0.0071 -0.3390
  409MPD2    H5 6113   2.921   3.419  16.787 -0.5550 -0.0128 -0.2515
  409MPD2    N1 6114   2.761   3.028  17.167  0.7710 -0.6919 -0.1625
  409MPD2    H7 6115   2.854   3.024  17.207 -0.0845  0.0964  1.9354
  410TMC3    C1 6116   3.154   3.467  16.841  0.1566 -0.0334  0.5173
  410TMC3    C2 6117   3.287   3.474  16.863 -0.1541 -0.2180  0.3238
  410TMC3    C3 6118   3.348   3.587  16.824 -0.9189 -0.6168 -0.0074
  410TMC3    C4 6119   3.099   3.549  16.741 -0.1110 -0.1345 -0.2261
  410TMC3    C5 6120   3.171   3.643  16.681 -0.5237 -0.4597 -0.1689
  410TMC3    C6 6121   3.297   3.669  16.729 -0.1164 -0.2079 -0.3048
  410TMC3     C 6122   3.077   3.375  16.915  0.0543  1.0349 -0.1935
  410TMC3     O 6123   3.122   3.325  17.017 -0.4787 -0.0130  0.0074
  410TMC3     H 6124   3.331   3.404  16.933 -1.0135  0.6830  1.7498
  410TMC3    H1 6125   2.990   3.552  16.733 -0.4101 -2.5037  2.9994
  410TMC3    H2 6126   3.362   3.738  16.675  0.5018 -0.7989 -0.3231
  410TMC3    C7 6127   3.116   3.716  16.569  0.4940 -0.5166 -0.7115
  410TMC3    C8 6128   3.496   3.595  16.837 -0.2396  1.5965  0.0223
  410TMC3    O1 6129   3.009   3.677  16.523  0.1131 -0.1090  0.2319
  410TMC3    O2 6130   3.539   3.710  16.832 -0.1260 -0.4097  0.5397
  411MPD2     C 6131   3.281   3.965  14.793  0.8997  0.0806 -0.7193
  411MPD2    C1 6132   3.178   3.991  14.710 -0.5382 -0.7577  0.3365
  411MPD2    C2 6133   3.120   3.888  14.633 -0.1973  0.0797 -0.0063
  411MPD2    C3 6134   3.170   3.758  14.637 -0.4185  0.3328  0.0023
  411MPD2    C4 6135   3.271   3.742  14.731  0.0844  0.3699  0.0884
  411MPD2    C5 6136   3.326   3.841  14.801 -0.3720 -0.8900  0.3093
  411MPD2     H 6137   3.045   3.907  14.557 -1.8332 -2.4112  0.9958
  411MPD2    H1 6138   3.313   3.642  14.743  2.8365  1.3701 -1.0204
  411MPD2    H2 6139   3.329   4.048  14.843  0.5062 -0.5927  0.7734
  411MPD2    H3 6140   3.413   3.817  14.863 -0.8872 -2.2721  0.5109
  411MPD2     N 6141   3.122   3.656  14.557  0.0665 -0.6360  0.0079
  411MPD2    H5 6142   3.176   3.571  14.546  0.8675 -0.2021  0.6037
  411MPD2    N1 6143   3.144   4.124  14.696 -0.1156  1.0132 -0.4648
  411MPD2    H7 6144   3.177   4.188  14.768 -2.4167 -0.7023  2.1101
  412TMC3    C1 6145   3.026   3.565  14.370  0.1623  0.7084  0.0036
  412TMC3    C2 6146   2.926   3.477  14.322  0.5982  1.1467  0.1859
  412TMC3    C3 6147   2.933   3.422  14.197 -0.7791  0.0144 -0.2727
  412TMC3    C4 6148   3.134   3.594  14.291 -0.3417  0.6736  0.4077
  412TMC3    C5 6149   3.126   3.546  14.160 -0.1865  0.2605 -0.0186
  412TMC3    C6 6150   3.023   3.467  14.109  0.0269 -0.1433 -0.1174
  412TMC3     C 6151   3.006   3.652  14.480  0.5284 -0.2436  0.0849
  412TMC3     O 6152   2.921   3.745  14.485 -0.0361  0.2114 -0.4362
  412TMC3     H 6153   2.851   3.434  14.387 -1.8132  1.7498 -2.1886
  412TMC3    H1 6154   3.207   3.673  14.308 -0.0636  0.6003 -0.4834
  412TMC3    H2 6155   3.045   3.439  14.006  1.7326 -1.1773  0.5223
  412TMC3    C7 6156   3.243   3.466  14.128 -0.2214 -0.5580  0.5551
  412TMC3    C8 6157   2.893   3.286  14.167 -0.5821 -0.4576  0.1496
  412TMC3    O1 6158   3.223   3.350  14.100  0.1437  0.6149  0.2083
  412TMC3    O2 6159   2.786   3.251  14.206 -0.5685 -0.4016 -0.0268
  413MPD2     C 6160   4.121   2.449  15.622 -0.4924  0.7691  0.0740
  413MPD2    C1 6161   4.102   2.395  15.496 -0.5827 -0.1261  1.2224
  413MPD2    C2 6162   4.218   2.367  15.432  0.1276 -0.0319 -0.2166
  413MPD2    C3 6163   4.348   2.408  15.471 -0.2382  0.5490 -0.3292
  413MPD2    C4 6164   4.357   2.472  15.589 -0.0074 -0.1244  0.5203
  413MPD2    C5 6165   4.247   2.489  15.665  0.6804 -0.5392 -0.2198
  413MPD2     H 6166   4.214   2.319  15.335 -2.0363 -0.2235 -0.0323
  413MPD2    H1 6167   4.452   2.497  15.633 -0.3099  1.3705  0.3153
  413MPD2    H2 6168   4.033   2.485  15.673 -0.0388  1.4619  0.3742
  413MPD2    H3 6169   4.251   2.538  15.762  0.6976  1.5217 -1.2760
  413MPD2     N 6170   4.457   2.380  15.389  0.0213 -0.3903  0.0425
  413MPD2    H5 6171   4.433   2.343  15.297 -0.6962  0.7925 -0.2431
  413MPD2    N1 6172   3.969   2.372  15.453  0.0628  0.2839 -0.1744
  413MPD2    H7 6173   3.898   2.402  15.519  0.1716  4.3685 -1.9076
  414TMC3    C1 6174   4.666   2.278  15.353  0.5121  0.2002  1.1421
  414TMC3    C2 6175   0.010   2.174  15.397 -0.0823 -0.5308 -0.1461
  414TMC3    C3 6176   0.024   2.075  15.303  0.3705 -0.8380  0.9378
  414TMC3    C4 6177   4.650   2.324  15.228 -0.7010  0.8229  0.1463
  414TMC3    C5 6178   4.678   2.232  15.130 -0.3126 -0.0202 -0.3339
  414TMC3    C6 6179   4.710   2.104  15.169  1.1953  0.8286  0.7420
  414TMC3     C 6180   4.579   2.343  15.445 -0.1054 -0.3889  0.6226
  414TMC3     O 6181   4.599   2.330  15.567 -0.0019 -0.3104 -0.3510
  414TMC3     H 6182   0.023   2.158  15.504 -3.4718 -0.5561  0.2744
  414TMC3    H1 6183   4.623   2.428  15.213 -1.7732  0.2720 -1.6977
  414TMC3    H2 6184   4.718   2.029  15.091 -1.0897  1.6037 -0.2192
  414TMC3    C7 6185   0.034   2.290  15.029  0.6132 -0.1665  1.1176
  414TMC3    C8 6186   0.139   1.986  15.310 -0.5386  0.4270 -0.4405
  414TMC3    O1 6187   0.004   2.402  14.985  0.1297 -0.0227 -0.2695
  414TMC3    O2 6188   0.180   1.946  15.198  0.2696  1.0370  0.0788
  415TMC3    C1 6189   0.771   3.992  10.460  0.7509 -0.2306 -0.7254
  415TMC3    C2 6190   0.740   4.122  10.427  0.6059  1.0509  0.3372
  415TMC3    C3 6191   0.605   4.161  10.435  0.9666 -0.8305 -0.3935
  415TMC3    C4 6192   0.680   3.904  10.503  0.0973 -0.3203  0.2308
  415TMC3    C5 6193   0.550   3.953  10.505 -0.0665  0.1527  0.3625
  415TMC3    C6 6194   0.508   4.078  10.475  0.1853 -0.1533 -0.3294
  415TMC3     C 6195   0.908   3.940  10.432  0.2701 -0.0143 -0.5365
  415TMC3     O 6196   0.918   3.816  10.445  0.7282 -0.3184 -0.4311
  415TMC3     H 6197   0.817   4.176  10.374 -1.6217  1.7940 -2.1712
  415TMC3    H1 6198   0.708   3.805  10.538 -0.0710 -0.6424 -0.5406
  415TMC3    H2 6199   0.405   4.109  10.489  1.3697  4.1909 -1.4202
  415TMC3    C7 6200   0.445   3.850  10.501  0.5441  0.3732 -0.8978
  415TMC3    C8 6201   0.563   4.290  10.394 -0.3459  0.6509  0.4084
  415TMC3    O1 6202   0.338   3.884  10.544 -0.0474 -0.0735 -0.7091
  415TMC3    O2 6203   0.444   4.320  10.403  0.4826  0.0288 -0.3416
  416MPD2     C 6204   2.834   3.421  11.586 -0.2095 -0.9031  0.8591
  416MPD2    C1 6205   2.695   3.400  11.585 -0.8783 -0.9243  0.4867
  416MPD2    C2 6206   2.647   3.317  11.482  0.0604 -0.1653 -0.0394
  416MPD2    C3 6207   2.735   3.240  11.402 -0.3645 -0.1510 -0.0008
  416MPD2    C4 6208   2.867   3.251  11.424 -0.7233 -0.7219 -0.7328
  416MPD2    C5 6209   2.916   3.349  11.500 -0.6470  0.4532  0.3944
  416MPD2     H 6210   2.539   3.309  11.476 -0.0372 -0.5202  2.2122
  416MPD2    H1 6211   2.937   3.205  11.356 -1.2837 -2.5103 -0.0812
  416MPD2    H2 6212   2.883   3.497  11.645 -1.1823 -3.0567  4.4658
  416MPD2    H3 6213   3.023   3.364  11.508 -0.6449  0.7946 -0.2184
  416MPD2     N 6214   2.690   3.146  11.309 -0.3887 -0.2516  0.7383
  416MPD2    H5 6215   2.759   3.090  11.260  1.4337  3.3601 -0.7892
  416MPD2    N1 6216   2.612   3.474  11.674  0.3250 -0.6001 -0.1508
  416MPD2    H7 6217   2.662   3.526  11.746 -0.4333 -0.3554  0.2070
  417TMC3    C1 6218   2.421   3.574  11.767  0.3478  0.2103 -0.2119
  417TMC3    C2 6219   2.426   3.556  11.902 -0.2356  0.4267  0.5119
  417TMC3    C3 6220   2.328   3.611  11.979  0.1056 -0.7046 -0.3007
  417TMC3    C4 6221   2.325   3.651  11.715  0.0591  0.2781  0.1756
  417TMC3    C5 6222   2.231   3.710  11.794  0.0530  0.4337  0.4010
  417TMC3    C6 6223   2.231   3.692  11.930 -0.3930 -0.1684  0.1176
  417TMC3     C 6224   2.477   3.478  11.676 -0.2793  0.2330 -1.0746
  417TMC3     O 6225   2.403   3.424  11.594 -0.1392 -0.0581  0.4120
  417TMC3     H 6226   2.498   3.491  11.950  0.7220  1.8297  0.9935
  417TMC3    H1 6227   2.334   3.673  11.610 -0.4116  0.2893  0.1413
  417TMC3    H2 6228   2.164   3.746  11.994 -1.7657 -2.2273  0.4238
  417TMC3    C7 6229   2.126   3.794  11.729 -0.2431  0.4677  0.5556
  417TMC3    C8 6230   2.358   3.647  12.119 -0.1376 -0.0120  0.2439
  417TMC3    O1 6231   2.157   3.834  11.617 -0.3712  0.0662 -0.1089
  417TMC3    O2 6232   2.309   3.752  12.154  0.2341 -0.6223  0.2411
  418TMC3    C1 6233   1.207   0.288   0.424  0.6682 -0.3138 -0.6220
  418TMC3    C2 6234   1.072   0.316   0.416 -0.7091 -0.2301 -0.7369
  418TMC3    C3 6235   1.000   0.274   0.526 -0.6187 -0.5371  0.6201
  418TMC3    C4 6236   1.267   0.205   0.523 -0.9609  0.2799  0.1294
  418TMC3    C5 6237   1.186   0.170   0.630 -0.6397 -0.4157  0.4099
  418TMC3    C6 6238   1.056   0.202   0.632  0.1299 -0.9523 -0.0971
  418TMC3     C 6239   1.266   0.292   0.294  0.4370 -0.9270 -0.0840
  418TMC3     O 6240   1.233   0.381   0.218  0.0638 -0.5307  0.5342
  418TMC3     H 6241   1.027   0.373   0.335 -2.3106 -1.6786 -0.8821
  418TMC3    H1 6242   1.373   0.182   0.524 -1.1194 -0.5093 -0.7667
  418TMC3    H2 6243   0.999   0.178   0.721  0.8851  0.8657  0.8694
  418TMC3    C7 6244   1.220   0.040   0.696 -0.0877 -0.6750  0.1337
  418TMC3    C8 6245   0.863   0.235   0.480  0.8426  0.4010 -0.4215
  418TMC3    O1 6246   1.168   4.668   0.646  0.6899 -0.6385  0.0537
  418TMC3    O2 6247   0.799   0.313   0.414 -0.1079 -0.1253  0.3405
  419MPD2     C 6248   0.197   3.476  12.553 -0.8973  0.1952 -0.6357
  419MPD2    C1 6249   0.077   3.464  12.622  0.2397  0.5627  0.1302
  419MPD2    C2 6250   0.081   3.496  12.757  0.2725 -0.0706 -0.6277
  419MPD2    C3 6251   0.195   3.550  12.818 -1.0761  0.5652 -0.4251
  419MPD2    C4 6252   0.311   3.561  12.749 -0.1091  0.6631 -0.4622
  419MPD2    C5 6253   0.311   3.528  12.619 -0.4486  0.0071  0.4525
  419MPD2     H 6254   4.718   3.486  12.819  1.2243 -1.7467  0.4543
  419MPD2    H1 6255   0.403   3.592  12.796 -0.2951 -0.3730  0.5865
  419MPD2    H2 6256   0.202   3.457  12.447  0.2878  0.6109 -0.6558
  419MPD2    H3 6257   0.402   3.529  12.561 -0.2910  0.3164  0.7077
  419MPD2     N 6258   0.189   3.586  12.962  0.2542  0.2265 -0.1137
  419MPD2    H5 6259   0.109   3.556  13.017  0.2121  0.8177  0.1456
  419MPD2    N1 6260   4.679   3.412  12.573  0.0770 -0.2303  0.0752
  419MPD2    H7 6261   4.606   3.407  12.644 -0.4319 -1.2375 -0.5107
  420TMC3    C1 6262   0.221   3.713  13.157  0.1416 -0.2638 -0.2944
  420TMC3    C2 6263   0.227   3.848  13.187 -0.6191  0.3450  0.0534
  420TMC3    C3 6264   0.146   3.901  13.291 -0.2816  0.2113 -0.5961
  420TMC3    C4 6265   0.140   3.632  13.239 -0.6013  0.0323  0.0925
  420TMC3    C5 6266   0.062   3.689  13.334  0.2114 -1.3068  0.4441
  420TMC3    C6 6267   0.065   3.821  13.371 -1.0933 -0.3101  0.0696
  420TMC3     C 6268   0.273   3.673  13.028  0.4984  0.5886 -0.4334
  420TMC3     O 6269   0.377   3.719  12.994  0.0300 -0.3058  0.1921
  420TMC3     H 6270   0.286   3.908  13.119 -1.3486  1.9946  0.8751
  420TMC3    H1 6271   0.101   3.540  13.198  0.1249  0.2120 -1.0246
  420TMC3    H2 6272   4.718   3.870  13.435 -0.1603 -0.4644  1.2419
  420TMC3    C7 6273   4.669   3.609  13.358 -0.2512  0.0377  0.7120
  420TMC3    C8 6274   0.098   4.035  13.265 -0.2615 -0.2187  0.0053
  420TMC3    O1 6275   4.675   3.483  13.354  0.0076 -0.1065 -0.0699
  420TMC3    O2 6276   4.707   4.062  13.290  0.2966 -0.3814 -0.2978
  421TMC3    C1 6277   1.306   0.967  13.552  0.3820 -0.2894  0.2878
  421TMC3    C2 6278   1.330   1.083  13.622 -0.0301  0.3326  0.3514
  421TMC3    C3 6279   1.421   1.075  13.723  0.7562  0.9821  0.3512
  421TMC3    C4 6280   1.378   0.850  13.574  0.1078 -0.1499  1.2186
  421TMC3    C5 6281   1.467   0.848  13.676 -0.0183  0.7332  0.0974
  421TMC3    C6 6282   1.488   0.961  13.753  0.3243 -0.0916 -1.0256
  421TMC3     C 6283   1.222   0.967  13.426 -0.3644 -0.3013 -0.2723
  421TMC3     O 6284   1.229   1.067  13.356  0.7065  0.5702  0.4982
  421TMC3     H 6285   1.282   1.175  13.591  0.9503  0.1429 -1.6990
  421TMC3    H1 6286   1.354   0.763  13.514  2.6722 -0.0213  0.0326
  421TMC3    H2 6287   1.549   0.949  13.842 -0.5159  0.0153 -0.4307
  421TMC3    C7 6288   1.509   0.718  13.736 -1.0112 -0.0747 -0.5197
  421TMC3    C8 6289   1.389   1.153  13.849 -0.1485 -0.3333 -0.6240
  421TMC3    O1 6290   1.527   0.722  13.858  0.6699  0.0209 -0.0165
  421TMC3    O2 6291   1.476   1.136  13.933  0.2985 -0.0440  0.2949
  422TMC3    C1 6292   3.544   1.560  12.799  0.2963  0.1982 -0.5558
  422TMC3    C2 6293   3.515   1.689  12.783 -0.1009 -0.3940  0.2216
  422TMC3    C3 6294   3.406   1.734  12.852 -0.7330 -0.6659 -0.3836
  422TMC3    C4 6295   3.465   1.481  12.882 -0.5790 -0.1865  0.2861
  422TMC3    C5 6296   3.356   1.530  12.943  0.1825  0.6007  0.0953
  422TMC3    C6 6297   3.328   1.658  12.933  0.2544 -0.0861  0.2549
  422TMC3     C 6298   3.590   1.492  12.685  0.7517 -0.2935 -0.0037
  422TMC3     O 6299   3.584   1.549  12.576  0.5118 -0.5362 -0.1468
  422TMC3     H 6300   3.578   1.749  12.718 -2.1769  0.6603 -0.8024
  422TMC3    H1 6301   3.476   1.374  12.891  0.0183  0.0956  2.8520
  422TMC3    H2 6302   3.259   1.702  13.004  0.3139 -0.2206  0.3947
  422TMC3    C7 6303   3.241   1.443  12.963  0.3088 -0.5910  0.0732
  422TMC3    C8 6304   3.402   1.879  12.841 -0.1490  0.2205 -0.6606
  422TMC3    O1 6305   3.264   1.320  12.968  0.3509  0.4707  0.6081
  422TMC3    O2 6306   3.502   1.936  12.804  0.0211  0.4275 -0.0836
  423MPD2     C 6307   4.496   2.542   0.629 -0.4214 -0.0881  0.5408
  423MPD2    C1 6308   4.482   2.416   0.581 -0.1550  0.1651  0.3749
  423MPD2    C2 6309   4.449   2.386   0.453 -0.6064 -0.9957 -0.6617
  423MPD2    C3 6310   4.441   2.486   0.362  0.1334 -0.5800 -0.6130
  423MPD2    C4 6311   4.459   2.610   0.404  0.1632  0.4441 -0.1167
  423MPD2    C5 6312   4.490   2.640   0.532 -0.4242  0.0755 -0.4843
  423MPD2     H 6313   4.449   2.281   0.424 -1.2673 -1.5061  1.1638
  423MPD2    H1 6314   4.445   2.695   0.339 -1.9620  0.6936  0.6531
  423MPD2    H2 6315   4.518   2.570   0.732 -1.4311  3.1232 -0.1094
  423MPD2    H3 6316   4.506   2.743   0.564  1.4933  0.3490 -2.3148
  423MPD2     N 6317   4.430   2.458   0.223 -0.3077  0.6819  0.1654
  423MPD2    H5 6318   4.447   2.538   0.163 -1.5892  0.9789  0.1913
  423MPD2    N1 6319   4.498   2.308   0.672  0.7528 -0.1832 -0.0645
  423MPD2    H7 6320   4.482   2.211   0.644 -0.9846  0.3096 -0.7590
  424TMC3    C1 6321   4.554   2.192   0.869 -0.2957 -0.7898  0.2816
  424TMC3    C2 6322   4.669   2.155   0.941  1.0341 -0.3668  0.3965
  424TMC3    C3 6323   4.665   2.034   1.006  0.3157 -0.0945 -0.2213
  424TMC3    C4 6324   4.440   2.116   0.868 -0.4474  0.5661  0.8835
  424TMC3    C5 6325   4.444   1.999   0.943 -0.6813  0.2328  0.2622
  424TMC3    C6 6326   4.553   1.954   1.014 -0.1413 -0.4984 -0.0374
  424TMC3     C 6327   4.560   2.315   0.792  0.0674  0.4356  0.0347
  424TMC3     O 6328   4.635   2.402   0.833 -0.3417 -0.7677 -0.0208
  424TMC3     H 6329   0.034   2.212   0.925  1.6308 -1.4725 -0.1365
  424TMC3    H1 6330   4.350   2.140   0.812  0.0873  0.3112 -0.0794
  424TMC3    H2 6331   4.548   1.867   1.077 -3.0665 -0.3769 -0.0966
  424TMC3    C7 6332   4.318   1.929   0.970 -0.6044  0.1538 -0.7505
  424TMC3    C8 6333   0.055   1.988   1.072  0.2314 -0.3179 -0.2655
  424TMC3    O1 6334   4.314   1.806   0.986 -0.1853 -0.0862 -0.4396
  424TMC3    O2 6335   0.054   1.866   1.100  0.1467 -0.1403 -0.2210
  425MPD2     C 6336   3.499   1.721  17.342  1.5448 -0.9622 -0.5960
  425MPD2    C1 6337   3.433   1.608  17.300 -0.1684  0.0926  0.7121
  425MPD2    C2 6338   3.294   1.608  17.288 -0.2156  0.9199  0.5012
  425MPD2    C3 6339   3.219   1.715  17.332  0.5824 -0.6001 -0.2306
  425MPD2    C4 6340   3.283   1.832  17.368  0.8331 -0.1060 -0.9155
  425MPD2    C5 6341   3.422   1.837  17.368 -0.3481 -0.3912 -0.9338
  425MPD2     H 6342   3.247   1.518  17.251  2.9707 -1.0817  1.3331
  425MPD2    H1 6343   3.231   1.927  17.379 -1.8814 -1.5603 -1.3108
  425MPD2    H2 6344   3.607   1.721  17.341  1.5560 -0.1424  1.3678
  425MPD2    H3 6345   3.479   1.919  17.409 -0.9075 -0.7027  0.4631
  425MPD2     N 6346   3.075   1.710  17.324  0.3085  0.7418  0.0038
  425MPD2    H5 6347   3.026   1.628  17.291 -1.4172  0.8170  2.4642
  425MPD2    N1 6348   3.519   1.500  17.278 -0.0861  0.6090  0.1823
  425MPD2    H7 6349   3.618   1.522  17.271 -0.0878  1.1518  1.7817
  426TMC3    C1 6350   3.595   1.280  17.242  0.9842  0.4532  0.5449
  426TMC3    C2 6351   3.585   1.160  17.170  0.0442  0.9944 -1.1070
  426TMC3    C3 6352   3.690   1.074  17.170  0.3224 -0.2845  0.1617
  426TMC3    C4 6353   3.704   1.299  17.326 -0.2594  0.1346 -0.3674
  426TMC3    C5 6354   3.805   1.208  17.328 -0.0987  0.0263 -0.2536
  426TMC3    C6 6355   3.805   1.093  17.245  0.4406 -0.3798 -0.3854
  426TMC3     C 6356   3.484   1.375  17.245 -0.1598  0.4814  0.0529
  426TMC3     O 6357   3.369   1.329  17.240 -0.3871 -0.1936  0.3389
  426TMC3     H 6358   3.497   1.138  17.111  0.0814 -1.3372 -0.2984
  426TMC3    H1 6359   3.714   1.393  17.379 -0.2801  0.3449 -0.7412
  426TMC3    H2 6360   3.886   1.021  17.245  0.5979 -0.2013  0.5433
  426TMC3    C7 6361   3.877   1.186  17.453 -0.1278 -0.6521  0.0850
  426TMC3    C8 6362   3.693   0.959  17.079  0.6750  0.5227 -0.1759
  426TMC3    O1 6363   3.980   1.120  17.457  0.4685 -0.2275  0.0225
  426TMC3    O2 6364   3.803   0.920  17.056 -0.0486 -0.0477 -0.0845
  427MPD2     C 6365   2.205   3.694  14.615  0.3564 -0.1590  0.3813
  427MPD2    C1 6366   2.128   3.749  14.721 -1.0659 -0.2237 -0.0962
  427MPD2    C2 6367   1.993   3.772  14.702  0.1223  0.3108 -0.1717
  427MPD2    C3 6368   1.931   3.744  14.582  0.3163  0.4695 -0.5859
  427MPD2    C4 6369   1.999   3.673  14.483  0.3910  0.4912  0.0877
  427MPD2    C5 6370   2.139   3.657  14.497 -0.2213 -0.1416 -0.5809
  427MPD2     H 6371   1.936   3.818  14.783  0.0672  0.1106 -0.0985
  427MPD2    H1 6372   1.946   3.629  14.399  0.2396 -0.7998  0.8666
  427MPD2    H2 6373   2.308   3.665  14.629  0.5501  0.8706  1.0690
  427MPD2    H3 6374   2.199   3.602  14.425  1.2222  1.6814 -0.7526
  427MPD2     N 6375   1.805   3.791  14.561  0.3313 -0.0810  0.1847
  427MPD2    H5 6376   1.761   3.835  14.641  0.9917 -1.2119  1.1642
  427MPD2    N1 6377   2.186   3.788  14.847 -0.4667  0.4248  0.3413
  427MPD2    H7 6378   2.118   3.799  14.921 -0.1923  1.3637  0.4525
  428TMC3    C1 6379   2.352   3.802  15.013  0.2334  1.0836 -0.1372
  428TMC3    C2 6380   2.265   3.748  15.099 -0.2240 -0.1849  0.2043
  428TMC3    C3 6381   2.277   3.785  15.229  0.2849 -0.0839 -0.2065
  428TMC3    C4 6382   2.456   3.879  15.049 -0.4183 -0.9567  0.2709
  428TMC3    C5 6383   2.473   3.904  15.185  0.1291  0.1287 -0.4156
  428TMC3    C6 6384   2.382   3.854  15.278  0.3494  0.1559 -0.6073
  428TMC3     C 6385   2.322   3.801  14.873  0.7390  0.0593  0.2251
  428TMC3     O 6386   2.409   3.822  14.790 -0.0735 -0.2934 -0.0011
  428TMC3     H 6387   2.181   3.682  15.078 -0.6562  0.2105  0.7081
  428TMC3    H1 6388   2.519   3.929  14.977 -1.3929 -3.0106 -2.0106
  428TMC3    H2 6389   2.381   3.876  15.384 -1.3061  2.0127 -0.9994
  428TMC3    C7 6390   2.598   3.942  15.246 -0.4417  0.6079 -0.4304
  428TMC3    C8 6391   2.174   3.732  15.324 -1.0056 -0.8337 -0.0368
  428TMC3    O1 6392   2.607   3.948  15.368 -0.3405 -0.5882  0.1596
  428TMC3    O2 6393   2.144   3.616  15.297  0.4773  0.5325  0.0050
  429MPD2     C 6394   3.466   3.900  17.428  0.6746  0.3536 -0.0804
  429MPD2    C1 6395   3.563   3.810  17.377  0.2681 -0.9677 -0.6110
  429MPD2    C2 6396   3.619   3.848  17.257 -0.0919 -0.6442  0.4230
  429MPD2    C3 6397   3.603   3.967  17.191 -0.8379 -0.0740  0.0122
  429MPD2    C4 6398   3.513   4.060  17.245 -0.2880  0.3600 -0.2939
  429MPD2    C5 6399   3.436   4.017  17.352 -0.4694 -0.8375 -0.4452
  429MPD2     H 6400   3.686   3.781  17.205  1.6115 -0.0466  1.8323
  429MPD2    H1 6401   3.494   4.156  17.199  0.3713 -0.5513 -2.4603
  429MPD2    H2 6402   3.403   3.883  17.514  1.5854  0.0651  0.5367
  429MPD2    H3 6403   3.355   4.078  17.392 -0.3377 -1.4225  0.7114
  429MPD2     N 6404   3.671   3.979  17.060 -0.2401  0.2429  0.2704
  429MPD2    H5 6405   3.728   3.901  17.028 -1.3773 -0.4308 -0.1034
  429MPD2    N1 6406   3.602   3.688  17.440 -0.5337  0.3280  0.0835
  429MPD2    H7 6407   3.685   3.643  17.402  0.4853  0.9573  1.5657
  430TMC3    C1 6408   3.771   4.084  16.872  0.9772  0.4581  0.6249
  430TMC3    C2 6409   3.863   4.181  16.851  0.1481  0.6799  0.0733
  430TMC3    C3 6410   3.972   4.146  16.781  0.5225  0.1675  0.1999
  430TMC3    C4 6411   3.786   3.959  16.826  0.2545 -1.0317 -0.4740
  430TMC3    C5 6412   3.906   3.930  16.770  0.1887 -0.6950  0.0363
  430TMC3    C6 6413   3.999   4.027  16.740 -0.3231  0.3563  0.0433
  430TMC3     C 6414   3.673   4.092  16.978  0.3374 -0.0248  0.1298
  430TMC3     O 6415   3.617   4.201  16.998 -0.1947 -0.3980 -0.1454
  430TMC3     H 6416   3.840   4.279  16.892 -0.4136 -0.5268  2.6121
  430TMC3    H1 6417   3.715   3.879  16.841 -2.3238  1.4945  0.6704
  430TMC3    H2 6418   4.091   4.019  16.684  0.5712  1.6512  1.3061
  430TMC3    C7 6419   3.914   3.804  16.697  0.5890  0.7896  0.6180
  430TMC3    C8 6420   4.089   4.214  16.815  0.4104  0.3418 -0.2866
  430TMC3    O1 6421   3.809   3.752  16.668  0.2672 -0.8653  0.5631
  430TMC3    O2 6422   4.166   4.143  16.872 -0.1073  0.3119 -0.1435
  431MPD2     C 6423   4.483   4.006  12.765 -0.5973  0.1124  0.3127
  431MPD2    C1 6424   4.513   3.995  12.628  0.3540 -0.1004  0.5309
  431MPD2    C2 6425   4.445   3.904  12.551  0.0435 -0.0663  0.2276
  431MPD2    C3 6426   4.356   3.817  12.610 -0.0180 -0.3833  0.2771
  431MPD2    C4 6427   4.336   3.819  12.745 -0.6240  0.5918 -0.4105
  431MPD2    C5 6428   4.397   3.913  12.820  0.2363 -0.0695 -0.3242
  431MPD2     H 6429   4.462   3.914  12.444  2.8879 -0.9864  0.5686
  431MPD2    H1 6430   4.267   3.746  12.788  1.2599  1.0489  3.3492
  431MPD2    H2 6431   4.515   4.087  12.830  0.8066  1.0733 -1.5671
  431MPD2    H3 6432   4.360   3.925  12.922  0.9851  0.9538 -0.1739
  431MPD2     N 6433   4.291   3.709  12.543 -0.4087  0.6654 -0.0831
  431MPD2    H5 6434   4.239   3.640  12.597 -1.0936  1.3602  0.1585
  431MPD2    N1 6435   4.598   4.082  12.564  0.2459 -0.0655  0.3487
  431MPD2    H7 6436   4.612   4.076  12.463  0.2402 -0.6683  0.3823
  432TMC3    C1 6437   4.323   3.532  12.393  0.5501  0.0041  0.1086
  432TMC3    C2 6438   4.299   3.481  12.264  0.9072  0.7151  0.0730
  432TMC3    C3 6439   4.389   3.390  12.215  0.6383 -0.3510 -1.0249
  432TMC3    C4 6440   4.417   3.477  12.473 -0.3848  0.6109  0.0867
  432TMC3    C5 6441   4.501   3.381  12.423  0.5448 -0.5834  0.6770
  432TMC3    C6 6442   4.485   3.334  12.294  0.4639  0.8400  0.3677
  432TMC3     C 6443   4.309   3.679  12.406 -0.5212 -0.2157  1.0370
  432TMC3     O 6444   4.347   3.748  12.310 -0.2217 -0.5713  0.0299
  432TMC3     H 6445   4.234   3.536  12.196  0.2207 -0.8721 -0.5522
  432TMC3    H1 6446   4.448   3.521  12.567  3.4621 -2.0594  0.0533
  432TMC3    H2 6447   4.540   3.248  12.257 -1.1617 -1.1597  2.6167
  432TMC3    C7 6448   4.641   3.413  12.443  0.0709  0.7149  0.2921
  432TMC3    C8 6449   4.406   3.396  12.080  0.1755 -0.3952 -0.1678
  432TMC3    O1 6450   4.704   3.433  12.345  0.4333 -0.5104  0.3880
  432TMC3    O2 6451   4.313   3.423  12.003  0.0688  0.2355  0.2943
  433MPD2     C 6452   3.457   2.793  10.714 -0.0500 -0.0472 -0.2926
  433MPD2    C1 6453   3.366   2.722  10.793  0.1990 -0.4734  0.4535
  433MPD2    C2 6454   3.389   2.733  10.931 -0.8392  0.1650  0.5001
  433MPD2    C3 6455   3.500   2.810  10.980 -0.4245  0.4417 -0.4118
  433MPD2    C4 6456   3.580   2.875  10.888  0.2285 -0.6919 -0.1393
  433MPD2    C5 6457   3.550   2.873  10.762  0.2016 -0.1702  0.3109
  433MPD2     H 6458   3.331   2.692  11.013 -0.8085 -4.2079 -1.6754
  433MPD2    H1 6459   3.668   2.934  10.911  0.0084 -1.4180  2.5771
  433MPD2    H2 6460   3.452   2.788  10.605  0.1082 -0.6065 -0.2755
  433MPD2    H3 6461   3.624   2.924  10.700 -0.7959 -1.4808 -1.9572
  433MPD2     N 6462   3.531   2.800  11.116  0.2767 -0.0170 -1.0290
  433MPD2    H5 6463   3.472   2.748  11.180 -0.0475  1.8012  0.1545
  433MPD2    N1 6464   3.264   2.637  10.742 -0.4722  0.3921  0.4142
  433MPD2    H7 6465   3.274   2.603  10.647 -1.3109  2.5008 -0.4246
  434TMC3    C1 6466   3.098   2.472  10.737  0.1222  0.5639 -0.1374
  434TMC3    C2 6467   3.072   2.361  10.812 -0.1576 -0.0629  0.1157
  434TMC3    C3 6468   3.078   2.249  10.737  0.3717  0.7569  0.0338
  434TMC3    C4 6469   3.134   2.467  10.608 -0.6533 -0.6850 -0.0249
  434TMC3    C5 6470   3.132   2.352  10.535  0.0519 -0.0112 -0.3927
  434TMC3    C6 6471   3.096   2.238  10.605  0.4462 -0.7168 -0.2279
  434TMC3     C 6472   3.166   2.578  10.812 -0.6014  0.6485 -0.3637
  434TMC3     O 6473   3.144   2.587  10.931  0.0795 -0.3497  0.2431
  434TMC3     H 6474   3.070   2.361  10.921 -1.5616  0.6241  0.0857
  434TMC3    H1 6475   3.144   2.558  10.550 -0.4103 -0.2775  0.6578
  434TMC3    H2 6476   3.109   2.138  10.564  0.3653 -1.3447  1.2595
  434TMC3    C7 6477   3.123   2.347  10.388 -0.3532 -0.5986 -0.6027
  434TMC3    C8 6478   3.118   2.137  10.820  0.4203 -0.0004 -0.6773
  434TMC3    O1 6479   3.201   2.416  10.328  0.4427  0.2872 -0.0431
  434TMC3    O2 6480   3.197   2.171  10.907  0.0990  0.4002 -0.5683
  435MPD2     C 6481   0.034   2.698  15.170  0.1144  0.4853  0.0424
  435MPD2    C1 6482   4.724   2.778  15.278  0.2552  0.1030  0.0797
  435MPD2    C2 6483   0.106   2.824  15.354 -0.1722  0.7721 -0.3050
  435MPD2    C3 6484   0.238   2.799  15.332  0.2860 -0.0228 -0.8344
  435MPD2    C4 6485   0.267   2.724  15.219 -0.1766  0.5866  0.0886
  435MPD2    C5 6486   0.163   2.680  15.136 -0.0693 -0.2257 -0.3734
  435MPD2     H 6487   0.081   2.891  15.436  1.5307  0.5462  0.3964
  435MPD2    H1 6488   0.368   2.701  15.187  0.1292  0.8446  0.8519
  435MPD2    H2 6489   4.682   2.672  15.098  1.1962  3.4031 -2.1637
  435MPD2    H3 6490   0.185   2.610  15.056  0.8362 -1.4909  0.9994
  435MPD2     N 6491   0.335   2.836  15.426  0.0744  0.3542 -0.1274
  435MPD2    H5 6492   0.303   2.898  15.499  0.5245 -1.1908  1.3671
  435MPD2    N1 6493   4.595   2.810  15.313 -0.0972 -0.1079  0.4473
  435MPD2    H7 6494   4.575   2.872  15.391  0.0258  0.9705 -0.3757
  436TMC3    C1 6495   4.272   2.838  15.543 -0.0222  0.1892  0.1947
  436TMC3    C2 6496   4.384   2.818  15.467 -0.7385 -0.2791 -0.1828
  436TMC3    C3 6497   4.368   2.766  15.346  0.3285  0.4031  0.3025
  436TMC3    C4 6498   4.152   2.793  15.504  0.5367  0.0549  0.3203
  436TMC3    C5 6499   4.139   2.740  15.377  0.0132 -1.0435  0.5056
  436TMC3    C6 6500   4.247   2.730  15.294 -0.4568  0.3342  0.2486
  436TMC3     C 6501   4.272   2.934  15.657 -0.1036 -0.2500  0.3724
  436TMC3     O 6502   4.193   2.919  15.747 -0.0663 -0.2804  0.5011
  436TMC3     H 6503   4.484   2.837  15.504 -1.2135  1.9628 -0.0059
  436TMC3    H1 6504   4.071   2.807  15.573  0.7226 -1.8410  0.9198
  436TMC3    H2 6505   4.235   2.699  15.191  3.4072  2.9854 -1.0231
  436TMC3    C7 6506   4.007   2.694  15.321  0.9053 -0.0685  0.3841
  436TMC3    C8 6507   4.483   2.749  15.260 -0.6411 -0.0677 -0.4446
  436TMC3    O1 6508   4.016   2.646  15.212 -0.7623 -0.3486 -0.0850
  436TMC3    O2 6509   4.471   2.675  15.165 -0.2261  0.3475  0.0450
  437TMC3    C1 6510   4.559   0.275  11.831 -0.3358  0.1754  0.8817
  437TMC3    C2 6511   4.494   0.308  11.710  0.5626 -0.5857 -0.2303
  437TMC3    C3 6512   4.573   0.339  11.605 -0.8621  0.5768  0.1468
  437TMC3    C4 6513   4.697   0.264  11.837 -0.2022 -0.9699 -0.1879
  437TMC3    C5 6514   0.046   0.300  11.724 -0.3518 -0.0131  0.5749
  437TMC3    C6 6515   4.710   0.345  11.608  0.0924 -0.5302 -0.2782
  437TMC3     C 6516   4.476   0.278  11.945  0.1696  0.9277 -0.1974
  437TMC3     O 6517   4.374   0.339  11.924  0.0380 -0.0770  0.1522
  437TMC3     H 6518   4.386   0.312  11.702  0.6848  0.1588 -1.5268
  437TMC3    H1 6519   0.020   0.241  11.931 -3.1159 -0.3382  1.4588
  437TMC3    H2 6520   0.047   0.379  11.526  1.5295 -0.1649  0.9606
  437TMC3    C7 6521   0.192   0.310  11.722 -0.0891 -0.3767 -0.0400
  437TMC3    C8 6522   4.502   0.389  11.491 -0.5953  0.3630  0.7609
  437TMC3    O1 6523   0.248   0.345  11.618 -0.4040  0.2891  0.2853
  437TMC3    O2 6524   4.390   0.431  11.508 -0.2761 -0.3870 -0.2877
  438MPD2     C 6525   1.336   0.615  16.673 -0.4785 -0.2569 -0.3256
  438MPD2    C1 6526   1.407   0.511  16.726 -0.4441 -0.8323 -0.2765
  438MPD2    C2 6527   1.389   0.473  16.856 -0.3456 -0.9727 -0.4294
  438MPD2    C3 6528   1.299   0.543  16.939 -0.2145  0.8081 -0.5635
  438MPD2    C4 6529   1.232   0.649  16.889  0.0332 -0.1335 -0.0663
  438MPD2    C5 6530   1.259   0.687  16.760  0.3263  0.6177  0.4898
  438MPD2     H 6531   1.451   0.390  16.888  1.2423  0.6633  0.6366
  438MPD2    H1 6532   1.147   0.689  16.944 -0.4621 -2.7912  1.0726
  438MPD2    H2 6533   1.343   0.661  16.576 -2.4910  0.1250 -0.3085
  438MPD2    H3 6534   1.224   0.782  16.721  0.1001  0.1856 -0.3645
  438MPD2     N 6535   1.272   0.502  17.069 -0.7506  0.5182  0.1739
  438MPD2    H5 6536   1.185   0.537  17.108 -1.8009 -1.1258 -0.6511
  438MPD2    N1 6537   1.507   0.443  16.650 -0.2637 -0.4797  0.3014
  438MPD2    H7 6538   1.564   0.372  16.696  1.4650  0.8453  0.1879
  439TMC3    C1 6539   1.661   0.392  16.486 -0.5686  0.4095 -0.7018
  439TMC3    C2 6540   1.710   0.424  16.364 -1.2169  0.3390 -0.0049
  439TMC3    C3 6541   1.818   0.358  16.315 -0.6737  0.1880  0.7431
  439TMC3    C4 6542   1.721   0.296  16.564 -0.0606  0.8456 -0.0879
  439TMC3    C5 6543   1.836   0.232  16.514  0.1116 -0.0042  0.0851
  439TMC3    C6 6544   1.886   0.267  16.390  0.1973  0.4832  0.4977
  439TMC3     C 6545   1.544   0.473  16.524 -0.5504 -0.0321  0.1772
  439TMC3     O 6546   1.501   0.549  16.439 -0.3045  0.3819  0.1947
  439TMC3     H 6547   1.661   0.491  16.294  0.0246  0.4658 -0.7566
  439TMC3    H1 6548   1.687   0.276  16.665  0.9062 -2.8169 -0.4822
  439TMC3    H2 6549   1.962   0.208  16.340 -0.8005 -0.7052  0.3619
  439TMC3    C7 6550   1.924   0.154  16.603 -1.0796  0.0398  0.5521
  439TMC3    C8 6551   1.902   0.431  16.225  0.4352 -0.2636 -0.3306
  439TMC3    O1 6552   1.908   0.173  16.724  0.2382 -0.0322  0.7403
  439TMC3    O2 6553   2.021   0.414  16.233  0.4072 -0.3045 -0.3659
  440MPD2     C 6554   4.703   1.411  14.634  0.3967 -0.2901 -0.1899
  440MPD2    C1 6555   4.723   1.499  14.745 -0.2588 -0.2825  0.3371
  440MPD2    C2 6556   0.106   1.478  14.834  0.2923  0.0582  0.5645
  440MPD2    C3 6557   0.185   1.359  14.824  0.0626  0.0068  0.5568
  440MPD2    C4 6558   0.155   1.270  14.723  0.1230  0.1276  0.5481
  440MPD2    C5 6559   0.062   1.301  14.633 -0.5471  0.1330  0.1508
  440MPD2     H 6560   0.121   1.543  14.920  1.1612  1.3221 -0.5475
  440MPD2    H1 6561   0.206   1.175  14.711  0.8802  1.0582 -3.5905
  440MPD2    H2 6562   4.618   1.413  14.568  0.4325 -1.3496 -0.2750
  440MPD2    H3 6563   0.041   1.226  14.558  0.2870  2.1443 -2.1131
  440MPD2     N 6564   0.305   1.322  14.897 -0.7732  0.1432 -0.4836
  440MPD2    H5 6565   0.365   1.245  14.870  0.2663  0.5512  0.6483
  440MPD2    N1 6566   4.643   1.620  14.748 -0.1181  0.0216  0.5853
  440MPD2    H7 6567   4.646   1.678  14.832 -0.6217 -0.5358  0.9900
  441TMC3    C1 6568   0.486   1.369  15.036 -0.6285  0.3155  0.2888
  441TMC3    C2 6569   0.538   1.468  15.112  0.4148  0.2185  0.3543
  441TMC3    C3 6570   0.609   1.444  15.231 -0.6221  0.0240  0.2533
  441TMC3    C4 6571   0.515   1.239  15.072  0.0610  0.6813 -0.9397
  441TMC3    C5 6572   0.587   1.216  15.183 -0.5218  0.1656  0.4686
  441TMC3    C6 6573   0.639   1.316  15.265 -0.9272  0.2490  0.3890
  441TMC3     C 6574   0.364   1.409  14.987  0.0327 -0.4776  0.7368
  441TMC3     O 6575   0.313   1.510  15.036 -0.4096 -0.0609  0.6413
  441TMC3     H 6576   0.530   1.573  15.085  1.4395  0.4774  1.0195
  441TMC3    H1 6577   0.481   1.154  15.014 -0.2578 -0.9774  1.7066
  441TMC3    H2 6578   0.705   1.293  15.348  2.5295 -0.7142 -2.6224
  441TMC3    C7 6579   0.592   1.084  15.229  0.0464  0.0835  1.0922
  441TMC3    C8 6580   0.610   1.537  15.344 -0.6497 -0.0585 -1.0121
  441TMC3    O1 6581   0.582   1.001  15.143 -0.5797 -0.3159  0.7151
  441TMC3    O2 6582   0.667   1.505  15.447 -0.7722 -0.2526  0.4969
  442MPD2     C 6583   2.868   1.901  16.616 -0.6922 -0.6829  0.1379
  442MPD2    C1 6584   2.813   1.802  16.693 -0.2108  0.3632 -0.3161
  442MPD2    C2 6585   2.870   1.680  16.706 -0.2494 -0.0920  1.0546
  442MPD2    C3 6586   2.989   1.651  16.644 -0.4084 -0.0556 -0.5760
  442MPD2    C4 6587   3.054   1.746  16.574  0.3946 -0.4877  0.3234
  442MPD2    C5 6588   2.989   1.866  16.554  0.7335 -0.3572 -1.2857
  442MPD2     H 6589   2.815   1.605  16.762 -1.0015 -0.0832  0.3250
  442MPD2    H1 6590   3.141   1.723  16.514 -0.5760 -1.8009 -0.6029
  442MPD2    H2 6591   2.836   2.003  16.605  1.1834 -0.1057  0.0064
  442MPD2    H3 6592   3.031   1.941  16.489  0.2016  0.9710 -0.1011
  442MPD2     N 6593   3.059   1.526  16.643 -0.4154  0.2732  0.4286
  442MPD2    H5 6594   3.142   1.522  16.585 -0.3904  0.2467  0.4658
  442MPD2    N1 6595   2.679   1.819  16.750 -0.5228  0.5863 -0.0984
  442MPD2    H7 6596   2.638   1.740  16.798 -0.7958  0.3491 -0.7188
  443TMC3    C1 6597   2.467   1.921  16.801  0.4985 -0.7240  0.5935
  443TMC3    C2 6598   2.382   2.013  16.750 -0.1393 -0.0718  0.5136
  443TMC3    C3 6599   2.249   1.998  16.766  0.0084 -0.0080 -0.5263
  443TMC3    C4 6600   2.424   1.819  16.886  0.1928 -0.3709  0.4401
  443TMC3    C5 6601   2.288   1.827  16.915 -0.0029  0.5839  0.0996
  443TMC3    C6 6602   2.199   1.910  16.850 -0.0331  0.3668 -0.2313
  443TMC3     C 6603   2.602   1.931  16.740 -0.6900  0.2521 -0.0151
  443TMC3     O 6604   2.631   2.040  16.694 -0.4145  0.4862  0.5524
  443TMC3     H 6605   2.412   2.093  16.682  0.6473 -0.5032  0.3477
  443TMC3    H1 6606   2.500   1.759  16.932  1.8539  1.5861  0.2484
  443TMC3    H2 6607   2.092   1.895  16.860 -0.3001  2.3017 -0.3077
  443TMC3    C7 6608   2.244   1.719  16.998  0.2554  0.4842 -0.5095
  443TMC3    C8 6609   2.163   2.099  16.698  0.3984 -0.3547 -0.3317
  443TMC3    O1 6610   2.298   1.611  16.993 -0.4101 -0.4248  0.9436
  443TMC3    O2 6611   2.074   2.151  16.763  0.2700  0.8467  0.6447
  444MPD2     C 6612   3.545   0.831   0.005 -0.7435  0.5624 -1.2934
  444MPD2    C1 6613   3.451   0.773  17.617  0.7661 -0.2686 -0.1323
  444MPD2    C2 6614   3.505   0.723  17.505  0.6553  0.0014  0.1113
  444MPD2    C3 6615   3.633   0.731  17.463  0.0002 -0.0609 -0.0286
  444MPD2    C4 6616   3.719   0.805  17.544  0.3052  0.5926 -0.0358
  444MPD2    C5 6617   3.675   0.853  17.665 -0.4034 -0.4543 -0.1288
  444MPD2     H 6618   3.435   0.677  17.435 -0.6519 -0.6556  1.8497
  444MPD2    H1 6619   3.821   0.832  17.519  0.2245 -1.7776 -2.9046
  444MPD2    H2 6620   3.516   0.880   0.097  1.2804 -2.8676  1.1811
  444MPD2    H3 6621   3.741   0.906   0.031  0.7168  0.6592 -2.0780
  444MPD2     N 6622   3.678   0.660  17.345 -0.2134  0.3935 -0.1079
  444MPD2    H5 6623   3.602   0.605  17.306 -0.7650  0.5508  0.7474
  444MPD2    N1 6624   3.311   0.760  17.636  0.3639 -0.0224  0.1557
  444MPD2    H7 6625   3.263   0.717  17.557  0.5079 -1.0941  0.6569
  445TMC3    C1 6626   3.828   0.548  17.207  0.1040 -0.7907  0.1743
  445TMC3    C2 6627   3.731   0.449  17.171  0.0650 -0.4383 -0.3546
  445TMC3    C3 6628   3.762   0.361  17.072  0.1663 -0.1891 -0.2776
  445TMC3    C4 6629   3.954   0.538  17.158 -0.0916 -0.6913 -0.6408
  445TMC3    C5 6630   3.979   0.449  17.057  0.5620 -0.2252  0.5133
  445TMC3    C6 6631   3.886   0.362  17.013 -0.3193  0.4526 -0.0780
  445TMC3     C 6632   3.806   0.642  17.307  0.6184  0.2983  0.2686
  445TMC3     O 6633   3.904   0.702  17.348  1.0068  0.5755 -0.1535
  445TMC3     H 6634   3.649   0.424  17.237  1.1761  0.0987  1.2356
  445TMC3    H1 6635   4.032   0.603  17.196  0.4310 -1.8018  0.1924
  445TMC3    H2 6636   3.905   0.309  16.920 -0.8363  2.2532 -1.1950
  445TMC3    C7 6637   4.112   0.440  17.005 -0.0855  0.0653  0.1406
  445TMC3    C8 6638   3.662   0.280  17.010  0.8842  0.5818 -0.5939
  445TMC3    O1 6639   4.174   0.545  16.985 -0.3314  0.0203 -0.5357
  445TMC3    O2 6640   3.695   0.181  16.943 -0.2707 -0.4072 -0.8049
  446MPD2     C 6641   3.053   1.925  11.373  0.5006 -0.2196  0.4071
  446MPD2    C1 6642   3.016   1.952  11.243 -0.2111 -0.3468 -0.5436
  446MPD2    C2 6643   3.087   2.057  11.181 -0.7719  0.0257  0.1018
  446MPD2    C3 6644   3.192   2.131  11.241  0.0728 -0.0290 -0.7632
  446MPD2    C4 6645   3.218   2.098  11.372  0.3734 -0.0241 -0.0626
  446MPD2    C5 6646   3.141   2.010  11.437 -0.5925 -1.1018 -0.1136
  446MPD2     H 6647   3.058   2.081  11.079 -0.3515 -0.7297 -0.1957
  446MPD2    H1 6648   3.296   2.139  11.436  2.2061 -3.5848 -0.0114
  446MPD2    H2 6649   2.987   1.862  11.431 -0.5483  0.0694 -0.4772
  446MPD2    H3 6650   3.155   1.989  11.543 -0.7929  0.9846  0.3285
  446MPD2     N 6651   3.269   2.221  11.164 -0.7222  0.3282  0.6897
  446MPD2    H5 6652   3.256   2.217  11.063 -0.4646  0.3187  0.6573
  446MPD2    N1 6653   2.915   1.880  11.172 -0.0883 -0.1708 -0.1349
  446MPD2    H7 6654   2.878   1.919  11.086 -2.2116  2.9146  2.2217
  447TMC3    C1 6655   3.469   2.360  11.111  0.1400  0.0912  0.4103
  447TMC3    C2 6656   3.424   2.383  10.984 -0.2425 -0.7070 -0.1947
  447TMC3    C3 6657   3.526   2.430  10.910 -0.1545  0.0285 -0.5310
  447TMC3    C4 6658   3.596   2.363  11.159 -0.1880 -0.1088  0.2132
  447TMC3    C5 6659   3.692   2.410  11.089  1.0186 -0.4168  0.5392
  447TMC3    C6 6660   3.654   2.441  10.954  0.3212  0.4024  0.2749
  447TMC3     C 6661   3.371   2.303  11.209 -0.7223  0.0742 -0.5079
  447TMC3     O 6662   3.397   2.320  11.328  0.2733 -0.1665 -0.4550
  447TMC3     H 6663   3.320   2.397  10.957 -0.3177  1.3269  1.1983
  447TMC3    H1 6664   3.617   2.330  11.260 -0.0735 -1.1453 -0.1427
  447TMC3    H2 6665   3.727   2.477  10.883  0.2798  1.4505  0.7576
  447TMC3    C7 6666   3.824   2.357  11.102  0.0252 -0.1768 -0.6440
  447TMC3    C8 6667   3.533   2.407  10.769 -0.0159  0.5367 -0.5993
  447TMC3    O1 6668   3.901   2.351  11.005  0.2893 -0.2941  0.0302
  447TMC3    O2 6669   3.586   2.488  10.696  0.3023  0.3919  0.2861
  448TMC3    C1 6670   1.152   1.850  16.473  0.8947 -0.3636 -0.7904
  448TMC3    C2 6671   1.248   1.785  16.397 -0.6855  0.4319  0.3169
  448TMC3    C3 6672   1.246   1.649  16.412  0.6783 -0.3217 -0.4154
  448TMC3    C4 6673   1.073   1.788  16.572  0.0830 -0.9525 -0.1655
  448TMC3    C5 6674   1.090   1.659  16.588 -0.3971 -0.6919 -0.6638
  448TMC3    C6 6675   1.179   1.584  16.514  0.2337  0.1278  0.3313
  448TMC3     C 6676   1.149   1.997  16.454 -0.3613 -0.4137  0.2926
  448TMC3     O 6677   1.232   2.042  16.378  0.0478  0.0197 -0.3978
  448TMC3     H 6678   1.314   1.834  16.327  0.8322 -0.3014  1.2372
  448TMC3    H1 6679   1.010   1.848  16.637 -0.7517 -0.1395 -1.7234
  448TMC3    H2 6680   1.192   1.477  16.526 -1.0390 -0.2954 -2.2441
  448TMC3    C7 6681   1.043   1.600  16.717 -0.6039  0.1065  0.0380
  448TMC3    C8 6682   1.357   1.575  16.362  0.3353  0.0968  0.1026
  448TMC3    O1 6683   0.987   1.678  16.794  0.4882  0.2931 -0.1426
  448TMC3    O2 6684   1.394   1.479  16.428 -0.1657  0.4816  0.0909
  449MPD2     C 6685   3.280   0.363  14.067  0.1677  0.1834 -0.1372
  449MPD2    C1 6686   3.158   0.412  14.015  0.2658 -0.2086  0.2895
  449MPD2    C2 6687   3.040   0.395  14.083 -0.0682  0.2245 -0.0422
  449MPD2    C3 6688   3.031   0.335  14.203  0.3345  0.0111 -0.0707
  449MPD2    C4 6689   3.150   0.293  14.255  0.2150  0.1945  0.1698
  449MPD2    C5 6690   3.269   0.305  14.192  0.8414 -0.0412 -0.0779
  449MPD2     H 6691   2.949   0.436  14.040 -0.1456 -1.0386 -1.0779
  449MPD2    H1 6692   3.146   0.233  14.345  1.1172 -1.1171 -0.6750
  449MPD2    H2 6693   3.375   0.381  14.017 -0.1490  1.0161 -0.4354
  449MPD2    H3 6694   3.357   0.270  14.244  0.7391  0.5887  0.5205
  449MPD2     N 6695   2.904   0.308  14.259 -0.4540  0.2446 -0.0047
  449MPD2    H5 6696   2.829   0.328  14.193  1.2640  2.1152 -1.4182
  449MPD2    N1 6697   3.152   0.461  13.887  0.2152  0.0862  0.0500
  449MPD2    H7 6698   3.060   0.490  13.855  0.4777  0.1573 -0.6267
  450TMC3    C1 6699   3.204   0.536  13.673  0.6404 -0.3714 -0.1007
  450TMC3    C2 6700   3.247   0.469  13.563 -0.4528 -0.0434 -0.3358
  450TMC3    C3 6701   3.157   0.443  13.467 -0.1263 -0.0159  0.2265
  450TMC3    C4 6702   3.081   0.591  13.683  0.1156  0.2725 -0.0200
  450TMC3    C5 6703   2.986   0.535  13.601  0.0623 -0.0259  0.2068
  450TMC3    C6 6704   3.021   0.463  13.491  0.1564 -0.5095 -0.5025
  450TMC3     C 6705   3.262   0.491  13.803  0.2773 -0.1586 -0.7373
  450TMC3     O 6706   3.367   0.434  13.792  0.1702  0.1153 -0.4203
  450TMC3     H 6707   3.352   0.445  13.549 -0.4365 -0.7924  1.0052
  450TMC3    H1 6708   3.059   0.656  13.766  0.6126  2.7056 -1.7995
  450TMC3    H2 6709   2.940   0.447  13.422 -2.2882  0.3644  2.1239
  450TMC3    C7 6710   2.872   0.494  13.692  0.1282  0.1209 -0.7197
  450TMC3    C8 6711   3.194   0.394  13.331 -0.4273 -0.5705  0.2473
  450TMC3    O1 6712   2.902   0.502  13.807 -0.0114  0.1826 -0.0482
  450TMC3    O2 6713   3.107   0.398  13.246 -0.7675  0.0349  0.8348
  451MPD2     C 6714   4.386   4.270   0.929  0.0523 -0.0916 -0.8425
  451MPD2    C1 6715   4.347   4.217   1.054 -0.7636  0.3386  0.4706
  451MPD2    C2 6716   4.323   4.083   1.060  0.1766  0.1843 -0.0807
  451MPD2    C3 6717   4.340   3.995   0.956 -0.6786  0.0761  0.6667
  451MPD2    C4 6718   4.378   4.045   0.834 -0.6308 -0.3860 -1.0076
  451MPD2    C5 6719   4.400   4.181   0.825 -0.3233  0.5894 -0.6427
  451MPD2     H 6720   4.282   4.042   1.152 -0.2736 -0.3598 -0.5218
  451MPD2    H1 6721   4.377   3.981   0.747 -0.1191 -1.1582 -0.4458
  451MPD2    H2 6722   4.412   4.374   0.912 -1.1844  0.1706 -1.1419
  451MPD2    H3 6723   4.420   4.213   0.723  0.5781  1.4042 -0.2068
  451MPD2     N 6724   4.337   3.854   0.970  0.2823 -0.3538 -0.4274
  451MPD2    H5 6725   4.365   3.794   0.893  0.9071  0.3146 -0.7239
  451MPD2    N1 6726   4.326   4.313   1.155 -0.2332  0.2922  0.0301
  451MPD2    H7 6727   4.341   4.412   1.141  1.1284  0.0376 -0.3021
  452TMC3    C1 6728   4.274   3.646   1.047  0.5178 -0.2416  0.3837
  452TMC3    C2 6729   4.257   3.567   1.158 -0.4950 -1.0146 -0.1917
  452TMC3    C3 6730   4.197   3.442   1.132 -0.8860  0.4848  0.5546
  452TMC3    C4 6731   4.245   3.609   0.917  0.4882  0.3121 -0.4385
  452TMC3    C5 6732   4.178   3.493   0.901 -0.0526 -0.1759  0.5161
  452TMC3    C6 6733   4.153   3.407   1.004  0.1593  0.4019  0.6916
  452TMC3     C 6734   4.297   3.785   1.077  0.1589  0.1743 -0.1591
  452TMC3     O 6735   4.277   3.831   1.187 -0.7444 -0.3486  0.2129
  452TMC3     H 6736   4.257   3.608   1.258 -0.5349  0.0307 -0.6148
  452TMC3    H1 6737   4.277   3.672   0.835  0.7144 -1.7738 -1.9738
  452TMC3    H2 6738   4.103   3.313   0.985  0.6445 -0.0240  1.5192
  452TMC3    C7 6739   4.183   3.442   0.766 -0.6467  0.7322 -0.2630
  452TMC3    C8 6740   4.149   3.358   1.248  0.2674  0.1633  1.0150
  452TMC3    O1 6741   4.237   3.508   0.678 -0.4925 -0.8017  0.3743
  452TMC3    O2 6742   4.054   3.283   1.233 -0.0694  0.0015  0.2440
  453TMC3    C1 6743   0.961   1.213  11.549 -0.4056 -0.3054 -0.1486
  453TMC3    C2 6744   0.953   1.075  11.545  0.2637 -0.5427  0.4813
  453TMC3    C3 6745   0.969   1.015  11.420  0.1868 -0.3563  0.1371
  453TMC3    C4 6746   0.989   1.290  11.436  0.4302 -0.3485  0.4527
  453TMC3    C5 6747   1.017   1.225  11.319 -0.1844 -0.2297  0.0609
  453TMC3    C6 6748   1.014   1.089  11.315 -0.4261 -0.7078  0.2789
  453TMC3     C 6749   1.011   1.266  11.678 -0.3113  0.0729  0.3182
  453TMC3     O 6750   1.066   1.194  11.759 -0.0202  0.2454 -0.0795
  453TMC3     H 6751   0.912   1.024  11.631 -0.6225  0.5859  0.7399
  453TMC3    H1 6752   1.008   1.397  11.431  0.2760 -0.3984 -1.1656
  453TMC3    H2 6753   1.033   1.042  11.219 -1.0071  1.8987 -1.1078
  453TMC3    C7 6754   1.116   1.293  11.242 -0.3826  0.6071  0.6375
  453TMC3    C8 6755   0.967   0.877  11.416 -0.6504  0.5454  0.4954
  453TMC3    O1 6756   1.106   1.416  11.227 -0.2350 -0.0696 -0.3069
  453TMC3    O2 6757   0.940   0.820  11.311  0.0021 -0.0596 -0.4497
  454MPD2     C 6758   4.353   0.597  16.072  0.4826  0.1932 -0.2970
  454MPD2    C1 6759   4.279   0.656  16.169  0.6109 -0.0917 -0.2921
  454MPD2    C2 6760   4.261   0.594  16.291  1.0215  0.2642  0.3218
  454MPD2    C3 6761   4.318   0.474  16.318  0.3287  0.0072  0.6227
  454MPD2    C4 6762   4.393   0.412  16.226 -1.1704  0.5563  0.1830
  454MPD2    C5 6763   4.416   0.480  16.104  0.7182 -0.7788  0.6422
  454MPD2     H 6764   4.197   0.647  16.361 -0.3734  1.6596 -2.0259
  454MPD2    H1 6765   4.443   0.318  16.244 -1.3896  0.5592  0.8122
  454MPD2    H2 6766   4.377   0.644  15.978 -0.6118  1.5632  0.1058
  454MPD2    H3 6767   4.473   0.439  16.022  2.7867  0.3801  1.5316
  454MPD2     N 6768   4.270   0.402  16.436 -0.2727 -0.5081  0.6432
  454MPD2    H5 6769   4.280   0.302  16.421 -1.2956 -0.7870  1.8388
  454MPD2    N1 6770   4.199   0.774  16.149  0.0785  0.5323  0.0256
  454MPD2    H7 6771   4.146   0.803  16.231  0.1744  1.7801 -0.3573
  455TMC3    C1 6772   4.086   0.378  16.586  0.2248 -0.3318  1.0976
  455TMC3    C2 6773   4.016   0.439  16.688 -0.6191 -0.0518 -0.4384
  455TMC3    C3 6774   3.880   0.437  16.673  0.8422  0.2080 -0.9537
  455TMC3    C4 6775   4.026   0.311  16.486 -0.3891 -0.4709  0.3589
  455TMC3    C5 6776   3.892   0.313  16.472 -0.0457  0.1980 -0.1975
  455TMC3    C6 6777   3.813   0.381  16.561 -0.1013  0.1821  0.1087
  455TMC3     C 6778   4.203   0.460  16.537  0.0885 -0.1582 -0.3353
  455TMC3     O 6779   4.215   0.574  16.583  0.1513 -0.0640 -0.6999
  455TMC3     H 6780   4.073   0.490  16.766  0.0002 -2.4646  0.6846
  455TMC3    H1 6781   4.087   0.252  16.418 -0.4628  0.7100 -0.7338
  455TMC3    H2 6782   3.709   0.402  16.541 -0.2163  1.2869  1.8813
  455TMC3    C7 6783   3.831   0.272  16.343 -0.1426 -0.8446 -0.7568
  455TMC3    C8 6784   3.815   0.541  16.752 -0.0510  0.2306 -0.7048
  455TMC3    O1 6785   3.918   0.250  16.260 -0.0497 -0.2683 -0.1288
  455TMC3    O2 6786   3.888   0.626  16.795 -0.7660  0.4673 -0.6137
  456MPD2     C 6787   2.466   0.729  15.937 -0.2613  0.1401 -0.0427
  456MPD2    C1 6788   2.459   0.680  16.068  0.2040  0.6309 -0.6410
  456MPD2    C2 6789   2.364   0.727  16.154  0.7092  0.1820  0.4403
  456MPD2    C3 6790   2.281   0.837  16.116 -0.6653  0.1771  0.2748
  456MPD2    C4 6791   2.280   0.877  15.989  0.5917 -0.0806 -0.1988
  456MPD2    C5 6792   2.379   0.828  15.906 -0.0109  0.7521 -0.9893
  456MPD2     H 6793   2.343   0.694  16.255  0.3786  1.0757  0.6732
  456MPD2    H1 6794   2.212   0.951  15.948  0.5999 -0.1405 -0.3203
  456MPD2    H2 6795   2.535   0.693  15.862 -1.9929 -0.7146 -1.2092
  456MPD2    H3 6796   2.398   0.876  15.810  4.1585 -2.2452 -1.6675
  456MPD2     N 6797   2.193   0.895  16.210  0.1322  0.3256  0.2564
  456MPD2    H5 6798   2.182   0.841  16.295  1.2212  1.6534  1.2300
  456MPD2    N1 6799   2.551   0.579  16.099 -0.2152  0.1193  0.0613
  456MPD2    H7 6800   2.626   0.556  16.034  0.8439  0.5809  1.1160
  457TMC3    C1 6801   2.030   1.047  16.298  0.3927 -0.1676 -0.4536
  457TMC3    C2 6802   1.968   1.167  16.287 -0.0015 -0.0715  0.4373
  457TMC3    C3 6803   1.912   1.225  16.396  0.3202  0.0982  0.5743
  457TMC3    C4 6804   2.027   0.981  16.417  0.3722 -0.6555  0.3812
  457TMC3    C5 6805   1.961   1.032  16.520 -0.6518  0.4003  0.2941
  457TMC3    C6 6806   1.894   1.155  16.514 -0.8316  0.3952  0.0249
  457TMC3     C 6807   2.126   1.016  16.194  0.0139  0.7578 -0.0790
  457TMC3     O 6808   2.126   1.097  16.100 -0.0319 -1.0720  0.3320
  457TMC3     H 6809   1.978   1.224  16.196  3.2316 -1.9219 -0.3732
  457TMC3    H1 6810   2.084   0.889  16.421 -1.2455 -1.7651 -2.1399
  457TMC3    H2 6811   1.850   1.204  16.599  0.2895 -0.0363  0.8519
  457TMC3    C7 6812   1.969   0.960  16.644 -0.9046  1.2874 -0.7851
  457TMC3    C8 6813   1.827   1.339  16.386  1.0330  0.3003 -0.6083
  457TMC3    O1 6814   2.051   0.870  16.647 -0.3723  0.3854  0.6673
  457TMC3    O2 6815   1.746   1.368  16.473 -0.5544  0.5412  0.2278
  458MPD2     C 6816   0.641   0.330  11.974  0.3698 -0.8575 -0.3511
  458MPD2    C1 6817   0.540   0.330  12.069 -0.7282  0.4760 -0.2921
  458MPD2    C2 6818   0.410   0.314  12.022  0.7264  0.6366  0.4179
  458MPD2    C3 6819   0.380   0.304  11.887 -0.4549  0.4706 -0.2484
  458MPD2    C4 6820   0.483   0.304  11.802 -0.9557  1.2871  0.3311
  458MPD2    C5 6821   0.607   0.315  11.843 -0.5745  0.5263  0.3011
  458MPD2     H 6822   0.331   0.308  12.097  0.8720  2.6707  0.7358
  458MPD2    H1 6823   0.457   0.284  11.698  1.6675  0.2235 -0.1069
  458MPD2    H2 6824   0.741   0.366  11.997 -0.5306  2.2274 -1.3445
  458MPD2    H3 6825   0.678   0.310  11.761 -1.6734 -0.3489 -0.5950
  458MPD2     N 6826   0.244   0.299  11.850 -0.3020 -0.1055  0.1023
  458MPD2    H5 6827   0.173   0.296  11.922  0.5784 -0.3941  0.9613
  458MPD2    N1 6828   0.582   0.339  12.203  0.4261  0.0312  0.0337
  458MPD2    H7 6829   0.681   0.359  12.213  0.5834 -0.3721 -0.7031
  459TMC3    C1 6830   0.564   0.387  12.435  0.3700 -0.5562 -0.3580
  459TMC3    C2 6831   0.697   0.425  12.429 -0.2343 -0.0835  0.2569
  459TMC3    C3 6832   0.734   0.499  12.540  0.1574  0.0624 -0.3190
  459TMC3    C4 6833   0.479   0.402  12.542  0.4285  0.1677  0.4711
  459TMC3    C5 6834   0.538   0.451  12.659  0.6232 -0.2034 -0.6548
  459TMC3    C6 6835   0.663   0.503  12.656  0.4062 -0.1571  0.4894
  459TMC3     C 6836   0.495   0.358  12.305 -1.2327  0.2357 -0.3195
  459TMC3     O 6837   0.375   0.337  12.314 -0.0571 -0.1937 -0.0035
  459TMC3     H 6838   0.765   0.395  12.350 -0.6719 -0.3379 -0.0200
  459TMC3    H1 6839   0.371   0.407  12.536  0.2212 -1.9358  2.2014
  459TMC3    H2 6840   0.708   0.545  12.745  0.6680 -0.0922  0.3260
  459TMC3    C7 6841   0.471   0.415  12.779 -0.6304 -0.4254 -0.6098
  459TMC3    C8 6842   0.876   0.529  12.556 -0.4706  0.4432  0.0466
  459TMC3    O1 6843   0.390   0.324  12.759  0.3515 -0.1376  0.5894
  459TMC3    O2 6844   0.916   0.503  12.667  0.1253  0.5184  0.3864
  460MPD2     C 6845   3.400   2.091  10.645  0.4859 -0.8015  0.2405
  460MPD2    C1 6846   3.452   2.217  10.629  0.0222  0.3185  0.2315
  460MPD2    C2 6847   3.482   2.268  10.510  1.2855 -0.4278 -0.1242
  460MPD2    C3 6848   3.457   2.189  10.397 -0.9665  0.0019  0.2278
  460MPD2    C4 6849   3.389   2.069  10.408 -0.0525 -0.7314  0.4635
  460MPD2    C5 6850   3.369   2.022  10.534 -0.1697  0.0478 -0.3359
  460MPD2     H 6851   3.527   2.365  10.499 -0.5498  0.3314 -1.0547
  460MPD2    H1 6852   3.367   2.010  10.320 -0.1292  0.0476 -0.0370
  460MPD2    H2 6853   3.373   2.053  10.743 -1.1953 -0.4024 -0.0726
  460MPD2    H3 6854   3.309   1.932  10.546  0.3757 -0.5493 -2.0601
  460MPD2     N 6855   3.505   2.239  10.269  0.2645  0.2794 -0.4048
  460MPD2    H5 6856   3.528   2.338  10.269 -2.0026  0.8143 -2.1767
  460MPD2    N1 6857   3.475   2.285  10.748 -0.5422 -0.9629  0.4293
  460MPD2    H7 6858   3.430   2.241  10.827 -0.0742  0.0975  1.2885
  461TMC3    C1 6859   3.513   2.228  10.025 -0.2634  0.0423  0.2433
  461TMC3    C2 6860   3.530   2.152   9.905  0.0418 -0.0767  0.0188
  461TMC3    C3 6861   3.512   2.212   9.784  0.1798  0.3684 -0.0069
  461TMC3    C4 6862   3.463   2.357  10.019 -0.3003 -0.1411 -0.2428
  461TMC3    C5 6863   3.453   2.411   9.897  0.4695  0.2135 -0.0940
  461TMC3    C6 6864   3.470   2.344   9.778  0.0031  0.4967  0.1676
  461TMC3     C 6865   3.500   2.154  10.147 -0.2202  0.8324 -0.7174
  461TMC3     O 6866   3.491   2.035  10.127  0.8146  0.2068 -0.1468
  461TMC3     H 6867   3.574   2.053   9.903 -0.0272 -0.0280 -3.3735
  461TMC3    H1 6868   3.436   2.404  10.112  0.2509 -1.2739  0.4882
  461TMC3    H2 6869   3.481   2.397   9.684 -1.7518  1.3545  0.4390
  461TMC3    C7 6870   3.433   2.554   9.884 -0.3194  0.2243 -0.4394
  461TMC3    C8 6871   3.510   2.130   9.664 -0.1740  0.0173  0.9054
  461TMC3    O1 6872   3.416   2.598   9.770 -0.6928 -0.3657  0.1283
  461TMC3    O2 6873   3.610   2.132   9.595  0.7119 -0.1024  0.1080
  462TMC3    C1 6874   3.625   2.387   0.251  0.1271  0.4944 -0.2352
  462TMC3    C2 6875   3.659   2.284   0.166 -0.4220  0.4450  0.5321
  462TMC3    C3 6876   3.552   2.216   0.105 -0.0080 -0.3657 -0.4436
  462TMC3    C4 6877   3.497   2.421   0.289  0.0386 -0.3228 -0.1875
  462TMC3    C5 6878   3.397   2.337   0.246  0.1098  0.5600  0.4768
  462TMC3    C6 6879   3.422   2.237   0.157  0.0665  0.3767  0.4735
  462TMC3     C 6880   3.735   2.433   0.335  0.3570 -0.2100  0.0163
  462TMC3     O 6881   3.755   2.552   0.345  0.0588 -0.6722  0.7427
  462TMC3     H 6882   3.764   2.256   0.154 -1.1896 -2.5404  0.6543
  462TMC3    H1 6883   3.488   2.517   0.338  2.9969 -0.6913  1.1071
  462TMC3    H2 6884   3.339   2.181   0.114 -0.1937 -0.7946  2.4937
  462TMC3    C7 6885   3.260   2.367   0.276  0.2907 -0.0366 -0.6683
  462TMC3    C8 6886   3.580   2.094   0.034  0.4485  0.3669  0.7794
  462TMC3    O1 6887   3.181   2.344   0.189 -0.0822 -0.1622  0.5886
  462TMC3    O2 6888   3.503   1.997   0.044  0.2528  0.0647  0.4060
  463MPD2     C 6889   3.700   2.555   1.979  0.3988 -0.7414 -0.2170
  463MPD2    C1 6890   3.763   2.509   1.865 -1.4004 -0.1299  0.8772
  463MPD2    C2 6891   3.848   2.591   1.799  0.3347  0.4450 -0.1029
  463MPD2    C3 6892   3.890   2.717   1.841  0.2611 -0.3613  0.0192
  463MPD2    C4 6893   3.837   2.756   1.960  0.5978  1.0305  0.2648
  463MPD2    C5 6894   3.741   2.676   2.026 -0.0666 -0.5555  0.2032
  463MPD2     H 6895   3.890   2.544   1.710  1.0459 -0.2164  0.5862
  463MPD2    H1 6896   3.860   2.847   2.013  0.3565  1.0236  0.3806
  463MPD2    H2 6897   3.636   2.486   2.033  1.8330  0.2184  2.6864
  463MPD2    H3 6898   3.695   2.711   2.118 -0.2051  0.4294 -0.2345
  463MPD2     N 6899   3.982   2.800   1.780 -0.1455  0.0790  0.6032
  463MPD2    H5 6900   4.011   2.873   1.843  0.0896  1.5785 -1.2336
  463MPD2    N1 6901   3.737   2.379   1.811  0.5728  0.7980  0.0634
  463MPD2    H7 6902   3.768   2.362   1.716 -0.8489  0.6539 -0.3719
  464TMC3    C1 6903   3.725   2.149   1.801 -0.1139  0.4499  0.3421
  464TMC3    C2 6904   3.677   2.151   1.671  0.1288 -0.0094 -0.0973
  464TMC3    C3 6905   3.673   2.031   1.606  0.2100 -0.5447 -0.1924
  464TMC3    C4 6906   3.747   2.028   1.866  0.7802 -0.2542  0.0675
  464TMC3    C5 6907   3.733   1.914   1.797 -0.0507 -0.8662 -0.1436
  464TMC3    C6 6908   3.711   1.909   1.667 -0.5597 -0.0164  0.2529
  464TMC3     C 6909   3.708   2.266   1.883 -1.1372 -0.7370  0.0144
  464TMC3     O 6910   3.712   2.252   2.004  0.4195 -0.1641  0.1482
  464TMC3     H 6911   3.657   2.244   1.618 -2.9378 -0.5418  0.1529
  464TMC3    H1 6912   3.758   2.026   1.974 -0.0075  1.0683  0.1796
  464TMC3    H2 6913   3.725   1.823   1.602  1.5185 -0.1842  0.9329
  464TMC3    C7 6914   3.732   1.785   1.869 -0.0469 -0.2042  0.7111
  464TMC3    C8 6915   3.623   2.028   1.470 -0.0890  0.8394 -0.6127
  464TMC3    O1 6916   3.816   1.747   1.951  0.0898  0.1467  0.1360
  464TMC3    O2 6917   3.648   1.924   1.409  0.0156 -0.3720  0.8449
  465MPD2     C 6918   1.092   0.613  15.916 -0.0898  0.1067  0.6543
  465MPD2    C1 6919   1.070   0.605  16.055 -0.4483  0.6008 -0.0805
  465MPD2    C2 6920   0.964   0.679  16.109 -0.3917  0.4165  0.1290
  465MPD2    C3 6921   0.895   0.779  16.033 -0.2750  0.1734  0.2395
  465MPD2    C4 6922   0.941   0.800  15.902 -0.3610  0.1283 -0.7584
  465MPD2    C5 6923   1.032   0.713  15.840  0.2789  0.1157 -0.0414
  465MPD2     H 6924   0.940   0.662  16.213 -2.3943 -0.5165 -0.4804
  465MPD2    H1 6925   0.901   0.874  15.834 -0.8169  0.1331 -0.4841
  465MPD2    H2 6926   1.170   0.549  15.876 -0.0931  0.9169 -0.6295
  465MPD2    H3 6927   1.062   0.721  15.736  0.8249 -0.2321  0.0871
  465MPD2     N 6928   0.802   0.864  16.099  0.1419  0.1989 -0.2101
  465MPD2    H5 6929   0.792   0.837  16.196  2.1576  0.0638 -0.0372
  465MPD2    N1 6930   1.135   0.514  16.142  0.2107 -0.0807  0.6743
  465MPD2    H7 6931   1.089   0.502  16.232  0.4077  2.3985  1.1055
  466TMC3    C1 6932   0.519   1.091  16.311  0.8043  0.8752 -0.8855
  466TMC3    C2 6933   0.488   1.217  16.272  0.2113 -0.3869 -0.3835
  466TMC3    C3 6934   0.570   1.274  16.179 -0.3332  0.8510 -1.1217
  466TMC3    C4 6935   0.620   1.023  16.253 -0.2889 -0.0131  0.2004
  466TMC3    C5 6936   0.687   1.068  16.142  0.4627  0.1136  0.2426
  466TMC3    C6 6937   0.662   1.199  16.105  0.0377  0.9941 -0.6583
  466TMC3     C 6938   0.459   1.045  16.434 -0.1610 -0.2627 -0.0074
  466TMC3     O 6939   0.515   0.953  16.492 -0.0232 -0.0003 -0.2572
  466TMC3     H 6940   0.412   1.276  16.322  0.7635  1.4848 -1.7595
  466TMC3    H1 6941   0.628   0.920  16.285 -0.6935  0.2202  1.0430
  466TMC3    H2 6942   0.724   1.239  16.025  1.7641  1.2603  0.7918
  466TMC3    C7 6943   0.770   0.988  16.056 -0.2500 -0.6866  0.0932
  466TMC3    C8 6944   0.562   1.411  16.147  0.7516 -0.1288  0.3837
  466TMC3    O1 6945   0.797   1.043  15.949  0.1496 -0.1026 -0.2018
  466TMC3    O2 6946   0.619   1.431  16.040 -0.5478  0.3557 -0.0397
  467TMC3    C1 6947   1.952   4.091  13.783 -0.0646 -1.2022  0.2197
  467TMC3    C2 6948   1.965   4.221  13.727 -0.6747  0.7540 -0.3732
  467TMC3    C3 6949   1.856   4.278  13.658  0.4164  0.0033  0.7635
  467TMC3    C4 6950   1.825   4.031  13.775  0.0769 -0.6082 -0.0537
  467TMC3    C5 6951   1.733   4.076  13.688  0.8558 -0.1003  0.1636
  467TMC3    C6 6952   1.750   4.196  13.622  0.5116 -0.1589 -0.1769
  467TMC3     C 6953   2.047   3.990  13.754  0.5285  0.1225  1.1152
  467TMC3     O 6954   2.004   3.885  13.705  0.4020 -0.0839  0.3032
  467TMC3     H 6955   2.062   4.267  13.712 -0.5279  0.7195  0.4246
  467TMC3    H1 6956   1.794   3.948  13.838  1.9031  0.1097  1.7732
  467TMC3    H2 6957   1.696   4.224  13.532 -0.3343 -2.7047 -0.4793
  467TMC3    C7 6958   1.615   3.991  13.679  0.9532 -0.0504  0.6007
  467TMC3    C8 6959   1.907   4.387  13.573 -0.8414 -0.2010  0.3665
  467TMC3    O1 6960   1.624   3.872  13.699 -0.1086  0.0291  0.0018
  467TMC3    O2 6961   1.955   4.483  13.631  0.0759 -0.4123 -0.7468
  468MPD2     C 6962   1.149   2.058  10.421 -0.5089  0.2037  0.1107
  468MPD2    C1 6963   1.172   2.060  10.559  0.1746 -0.4233  0.9166
  468MPD2    C2 6964   1.176   1.940  10.633  0.0563  0.5300 -0.0314
  468MPD2    C3 6965   1.163   1.822  10.574  0.5950 -0.7116  0.2961
  468MPD2    C4 6966   1.158   1.816  10.433 -0.2977  0.1878  0.1223
  468MPD2    C5 6967   1.148   1.933  10.363 -0.5201 -0.0314 -0.1143
  468MPD2     H 6968   1.170   1.949  10.741 -1.8056 -1.1428  0.0004
  468MPD2    H1 6969   1.143   1.729  10.370 -0.2672 -0.4963  1.0686
  468MPD2    H2 6970   1.158   2.145  10.358 -2.3570  0.9276  0.8619
  468MPD2    H3 6971   1.144   1.922  10.255  1.0936 -1.9107  0.0073
  468MPD2     N 6972   1.147   1.702  10.650 -0.2501  0.3191 -0.0352
  468MPD2    H5 6973   1.141   1.622  10.588 -1.8564 -2.5644  3.8472
  468MPD2    N1 6974   1.202   2.177  10.638  0.0885 -0.1417  0.2441
  468MPD2    H7 6975   1.219   2.154  10.736 -0.3779 -2.8369 -0.3069
  469TMC3    C1 6976   1.208   2.398  10.694  0.2390  0.0526 -0.3391
  469TMC3    C2 6977   1.327   2.388  10.762  0.4717 -0.3157  0.4138
  469TMC3    C3 6978   1.375   2.494  10.834  0.6534 -0.1568 -0.0169
  469TMC3    C4 6979   1.148   2.519  10.685 -0.2943 -0.4256  0.1933
  469TMC3    C5 6980   1.183   2.616  10.770  0.9008  0.5026  0.4584
  469TMC3    C6 6981   1.291   2.598  10.852 -0.0336  0.0492 -0.4872
  469TMC3     C 6982   1.180   2.302  10.598 -0.4409 -0.4852 -0.7921
  469TMC3     O 6983   1.131   2.348  10.496  0.1041  0.0880  0.8727
  469TMC3     H 6984   1.395   2.306  10.741  0.3196 -0.3696  0.1308
  469TMC3    H1 6985   1.057   2.529  10.627  0.7817  0.0190 -1.3965
  469TMC3    H2 6986   1.325   2.683  10.909 -0.0137 -0.7709  0.7343
  469TMC3    C7 6987   1.088   2.724  10.795 -0.4006  0.1674 -0.6156
  469TMC3    C8 6988   1.460   2.458  10.945 -0.6280  0.7168 -0.8380
  469TMC3    O1 6989   1.132   2.827  10.841 -0.6640  0.0607 -0.2161
  469TMC3    O2 6990   1.428   2.502  11.056  0.3946 -0.8157  0.0033
  470TMC3    C1 6991   4.028   3.878   0.521  0.1177 -0.4758 -1.2446
  470TMC3    C2 6992   3.932   3.928   0.437 -0.5223 -0.7152 -0.0648
  470TMC3    C3 6993   3.825   3.854   0.390 -0.0893 -0.5332 -0.0448
  470TMC3    C4 6994   4.017   3.741   0.550 -0.0149 -1.1148 -0.2334
  470TMC3    C5 6995   3.911   3.668   0.494 -0.5078  0.7469 -0.4673
  470TMC3    C6 6996   3.826   3.718   0.401 -0.1807 -0.2528 -0.6585
  470TMC3     C 6997   4.155   3.945   0.512 -0.4963 -0.5922  0.1984
  470TMC3     O 6998   4.141   4.064   0.539  0.4159  0.2789  0.0503
  470TMC3     H 6999   3.922   4.035   0.427 -0.6052 -0.6504  0.7919
  470TMC3    H1 7000   4.092   3.689   0.610  1.6656  1.0669 -0.4064
  470TMC3    H2 7001   3.738   3.662   0.372  0.4812 -0.1208 -2.9217
  470TMC3    C7 7002   3.852   3.553   0.568  0.4911  0.0757  0.0201
  470TMC3    C8 7003   3.701   3.916   0.423  0.5484  0.1352 -0.3498
  470TMC3    O1 7004   3.784   3.472   0.507  0.4527 -0.2700  0.0660
  470TMC3    O2 7005   3.706   4.009   0.504  0.0948 -0.4441  0.1856
  471MPD2     C 7006   3.910   4.626  16.531 -0.6246  0.4662 -0.1301
  471MPD2    C1 7007   3.879   4.490  16.519 -0.3020  0.0958  0.1756
  471MPD2    C2 7008   3.933   4.394  16.606 -0.3643 -0.2167 -0.3118
  471MPD2    C3 7009   4.023   4.440  16.710  0.1791 -0.0453  0.0355
  471MPD2    C4 7010   4.063   4.572  16.702 -0.0368 -1.0183 -0.2008
  471MPD2    C5 7011   4.005   4.665  16.622 -0.1737  0.2302 -0.1698
  471MPD2     H 7012   3.907   4.291  16.588  1.0176 -0.7372  0.6940
  471MPD2    H1 7013   4.132   4.606  16.778 -0.0823  0.6666 -0.9152
  471MPD2    H2 7014   3.871   4.697  16.459  0.2366 -1.2039 -2.2441
  471MPD2    H3 7015   4.044   0.041  16.629 -1.8632  0.7254  1.7717
  471MPD2     N 7016   4.091   4.356  16.806 -0.1096  0.2083  0.9403
  471MPD2    H5 7017   4.165   4.407  16.852  0.3689 -0.2959  0.7218
  471MPD2    N1 7018   3.786   4.441  16.421 -0.2456  0.1527 -0.9546
  471MPD2    H7 7019   3.770   4.340  16.426  1.8947 -0.1535 -0.4278
  472TMC3    C1 7020   3.642   4.426  16.235  0.8455  0.2455  0.2347
  472TMC3    C2 7021   3.563   4.490  16.140 -0.3767 -0.5068 -0.4677
  472TMC3    C3 7022   3.494   4.413  16.048 -0.7950  0.1903 -0.5261
  472TMC3    C4 7023   3.649   4.286  16.240  0.6259  0.0855 -0.2426
  472TMC3    C5 7024   3.576   4.205  16.153  0.5591  0.2649 -0.1279
  472TMC3    C6 7025   3.504   4.277  16.052 -0.2201 -0.1235  0.2872
  472TMC3     C 7026   3.730   4.513  16.323 -0.2978  0.7611 -0.0217
  472TMC3     O 7027   3.737   4.630  16.291  0.1792 -0.0515 -0.3258
  472TMC3     H 7028   3.540   4.596  16.150 -0.7794 -0.6038 -0.3507
  472TMC3    H1 7029   3.710   4.241  16.318 -1.5438 -1.4376  0.5967
  472TMC3    H2 7030   3.437   4.218  15.991  0.7645 -0.6415 -0.3050
  472TMC3    C7 7031   3.496   4.102  16.220 -0.1068  0.3120 -0.8835
  472TMC3    C8 7032   3.377   4.456  15.986  0.3601 -0.0776  0.1821
  472TMC3    O1 7033   3.545   4.046  16.317  0.3345 -0.0451  0.5420
  472TMC3    O2 7034   3.370   4.434  15.868 -0.1145 -0.0861  0.0392
  473MPD2     C 7035   3.053   1.735  14.018 -0.3171  0.5486 -0.0067
  473MPD2    C1 7036   3.061   1.825  13.915  0.4699 -0.0506  0.7477
  473MPD2    C2 7037   3.119   1.952  13.942  0.0283 -0.1651 -0.6286
  473MPD2    C3 7038   3.187   1.980  14.061  0.5598 -0.3933 -0.0627
  473MPD2    C4 7039   3.174   1.884  14.162  0.5526  0.4071  0.2367
  473MPD2    C5 7040   3.115   1.761  14.137  0.3855 -0.5318 -0.2464
  473MPD2     H 7041   3.104   2.026  13.864  0.0065  0.2317 -0.2413
  473MPD2    H1 7042   3.201   1.905  14.265 -1.1596  0.9445  0.5733
  473MPD2    H2 7043   2.990   1.648  14.006 -0.6037  0.6235  0.9180
  473MPD2    H3 7044   3.111   1.687  14.216 -2.4993 -1.6160 -1.3983
  473MPD2     N 7045   3.258   2.097  14.088  0.2090  0.2694 -0.2953
  473MPD2    H5 7046   3.301   2.106  14.179 -0.2381 -0.1051 -0.0468
  473MPD2    N1 7047   3.009   1.795  13.784  0.6005  0.1867 -0.1144
  473MPD2    H7 7048   3.024   1.859  13.707  0.6654  0.5820  0.2266
  474TMC3    C1 7049   3.319   2.315  14.099 -0.8014 -0.5033  0.3519
  474TMC3    C2 7050   3.262   2.435  14.093  0.2666  0.4506 -0.4384
  474TMC3    C3 7051   3.297   2.534  14.186  0.7831  0.3403 -1.0346
  474TMC3    C4 7052   3.422   2.289  14.190 -0.3786 -0.9766  0.0943
  474TMC3    C5 7053   3.444   2.387  14.285 -0.4079 -0.5257 -0.4058
  474TMC3    C6 7054   3.380   2.505  14.291 -0.1517  0.2079 -0.5520
  474TMC3     C 7055   3.241   2.218  14.029 -0.0181  0.0417  0.0413
  474TMC3     O 7056   3.174   2.248  13.931  0.1481  0.0996 -0.6964
  474TMC3     H 7057   3.175   2.454  14.032 -0.5616  3.0512  1.5687
  474TMC3    H1 7058   3.465   2.189  14.196  1.3775 -0.1253  1.6541
  474TMC3    H2 7059   3.403   2.574  14.371  1.2648 -0.2403 -0.5655
  474TMC3    C7 7060   3.535   2.344  14.390 -0.2932  0.1542 -0.8547
  474TMC3    C8 7061   3.210   2.647  14.204  0.2326  0.3783 -1.1791
  474TMC3    O1 7062   3.635   2.272  14.371 -0.0644 -0.5142 -0.4140
  474TMC3    O2 7063   3.101   2.646  14.146 -0.4700  0.5980  0.0835
  475MPD2     C 7064   1.985   4.525  10.451  0.7495 -0.4270  0.1285
  475MPD2    C1 7065   1.973   4.660  10.458  0.1237 -0.0701 -0.1043
  475MPD2    C2 7066   1.850   4.712  10.465  0.6663  0.9499  0.5915
  475MPD2    C3 7067   1.737   4.633  10.446 -0.0803  0.2739  0.4778
  475MPD2    C4 7068   1.749   4.496  10.425 -0.8308  0.2162 -0.1145
  475MPD2    C5 7069   1.879   4.446  10.437  0.0019 -0.1451 -0.0828
  475MPD2     H 7070   1.842   0.094  10.477 -0.9591  0.7472  1.3364
  475MPD2    H1 7071   1.662   4.434  10.408 -0.9634  0.3955 -0.0972
  475MPD2    H2 7072   2.081   4.473  10.449 -0.5326 -2.9065  3.8997
  475MPD2    H3 7073   1.881   4.338  10.426 -0.3078 -0.1972  0.3691
  475MPD2     N 7074   1.616   4.704  10.430  0.2908  0.0391 -0.2036
  475MPD2    H5 7075   1.623   0.079  10.447  0.9113  0.3899 -2.5604
  475MPD2    N1 7076   2.087   0.019  10.455  0.0133 -0.7537  0.3818
  475MPD2    H7 7077   2.158   4.707  10.392  1.7866  0.7695  1.4805
  476TMC3    C1 7078   2.226   0.203  10.478  0.2462 -0.1180  0.3086
  476TMC3    C2 7079   2.224   0.201  10.338 -0.4771  0.1227  0.7995
  476TMC3    C3 7080   2.237   0.321  10.272  0.5340  0.0876 -1.0357
  476TMC3    C4 7081   2.257   0.324  10.546  0.1223 -0.1649 -0.1424
  476TMC3    C5 7082   2.276   0.434  10.473 -0.2775  0.0098 -0.6756
  476TMC3    C6 7083   2.276   0.439  10.334 -0.3810 -0.5429  0.9947
  476TMC3     C 7084   2.099   0.139  10.525 -0.4435 -1.2431  0.3087
  476TMC3     O 7085   2.031   0.202  10.604 -0.0843 -0.0366  0.2153
  476TMC3     H 7086   2.215   0.112  10.277  0.0121  0.4957  0.1831
  476TMC3    H1 7087   2.262   0.324  10.654  0.2064  0.2974 -0.1491
  476TMC3    H2 7088   2.286   0.537  10.288 -3.0497  0.5748  2.8257
  476TMC3    C7 7089   2.325   0.555  10.540 -0.1462 -0.1441  0.4487
  476TMC3    C8 7090   2.127   0.346  10.180  0.1806  0.0209 -0.3085
  476TMC3    O1 7091   2.379   0.641  10.473  0.1739  0.1871  0.3475
  476TMC3    O2 7092   2.088   0.461  10.164 -0.0501  0.0332  0.2523
  477MPD2     C 7093   3.620   1.170  11.607 -0.6373 -0.3857  0.6725
  477MPD2    C1 7094   3.678   1.296  11.616  0.1537 -0.7085 -0.2105
  477MPD2    C2 7095   3.782   1.311  11.705  0.3236 -0.2680  0.0562
  477MPD2    C3 7096   3.833   1.206  11.777 -0.1026 -0.1004 -0.2900
  477MPD2    C4 7097   3.789   1.078  11.759  0.2110 -0.1479 -0.2706
  477MPD2    C5 7098   3.678   1.061  11.678  0.4182  0.3589 -0.0848
  477MPD2     H 7099   3.831   1.407  11.715 -0.5044  0.1356  0.2059
  477MPD2    H1 7100   3.823   0.993  11.817  0.4279 -0.1642 -0.4214
  477MPD2    H2 7101   3.536   1.145  11.543 -0.6241  0.6729  0.2348
  477MPD2    H3 7102   3.630   0.964  11.671 -1.9324  1.3321  2.7091
  477MPD2     N 7103   3.936   1.228  11.876  1.3789 -0.0537 -0.0834
  477MPD2    H5 7104   3.965   1.142  11.922 -1.2885 -1.2456 -0.6367
  477MPD2    N1 7105   3.610   1.401  11.547  0.2001  0.2261  0.1970
  477MPD2    H7 7106   3.535   1.376  11.484  1.5740 -0.3276 -1.1982
  478TMC3    C1 7107   3.571   1.637  11.497 -0.3973 -0.6364  0.5869
  478TMC3    C2 7108   3.598   1.760  11.543  0.2817  0.1100  0.4397
  478TMC3    C3 7109   3.568   1.861  11.454 -0.1640  0.8505  0.2581
  478TMC3    C4 7110   3.496   1.608  11.390 -0.1374  0.3435  0.8703
  478TMC3    C5 7111   3.465   1.707  11.307 -0.4591  0.2876  1.2066
  478TMC3    C6 7112   3.494   1.837  11.338  0.4636 -0.3443  0.2414
  478TMC3     C 7113   3.648   1.535  11.563  0.6559 -0.0653  0.1438
  478TMC3     O 7114   3.744   1.583  11.621  0.3017  0.1046  0.3354
  478TMC3     H 7115   3.646   1.779  11.638 -1.7282  1.0637  1.2516
  478TMC3    H1 7116   3.466   1.505  11.373  1.6255  0.3844 -2.3825
  478TMC3    H2 7117   3.476   1.919  11.270  1.8709 -0.3664 -0.1590
  478TMC3    C7 7118   3.381   1.669  11.194  0.4240 -0.1819 -0.8447
  478TMC3    C8 7119   3.607   2.000  11.478  0.5475 -0.6561  0.0160
  478TMC3    O1 7120   3.369   1.550  11.177  0.0513  0.1265 -0.1367
  478TMC3    O2 7121   3.614   2.066  11.376 -0.2641 -0.5512  0.1108
  479MPD2     C 7122   2.904   4.051  15.071  0.3264 -0.2299 -0.3102
  479MPD2    C1 7123   2.828   4.002  15.172  0.4734 -0.0834 -0.2791
  479MPD2    C2 7124   2.891   3.967  15.286 -0.0211 -0.1610 -0.4316
  479MPD2    C3 7125   3.024   4.006  15.306  0.3238  0.0307  0.3971
  479MPD2    C4 7126   3.095   4.061  15.204 -1.0609  0.1589  0.6849
  479MPD2    C5 7127   3.035   4.076  15.083 -0.8628 -1.0236 -0.0435
  479MPD2     H 7128   2.843   3.919  15.371 -1.0551 -1.4586 -1.7639
  479MPD2    H1 7129   3.199   4.088  15.210 -0.7889 -0.9502  1.1025
  479MPD2    H2 7130   2.870   4.074  14.971 -0.9301  1.0715  0.4162
  479MPD2    H3 7131   3.097   4.105  15.000  0.4391  0.1411  1.3305
  479MPD2     N 7132   3.109   3.993  15.419 -0.4637 -0.4392  0.1800
  479MPD2    H5 7133   3.206   4.011  15.394 -0.3693 -0.2051  0.7030
  479MPD2    N1 7134   2.691   3.979  15.149  0.2160  0.1688 -0.1595
  479MPD2    H7 7135   2.663   3.981  15.051 -0.1571  0.3098 -0.0503
  480TMC3    C1 7136   2.784   3.978  15.759  0.4554  0.8035  0.3544
  480TMC3    C2 7137   2.723   4.097  15.722  0.6985 -0.3675  0.1255
  480TMC3    C3 7138   2.772   4.165  15.620 -0.2439 -0.4141 -0.4084
  480TMC3    C4 7139   2.897   3.932  15.703  0.6512 -0.2440  0.2067
  480TMC3    C5 7140   2.948   4.001  15.600  0.7147 -0.6880  0.0665
  480TMC3    C6 7141   2.894   4.121  15.565 -0.0492  0.0923 -0.1550
  480TMC3     C 7142   2.753   3.926  15.892 -0.2295 -0.7126  0.2391
  480TMC3     O 7143   2.720   4.016  15.973  0.5852 -0.0560 -0.3833
  480TMC3     H 7144   2.631   4.120  15.774  1.2875  2.8490 -0.2391
  480TMC3    H1 7145   2.963   3.854  15.738  0.7632 -0.7081 -1.0286
  480TMC3    H2 7146   2.942   4.183  15.491 -0.3724  0.4373 -0.0681
  480TMC3    C7 7147   3.081   3.972  15.552 -0.4704  0.0000  0.1710
  480TMC3    C8 7148   2.676   4.228  15.534 -0.5327  0.0591  0.1219
  480TMC3    O1 7149   3.156   3.941  15.642 -0.0920  0.3626  0.3272
  480TMC3    O2 7150   2.578   4.271  15.589 -0.2252 -0.0421 -0.6063
  481MPD2     C 7151   4.170   2.749  13.985 -0.5084 -0.8834  1.0675
  481MPD2    C1 7152   4.213   2.867  13.936  0.3186 -0.4537  0.4779
  481MPD2    C2 7153   4.211   2.980  14.019 -0.3616  0.9121 -0.2443
  481MPD2    C3 7154   4.164   2.974  14.149 -0.0741  0.4859  0.0814
  481MPD2    C4 7155   4.125   2.855  14.194  0.4782  0.3329  0.2073
  481MPD2    C5 7156   4.129   2.741  14.117  0.4084 -0.9425 -0.6095
  481MPD2     H 7157   4.253   3.073  13.982  1.6824 -0.3723 -1.0799
  481MPD2    H1 7158   4.104   2.833  14.298 -1.6891  0.8693 -0.1192
  481MPD2    H2 7159   4.168   2.664  13.918  2.3390 -1.0293  1.1797
  481MPD2    H3 7160   4.109   2.645  14.163 -0.1732 -0.6305 -0.2074
  481MPD2     N 7161   4.148   3.090  14.234  0.1083 -0.7970  0.2437
  481MPD2    H5 7162   4.119   3.071  14.330  2.1689 -0.2936  0.9535
  481MPD2    N1 7163   4.246   2.874  13.797  0.3261 -0.4252 -0.1495
  481MPD2    H7 7164   4.230   2.787  13.746  0.9207  0.1220 -1.2866
  482TMC3    C1 7165   4.229   2.979  13.588  0.2670  0.4613  0.1352
  482TMC3    C2 7166   4.114   2.902  13.561 -0.2243  0.2731  0.0799
  482TMC3    C3 7167   4.013   2.955  13.476 -0.8256  0.1289 -0.0363
  482TMC3    C4 7168   4.236   3.104  13.525  0.1906 -0.0052  1.1704
  482TMC3    C5 7169   4.132   3.149  13.443  0.9855 -0.0299 -0.2074
  482TMC3    C6 7170   4.021   3.077  13.416 -0.1242 -0.2413  1.3010
  482TMC3     C 7171   4.268   2.991  13.727 -0.1221 -0.5461 -0.4961
  482TMC3     O 7172   4.282   3.104  13.759 -0.3464 -0.0916 -0.0118
  482TMC3     H 7173   4.101   2.806  13.609  0.1009  1.5503  2.6775
  482TMC3    H1 7174   4.316   3.172  13.555  1.6843 -2.0111  1.7395
  482TMC3    H2 7175   3.948   3.109  13.342  0.0661 -2.0572  0.3078
  482TMC3    C7 7176   4.123   3.284  13.399 -0.3691  0.5290 -0.3200
  482TMC3    C8 7177   3.883   2.884  13.468  0.6351  0.2270 -0.7479
  482TMC3    O1 7178   4.026   3.326  13.335  0.1778 -0.9358  0.4743
  482TMC3    O2 7179   3.870   2.796  13.549 -0.2156 -0.1194 -0.0012
  483TMC3    C1 7180   1.805   1.820   0.248 -0.0308  0.4560  0.0857
  483TMC3    C2 7181   1.785   1.945   0.211 -0.2873  0.0089  0.1823
  483TMC3    C3 7182   1.776   2.030   0.322 -0.2040 -0.2094  0.2424
  483TMC3    C4 7183   1.820   1.770   0.378  0.0078 -0.1213  0.6326
  483TMC3    C5 7184   1.825   1.868   0.473 -0.1846 -0.3022 -0.9126
  483TMC3    C6 7185   1.800   1.998   0.453  0.2340  0.6961 -0.0898
  483TMC3     C 7186   1.791   1.723   0.143  0.5644 -0.1036  0.2418
  483TMC3     O 7187   1.782   1.757   0.026  0.1056 -0.0851  0.4674
  483TMC3     H 7188   1.757   1.977   0.111  0.3950  1.6861  0.5244
  483TMC3    H1 7189   1.830   1.665   0.403 -1.3307 -0.4212 -0.1217
  483TMC3    H2 7190   1.816   2.069   0.534  3.7423 -0.0335 -0.1234
  483TMC3    C7 7191   1.913   1.833   0.581  0.3757  0.4471  0.2952
  483TMC3    C8 7192   1.816   2.166   0.288 -0.1290 -0.8997 -0.1152
  483TMC3    O1 7193   1.980   1.731   0.568 -0.0984 -0.1002  0.2477
  483TMC3    O2 7194   1.876   2.168   0.181 -0.6345 -0.0326 -0.4033
  484MPD2     C 7195   1.097   0.726  12.357 -0.5892  0.3379  0.1983
  484MPD2    C1 7196   1.072   0.636  12.459  0.1789  0.1709 -0.9986
  484MPD2    C2 7197   1.163   0.585  12.550 -0.6903 -0.2187  0.6753
  484MPD2    C3 7198   1.290   0.631  12.536 -0.8666 -0.1539 -0.6144
  484MPD2    C4 7199   1.321   0.723  12.436  0.0527  0.0745 -0.1809
  484MPD2    C5 7200   1.229   0.771  12.349  0.3067  0.4404  0.1519
  484MPD2     H 7201   1.140   0.509  12.624  0.0014 -0.5303  0.5682
  484MPD2    H1 7202   1.421   0.765  12.430  0.5986 -1.1224  0.5377
  484MPD2    H2 7203   1.021   0.766  12.291  0.3899  1.8439 -0.0295
  484MPD2    H3 7204   1.247   0.855  12.284 -1.2085  1.0321  0.4856
  484MPD2     N 7205   1.395   0.593  12.620 -0.0709  0.7795 -0.8320
  484MPD2    H5 7206   1.486   0.608  12.576 -0.2447  2.1568 -0.7275
  484MPD2    N1 7207   0.935   0.601  12.457 -0.8988  0.0604 -0.2350
  484MPD2    H7 7208   0.874   0.634  12.384  0.9684 -1.0843 -2.3090
  485TMC3    C1 7209   1.509   0.485  12.799 -0.2029 -0.2706 -0.7398
  485TMC3    C2 7210   1.499   0.384  12.884  0.7053 -0.3799 -0.0509
  485TMC3    C3 7211   1.606   0.298  12.902 -0.6451 -0.2511  0.3810
  485TMC3    C4 7212   1.628   0.510  12.739  0.0647 -0.0426 -0.2971
  485TMC3    C5 7213   1.739   0.428  12.754 -0.0599 -0.0411 -0.0021
  485TMC3    C6 7214   1.725   0.322  12.836 -0.7001  0.4359 -0.3648
  485TMC3     C 7215   1.384   0.529  12.742 -0.6140  0.9096  0.6893
  485TMC3     O 7216   1.279   0.495  12.791  0.0816  0.0873 -0.1507
  485TMC3     H 7217   1.402   0.353  12.923 -0.1817  2.9140  0.3639
  485TMC3    H1 7218   1.638   0.594  12.672  1.8545 -1.1325 -1.4168
  485TMC3    H2 7219   1.793   0.238  12.825  1.2034  1.8236  0.6208
  485TMC3    C7 7220   1.788   0.388  12.629  0.1880 -0.4711 -0.6787
  485TMC3    C8 7221   1.561   0.166  12.863  0.5374 -0.0591 -0.6385
  485TMC3    O1 7222   1.833   0.477  12.556 -0.6366 -0.6843  0.2412
  485TMC3    O2 7223   1.472   0.164  12.777  0.0417 -0.2958 -0.3521
  486MPD2     C 7224   3.324   3.981  13.020 -0.2125 -0.1300  0.0290
  486MPD2    C1 7225   3.251   3.969  12.905  0.4857  0.0862 -0.3538
  486MPD2    C2 7226   3.199   4.090  12.849  0.0782 -0.2136 -0.0092
  486MPD2    C3 7227   3.216   4.209  12.913  0.1465  0.2731  0.1332
  486MPD2    C4 7228   3.287   4.216  13.030  0.1475  0.9712 -0.2003
  486MPD2    C5 7229   3.331   4.099  13.088 -0.1153  0.4697 -0.2964
  486MPD2     H 7230   3.134   4.091  12.762 -1.2035  1.1314  0.9600
  486MPD2    H1 7231   3.298   4.301  13.098 -0.9918 -0.7458  2.1362
  486MPD2    H2 7232   3.368   3.892  13.065 -0.7064 -0.2425  0.2841
  486MPD2    H3 7233   3.388   4.098  13.180  0.1019 -3.4474 -0.4850
  486MPD2     N 7234   3.156   4.324  12.857 -0.2818  0.0109 -0.0101
  486MPD2    H5 7235   3.105   4.309  12.770 -0.8124  0.9690  0.1377
  486MPD2    N1 7236   3.223   3.841  12.856  0.2320 -0.2275  0.4371
  486MPD2    H7 7237   3.257   3.760  12.905 -0.1919 -0.5393  0.2195
  487TMC3    C1 7238   3.143   3.669  12.722 -0.1821 -0.1037  0.0840
  487TMC3    C2 7239   3.032   3.618  12.672  0.1763 -0.3318 -0.2243
  487TMC3    C3 7240   3.017   3.478  12.658  0.6414 -0.1544 -0.1216
  487TMC3    C4 7241   3.248   3.588  12.756  0.5565  0.0661  0.2518
  487TMC3    C5 7242   3.240   3.458  12.711 -0.0423  0.0607 -0.0148
  487TMC3    C6 7243   3.128   3.400  12.654 -0.5181  0.1504 -0.4450
  487TMC3     C 7244   3.141   3.812  12.743 -0.0915 -0.2433  0.8921
  487TMC3     O 7245   3.078   3.879  12.665 -0.1751  0.4623  0.5058
  487TMC3     H 7246   2.942   3.675  12.650  0.1677 -0.3211 -0.1621
  487TMC3    H1 7247   3.344   3.631  12.781 -0.0020  2.3220 -1.4467
  487TMC3    H2 7248   3.108   3.295  12.637  0.4604  0.0935 -1.2390
  487TMC3    C7 7249   3.302   3.367  12.807 -0.2071  0.0977  0.4656
  487TMC3    C8 7250   2.907   3.426  12.734  0.0177  0.2100 -0.2607
  487TMC3    O1 7251   3.349   3.423  12.905 -0.1672  0.1036 -0.5159
  487TMC3    O2 7252   2.840   3.506  12.799  0.5254 -0.3985  0.9271
  488MPD2     C 7253   2.665   0.985  16.731 -0.2105  0.3846 -0.5996
  488MPD2    C1 7254   2.613   1.106  16.770 -0.5802  0.5774  0.5504
  488MPD2    C2 7255   2.525   1.110  16.879  0.3250  0.0828 -0.6310
  488MPD2    C3 7256   2.499   0.996  16.951  0.2468  0.7675  1.1485
  488MPD2    C4 7257   2.553   0.873  16.904 -0.6979 -0.6442 -0.3776
  488MPD2    C5 7258   2.641   0.871  16.799  0.1891 -0.0112  0.7828
  488MPD2     H 7259   2.467   1.201  16.891  1.4602  0.5233  1.6787
  488MPD2    H1 7260   2.539   0.777  16.953 -0.5233 -1.3152 -1.6444
  488MPD2    H2 7261   2.733   0.977  16.647  0.0343  0.3672 -0.3998
  488MPD2    H3 7262   2.687   0.779  16.764 -0.4650 -0.6018  1.4671
  488MPD2     N 7263   2.405   1.003  17.060 -0.4998  0.0905 -0.0747
  488MPD2    H5 7264   2.347   1.084  17.079  1.0866  0.9932  1.0043
  488MPD2    N1 7265   2.628   1.225  16.694  0.3587 -0.7774  0.1765
  488MPD2    H7 7266   2.582   1.311  16.725  2.0274  0.2281 -0.1191
  489TMC3    C1 7267   2.262   0.923  17.233 -0.5591  0.0254 -0.7347
  489TMC3    C2 7268   2.173   1.001  17.166 -0.3009  0.3395 -0.7041
  489TMC3    C3 7269   2.097   1.086  17.235 -0.3903 -0.0891 -0.6807
  489TMC3    C4 7270   2.276   0.931  17.365 -0.0927  0.3946 -0.1057
  489TMC3    C5 7271   2.189   1.011  17.434 -1.2332  0.0509 -0.6178
  489TMC3    C6 7272   2.097   1.088  17.371  0.2723 -0.4230  0.4031
  489TMC3     C 7273   2.379   0.895  17.145 -0.1485  0.8095  0.4549
  489TMC3     O 7274   2.453   0.799  17.162 -0.1519 -0.3196  0.4640
  489TMC3     H 7275   2.170   0.996  17.057  1.4237  0.5281 -0.7558
  489TMC3    H1 7276   2.362   0.900  17.424 -0.0679 -0.5651 -0.6327
  489TMC3    H2 7277   2.041   1.163  17.425  0.5942 -0.4091  0.7136
  489TMC3    C7 7278   2.212   1.052  17.565 -0.2606 -0.2037  0.0666
  489TMC3    C8 7279   2.078   1.215  17.174 -0.3408  0.1447 -0.1660
  489TMC3    O1 7280   2.191   1.169  17.585  0.4872  0.3891 -0.5471
  489TMC3    O2 7281   2.174   1.245  17.100  0.2789 -0.8133  0.0856
  490MPD2     C 7282   4.038   0.111  17.248 -0.2656  0.6683 -0.3590
  490MPD2    C1 7283   3.926   0.159  17.319  0.2083  0.0712 -0.0568
  490MPD2    C2 7284   3.938   0.263  17.409  0.0958 -0.3502  0.8882
  490MPD2    C3 7285   4.058   0.319  17.430 -0.0006  0.4149  0.1680
  490MPD2    C4 7286   4.163   0.285  17.349  0.0460 -0.0935  0.2723
  490MPD2    C5 7287   4.158   0.183  17.257 -0.0638 -0.7147  1.0055
  490MPD2     H 7288   3.849   0.288  17.467 -0.4115 -2.6008  1.0861
  490MPD2    H1 7289   4.263   0.326  17.349  0.1814 -0.4535 -1.0748
  490MPD2    H2 7290   4.028   0.019  17.192  0.4340 -0.0645  0.7233
  490MPD2    H3 7291   4.240   0.150  17.195 -0.8839 -1.0065  0.0693
  490MPD2     N 7292   4.084   0.430  17.522  0.4951 -0.5367 -0.1701
  490MPD2    H5 7293   4.173   0.478  17.511  0.2403 -0.3211 -1.2400
  490MPD2    N1 7294   3.804   0.093  17.327  0.2149 -0.8831 -0.2579
  490MPD2    H7 7295   3.743   0.134  17.397  1.1819 -0.8686  0.5846
  491TMC3    C1 7296   3.624   4.675  17.281 -0.2907 -0.2582  0.2042
  491TMC3    C2 7297   3.572   4.666  17.407 -0.4730  0.2665 -0.3426
  491TMC3    C3 7298   3.449   4.608  17.418 -0.1930 -0.3516 -0.2855
  491TMC3    C4 7299   3.551   4.656  17.166  0.3131 -0.0054  0.7901
  491TMC3    C5 7300   3.426   4.608  17.183 -0.0889  0.4614  0.3808
  491TMC3    C6 7301   3.369   4.579  17.307  0.1769 -0.3184  0.3068
  491TMC3     C 7302   3.761   4.713  17.255  0.7581 -0.7711 -0.1320
  491TMC3     O 7303   3.817   4.658  17.164  0.0436  0.0215  0.0939
  491TMC3     H 7304   3.637   4.692  17.490  1.3650 -0.8904 -1.4166
  491TMC3    H1 7305   3.582   4.696  17.070 -3.1778 -0.6721 -0.6186
  491TMC3    H2 7306   3.265   4.552  17.323  0.7586 -1.9374  1.3718
  491TMC3    C7 7307   3.322   4.642  17.087  0.4648 -0.0617 -0.1645
  491TMC3    C8 7308   3.389   4.595  17.546  0.2353 -0.3221  0.8380
  491TMC3    O1 7309   3.320   4.601  16.973 -0.4725  0.2964 -0.3030
  491TMC3    O2 7310   3.277   4.540  17.544 -0.6402 -0.3238  0.5450
  492MPD2     C 7311   4.063   0.413  11.524 -0.4184  1.0628  0.2655
  492MPD2    C1 7312   3.939   0.397  11.466  0.1035 -0.6608  0.7875
  492MPD2    C2 7313   3.834   0.353  11.545 -0.3088 -0.2244 -0.0482
  492MPD2    C3 7314   3.852   0.332  11.679  0.0011 -0.3245  0.4340
  492MPD2    C4 7315   3.973   0.350  11.735 -0.5823 -0.2404  0.7357
  492MPD2    C5 7316   4.078   0.390  11.657  0.0958  0.1060  0.2183
  492MPD2     H 7317   3.737   0.339  11.499 -0.0273 -1.4548 -0.2674
  492MPD2    H1 7318   3.985   0.341  11.842 -0.7679 -0.1247  0.7664
  492MPD2    H2 7319   4.146   0.453  11.467  0.4912 -3.2921 -1.5016
  492MPD2    H3 7320   4.169   0.433  11.699 -0.1475 -0.4218  1.2812
  492MPD2     N 7321   3.756   0.266  11.764 -0.2886  0.2091  0.2337
  492MPD2    H5 7322   3.788   0.250  11.859 -0.9421 -1.6166  0.1413
  492MPD2    N1 7323   3.938   0.423  11.329  0.0525 -0.6526 -0.0972
  492MPD2    H7 7324   4.020   0.455  11.279 -1.3941  4.4289  0.7283
  493TMC3    C1 7325   3.831   0.503  11.132 -0.3941 -0.9987  0.1046
  493TMC3    C2 7326   3.939   0.589  11.112 -0.5166 -0.8422  0.2321
  493TMC3    C3 7327   3.925   0.682  11.013  0.2085  0.7777  0.5001
  493TMC3    C4 7328   3.722   0.507  11.052  0.1775  0.5585  0.6470
  493TMC3    C5 7329   3.708   0.617  10.971  0.1462 -0.2335  0.3256
  493TMC3    C6 7330   3.811   0.712  10.950  0.3821 -0.1676  0.0796
  493TMC3     C 7331   3.823   0.415  11.251  0.0860  0.0692  0.0044
  493TMC3     O 7332   3.720   0.355  11.280  0.0087 -0.3317  0.4219
  493TMC3     H 7333   4.030   0.596  11.170  0.9186 -0.6835 -2.0770
  493TMC3    H1 7334   3.636   0.444  11.071 -1.2099  1.3667 -2.8652
  493TMC3    H2 7335   3.796   0.793  10.880 -3.8801 -1.2890 -0.2718
  493TMC3    C7 7336   3.579   0.641  10.900  0.8401 -0.2445 -0.7919
  493TMC3    C8 7337   4.019   0.794  11.022 -0.1380 -0.0415 -0.2289
  493TMC3    O1 7338   3.575   0.693  10.789  0.0980 -0.1414 -0.2154
  493TMC3    O2 7339   4.103   0.785  11.109  0.1581  0.2478 -0.3109
  494TMC3    C1 7340   4.072   1.801   0.308 -0.5407  0.2838  0.3311
  494TMC3    C2 7341   4.189   1.726   0.328 -0.6228  0.3228 -0.4283
  494TMC3    C3 7342   4.283   1.753   0.233 -0.2612 -0.6504 -0.4690
  494TMC3    C4 7343   4.055   1.889   0.207  0.3499 -0.0484 -0.0103
  494TMC3    C5 7344   4.152   1.899   0.113 -0.2383 -0.4942 -0.2071
  494TMC3    C6 7345   4.270   1.829   0.126 -0.2825  0.3643 -0.2450
  494TMC3     C 7346   3.971   1.813   0.417  0.3652  0.2132  0.0155
  494TMC3     O 7347   3.857   1.856   0.398  0.4137  0.2961 -0.2678
  494TMC3     H 7348   4.206   1.659   0.411 -1.7310  1.2957  0.5936
  494TMC3    H1 7349   3.963   1.945   0.220  1.0372  0.5815  2.1824
  494TMC3    H2 7350   4.349   1.855   0.056 -0.3657 -1.3491 -0.9849
  494TMC3    C7 7351   4.143   2.011   0.019 -0.0359  0.2309  0.0440
  494TMC3    C8 7352   4.393   1.653   0.239 -0.3562  0.4089 -0.0419
  494TMC3    O1 7353   4.208   2.002  17.618  0.2890 -0.4087  0.4060
  494TMC3    O2 7354   4.408   1.584   0.340 -0.3738  0.5494 -0.2189
  495TMC3    C1 7355   3.012   4.317  14.623  0.4247  0.1127 -0.4004
  495TMC3    C2 7356   2.928   4.333  14.521  0.1027  0.9062 -0.9157
  495TMC3    C3 7357   2.791   4.336  14.545  0.9555  0.0871  0.2384
  495TMC3    C4 7358   2.971   4.334  14.744  0.6180 -0.4509 -0.1232
  495TMC3    C5 7359   2.833   4.342  14.770  0.2846 -0.3401  0.1685
  495TMC3    C6 7360   2.742   4.354  14.673 -0.6197  0.5988  0.4519
  495TMC3     C 7361   3.070   4.180  14.593  0.6646  0.1368  0.0754
  495TMC3     O 7362   3.048   4.127  14.484  0.0461  0.6582 -0.1523
  495TMC3     H 7363   2.968   4.333  14.421  0.7062  0.1139 -0.6707
  495TMC3    H1 7364   3.027   4.300  14.830 -1.4897  1.0963  1.8417
  495TMC3    H2 7365   2.635   4.340  14.685 -0.6671  1.7992  1.4238
  495TMC3    C7 7366   2.796   4.354  14.910 -0.0271  0.5662  0.2136
  495TMC3    C8 7367   2.719   4.248  14.453  0.1807 -0.4562  0.5009
  495TMC3    O1 7368   2.886   4.351  14.986  0.6119  0.0846  0.0315
  495TMC3    O2 7369   2.600   4.269  14.429  0.0025  0.2696  0.1687
  496MPD2     C 7370   0.084   4.574  14.992  0.7291  0.6404 -0.3560
  496MPD2    C1 7371   0.161   4.522  15.099  0.4973 -0.2084 -0.2280
  496MPD2    C2 7372   0.100   4.435  15.190  0.2933  0.4055 -0.3661
  496MPD2    C3 7373   4.692   4.391  15.167 -0.7700  0.2927  0.8505
  496MPD2    C4 7374   4.621   4.442  15.062 -0.2383  0.1663 -0.1629
  496MPD2    C5 7375   4.674   4.533  14.983 -0.1341 -0.1142 -0.5146
  496MPD2     H 7376   0.164   4.383  15.260 -0.3502 -1.3408 -1.0783
  496MPD2    H1 7377   4.517   4.413  15.053 -0.5273  1.0721  0.1951
  496MPD2    H2 7378   0.126   4.643  14.920  0.8692 -0.0115 -0.8938
  496MPD2    H3 7379   4.617   4.582  14.905  1.0042  1.1507 -0.5509
  496MPD2     N 7380   4.617   4.302  15.253 -0.3555  0.1280  0.1092
  496MPD2    H5 7381   4.540   4.251  15.211 -0.6072  1.8407 -1.4913
  496MPD2    N1 7382   0.297   4.557  15.117  0.0543  0.3494 -0.4411
  496MPD2    H7 7383   0.339   4.626  15.056  1.3579  0.2317  0.3296
  497TMC3    C1 7384   4.548   4.210  15.458  0.3191  0.3969 -0.3360
  497TMC3    C2 7385   4.483   4.116  15.391  0.1055 -0.0943  0.3064
  497TMC3    C3 7386   4.386   4.047  15.467 -0.2690  1.0779 -0.3497
  497TMC3    C4 7387   4.528   4.242  15.587  0.0281  0.6171  0.2461
  497TMC3    C5 7388   4.437   4.167  15.657  0.4483  0.0881 -0.0321
  497TMC3    C6 7389   4.363   4.070  15.599  1.3455 -0.4000 -0.0912
  497TMC3     C 7390   4.642   4.294  15.390  0.6094 -0.4160 -0.5648
  497TMC3     O 7391   4.716   4.363  15.453  0.1680  0.2423 -0.4078
  497TMC3     H 7392   4.495   4.102  15.284  0.7562  1.2151  0.2122
  497TMC3    H1 7393   4.587   4.322  15.631  1.7672 -0.0879 -0.8648
  497TMC3    H2 7394   4.286   4.018  15.656  1.7537 -0.8963  0.0099
  497TMC3    C7 7395   4.413   4.203  15.792 -0.0863 -0.1252  0.0343
  497TMC3    C8 7396   4.286   3.970  15.384  0.2828 -0.0650  0.0377
  497TMC3    O1 7397   4.308   4.165  15.845 -0.8359 -0.5675 -0.4684
  497TMC3    O2 7398   4.186   3.924  15.437  0.6250 -0.3331  0.5613
  498MPD2     C 7399   0.675   4.710  10.118 -0.1208 -0.4897  0.0745
  498MPD2    C1 7400   0.794   4.654  10.151  0.5961 -0.2876 -0.2475
  498MPD2    C2 7401   0.792   4.540  10.230  0.5185  0.5494  0.2412
  498MPD2    C3 7402   0.680   4.486  10.276  0.6259  0.1142 -0.4818
  498MPD2    C4 7403   0.555   4.544  10.239 -0.2173 -1.0529  0.3309
  498MPD2    C5 7404   0.557   4.651  10.155  0.4316 -0.4142  0.0784
  498MPD2     H 7405   0.884   4.501  10.271  0.1879 -0.0421  0.4268
  498MPD2    H1 7406   0.460   4.503  10.269  0.0349 -1.2492  0.8637
  498MPD2    H2 7407   0.674   0.062  10.042 -0.3238 -1.4574 -0.9091
  498MPD2    H3 7408   0.459   4.690  10.129  0.5834  0.6411  1.1298
  498MPD2     N 7409   0.677   4.365  10.352 -0.6130 -0.0508  0.0502
  498MPD2    H5 7410   0.773   4.343  10.379 -1.1386 -2.5422 -0.1407
  498MPD2    N1 7411   0.916   4.695  10.104  0.2808 -0.4863 -0.7707
  498MPD2    H7 7412   0.998   4.635  10.112 -0.6702 -1.5912  0.7850
  499TMC3    C1 7413   1.067   0.082   9.972  0.1928 -0.0842  0.0690
  499TMC3    C2 7414   1.117   4.692   9.909  0.6970 -0.2295  0.4098
  499TMC3    C3 7415   1.231   4.706   9.825  0.0665  0.4738 -0.4533
  499TMC3    C4 7416   1.131   0.198   9.967  0.2673 -0.2326 -0.5145
  499TMC3    C5 7417   1.249   0.204   9.892  0.3380  0.0590  0.5039
  499TMC3    C6 7418   1.293   0.100   9.820 -0.4509  0.8070  1.1133
  499TMC3     C 7419   0.942   0.089  10.037  0.4190 -0.3992  0.0186
  499TMC3     O 7420   0.880   0.194  10.028 -0.7597 -0.1263 -0.1098
  499TMC3     H 7421   1.065   4.597   9.916 -2.8795  1.6817 -0.2990
  499TMC3    H1 7422   1.107   0.281  10.032  0.1767 -0.8273  0.2215
  499TMC3    H2 7423   1.383   0.116   9.761  0.0631  1.9287  2.1933
  499TMC3    C7 7424   1.306   0.334   9.850  0.9107 -0.1700  0.1959
  499TMC3    C8 7425   1.290   4.597   9.748 -0.4910  0.0230 -0.6563
  499TMC3    O1 7426   1.411   0.348   9.785  0.2337  0.4757 -0.6035
  499TMC3    O2 7427   1.390   4.622   9.679  0.6736 -0.5345 -0.1985
  500MPD2     C 7428   2.708   1.274  10.787 -0.3406 -0.5831 -0.8683
  500MPD2    C1 7429   2.707   1.285  10.652 -0.2456  0.4044 -0.1067
  500MPD2    C2 7430   2.618   1.214  10.578 -1.3753  0.9072  0.1588
  500MPD2    C3 7431   2.510   1.156  10.642 -0.1651 -0.0495 -0.7398
  500MPD2    C4 7432   2.494   1.170  10.779 -0.1778  0.0295 -0.3170
  500MPD2    C5 7433   2.601   1.222  10.847  0.2639  0.4141 -0.1079
  500MPD2     H 7434   2.622   1.224  10.470 -0.0734 -0.2263  0.0972
  500MPD2    H1 7435   2.413   1.119  10.829 -0.5392 -1.3504 -2.3383
  500MPD2    H2 7436   2.778   1.327  10.851 -3.8557  0.4720  2.1140
  500MPD2    H3 7437   2.588   1.235  10.954  1.5808  1.4234 -0.0715
  500MPD2     N 7438   2.419   1.077  10.581 -0.3510  0.4036  0.1268
  500MPD2    H5 7439   2.347   1.038  10.641 -0.4612  1.5362  0.7345
  500MPD2    N1 7440   2.813   1.339  10.574  0.2492 -0.4235  0.5054
  500MPD2    H7 7441   2.808   1.340  10.472 -2.1267  3.2506  0.6304
  501TMC3    C1 7442   3.026   1.428  10.519  0.1535  0.0929  0.2064
  501TMC3    C2 7443   2.985   1.512  10.418  0.0588 -0.2033  0.2424
  501TMC3    C3 7444   3.080   1.574  10.344  0.2792 -1.3833 -0.8276
  501TMC3    C4 7445   3.159   1.399  10.547 -0.1886  0.1510 -0.4538
  501TMC3    C5 7446   3.254   1.464  10.467  0.6125  0.2509  0.9364
  501TMC3    C6 7447   3.217   1.548  10.363 -0.3057  0.1775 -0.8345
  501TMC3     C 7448   2.937   1.382  10.624  0.0648 -0.9334  0.2235
  501TMC3     O 7449   2.991   1.353  10.730 -0.0786  0.2559 -0.3192
  501TMC3     H 7450   2.881   1.541  10.410 -0.4014 -1.1736  2.5895
  501TMC3    H1 7451   3.191   1.327  10.622 -4.6929 -0.2247  1.1340
  501TMC3    H2 7452   3.284   1.604  10.298 -1.5925  3.4312  0.6565
  501TMC3    C7 7453   3.393   1.471  10.523  0.0229  0.2004  0.7323
  501TMC3    C8 7454   3.052   1.720  10.333 -0.7369 -0.2546  0.4190
  501TMC3    O1 7455   3.422   1.383  10.602 -0.2155  0.1260 -0.0667
  501TMC3    O2 7456   2.972   1.766  10.412  0.8727  0.3132  0.2048
  502TMC3    C1 7457   2.162   0.005  14.824 -0.4090 -0.6483 -0.3207
  502TMC3    C2 7458   2.186   0.115  14.748 -0.2644 -0.3738  0.5285
  502TMC3    C3 7459   2.104   0.221  14.766 -1.3640  0.2463  0.1881
  502TMC3    C4 7460   2.064   0.013  14.918  0.3214 -0.4483  0.0859
  502TMC3    C5 7461   1.961   0.098  14.914  0.5950  0.0629 -1.0906
  502TMC3    C6 7462   1.984   0.214  14.836  0.3454  0.3887 -0.0479
  502TMC3     C 7463   2.293   4.694  14.874 -0.5872  0.2204  0.1953
  502TMC3     O 7464   2.377   4.657  14.791 -0.0571 -0.0400  0.0602
  502TMC3     H 7465   2.276   0.116  14.687 -0.3738  0.9578  0.3984
  502TMC3    H1 7466   2.059   4.645  14.972  1.0622 -0.6372 -0.1650
  502TMC3    H2 7467   1.919   0.299  14.852  1.6387  1.1758  1.0214
  502TMC3    C7 7468   1.881   0.116  15.026  0.6143 -0.1464  0.1255
  502TMC3    C8 7469   2.166   0.346  14.727  0.1054 -0.6923 -0.0667
  502TMC3    O1 7470   1.917   0.066  15.130  0.1210  0.7461  0.8537
  502TMC3    O2 7471   2.287   0.349  14.715  0.2110 -0.5005 -0.4755
  503MPD2     C 7472   4.547   0.979  17.059 -0.2326 -0.3939  0.1877
  503MPD2    C1 7473   4.480   0.994  17.185 -0.1774 -0.2480 -0.1862
  503MPD2    C2 7474   4.541   0.956  17.300  0.1627 -0.0840  0.0386
  503MPD2    C3 7475   4.662   0.889  17.292  0.0920 -0.2462 -0.2482
  503MPD2    C4 7476   4.722   0.870  17.169  0.0756 -0.2832  0.0273
  503MPD2    C5 7477   4.666   0.914  17.051 -0.3691  0.2715 -0.0646
  503MPD2     H 7478   4.493   0.962  17.397 -2.2427  1.9885 -1.2838
  503MPD2    H1 7479   0.077   0.799  17.153 -2.2113 -2.0117 -3.9287
  503MPD2    H2 7480   4.506   1.019  16.967  0.7162 -0.3643 -0.2171
  503MPD2    H3 7481   4.721   0.882  16.963 -1.1615  1.7895 -1.1054
  503MPD2     N 7482   4.722   0.826  17.406  0.0536  0.6220 -0.7863
  503MPD2    H5 7483   4.667   0.796  17.487  1.2623 -0.3190 -0.3128
  503MPD2    N1 7484   4.355   1.055  17.196  0.1011  0.3043 -0.3710
  503MPD2    H7 7485   4.317   1.061  17.289 -1.4702  1.7696 -1.1017
  504TMC3    C1 7486   0.175   0.711  17.506 -0.1362  0.1695  0.3511
  504TMC3    C2 7487   0.082   0.629  17.575  0.2903 -0.3366 -0.2804
  504TMC3    C3 7488   0.117   0.499  17.609 -0.4933 -0.5678 -0.1274
  504TMC3    C4 7489   0.293   0.646  17.471  0.6265 -0.2090 -0.0051
  504TMC3    C5 7490   0.334   0.522  17.513  0.1217  0.5722 -0.4076
  504TMC3    C6 7491   0.241   0.444  17.577  0.4398  0.0204  0.1572
  504TMC3     C 7492   0.133   0.815  17.414  1.4293  0.2360 -0.6452
  504TMC3     O 7493   0.222   0.869  17.347 -0.5993 -0.2876 -0.5817
  504TMC3     H 7494   4.710   0.661  17.610 -0.5403 -2.0380 -1.0230
  504TMC3    H1 7495   0.359   0.690  17.397 -0.7643  1.4387 -0.2696
  504TMC3    H2 7496   0.263   0.342  17.608  2.7460  0.8198  1.1627
  504TMC3    C7 7497   0.422   0.463  17.417 -1.0651 -0.1127  0.9434
  504TMC3    C8 7498   0.035   0.432   0.009  0.4970  0.4201  0.1892
  504TMC3    O1 7499   0.396   0.496  17.302 -0.1806 -0.2806 -0.3820
  504TMC3    O2 7500   4.641   0.460   0.015  0.7385 -0.1939  0.2439
  505MPD2     C 7501   0.971   2.914  10.421 -0.5119 -0.1727 -0.1283
  505MPD2    C1 7502   0.966   2.956  10.292  0.2495  0.5561  0.1572
  505MPD2    C2 7503   1.069   3.038  10.254  0.2222  0.0729 -0.3179
  505MPD2    C3 7504   1.173   3.079  10.330  0.1349  0.8712  0.7897
  505MPD2    C4 7505   1.160   3.045  10.462 -0.3968 -0.4518  0.9821
  505MPD2    C5 7506   1.065   2.964  10.504  0.7417  0.7584 -0.3382
  505MPD2     H 7507   1.061   3.066  10.150  2.4535 -1.3675 -0.8703
  505MPD2    H1 7508   1.237   3.069  10.534 -1.9257  1.4040  1.9727
  505MPD2    H2 7509   0.898   2.843  10.457 -0.8703  1.0945  1.6576
  505MPD2    H3 7510   1.066   2.926  10.606 -3.5779 -0.1302 -0.6457
  505MPD2     N 7511   1.275   3.167  10.284 -0.6344 -0.1084  0.6631
  505MPD2    H5 7512   1.353   3.195  10.343 -0.8232  0.2101  0.7597
  505MPD2    N1 7513   0.848   2.930  10.213  0.0229 -0.2046 -1.0323
  505MPD2    H7 7514   0.776   2.879  10.262 -0.1780  1.0258 -0.0617
  506TMC3    C1 7515   0.686   2.995  10.044  1.0465  0.3382  0.1553
  506TMC3    C2 7516   0.599   3.072  10.116  1.0227 -0.4811  0.2048
  506TMC3    C3 7517   0.519   3.160  10.047  0.1420 -0.2228  0.8956
  506TMC3    C4 7518   0.686   3.002   9.907  0.3020  0.1565 -0.3025
  506TMC3    C5 7519   0.601   3.088   9.845  0.2927  0.2705 -0.2931
  506TMC3    C6 7520   0.519   3.172   9.908 -0.5145  0.3011 -0.0110
  506TMC3     C 7521   0.826   2.985  10.083 -0.3932  0.0363  0.1621
  506TMC3     O 7522   0.906   3.021  10.001  0.3388 -0.0249 -0.2265
  506TMC3     H 7523   0.620   3.082  10.222  0.7022  6.9387 -0.4612
  506TMC3    H1 7524   0.754   2.943   9.846  1.6277  0.9272  0.4363
  506TMC3    H2 7525   0.453   3.245   9.863  1.2696  2.2504  0.5858
  506TMC3    C7 7526   0.661   3.159   9.728 -0.3625  0.3000  0.0324
  506TMC3    C8 7527   0.427   3.255  10.118 -0.0379 -0.1359  0.2114
  506TMC3    O1 7528   0.593   3.231   9.656 -0.0272 -0.0319  0.7303
  506TMC3    O2 7529   0.322   3.283  10.065  0.3788  0.0978 -0.2084
  507TMC3    C1 7530   1.168   0.695  14.119 -0.1986 -0.1745 -0.9309
  507TMC3    C2 7531   1.198   0.789  14.021  0.1386 -0.0473 -0.6148
  507TMC3    C3 7532   1.149   0.916  14.032 -1.1362 -0.6409  0.1083
  507TMC3    C4 7533   1.122   0.740  14.241  0.1321  0.4827  0.0559
  507TMC3    C5 7534   1.064   0.872  14.252  0.7129  0.3442 -0.6992
  507TMC3    C6 7535   1.091   0.956  14.148 -0.2296  0.5777 -0.2837
  507TMC3     C 7536   1.101   0.575  14.063 -0.2944 -0.3168  0.1251
  507TMC3     O 7537   1.123   0.553  13.943 -0.1023 -0.0218  0.0088
  507TMC3     H 7538   1.252   0.760  13.932 -0.8834  0.0953 -1.2831
  507TMC3    H1 7539   1.084   0.675  14.319  1.1182  0.8475  0.8463
  507TMC3    H2 7540   1.046   1.054  14.161  0.8609  1.0230  0.1142
  507TMC3    C7 7541   0.927   0.892  14.304  0.2184  0.1464  0.6193
  507TMC3    C8 7542   1.079   0.943  13.914  0.2927  0.1817  0.1206
  507TMC3    O1 7543   0.850   0.957  14.233  0.0549 -0.4540  0.2899
  507TMC3    O2 7544   1.126   0.909  13.808 -0.6247  0.7452 -0.1768
  508MPD2     C 7545   1.439   3.111  15.666  0.0912 -0.8006  0.1521
  508MPD2    C1 7546   1.400   3.207  15.756  0.1357  0.0441 -0.3746
  508MPD2    C2 7547   1.367   3.333  15.708  0.8871  0.0464 -0.2125
  508MPD2    C3 7548   1.394   3.369  15.576 -0.9642 -0.2436 -0.0422
  508MPD2    C4 7549   1.435   3.264  15.493 -0.5272  0.7033  0.3071
  508MPD2    C5 7550   1.455   3.138  15.533 -0.3961 -0.4749  0.6295
  508MPD2     H 7551   1.335   3.410  15.777 -0.0308  0.3939 -1.0253
  508MPD2    H1 7552   1.452   3.289  15.388 -0.1867 -0.2846  0.1213
  508MPD2    H2 7553   1.455   3.010  15.702  2.0105  0.1231  1.9036
  508MPD2    H3 7554   1.505   3.067  15.467 -0.0622 -1.1747  1.6398
  508MPD2     N 7555   1.391   3.500  15.529 -0.9012 -0.0471  0.9445
  508MPD2    H5 7556   1.411   3.511  15.430  1.1256  0.2385  1.3845
  508MPD2    N1 7557   1.403   3.168  15.895  0.0338  0.1576 -0.0978
  508MPD2    H7 7558   1.475   3.101  15.922  0.9899  1.5744  0.8104
  509TMC3    C1 7559   1.320   3.952  15.472  0.6191  0.5465  0.7455
  509TMC3    C2 7560   1.452   3.984  15.462 -0.0702  0.0818 -0.1640
  509TMC3    C3 7561   1.544   3.893  15.511 -0.5741  0.3292  0.3760
  509TMC3    C4 7562   1.283   3.828  15.521 -0.6819  0.5827 -0.3409
  509TMC3    C5 7563   1.376   3.734  15.540 -0.0238 -0.5140 -0.3542
  509TMC3    C6 7564   1.504   3.770  15.550  0.0335  0.0944  0.0924
  509TMC3     C 7565   1.222   3.998  15.382  0.2253  0.4197  0.2493
  509TMC3     O 7566   1.110   3.998  15.420 -0.1407 -0.2137 -0.0835
  509TMC3     H 7567   1.487   4.078  15.420  1.7602 -0.9086 -0.8584
  509TMC3    H1 7568   1.178   3.805  15.514  0.0723 -2.1368 -2.6905
  509TMC3    H2 7569   1.572   3.687  15.567 -0.1016  0.1274  0.7894
  509TMC3    C7 7570   1.336   3.604  15.589  0.1285  0.0535 -0.1702
  509TMC3    C8 7571   1.681   3.890  15.442 -0.3113  0.0203  0.0951
  509TMC3    O1 7572   1.245   3.605  15.671  0.2830  0.1097 -0.0376
  509TMC3    O2 7573   1.723   3.792  15.390 -0.1824  0.3295 -0.0479
  510MPD2     C 7574   4.388   4.458  14.252 -0.4744 -0.1323 -0.0965
  510MPD2    C1 7575   4.461   4.425  14.374 -0.2519  0.2668 -0.6311
  510MPD2    C2 7576   4.596   4.432  14.367 -0.1621  0.2237 -0.1213
  510MPD2    C3 7577   4.658   4.494  14.257 -0.6996 -0.8895  0.5265
  510MPD2    C4 7578   4.577   4.541  14.149 -0.1894  0.3087 -0.2105
  510MPD2    C5 7579   4.443   4.518  14.147  0.0634 -0.3589 -0.8157
  510MPD2     H 7580   4.655   4.411  14.455  2.4927 -2.1987 -2.4960
  510MPD2    H1 7581   4.618   4.593  14.064  1.6672  0.9092  1.0536
  510MPD2    H2 7582   4.281   4.444  14.251 -0.7739  2.4345 -2.0905
  510MPD2    H3 7583   4.388   4.562  14.064  0.5050 -2.7050 -2.3761
  510MPD2     N 7584   0.074   4.511  14.263  0.0310 -0.0618  0.3069
  510MPD2    H5 7585   0.124   4.479  14.345  0.3464 -3.6665 -1.3063
  510MPD2    N1 7586   4.386   4.374  14.480 -0.1953  0.2891  0.2211
  510MPD2    H7 7587   4.286   4.370  14.463 -0.2927 -0.0195  0.8432
  511TMC3    C1 7588   4.341   4.282  14.697 -0.7018 -0.5968  0.6841
  511TMC3    C2 7589   4.339   4.325  14.827  0.0666  0.7654  0.6707
  511TMC3    C3 7590   4.262   4.254  14.915  0.2261  0.1288  0.4550
  511TMC3    C4 7591   4.257   4.187  14.649  0.9295 -0.5237  0.6488
  511TMC3    C5 7592   4.180   4.116  14.746 -1.2567 -0.1107  0.0095
  511TMC3    C6 7593   4.177   4.154  14.874  0.6343  0.3327  0.0971
  511TMC3     C 7594   4.437   4.340  14.607 -0.5998  0.0010 -0.2817
  511TMC3     O 7595   4.549   4.368  14.652 -0.1489 -0.2400 -0.1425
  511TMC3     H 7596   4.387   4.416  14.861  3.6342 -1.6528  2.0122
  511TMC3    H1 7597   4.273   4.155  14.547  0.4258  1.9676 -0.2152
  511TMC3    H2 7598   4.116   4.105  14.949 -0.0308 -0.6126 -1.0701
  511TMC3    C7 7599   4.118   3.988  14.695  0.4434 -0.0780  0.4818
  511TMC3    C8 7600   4.276   4.268  15.058  0.0083 -0.1161  0.0479
  511TMC3    O1 7601   4.102   3.973  14.572  0.0311  0.4909  0.4060
  511TMC3    O2 7602   4.374   4.223  15.110  0.5497 -0.4940  0.5544
  512TMC3    C1 7603   3.649   4.001  12.910  0.4084 -0.4620  0.3393
  512TMC3    C2 7604   3.676   3.950  13.029  0.3632  0.1088  0.5002
  512TMC3    C3 7605   3.670   3.813  13.054  0.2835 -0.5970  0.4618
  512TMC3    C4 7606   3.637   3.918  12.800  0.3656 -1.0380 -0.0598
  512TMC3    C5 7607   3.616   3.783  12.828  0.6833 -0.5694 -0.6560
  512TMC3    C6 7608   3.648   3.725  12.952  0.4016  0.4975 -0.0778
  512TMC3     C 7609   3.681   4.136  12.880 -0.2152  0.1252 -0.2905
  512TMC3     O 7610   3.708   4.157  12.761  0.5133  0.2003  0.5629
  512TMC3     H 7611   3.725   4.015  13.100  1.0116  0.4843 -0.2871
  512TMC3    H1 7612   3.612   3.960  12.704  0.0782 -2.9075 -0.8112
  512TMC3    H2 7613   3.624   3.624  12.982  0.7925  0.8399  1.3977
  512TMC3    C7 7614   3.596   3.695  12.720  0.3287 -0.0553 -0.1872
  512TMC3    C8 7615   3.727   3.755  13.172  0.0565  0.3378 -0.4314
  512TMC3    O1 7616   3.554   3.751  12.620  0.0016 -0.0676 -0.0449
  512TMC3    O2 7617   3.787   3.651  13.147 -0.4347 -0.4406  0.5566
  513MPD2     C 7618   0.417   3.502  13.337  0.0736 -0.0433 -0.5554
  513MPD2    C1 7619   0.476   3.479  13.214  0.0289 -0.4473 -0.4972
  513MPD2    C2 7620   0.575   3.560  13.178 -0.8270  0.2059  0.3788
  513MPD2    C3 7621   0.630   3.653  13.271  0.0962  0.2663  0.5874
  513MPD2    C4 7622   0.573   3.672  13.393 -0.0765  0.0579  0.1999
  513MPD2    C5 7623   0.467   3.596  13.428  0.2135 -0.2109 -0.6367
  513MPD2     H 7624   0.623   3.552  13.082 -0.8089  1.0794  0.3151
  513MPD2    H1 7625   0.610   3.745  13.464 -1.6756  2.1196 -1.0666
  513MPD2    H2 7626   0.328   3.455  13.378  0.5951  0.6413  1.3837
  513MPD2    H3 7627   0.435   3.606  13.531 -0.1726  0.8637 -0.8608
  513MPD2     N 7628   0.748   3.710  13.233 -0.8285  0.3190  0.2438
  513MPD2    H5 7629   0.781   3.688  13.140  0.9720  1.5411  0.5928
  513MPD2    N1 7630   0.423   3.380  13.134 -0.2678 -0.3827  0.1020
  513MPD2    H7 7631   0.345   3.328  13.172 -0.1385 -0.0297  0.8357
  514TMC3    C1 7632   0.425   3.208  12.974 -0.4078  0.7607  0.4992
  514TMC3    C2 7633   0.330   3.227  12.872  0.4929  0.5228 -0.0083
  514TMC3    C3 7634   0.349   3.160  12.755  0.9466 -1.2341  0.4077
  514TMC3    C4 7635   0.530   3.123  12.963  0.0374 -0.0380 -0.2549
  514TMC3    C5 7636   0.539   3.054  12.846  0.3205  0.3209  0.2740
  514TMC3    C6 7637   0.452   3.070  12.736 -1.0360 -0.1138  0.4978
  514TMC3     C 7638   0.485   3.330  13.021 -0.1411  0.7434 -0.7705
  514TMC3     O 7639   0.588   3.355  12.959  0.2119 -0.0522 -0.1971
  514TMC3     H 7640   0.257   3.306  12.883 -0.1226 -0.1644  0.7835
  514TMC3    H1 7641   0.594   3.127  13.050  1.1652 -0.9221 -1.0377
  514TMC3    H2 7642   0.475   3.018  12.644  1.3586  0.3496  0.8135
  514TMC3    C7 7643   0.683   3.044  12.806 -0.6078 -0.8840  0.7268
  514TMC3    C8 7644   0.261   3.177  12.645  0.6687  0.3589  0.4121
  514TMC3    O1 7645   0.720   2.971  12.720 -0.2271 -0.2505 -1.0675
  514TMC3    O2 7646   0.147   3.149  12.679  0.3441  0.1221 -0.8647
  515MPD2     C 7647   2.875   0.822  15.228 -0.2498  0.6319 -0.3468
  515MPD2    C1 7648   2.966   0.839  15.126  0.0672  0.0457 -0.2053
  515MPD2    C2 7649   3.073   0.924  15.145  0.8660 -0.0723  0.0720
  515MPD2    C3 7650   3.093   0.982  15.272  0.1257  0.5521  0.5224
  515MPD2    C4 7651   3.007   0.954  15.378  0.1108  0.2397  0.0292
  515MPD2    C5 7652   2.899   0.870  15.353  0.2818  0.3524 -0.4745
  515MPD2     H 7653   3.131   0.937  15.054  1.1498  0.4844  0.3272
  515MPD2    H1 7654   3.019   1.003  15.473 -0.9742  0.8971 -0.1642
  515MPD2    H2 7655   2.784   0.765  15.212  0.4207  0.3441 -3.1806
  515MPD2    H3 7656   2.832   0.842  15.433 -2.1635  2.5087 -1.7844
  515MPD2     N 7657   3.203   1.060  15.304  0.1505 -0.0109 -0.3926
  515MPD2    H5 7658   3.214   1.089  15.400 -2.9493 -0.0668 -0.0208
  515MPD2    N1 7659   2.952   0.782  14.998 -0.1328  0.0275 -0.0415
  515MPD2    H7 7660   3.033   0.796  14.937 -0.1162 -1.0676 -0.2603
  516TMC3    C1 7661   2.899   0.613  14.850  0.3043 -0.6919  0.1746
  516TMC3    C2 7662   2.927   0.679  14.731 -0.4663  0.4065  0.1374
  516TMC3    C3 7663   2.974   0.603  14.628  0.2501 -0.4161 -0.1864
  516TMC3    C4 7664   2.920   0.480  14.879  0.0414 -0.5012 -0.4033
  516TMC3    C5 7665   2.983   0.415  14.776 -0.3061 -0.2554 -0.1943
  516TMC3    C6 7666   3.000   0.472  14.653  0.4374  0.3364  0.2898
  516TMC3     C 7667   2.855   0.689  14.964 -0.0509 -0.6519  0.7087
  516TMC3     O 7668   2.765   0.636  15.028 -0.4592 -0.0274 -0.2359
  516TMC3     H 7669   2.895   0.781  14.713  0.9624  1.0304  1.1338
  516TMC3    H1 7670   2.911   0.441  14.980 -0.3624 -3.8802 -1.7180
  516TMC3    H2 7671   3.040   0.410  14.573  1.9655  0.6207  0.8235
  516TMC3    C7 7672   3.053   0.294  14.820  0.4181 -0.6936 -0.8894
  516TMC3    C8 7673   2.946   0.655  14.489 -0.1755 -0.0183  0.3336
  516TMC3    O1 7674   3.059   0.273  14.943 -0.1702 -0.2078 -0.0980
  516TMC3    O2 7675   2.858   0.741  14.479  0.0534  0.0543  0.2265
  517MPD2     C 7676   2.335   2.133  17.298 -0.3805 -0.2907  0.3242
  517MPD2    C1 7677   2.454   2.139  17.365 -0.0782 -0.3883 -0.2020
  517MPD2    C2 7678   2.488   2.251  17.431  0.4460 -0.3256  0.1891
  517MPD2    C3 7679   2.393   2.357  17.438 -0.5912  0.9472  0.5357
  517MPD2    C4 7680   2.275   2.353  17.365 -0.5984 -0.0126 -0.1691
  517MPD2    C5 7681   2.246   2.242  17.294  0.1683 -0.2703  0.2110
  517MPD2     H 7682   2.584   2.249  17.481  1.1564  2.6084 -1.0231
  517MPD2    H1 7683   2.205   2.434  17.380 -0.5739  0.0567 -0.4461
  517MPD2    H2 7684   2.305   2.048  17.238 -1.1505 -1.1239  1.8987
  517MPD2    H3 7685   2.155   2.232  17.236 -0.6076 -0.6271  1.4631
  517MPD2     N 7686   2.399   2.466  17.525 -0.3720  0.0598  0.3498
  517MPD2    H5 7687   2.315   2.524  17.527 -1.1452 -1.0683  0.3996
  517MPD2    N1 7688   2.545   2.026  17.364 -0.0062 -0.2102  0.2861
  517MPD2    H7 7689   2.637   2.041  17.405 -0.2402  0.7048  0.4692
  518TMC3    C1 7690   2.610   1.807  17.327 -0.3332  0.0635  0.2202
  518TMC3    C2 7691   2.584   1.672  17.326 -0.4229  0.1495 -0.3418
  518TMC3    C3 7692   2.690   1.587  17.332 -0.1592  0.8796  0.3795
  518TMC3    C4 7693   2.742   1.844  17.327  0.2184 -0.2347 -0.6130
  518TMC3    C5 7694   2.847   1.754  17.318 -1.0803 -0.5437  0.4941
  518TMC3    C6 7695   2.822   1.618  17.327  0.4022 -0.7443  0.7790
  518TMC3     C 7696   2.506   1.900  17.323  0.5615 -0.5245  0.7181
  518TMC3     O 7697   2.391   1.855  17.304 -0.3478  0.1894  0.1672
  518TMC3     H 7698   2.481   1.638  17.331 -0.1782 -1.0192 -3.3004
  518TMC3    H1 7699   2.775   1.947  17.330  0.4379 -0.2717 -1.6046
  518TMC3    H2 7700   2.897   1.540  17.329 -0.4685 -1.6087 -0.9266
  518TMC3    C7 7701   2.983   1.807  17.353  0.1015 -0.2562  1.0932
  518TMC3    C8 7702   2.669   1.456  17.396 -0.1164 -0.1094  0.1779
  518TMC3    O1 7703   3.001   1.915  17.412 -0.0601 -0.5344  0.1680
  518TMC3    O2 7704   2.744   1.369  17.348  0.3568 -0.9104 -0.1686
  519MPD2     C 7705   4.596   0.393  14.379  0.8383 -0.2744  0.4757
  519MPD2    C1 7706   4.546   0.427  14.258  0.3538 -0.5443  0.1185
  519MPD2    C2 7707   4.548   0.342  14.147  0.5738 -0.5186 -0.0908
  519MPD2    C3 7708   4.622   0.230  14.159 -0.2786  0.2883  0.3030
  519MPD2    C4 7709   4.686   0.205  14.273 -0.4417  0.0043  0.1731
  519MPD2    C5 7710   4.663   0.276  14.388  0.2551 -0.9668  0.4932
  519MPD2     H 7711   4.493   0.355  14.055 -1.6444 -0.1940  1.2901
  519MPD2    H1 7712   0.026   0.120  14.290  0.6858  1.1194  1.4263
  519MPD2    H2 7713   4.567   0.452  14.464  0.4948 -0.0278  0.1878
  519MPD2    H3 7714   4.706   0.245  14.483 -1.1606 -1.5664  0.9380
  519MPD2     N 7715   4.659   0.144  14.056  0.5714  0.1926  0.2998
  519MPD2    H5 7716   0.012   0.081  14.064  0.4358  0.1976  1.5888
  519MPD2    N1 7717   4.490   0.558  14.246  0.1226  0.5000 -0.3236
  519MPD2    H7 7718   4.485   0.611  14.332  0.2715  0.0817 -0.0609
  520TMC3    C1 7719   4.698   0.105  13.819 -0.5695 -0.3989 -0.2401
  520TMC3    C2 7720   4.639   0.165  13.707  0.2714  0.1051 -0.2258
  520TMC3    C3 7721   4.712   0.208  13.599  0.4036 -0.1331 -0.8981
  520TMC3    C4 7722   0.105   0.125  13.837 -0.2856 -0.0675 -0.3869
  520TMC3    C5 7723   0.180   0.179  13.735 -0.7158  0.3160  0.2016
  520TMC3    C6 7724   0.127   0.212  13.612 -0.2204 -0.7489  0.0742
  520TMC3     C 7725   4.608   0.146  13.926  0.5285  0.2548 -0.4736
  520TMC3     O 7726   4.498   0.185  13.899 -0.7457  0.2880 -0.3326
  520TMC3     H 7727   4.539   0.131  13.684 -0.4176  1.0545  1.4152
  520TMC3    H1 7728   0.157   0.091  13.926 -0.1782 -2.5444 -1.4050
  520TMC3    H2 7729   0.182   0.265  13.535  0.7701 -0.6922  0.8139
  520TMC3    C7 7730   0.319   0.204  13.758  0.7379  0.4422 -0.4994
  520TMC3    C8 7731   4.650   0.264  13.481  0.1160  1.0511 -0.5709
  520TMC3    O1 7732   0.375   0.130  13.841  0.1063 -0.2433  0.4185
  520TMC3    O2 7733   4.720   0.289  13.383 -0.0331 -0.4642 -0.9428
  521MPD2     C 7734   0.150   3.708  17.377  0.2332  0.1071 -0.1895
  521MPD2    C1 7735   0.096   3.583  17.336 -0.2837 -0.4187  0.0125
  521MPD2    C2 7736   0.196   3.490  17.304  0.2751 -0.2568  0.5675
  521MPD2    C3 7737   0.332   3.517  17.313  0.6632  0.2914 -0.1195
  521MPD2    C4 7738   0.380   3.637  17.350  0.2623  0.0954 -0.0919
  521MPD2    C5 7739   0.286   3.735  17.379  0.0894  0.0613  0.5343
  521MPD2     H 7740   0.169   3.389  17.277 -1.2541  0.4792 -0.6267
  521MPD2    H1 7741   0.487   3.653  17.357  0.2721 -0.3607  0.7712
  521MPD2    H2 7742   0.084   3.793  17.389 -1.5184 -1.3021  0.2609
  521MPD2    H3 7743   0.322   3.835  17.401  0.9605 -0.4416  1.3978
  521MPD2     N 7744   0.416   3.410  17.281  0.4324  0.0566 -0.7136
  521MPD2    H5 7745   0.363   3.328  17.254 -3.1499  2.1710 -0.0808
  521MPD2    N1 7746   4.683   3.558  17.312 -0.3471 -0.0773  0.3670
  521MPD2    H7 7747   4.617   3.632  17.333  0.4739  0.7229  0.1195
  522TMC3    C1 7748   0.599   3.304  17.168 -0.5334 -0.2907  0.5200
  522TMC3    C2 7749   0.730   3.301  17.134  0.9362  0.1809  0.1117
  522TMC3    C3 7750   0.770   3.228  17.028 -0.8143 -0.5414  0.4238
  522TMC3    C4 7751   0.513   3.226  17.099  0.1072  0.0022 -0.1408
  522TMC3    C5 7752   0.556   3.153  16.990 -0.4774  0.9124  0.0743
  522TMC3    C6 7753   0.687   3.158  16.948 -0.1498  0.2266 -0.0773
  522TMC3     C 7754   0.554   3.412  17.252  0.7430  0.3340  0.7614
  522TMC3     O 7755   0.640   3.491  17.286 -0.3286  0.0436  0.0138
  522TMC3     H 7756   0.799   3.357  17.196  0.1673  2.2524 -0.9243
  522TMC3    H1 7757   0.406   3.231  17.115  0.1727  0.3676  0.1875
  522TMC3    H2 7758   0.717   3.108  16.856 -1.6589  1.5878 -1.3153
  522TMC3    C7 7759   0.458   3.155  16.881  0.0752  0.0124 -0.2398
  522TMC3    C8 7760   0.911   3.205  17.022  0.3670  0.2301 -0.2490
  522TMC3    O1 7761   0.420   3.054  16.826  0.0139 -0.1015 -0.1428
  522TMC3    O2 7762   0.974   3.217  17.124  0.4650  0.0480  0.4697
  523MPD2     C 7763   3.497   2.815  10.145 -0.3260  0.4554  0.5490
  523MPD2    C1 7764   3.452   2.759  10.020  0.6467 -0.4571  0.2194
  523MPD2    C2 7765   3.417   2.848   9.917 -1.2298 -0.1395 -0.4481
  523MPD2    C3 7766   3.413   2.983   9.937 -0.2677  0.5978  0.6109
  523MPD2    C4 7767   3.453   3.029  10.059  0.0304 -0.1096  0.1542
  523MPD2    C5 7768   3.484   2.944  10.163 -0.6849 -0.5423 -0.1884
  523MPD2     H 7769   3.383   2.810   9.821 -0.7577  0.2475 -0.7670
  523MPD2    H1 7770   3.457   3.135  10.082 -1.2543 -0.8159  3.6987
  523MPD2    H2 7771   3.517   2.750  10.229 -2.3700  1.0697  1.5066
  523MPD2    H3 7772   3.515   2.980  10.261  1.3889  0.3986 -1.1698
  523MPD2     N 7773   3.375   3.077   9.839  0.1028 -0.0626  0.8811
  523MPD2    H5 7774   3.396   3.175   9.858 -1.0415  0.3831 -0.1369
  523MPD2    N1 7775   3.450   2.621  10.004  0.1087  0.8201 -0.3371
  523MPD2    H7 7776   3.485   2.574  10.086 -1.0636  1.0654  0.2966
  524TMC3    C1 7777   3.240   3.160   9.658 -0.7307 -0.2389 -0.3778
  524TMC3    C2 7778   3.215   3.160   9.524 -0.2042  0.1556  0.2509
  524TMC3    C3 7779   3.125   3.262   9.488  0.1422  0.6299 -0.1370
  524TMC3    C4 7780   3.205   3.262   9.745 -0.1360 -0.1284  0.0302
  524TMC3    C5 7781   3.110   3.351   9.705 -0.2570  0.1898  0.0246
  524TMC3    C6 7782   3.063   3.347   9.574 -0.4750 -0.1972  1.0585
  524TMC3     C 7783   3.321   3.049   9.715  0.4914  0.6660  0.1829
  524TMC3     O 7784   3.325   2.947   9.645  0.1265 -0.1815 -0.0478
  524TMC3     H 7785   3.241   3.075   9.462  0.6128  0.5720  0.0161
  524TMC3    H1 7786   3.236   3.271   9.848 -2.5637  3.4858  0.4402
  524TMC3    H2 7787   3.003   3.432   9.544  1.1982  0.4952 -0.3544
  524TMC3    C7 7788   3.081   3.463   9.801  0.1032 -0.3278 -0.3334
  524TMC3    C8 7789   3.075   3.266   9.352 -0.6831 -0.6798  0.1037
  524TMC3    O1 7790   3.150   3.473   9.900  0.1393 -0.3965 -0.4911
  524TMC3    O2 7791   2.960   3.302   9.348  0.3751 -0.0076  0.7240
  525MPD2     C 7792   1.411   0.277  14.223 -0.5905  0.4170 -0.1538
  525MPD2    C1 7793   1.469   0.299  14.346  0.3550 -0.1840 -0.4147
  525MPD2    C2 7794   1.531   0.421  14.377  0.6382 -0.2392 -0.2060
  525MPD2    C3 7795   1.531   0.519  14.279 -0.2953 -0.8227  0.1663
  525MPD2    C4 7796   1.467   0.497  14.162  0.5513 -0.8534  0.4669
  525MPD2    C5 7797   1.412   0.379  14.134  0.3971 -0.6913  0.3260
  525MPD2     H 7798   1.579   0.422  14.474 -1.9461 -0.0009  1.0868
  525MPD2    H1 7799   1.441   0.582  14.099  0.1652 -1.9786 -0.8830
  525MPD2    H2 7800   1.389   0.178  14.186  0.1249  0.6966 -1.3272
  525MPD2    H3 7801   1.352   0.362  14.045  1.5495  0.9864 -0.7707
  525MPD2     N 7802   1.594   0.649  14.296  0.5699  0.6968 -0.0151
  525MPD2    H5 7803   1.586   0.716  14.220  0.9323  0.4112 -0.3059
  525MPD2    N1 7804   1.462   0.201  14.444 -0.4015  0.2980  0.7137
  525MPD2    H7 7805   1.492   0.232  14.535 -1.7077  1.3622  0.7778
  526TMC3    C1 7806   1.436   4.712  14.550 -0.6408  0.4146  0.2654
  526TMC3    C2 7807   1.381   0.050  14.659 -0.5415  0.3231  0.6440
  526TMC3    C3 7808   1.395   4.699  14.778  0.1172 -0.2299 -0.3882
  526TMC3    C4 7809   1.494   4.595  14.542  0.0861  0.1379 -0.6257
  526TMC3    C5 7810   1.507   4.521  14.662 -0.5403 -0.6678 -0.0985
  526TMC3    C6 7811   1.451   4.573  14.783  0.2804  0.0600  0.4489
  526TMC3     C 7812   1.429   0.064  14.431  0.3952 -0.0864 -0.1718
  526TMC3     O 7813   1.435   4.720  14.330  0.4056 -0.5110  0.4027
  526TMC3     H 7814   1.331   0.145  14.651 -0.7309  0.1186 -0.6608
  526TMC3    H1 7815   1.519   4.553  14.445  0.8984 -1.6969  0.3663
  526TMC3    H2 7816   1.446   4.522  14.878  1.3159  2.3791  1.7528
  526TMC3    C7 7817   1.585   4.400  14.671  0.8296  0.4980 -0.3423
  526TMC3    C8 7818   1.340   0.015  14.903  0.3979 -0.3168  0.1829
  526TMC3    O1 7819   1.591   4.357  14.783 -0.1208  0.0347 -0.2853
  526TMC3    O2 7820   1.398   4.705  15.004 -0.2774  0.3325 -0.1486
  527MPD2     C 7821   3.806   1.915   1.024 -0.4053  0.3146  0.4952
  527MPD2    C1 7822   3.843   2.036   0.970  0.1631 -0.2266  0.5952
  527MPD2    C2 7823   3.973   2.074   0.956  0.1033 -0.2028 -0.6443
  527MPD2    C3 7824   4.074   1.980   0.984 -0.6242  0.1838 -0.3791
  527MPD2    C4 7825   4.037   1.862   1.038 -0.1455 -0.3661 -0.2465
  527MPD2    C5 7826   3.908   1.834   1.057  0.8115 -0.3066 -0.3110
  527MPD2     H 7827   4.008   2.170   0.921 -1.0680  0.0735 -1.0454
  527MPD2    H1 7828   4.110   1.786   1.063  1.0435  0.3767 -1.4857
  527MPD2    H2 7829   3.705   1.889   1.054 -1.2589  1.7119 -1.1585
  527MPD2    H3 7830   3.879   1.738   1.099 -0.3552 -0.2471 -0.9913
  527MPD2     N 7831   4.210   2.016   0.965  0.4952 -0.1466 -0.6913
  527MPD2    H5 7832   4.235   2.112   0.942 -0.0207  0.2037  0.1969
  527MPD2    N1 7833   3.744   2.129   0.937 -0.2373  0.0550  0.2962
  527MPD2    H7 7834   3.773   2.226   0.929  0.3967  0.0022  2.0372
  528TMC3    C1 7835   3.528   2.212   0.909 -0.4036 -0.8040  0.5406
  528TMC3    C2 7836   3.553   2.327   0.977  0.0003 -0.1531 -0.3577
  528TMC3    C3 7837   3.454   2.423   0.981 -0.5284  0.1744 -0.5117
  528TMC3    C4 7838   3.420   2.204   0.818 -0.4672  0.3928 -0.0716
  528TMC3    C5 7839   3.332   2.309   0.821 -0.2751 -0.4470 -0.3815
  528TMC3    C6 7840   3.342   2.415   0.905  0.2275 -0.1842 -0.1017
  528TMC3     C 7841   3.605   2.098   0.929  0.4966 -0.5310 -0.5808
  528TMC3     O 7842   3.555   1.987   0.905 -0.0211  0.1932  0.1375
  528TMC3     H 7843   3.621   2.326   1.061 -2.8386 -2.1606  1.9293
  528TMC3    H1 7844   3.409   2.113   0.760  2.6111  0.2290 -0.3779
  528TMC3    H2 7845   3.272   2.498   0.897 -4.0488 -3.7356  0.4463
  528TMC3    C7 7846   3.208   2.288   0.756 -0.2258  0.3964  0.4133
  528TMC3    C8 7847   3.446   2.502   1.097 -0.0826 -0.6089 -0.2576
  528TMC3    O1 7848   3.108   2.347   0.797  0.0651 -0.2545  0.0151
  528TMC3    O2 7849   3.553   2.535   1.147 -0.1790 -0.3020 -0.6771
  529MPD2     C 7850   1.789   0.183  17.228  1.0067  0.5557  0.4186
  529MPD2    C1 7851   1.758   0.280  17.320 -0.4759 -0.4909  0.4417
  529MPD2    C2 7852   1.714   0.403  17.276  0.2503  0.5769  0.6157
  529MPD2    C3 7853   1.694   0.431  17.140  0.3333 -0.5901  0.0043
  529MPD2    C4 7854   1.733   0.335  17.051 -0.1213  0.5112 -0.6173
  529MPD2    C5 7855   1.769   0.206  17.097 -0.0874  0.6402  0.5606
  529MPD2     H 7856   1.694   0.474  17.355  2.0511 -1.5391  2.9264
  529MPD2    H1 7857   1.718   0.334  16.944  0.0043  2.1248 -0.6522
  529MPD2    H2 7858   1.832   0.090  17.263  5.0398  2.3091  0.1143
  529MPD2    H3 7859   1.803   0.134  17.024 -1.3178 -0.5518  1.1896
  529MPD2     N 7860   1.639   0.546  17.077 -0.0095 -0.3299  0.4877
  529MPD2    H5 7861   1.635   0.535  16.976  1.1846  0.9732  0.2919
  529MPD2    N1 7862   1.774   0.274  17.463  1.0874 -0.0457  0.1839
  529MPD2    H7 7863   1.768   0.360  17.517  0.6431 -0.8303  1.3773
  530TMC3    C1 7864   1.808   0.166  17.673 -0.1975  0.2884 -0.0914
  530TMC3    C2 7865   1.758   0.269   0.042  0.0644  0.7306  0.7323
  530TMC3    C3 7866   1.750   0.264   0.176  0.7458  0.0616 -0.1965
  530TMC3    C4 7867   1.857   0.056   0.040  0.6692  0.3899  0.4671
  530TMC3    C5 7868   1.843   0.056   0.178 -0.5461  0.0301 -0.4869
  530TMC3    C6 7869   1.792   0.161   0.252  0.2435 -0.1800 -0.6667
  530TMC3     C 7870   1.812   0.163  17.529 -0.4872  0.8070 -0.2925
  530TMC3     O 7871   1.839   0.055  17.479  0.0543 -0.1557 -0.4928
  530TMC3     H 7872   1.701   0.346  17.693  1.9181  1.4750 -0.2567
  530TMC3    H1 7873   1.901   4.699  17.687 -0.1345 -0.7620  1.5365
  530TMC3    H2 7874   1.782   0.148   0.359 -0.2007 -1.7251 -0.8887
  530TMC3    C7 7875   1.867   4.650   0.245  0.2568  0.0420  0.3736
  530TMC3    C8 7876   1.692   0.376   0.244 -0.1535 -0.4639  0.6660
  530TMC3    O1 7877   1.873   4.563   0.161  0.3302  0.1744  0.0122
  530TMC3    O2 7878   1.617   0.455   0.184 -0.0246 -0.1446 -0.0865
  531MPD2     C 7879   1.140   3.252  12.819 -0.1503  0.1368  0.2773
  531MPD2    C1 7880   1.052   3.348  12.857  0.0145  0.0216  0.3605
  531MPD2    C2 7881   0.920   3.303  12.869 -0.0259  0.4627 -0.5099
  531MPD2    C3 7882   0.881   3.179  12.831 -0.4179 -0.3966 -0.8396
  531MPD2    C4 7883   0.970   3.082  12.787 -0.0365 -0.1914 -0.3767
  531MPD2    C5 7884   1.097   3.124  12.787 -0.3235  0.2777  0.3037
  531MPD2     H 7885   0.850   3.375  12.911  1.4358  1.0068  1.0392
  531MPD2    H1 7886   0.940   2.982  12.758 -0.8922 -0.7413  2.4167
  531MPD2    H2 7887   1.246   3.275  12.813 -0.0832  0.0917  1.3759
  531MPD2    H3 7888   1.170   3.047  12.765  0.7623  1.2125  0.6478
  531MPD2     N 7889   0.744   3.158  12.846  0.0606 -0.4476 -1.1252
  531MPD2    H5 7890   0.690   3.239  12.877 -0.8852 -1.4964 -0.0264
  531MPD2    N1 7891   1.104   3.472  12.909  0.5260 -0.2182  0.1517
  531MPD2    H7 7892   1.205   3.481  12.915  0.3623  0.6969  1.5811
  532TMC3    C1 7893   1.068   3.659  13.058 -0.5420  0.3645  0.0668
  532TMC3    C2 7894   0.970   3.741  13.101  0.1269 -0.1791 -0.0459
  532TMC3    C3 7895   0.968   3.774  13.233  0.3224  0.0631  0.5226
  532TMC3    C4 7896   1.170   3.605  13.142  0.5123 -0.1054 -0.3016
  532TMC3    C5 7897   1.170   3.651  13.269  0.2405  0.2228 -0.7864
  532TMC3    C6 7898   1.069   3.731  13.315 -0.9303 -0.6207 -0.3953
  532TMC3     C 7899   1.015   3.567  12.963  0.1205  0.2884  0.2730
  532TMC3     O 7900   0.894   3.585  12.933 -0.3402 -0.3926 -0.1054
  532TMC3     H 7901   0.901   3.783  13.029  0.0592  2.8577  1.7919
  532TMC3    H1 7902   1.262   3.570  13.097  0.2261 -0.0731 -0.9041
  532TMC3    H2 7903   1.073   3.774  13.414 -3.1567  1.0705 -1.0620
  532TMC3    C7 7904   1.276   3.623  13.360 -0.4346 -0.4065 -0.4176
  532TMC3    C8 7905   0.837   3.782  13.303  0.7562  0.8730 -0.2866
  532TMC3    O1 7906   1.294   3.699  13.452 -0.2113  0.7183 -0.0327
  532TMC3    O2 7907   0.828   3.815  13.423  0.1484 -0.4776  0.4400
  533TMC3    C1 7908   1.717   0.814  14.385  0.5821 -0.1859  0.5382
  533TMC3    C2 7909   1.837   0.829  14.441 -0.4712 -0.2119 -0.1860
  533TMC3    C3 7910   1.863   0.930  14.530 -0.1736  0.0824  0.9805
  533TMC3    C4 7911   1.616   0.897  14.433 -0.0278 -0.5944 -1.3790
  533TMC3    C5 7912   1.641   0.995  14.525 -0.8743 -0.8980 -0.8425
  533TMC3    C6 7913   1.765   1.008  14.583  1.1363 -0.1069  0.1688
  533TMC3     C 7914   1.666   0.678  14.401 -0.4669 -0.0004  0.1257
  533TMC3     O 7915   1.665   0.623  14.515  0.7056 -0.0357 -0.0414
  533TMC3     H 7916   1.910   0.757  14.408  0.4136  0.5342  0.1441
  533TMC3    H1 7917   1.511   0.874  14.417  0.1038  0.1205 -3.1944
  533TMC3    H2 7918   1.772   1.090  14.654 -0.0787 -1.9464  2.4166
  533TMC3    C7 7919   1.533   1.046  14.604  0.3571  0.0075  0.0954
  533TMC3    C8 7920   1.997   0.960  14.559  0.1396  0.6481 -1.4890
  533TMC3    O1 7921   1.553   1.069  14.723 -0.4213 -0.1604 -0.4229
  533TMC3    O2 7922   2.024   0.985  14.675  0.2556  0.1873  0.9498
  534MPD2     C 7923   3.648   1.495   1.894 -0.0879  0.2879  0.0087
  534MPD2    C1 7924   3.572   1.591   1.840 -0.7100 -0.0186  0.2087
  534MPD2    C2 7925   3.454   1.563   1.771 -0.2838  0.1993  0.1625
  534MPD2    C3 7926   3.423   1.430   1.741  0.3170  0.0590  0.6299
  534MPD2    C4 7927   3.500   1.326   1.804 -0.2636 -0.2174  0.2090
  534MPD2    C5 7928   3.614   1.363   1.871  0.1342 -0.2021  0.7209
  534MPD2     H 7929   3.392   1.641   1.728  3.2249  1.6789 -2.1337
  534MPD2    H1 7930   3.493   1.218   1.798  1.8271 -0.2791 -1.4193
  534MPD2    H2 7931   3.740   1.522   1.944  1.8209 -1.3201 -2.6375
  534MPD2    H3 7932   3.674   1.283   1.913  1.3347  0.6966  0.7334
  534MPD2     N 7933   3.329   1.397   1.644 -0.9414 -0.2180 -0.1896
  534MPD2    H5 7934   3.328   1.305   1.601  0.0929  0.3029 -1.3442
  534MPD2    N1 7935   3.615   1.725   1.824  0.2255 -0.4935 -0.0872
  534MPD2    H7 7936   3.553   1.786   1.772  0.3752 -0.3506 -0.0987
  535TMC3    C1 7937   3.150   1.439   1.495  0.6443 -0.0724 -0.4783
  535TMC3    C2 7938   3.019   1.459   1.512 -0.5009 -0.1131  0.6108
  535TMC3    C3 7939   2.943   1.409   1.408  0.6897  0.4083  0.0934
  535TMC3    C4 7940   3.220   1.381   1.391  0.0428  0.1042 -0.1998
  535TMC3    C5 7941   3.139   1.323   1.299 -0.0088  0.9113  0.0315
  535TMC3    C6 7942   3.002   1.348   1.295 -0.0444  0.1439 -0.8784
  535TMC3     C 7943   3.229   1.480   1.612 -0.4533  0.1948 -0.2210
  535TMC3     O 7944   3.175   1.559   1.691  0.0685  0.3105 -0.2893
  535TMC3     H 7945   2.983   1.503   1.603 -2.4233  1.2283 -0.8081
  535TMC3    H1 7946   3.327   1.397   1.381 -0.3175  1.1654 -2.2268
  535TMC3    H2 7947   2.938   1.304   1.219 -0.3509 -0.8457 -0.0558
  535TMC3    C7 7948   3.208   1.299   1.175 -0.2208  0.8530 -0.9021
  535TMC3    C8 7949   2.807   1.373   1.434 -0.3597 -0.5499 -0.3092
  535TMC3    O1 7950   3.317   1.244   1.176 -0.1663 -0.2422 -0.0337
  535TMC3    O2 7951   2.754   1.297   1.356  0.2509 -0.5391  0.5336
  536MPD2     C 7952   3.023   0.067  16.047  0.2318 -0.0275  0.7156
  536MPD2    C1 7953   2.901   0.070  16.103  1.2434  0.5018  0.2313
  536MPD2    C2 7954   2.791   0.125  16.033  0.1542 -0.2447  0.0644
  536MPD2    C3 7955   2.811   0.183  15.910 -0.3930  0.0782 -0.0821
  536MPD2    C4 7956   2.933   0.173  15.857 -0.1878  0.0757 -0.0563
  536MPD2    C5 7957   3.039   0.115  15.925 -0.4172 -0.3689  0.2252
  536MPD2     H 7958   2.698   0.131  16.088 -1.1429 -0.3534 -2.0991
  536MPD2    H1 7959   2.947   0.209  15.755 -0.5174  1.1609  0.2824
  536MPD2    H2 7960   3.113   0.041  16.102 -0.0770 -0.4662  1.0091
  536MPD2    H3 7961   3.133   0.106  15.871  0.4470  0.2128  1.6361
  536MPD2     N 7962   2.714   0.245  15.834 -0.1343  0.1265  0.2049
  536MPD2    H5 7963   2.738   0.286  15.745 -0.8251 -1.7674 -0.8461
  536MPD2    N1 7964   2.872   0.011  16.231  0.3670  0.5868  0.0845
  536MPD2    H7 7965   2.953   4.713  16.288 -0.2808  0.8635  1.1117
  537TMC3    C1 7966   2.743   4.653  16.415  0.1746  0.6300  0.3934
  537TMC3    C2 7967   2.846   4.682  16.503 -0.0807  0.1330 -0.0762
  537TMC3    C3 7968   2.836   4.634  16.629 -0.1899 -0.2430  0.1959
  537TMC3    C4 7969   2.633   4.573  16.446  0.1272 -0.2576  0.2180
  537TMC3    C5 7970   2.637   4.517  16.570 -0.0106 -0.2806 -0.8899
  537TMC3    C6 7971   2.734   4.555  16.661 -0.8004 -0.6975  0.2979
  537TMC3     C 7972   2.746   4.700  16.275 -0.2324 -0.3641  0.3520
  537TMC3     O 7973   2.656   4.660  16.202 -0.9063  0.3047 -0.8792
  537TMC3     H 7974   2.934   0.014  16.479 -1.7684  2.0077 -1.8454
  537TMC3    H1 7975   2.546   4.565  16.382  0.5962 -0.0026 -0.4514
  537TMC3    H2 7976   2.720   4.523  16.764 -0.2690 -1.9017  0.0020
  537TMC3    C7 7977   2.547   4.404  16.594  0.0661  0.3207 -0.0727
  537TMC3    C8 7978   2.931   4.684  16.731  0.3984  0.5767  0.2980
  537TMC3    O1 7979   2.478   4.377  16.497 -0.3497 -0.6188 -0.2916
  537TMC3    O2 7980   3.048   4.676  16.704 -0.0663  0.4816 -0.7408
  538TMC3    C1 7981   4.068   2.877  11.006  0.5213 -0.7600 -0.6454
  538TMC3    C2 7982   4.140   2.792  10.925  1.0105 -0.0035 -0.0116
  538TMC3    C3 7983   4.161   2.822  10.793  0.1968  0.4249 -0.0584
  538TMC3    C4 7984   3.992   2.978  10.953  0.5129 -0.1059 -0.0277
  538TMC3    C5 7985   4.012   2.996  10.822  0.1691 -0.6196  0.0808
  538TMC3    C6 7986   4.087   2.920  10.735 -0.7366 -1.1279 -1.0251
  538TMC3     C 7987   4.047   2.842  11.148 -0.9417 -0.4097 -0.1670
  538TMC3     O 7988   3.938   2.866  11.197 -0.6059  0.0525 -0.4855
  538TMC3     H 7989   4.188   2.698  10.951 -1.5763 -1.8055 -1.8241
  538TMC3    H1 7990   3.932   3.045  11.015  1.5292  0.7803 -0.0088
  538TMC3    H2 7991   4.100   2.949  10.631  2.3882  0.9676 -0.0380
  538TMC3    C7 7992   3.910   3.083  10.767  0.5452 -0.0353  0.2483
  538TMC3    C8 7993   4.210   2.719  10.703  0.4687  0.4840  0.1836
  538TMC3    O1 7994   3.864   3.059  10.654 -0.5375 -0.2616 -0.1541
  538TMC3    O2 7995   4.216   2.605  10.744  0.1042  0.3428 -0.0049
  539MPD2     C 7996   3.791   2.124  11.768 -0.2241 -0.2714 -0.0561
  539MPD2    C1 7997   3.719   2.140  11.657 -0.1642  0.7377  0.0741
  539MPD2    C2 7998   3.699   2.268  11.611  0.1941 -0.1291 -0.0232
  539MPD2    C3 7999   3.742   2.375  11.682  0.1526 -0.5356  0.0045
  539MPD2    C4 8000   3.805   2.355  11.802  0.1097  1.4020 -0.4364
  539MPD2    C5 8001   3.840   2.231  11.835  0.3376  1.2303 -0.0192
  539MPD2     H 8002   3.641   2.289  11.522  0.7134  0.0755 -0.3100
  539MPD2    H1 8003   3.815   2.441  11.868  0.2211  0.9593  0.1230
  539MPD2    H2 8004   3.819   2.028  11.809  1.4688  0.2669  0.0651
  539MPD2    H3 8005   3.908   2.223  11.920  2.4311 -3.0455 -2.0888
  539MPD2     N 8006   3.711   2.506  11.643  0.0170  0.1436  0.2971
  539MPD2    H5 8007   3.733   2.573  11.717  0.4499  1.1669 -0.7472
  539MPD2    N1 8008   3.674   2.017  11.597  0.3621  0.2251  0.2327
  539MPD2    H7 8009   3.683   1.942  11.664 -1.2336 -0.0746  0.1082
  540TMC3    C1 8010   3.639   2.685  11.490 -0.1334  0.1324 -0.5447
  540TMC3    C2 8011   3.657   2.718  11.355 -0.1669  0.2262 -0.0713
  540TMC3    C3 8012   3.626   2.847  11.325  0.5236  0.4667  0.5264
  540TMC3    C4 8013   3.598   2.765  11.588 -0.2585  0.3416 -0.2046
  540TMC3    C5 8014   3.547   2.887  11.543  0.4452 -0.6062 -0.5409
  540TMC3    C6 8015   3.570   2.936  11.415 -0.2045 -0.3867 -0.7020
  540TMC3     C 8016   3.678   2.543  11.517 -1.0298 -1.5527  0.3841
  540TMC3     O 8017   3.684   2.485  11.411 -0.5064  0.0946 -0.0878
  540TMC3     H 8018   3.699   2.659  11.275  2.0649 -1.3998  2.2824
  540TMC3    H1 8019   3.560   2.725  11.681  0.5374 -0.4200 -0.2154
  540TMC3    H2 8020   3.531   3.031  11.383  3.1765  1.6981  1.3485
  540TMC3    C7 8021   3.447   2.944  11.620 -0.4961 -0.6628  0.3461
  540TMC3    C8 8022   3.627   2.873  11.182  0.2178  0.4688 -0.0507
  540TMC3    O1 8023   3.386   2.877  11.703  0.2343  0.4767  0.0350
  540TMC3    O2 8024   3.674   2.983  11.151 -0.2074 -0.6112 -0.3931
  541MPD2     C 8025   2.916   3.874  13.276 -0.1498 -0.0483  0.0690
  541MPD2    C1 8026   2.781   3.875  13.275 -0.3577  0.3450 -0.4780
  541MPD2    C2 8027   2.720   3.956  13.184  0.0206  0.1848 -0.2019
  541MPD2    C3 8028   2.785   4.027  13.087  0.3144 -0.5294 -0.3359
  541MPD2    C4 8029   2.922   4.029  13.086 -0.6036  0.2752 -0.7029
  541MPD2    C5 8030   2.984   3.951  13.180 -0.1528 -0.3568  0.1715
  541MPD2     H 8031   2.613   3.938  13.180 -0.3886  2.1901  1.5273
  541MPD2    H1 8032   2.980   4.069  13.003 -1.3074 -1.1447 -1.8784
  541MPD2    H2 8033   2.965   3.817  13.354 -0.4650  0.5965  0.7387
  541MPD2    H3 8034   3.092   3.943  13.186 -0.2679 -1.5142  0.7997
  541MPD2     N 8035   2.711   4.081  12.979  0.0197  0.2079  0.5052
  541MPD2    H5 8036   2.760   4.098  12.892  0.0232 -2.5250 -0.0302
  541MPD2    N1 8037   2.711   3.779  13.351 -0.6055 -0.1193  0.2488
  541MPD2    H7 8038   2.774   3.711  13.393  0.2210 -0.4885 -1.5841
  542TMC3    C1 8039   2.529   4.157  12.859  0.0706 -0.0659  0.0987
  542TMC3    C2 8040   2.542   4.063  12.754 -0.1912  0.6779  1.4316
  542TMC3    C3 8041   2.444   4.067  12.659  0.0919  0.7831  0.1803
  542TMC3    C4 8042   2.417   4.239  12.863  0.4949  0.1869 -0.9448
  542TMC3    C5 8043   2.320   4.230  12.770 -0.7368  0.0488 -0.0407
  542TMC3    C6 8044   2.331   4.146  12.665  0.6132  0.4278 -0.1396
  542TMC3     C 8045   2.582   4.114  12.984  0.3998 -0.4490  0.1852
  542TMC3     O 8046   2.532   4.170  13.083  0.3841 -0.0590 -0.4046
  542TMC3     H 8047   2.626   3.995  12.747  0.2508  1.4978 -1.5286
  542TMC3    H1 8048   2.406   4.314  12.941 -1.7300 -1.5033  0.3502
  542TMC3    H2 8049   2.266   4.151  12.577  1.2682  0.5019 -0.6163
  542TMC3    C7 8050   2.234   4.354  12.765 -0.3616  0.4390  0.5634
  542TMC3    C8 8051   2.450   3.964  12.559 -0.6664  0.3347 -1.1191
  542TMC3    O1 8052   2.226   4.428  12.862  0.2667 -0.3434  0.0971
  542TMC3    O2 8053   2.363   3.976  12.472  0.4621  0.1053 -0.0793
  543TMC3    C1 8054   1.257   0.358  17.258 -0.1068 -0.7695 -0.2307
  543TMC3    C2 8055   1.273   0.230  17.307  0.9229 -0.4925  0.3961
  543TMC3    C3 8056   1.184   0.180  17.392  0.3621  0.1008 -0.2371
  543TMC3    C4 8057   1.162   0.448  17.305  1.0092 -0.0494  0.0164
  543TMC3    C5 8058   1.076   0.393  17.392 -0.7607 -0.5784  0.1879
  543TMC3    C6 8059   1.084   0.262  17.434 -0.0188 -0.1882 -0.3142
  543TMC3     C 8060   1.316   0.392  17.131 -0.1919 -0.1776 -0.0481
  543TMC3     O 8061   1.399   0.315  17.097  0.3406  0.4540 -0.3440
  543TMC3     H 8062   1.349   0.164  17.265  2.6791  1.4148  0.5929
  543TMC3    H1 8063   1.153   0.550  17.270  0.6974 -0.2260 -0.4295
  543TMC3    H2 8064   0.999   0.227  17.492  2.0786 -1.1938  2.1344
  543TMC3    C7 8065   0.972   0.484  17.441 -0.1884 -0.8004  0.0866
  543TMC3    C8 8066   1.182   0.044  17.436  0.2205  0.2075  0.8596
  543TMC3    O1 8067   0.947   0.588  17.383  0.4645  0.1544 -0.0563
  543TMC3    O2 8068   1.212   4.685  17.349 -0.0282  0.7114  0.3102
  544MPD2     C 8069   1.228   4.430   0.118 -0.0799  0.8014  0.2175
  544MPD2    C1 8070   1.235   4.404  17.683  0.4558 -0.5727 -0.2480
  544MPD2    C2 8071   1.198   4.508  17.601 -0.0829  0.2861 -0.0815
  544MPD2    C3 8072   1.178   4.635  17.649 -0.2948  0.0296 -0.1790
  544MPD2    C4 8073   1.167   4.658   0.080 -0.2654  0.9900 -0.1204
  544MPD2    C5 8074   1.190   4.550   0.165  0.3444 -0.2753  0.1956
  544MPD2     H 8075   1.198   4.492  17.494 -1.0481  0.9007 -0.1715
  544MPD2    H1 8076   1.149   0.032   0.119 -0.4255  1.5574 -1.6610
  544MPD2    H2 8077   1.241   4.343   0.182 -0.1771  0.8537  0.3086
  544MPD2    H3 8078   1.179   4.561   0.273 -0.6826 -0.1945  0.0858
  544MPD2     N 8079   1.159   0.027  17.569 -0.1050  0.4244 -0.3298
  544MPD2    H5 8080   1.143   0.113  17.622  1.7879  0.5553  0.0410
  544MPD2    N1 8081   1.278   4.273  17.639  0.5448 -0.4937  0.6420
  544MPD2    H7 8082   1.319   4.206   0.001  2.2974 -1.3689 -1.3975
  545TMC3    C1 8083   1.305   4.093  17.496 -0.0553 -0.2158 -0.0062
  545TMC3    C2 8084   1.297   4.036  17.370 -0.1748  0.1234 -0.3208
  545TMC3    C3 8085   1.342   3.910  17.355  0.3101  0.3832 -0.0819
  545TMC3    C4 8086   1.360   4.022  17.606  0.1216  0.3451  0.3625
  545TMC3    C5 8087   1.423   3.903  17.586 -0.3013 -0.7580  0.4064
  545TMC3    C6 8088   1.398   3.841  17.464  0.4219  0.3043 -0.1797
  545TMC3     C 8089   1.261   4.230  17.514  0.3739 -0.2157 -0.2424
  545TMC3     O 8090   1.215   4.295  17.418 -0.0516  0.0568  0.3018
  545TMC3     H 8091   1.246   4.090  17.291  1.5359  1.1677 -0.7115
  545TMC3    H1 8092   1.378   4.057   0.005 -0.0176 -1.1199  0.8933
  545TMC3    H2 8093   1.445   3.745  17.449  0.5275 -0.0043  2.1619
  545TMC3    C7 8094   1.454   3.812  17.696  0.4720  0.9775  0.6542
  545TMC3    C8 8095   1.389   3.876  17.224  0.2865  0.0801 -0.3754
  545TMC3    O1 8096   1.390   3.822   0.100 -0.1765  0.4889 -0.7232
  545TMC3    O2 8097   1.497   3.820  17.216  1.0516  0.1417 -0.2935
  546MPD2     C 8098   2.862   0.014  17.535 -0.2492 -0.0004  0.2650
  546MPD2    C1 8099   2.782   0.096  17.467 -0.3776  0.1136 -0.0567
  546MPD2    C2 8100   2.790   0.234  17.495 -0.1637 -0.8740 -0.5222
  546MPD2    C3 8101   2.896   0.284  17.573  0.3458 -0.5810  0.0590
  546MPD2    C4 8102   2.982   0.193  17.633  0.0648  0.7550  0.4283
  546MPD2    C5 8103   2.959   0.055  17.622 -0.1023 -0.2387  0.0440
  546MPD2     H 8104   2.720   0.302  17.449  0.8684  1.2927  1.1259
  546MPD2    H1 8105   3.075   0.224  17.680  0.8076 -0.9846  0.1140
  546MPD2    H2 8106   2.879   4.641  17.491  4.1366  0.5320  0.8207
  546MPD2    H3 8107   3.023   4.702  17.660  0.5250 -0.0135 -0.5409
  546MPD2     N 8108   2.926   0.417  17.596 -0.8596 -0.0498  0.2318
  546MPD2    H5 8109   3.000   0.437  17.663  0.1245  1.8990 -1.4376
  546MPD2    N1 8110   2.692   0.043  17.377  0.0777  0.2901 -0.1230
  546MPD2    H7 8111   2.709   4.669  17.360  1.3467  0.2208  1.5721
  547TMC3    C1 8112   2.504   0.010  17.234  0.0471 -1.0636 -0.1465
  547TMC3    C2 8113   2.462   0.036  17.110 -0.3577  0.1061  0.3430
  547TMC3    C3 8114   2.386   4.660  17.059  0.9847  0.0545  0.3195
  547TMC3    C4 8115   2.484   4.626  17.301 -0.3737 -0.6500 -0.1349
  547TMC3    C5 8116   2.401   4.532  17.247 -0.6521 -0.4060 -0.0521
  547TMC3    C6 8117   2.356   4.544  17.122  0.3716  0.5070 -0.1304
  547TMC3     C 8118   2.597   0.107  17.303 -0.7348  0.2293  0.5897
  547TMC3     O 8119   2.576   0.225  17.281 -0.3792 -0.6158 -0.5221
  547TMC3     H 8120   2.482   0.127  17.055 -1.9927  0.9141  1.0714
  547TMC3    H1 8121   2.512   4.607  17.404 -0.8755  0.6239  0.2331
  547TMC3    H2 8122   2.278   4.474  17.093  1.9889 -1.7901  1.1323
  547TMC3    C7 8123   2.385   4.405  17.327  0.0548 -0.3138 -1.0265
  547TMC3    C8 8124   2.328   4.683  16.923 -0.7195  0.0347 -0.1751
  547TMC3    O1 8125   2.400   4.410  17.449  0.0343  0.0719 -0.2132
  547TMC3    O2 8126   2.346   0.065  16.870  0.4964  0.7559 -0.3832
  548MPD2     C 8127   2.888   1.075  12.349 -0.4505 -0.9295  0.3067
  548MPD2    C1 8128   2.865   0.942  12.390  0.0007 -0.6984 -0.2567
  548MPD2    C2 8129   2.959   0.852  12.373 -0.5904 -0.1305  0.9179
  548MPD2    C3 8130   3.084   0.895  12.316  0.2394  0.3703  0.2831
  548MPD2    C4 8131   3.111   1.028  12.282  0.3146  0.4234  0.5218
  548MPD2    C5 8132   3.004   1.112  12.295  0.2047 -0.8091  0.1878
  548MPD2     H 8133   2.953   0.746  12.395  1.3271 -0.5600 -0.5643
  548MPD2    H1 8134   3.202   1.058  12.231 -0.1758 -0.3856 -0.7935
  548MPD2    H2 8135   2.818   1.155  12.370 -0.8579 -0.8938 -1.1772
  548MPD2    H3 8136   3.017   1.216  12.267 -2.5812 -0.2974  0.7959
  548MPD2     N 8137   3.184   0.793  12.301  0.5946  0.4507 -0.2504
  548MPD2    H5 8138   3.163   0.697  12.324  0.8136  0.8611  1.7461
  548MPD2    N1 8139   2.738   0.916  12.451 -0.0682  0.3994 -0.4918
  548MPD2    H7 8140   2.678   0.997  12.440  1.4624  1.5027 -0.9005
  549TMC3    C1 8141   2.575   0.785  12.566 -0.2705  0.0619 -0.1651
  549TMC3    C2 8142   2.476   0.885  12.568  0.1875 -0.4939  0.2592
  549TMC3    C3 8143   2.356   0.855  12.631 -0.6795  0.4691  0.0951
  549TMC3    C4 8144   2.553   0.655  12.612  0.0219  0.5655 -0.2331
  549TMC3    C5 8145   2.426   0.634  12.661  0.6773 -0.8872 -0.5518
  549TMC3    C6 8146   2.326   0.728  12.673  0.1930 -0.1774 -0.2143
  549TMC3     C 8147   2.712   0.808  12.527  0.4036 -0.5190 -0.3461
  549TMC3     O 8148   2.790   0.716  12.543 -0.1101 -0.3020  0.2695
  549TMC3     H 8149   2.487   0.986  12.530 -1.4726  0.4333  2.2457
  549TMC3    H1 8150   2.602   0.569  12.567  0.5728  1.7311 -1.8468
  549TMC3    H2 8151   2.224   0.702  12.698  0.6669 -1.8904 -0.0312
  549TMC3    C7 8152   2.390   0.498  12.708 -0.7262 -0.2986  0.2987
  549TMC3    C8 8153   2.247   0.949  12.616  0.6026  0.7186 -0.3799
  549TMC3    O1 8154   2.271   0.473  12.709  0.1413  0.3842  0.4737
  549TMC3    O2 8155   2.138   0.907  12.589 -0.1915 -0.0260 -0.4734
  550TMC3    C1 8156   1.641   3.567  12.277 -0.3199 -0.2566  0.1105
  550TMC3    C2 8157   1.663   3.641  12.388 -0.1535  0.6305  0.6388
  550TMC3    C3 8158   1.550   3.689  12.450 -0.1968  0.5314 -0.6329
  550TMC3    C4 8159   1.515   3.546  12.227  0.3568 -0.2299 -0.2320
  550TMC3    C5 8160   1.407   3.589  12.299 -0.5956 -0.5324  0.0216
  550TMC3    C6 8161   1.427   3.662  12.416  0.2448  0.0542  0.1005
  550TMC3     C 8162   1.760   3.556  12.200 -0.2930  0.1031 -0.5982
  550TMC3     O 8163   1.867   3.561  12.259  0.0212  0.0935 -0.4916
  550TMC3     H 8164   1.766   3.662  12.417  1.2865 -1.5031 -2.9576
  550TMC3    H1 8165   1.495   3.477  12.146 -0.0075  1.7776 -1.8427
  550TMC3    H2 8166   1.342   3.700  12.472 -0.2556 -0.3372 -0.3929
  550TMC3    C7 8167   1.279   3.583  12.228  0.4586 -0.8365  0.1728
  550TMC3    C8 8168   1.553   3.783  12.564 -1.2797  0.0935  0.6359
  550TMC3    O1 8169   1.270   3.511  12.132 -0.0689 -0.7067  0.2482
  550TMC3    O2 8170   1.450   3.832  12.603 -0.3924 -0.5651 -0.3658
  551TMC3    C1 8171   3.461   1.067  13.396 -0.0220 -0.6971 -0.3872
  551TMC3    C2 8172   3.574   1.004  13.371 -0.4663  0.1094 -0.0069
  551TMC3    C3 8173   3.689   1.041  13.441 -0.3331  0.7970  0.2153
  551TMC3    C4 8174   3.459   1.173  13.485  0.9326 -0.4050 -0.5960
  551TMC3    C5 8175   3.571   1.192  13.567 -0.1234 -0.6292  0.4655
  551TMC3    C6 8176   3.681   1.121  13.546 -0.4464 -1.0788  0.5956
  551TMC3     C 8177   3.353   1.051  13.297 -0.2758  0.2062  0.4860
  551TMC3     O 8178   3.271   1.139  13.278 -0.5320  0.3415  0.0109
  551TMC3     H 8179   3.592   0.947  13.280 -0.3728 -0.5288  0.4087
  551TMC3    H1 8180   3.363   1.221  13.499  0.7628 -0.8126 -0.3612
  551TMC3    H2 8181   3.770   1.118  13.608 -0.1249 -0.4329  0.1607
  551TMC3    C7 8182   3.569   1.303  13.660 -0.6888  0.1252 -0.1817
  551TMC3    C8 8183   3.811   1.053  13.362 -0.2128 -0.1182 -0.4272
  551TMC3    O1 8184   3.668   1.316  13.729 -0.0028  0.1326 -0.8655
  551TMC3    O2 8185   3.835   0.965  13.284 -0.2725  0.2482  0.5513
  552MPD2     C 8186   0.725   3.697  13.781 -0.6734  0.2461 -0.0887
  552MPD2    C1 8187   0.833   3.621  13.747  0.3162  0.1527  0.3452
  552MPD2    C2 8188   0.910   3.561  13.845  0.5983 -0.1306 -0.1510
  552MPD2    C3 8189   0.882   3.588  13.980  0.1863  0.3456 -0.4304
  552MPD2    C4 8190   0.776   3.668  14.013  0.0759 -0.2437  0.2230
  552MPD2    C5 8191   0.699   3.728  13.914  0.2791  0.7119 -0.1246
  552MPD2     H 8192   0.996   3.503  13.813  2.0508  2.2937 -0.6352
  552MPD2    H1 8193   0.768   3.716  14.110  0.2384 -0.5874  0.4067
  552MPD2    H2 8194   0.664   3.738  13.702  0.4077  0.0923 -1.0123
  552MPD2    H3 8195   0.627   3.806  13.937  1.2391  2.3088 -2.5185
  552MPD2     N 8196   0.970   3.527  14.077 -0.1654  0.2057 -0.0698
  552MPD2    H5 8197   1.046   3.473  14.037 -0.8138  0.5367 -1.7179
  552MPD2    N1 8198   0.846   3.581  13.609 -0.2539 -0.7836 -0.0752
  552MPD2    H7 8199   0.786   3.630  13.543 -0.8696 -0.9877  0.3401
  553TMC3    C1 8200   0.898   3.467  13.427 -0.3574 -0.2470 -0.3607
  553TMC3    C2 8201   0.988   3.408  13.349  0.3611 -0.3141 -0.0636
  553TMC3    C3 8202   0.949   3.339  13.243 -0.4221 -0.2404 -0.1562
  553TMC3    C4 8203   0.773   3.416  13.415  0.3375 -0.6398 -0.0415
  553TMC3    C5 8204   0.737   3.317  13.323  0.2914 -0.1634 -0.4585
  553TMC3    C6 8205   0.814   3.306  13.214  0.5776  0.0030  0.1395
  553TMC3     C 8206   0.937   3.493  13.563  0.2335  0.4294 -0.1321
  553TMC3     O 8207   1.033   3.438  13.619 -0.2662 -0.5509 -0.1389
  553TMC3     H 8208   1.090   3.413  13.383 -0.1532 -1.0052  1.5785
  553TMC3    H1 8209   0.696   3.439  13.488 -0.6359 -0.4969 -1.1141
  553TMC3    H2 8210   0.791   3.260  13.119 -0.9760  1.3555 -0.1306
  553TMC3    C7 8211   0.726   3.185  13.373  0.3452 -0.3642 -0.2031
  553TMC3    C8 8212   1.046   3.249  13.185  0.2737  0.0640 -0.8101
  553TMC3    O1 8213   0.709   3.109  13.278 -0.2650  0.5808 -0.4818
  553TMC3    O2 8214   1.159   3.289  13.180  0.7167  0.0680  0.2344
  554TMC3    C1 8215   2.745   2.368  11.433 -0.0838 -0.0325  0.4421
  554TMC3    C2 8216   2.721   2.282  11.329  0.4121 -0.2636  0.3986
  554TMC3    C3 8217   2.817   2.255  11.236 -0.0471  0.0039  0.0179
  554TMC3    C4 8218   2.847   2.450  11.445  0.0135 -0.1228 -0.2904
  554TMC3    C5 8219   2.937   2.445  11.338  0.2221  0.7503 -0.0213
  554TMC3    C6 8220   2.924   2.340  11.249 -0.5766 -0.9348 -0.1599
  554TMC3     C 8221   2.646   2.366  11.536 -0.1714 -0.1224 -0.8357
  554TMC3     O 8222   2.540   2.314  11.510 -0.1858  0.1777  0.1177
  554TMC3     H 8223   2.629   2.226  11.324  0.7675 -0.7480 -0.6061
  554TMC3    H1 8224   2.853   2.535  11.512  1.8177 -1.1038  0.7914
  554TMC3    H2 8225   2.997   2.325  11.171 -0.4216  2.1174 -0.6048
  554TMC3    C7 8226   3.038   2.539  11.319  0.1860 -0.1795 -1.0110
  554TMC3    C8 8227   2.784   2.196  11.103 -0.7791 -0.3972  0.2920
  554TMC3    O1 8228   3.113   2.509  11.224  0.1692  0.3403 -0.5475
  554TMC3    O2 8229   2.847   2.234  11.007  0.1877  0.1473  0.1133
  555TMC3    C1 8230   1.870   2.497  14.980  0.0634  0.8673  0.6242
  555TMC3    C2 8231   1.918   2.583  15.073 -0.2815  0.1112  0.2565
  555TMC3    C3 8232   1.868   2.572  15.202 -0.6080  0.1584  0.8936
  555TMC3    C4 8233   1.806   2.380  15.012  0.2186 -0.4763 -0.5407
  555TMC3    C5 8234   1.779   2.369  15.144  0.3296 -0.2593 -0.1866
  555TMC3    C6 8235   1.793   2.466  15.243 -0.7596  0.1418  0.0727
  555TMC3     C 8236   1.891   2.529  14.841  0.7348  0.1868  0.1919
  555TMC3     O 8237   1.971   2.617  14.811  0.8442  0.3240 -0.3603
  555TMC3     H 8238   1.978   2.669  15.049 -0.3349 -0.0386 -0.4035
  555TMC3    H1 8239   1.796   2.289  14.953  0.6576 -0.1718 -1.0765
  555TMC3    H2 8240   1.762   2.449  15.345  1.4570 -0.2991  0.6666
  555TMC3    C7 8241   1.767   2.233  15.192 -0.4450  0.8244  0.0917
  555TMC3    C8 8242   1.860   2.699  15.269  0.0824  1.1241  0.7062
  555TMC3    O1 8243   1.702   2.212  15.295  0.0428 -0.1170 -0.6487
  555TMC3    O2 8244   1.892   2.799  15.213  0.0344 -0.5294  0.0577
  556MPD2     C 8245   0.552   3.303  10.724 -0.9934  0.1564 -0.1424
  556MPD2    C1 8246   0.413   3.315  10.748  1.3302 -0.6714  0.4472
  556MPD2    C2 8247   0.332   3.236  10.666 -0.4070 -0.2578 -0.2812
  556MPD2    C3 8248   0.383   3.153  10.568 -0.0305 -0.0131 -0.4696
  556MPD2    C4 8249   0.517   3.155  10.550 -0.1964 -0.0859 -0.1195
  556MPD2    C5 8250   0.602   3.228  10.625  0.5495  0.1634 -0.8522
  556MPD2     H 8251   0.226   3.225  10.687 -0.7027  1.2063 -1.0499
  556MPD2    H1 8252   0.567   3.092  10.477 -0.6196  0.6155 -1.0216
  556MPD2    H2 8253   0.623   3.348  10.792  0.5162  0.1564 -1.7130
  556MPD2    H3 8254   0.702   3.240  10.585  0.9909  1.3355  0.6057
  556MPD2     N 8255   0.294   3.080  10.485 -0.2270 -0.6324 -0.2260
  556MPD2    H5 8256   0.197   3.107  10.497 -0.7537 -1.4089 -2.5118
  556MPD2    N1 8257   0.348   3.375  10.865  0.2328 -0.0893 -0.0892
  556MPD2    H7 8258   0.248   3.359  10.871  0.2179  0.2590  0.5761
  557TMC3    C1 8259   0.235   2.962  10.290 -0.6261  0.1604  0.5952
  557TMC3    C2 8260   0.276   2.893  10.181  0.5478 -0.5583 -0.8247
  557TMC3    C3 8261   0.194   2.862  10.079 -0.0028 -0.4170 -0.0022
  557TMC3    C4 8262   0.106   3.003  10.299 -0.1688 -0.9774 -0.0082
  557TMC3    C5 8263   0.024   2.982  10.192 -0.6373 -0.2078 -0.1313
  557TMC3    C6 8264   0.063   2.909  10.080 -0.0666  0.1419 -0.1656
  557TMC3     C 8265   0.339   2.995  10.387  0.3337 -0.4650 -0.0782
  557TMC3     O 8266   0.447   2.950  10.365 -0.0940 -0.2688 -0.2452
  557TMC3     H 8267   0.381   2.867  10.176  1.2135  2.0055 -0.1479
  557TMC3    H1 8268   0.069   3.049  10.390 -0.9087  0.3714 -0.9825
  557TMC3    H2 8269   4.708   2.875  10.015 -0.5855  2.2218 -0.6187
  557TMC3    C7 8270   4.624   2.956  10.250 -0.0178 -0.6977  0.5641
  557TMC3    C8 8271   0.259   2.836   9.947 -0.0059 -0.1646 -0.1441
  557TMC3    O1 8272   4.566   3.049  10.306 -0.5279  0.2445 -0.7158
  557TMC3    O2 8273   0.378   2.851   9.926 -0.2928 -0.0934 -0.4084
  558TMC3    C1 8274   2.314   0.965  10.401  0.2606 -0.5720  0.4477
  558TMC3    C2 8275   2.216   0.910  10.487 -0.3267 -0.2276 -0.2440
  558TMC3    C3 8276   2.127   0.819  10.429 -0.3272 -0.9217 -1.0081
  558TMC3    C4 8277   2.312   0.935  10.261  0.7255  0.3056 -0.1427
  558TMC3    C5 8278   2.218   0.842  10.215  0.6040  0.0473 -0.3757
  558TMC3    C6 8279   2.135   0.778  10.301  0.0327 -0.9967  0.3060
  558TMC3     C 8280   2.418   1.053  10.443  0.2204 -0.5837 -0.1957
  558TMC3     O 8281   2.492   1.086  10.353  0.0613  0.0797 -0.1096
  558TMC3     H 8282   2.220   0.922  10.595  0.7694  1.4692 -0.4682
  558TMC3    H1 8283   2.391   0.973  10.198  0.4672  0.1937 -0.5310
  558TMC3    H2 8284   2.063   0.706  10.263 -1.7672  1.5251 -1.0840
  558TMC3    C7 8285   2.232   0.792  10.082 -0.3460  0.0535 -0.0322
  558TMC3    C8 8286   2.016   0.764  10.506 -0.5267  0.5224 -0.1100
  558TMC3    O1 8287   2.348   0.788  10.043 -0.6827  0.3038  0.1904
  558TMC3    O2 8288   1.967   0.661  10.459 -0.1201  0.0850 -0.5117
  559MPD2     C 8289   2.519   1.520  10.311  0.1370  0.1337 -0.0542
  559MPD2    C1 8290   2.434   1.461  10.400 -0.2258  0.0147  0.0543
  559MPD2    C2 8291   2.452   1.493  10.535 -0.5142 -0.0635  0.7352
  559MPD2    C3 8292   2.561   1.580  10.572 -0.1695 -0.7708 -0.2809
  559MPD2    C4 8293   2.645   1.629  10.476 -0.0616  0.6318 -0.3700
  559MPD2    C5 8294   2.623   1.596  10.349  0.8195 -0.2022 -0.0592
  559MPD2     H 8295   2.391   1.447  10.612 -1.0030 -0.9556 -0.1864
  559MPD2    H1 8296   2.741   1.676  10.495  1.3102 -2.9699  1.5297
  559MPD2    H2 8297   2.517   1.480  10.211 -3.5302 -1.6612  0.7255
  559MPD2    H3 8298   2.689   1.630  10.271 -1.3301  4.0415 -0.0478
  559MPD2     N 8299   2.580   1.600  10.711  0.5524 -0.1169  0.2715
  559MPD2    H5 8300   2.515   1.550  10.770  1.2028 -0.7911  0.4080
  559MPD2    N1 8301   2.342   1.369  10.343  0.0198 -0.0599  0.1307
  559MPD2    H7 8302   2.347   1.347  10.244  0.2346  1.4602 -0.2026
  560TMC3    C1 8303   2.650   1.691  10.917  0.1307 -0.2423  0.3335
  560TMC3    C2 8304   2.532   1.633  10.965  0.5645  0.5907  0.5558
  560TMC3    C3 8305   2.524   1.628  11.105  0.0115  0.6502 -0.1198
  560TMC3    C4 8306   2.761   1.735  10.996  0.1884  0.7953  0.0239
  560TMC3    C5 8307   2.740   1.716  11.133  0.1425  0.2443 -0.3129
  560TMC3    C6 8308   2.629   1.663  11.189 -0.5230 -0.2986  0.3013
  560TMC3     C 8309   2.668   1.682  10.773 -1.0088 -0.5049  1.2730
  560TMC3     O 8310   2.754   1.747  10.717  0.2329 -0.1547 -0.0881
  560TMC3     H 8311   2.445   1.614  10.903  0.5267  1.2602  0.4009
  560TMC3    H1 8312   2.855   1.763  10.949  1.2557 -0.0383  1.6456
  560TMC3    H2 8313   2.623   1.655  11.297  1.2358  1.4922  0.5091
  560TMC3    C7 8314   2.852   1.766  11.226 -0.2598  0.1688  0.3872
  560TMC3    C8 8315   2.414   1.556  11.158  0.0888 -0.3287 -0.2243
  560TMC3    O1 8316   2.854   1.710  11.334 -0.2176  0.0067  0.3566
  560TMC3    O2 8317   2.356   1.496  11.068  0.4785 -0.3224  0.0674
  561TMC3    C1 8318   0.192   1.031  11.463 -0.4342  0.1854  0.0211
  561TMC3    C2 8319   0.147   1.001  11.592  0.1634 -0.2727  0.2131
  561TMC3    C3 8320   0.225   1.038  11.701 -0.5179 -0.3069  0.0373
  561TMC3    C4 8321   0.311   1.103  11.440  0.7355 -0.6282 -0.0597
  561TMC3    C5 8322   0.368   1.152  11.556 -0.1322  0.6531  0.4901
  561TMC3    C6 8323   0.342   1.106  11.680 -0.0424  0.1348 -0.6653
  561TMC3     C 8324   0.135   0.955  11.354  0.0697 -0.2162 -0.1029
  561TMC3     O 8325   0.045   0.879  11.385 -0.6584 -0.6939 -0.0648
  561TMC3     H 8326   0.057   0.946  11.617 -0.3014  0.3390 -0.0909
  561TMC3    H1 8327   0.340   1.135  11.340 -2.0045  2.0359 -0.0160
  561TMC3    H2 8328   0.418   1.117  11.757  0.0409  1.2490 -0.8979
  561TMC3    C7 8329   0.466   1.264  11.557  0.0931  0.0743  0.3351
  561TMC3    C8 8330   0.185   1.006  11.837  0.9290 -0.5626  0.0053
  561TMC3    O1 8331   0.494   1.308  11.666 -0.2098 -0.7594  0.8761
  561TMC3    O2 8332   0.275   0.990  11.913 -0.4112 -0.4287 -0.8435
  562TMC3    C1 8333   1.186   2.898  16.220 -0.0979  0.3449  0.0583
  562TMC3    C2 8334   1.079   2.978  16.188  0.0588 -0.0882  0.0882
  562TMC3    C3 8335   1.044   2.980  16.055 -0.2766  0.3009  0.6411
  562TMC3    C4 8336   1.246   2.814  16.134 -0.4957  0.6088 -0.4376
  562TMC3    C5 8337   1.214   2.817  16.003  0.4711 -0.5905  1.0512
  562TMC3    C6 8338   1.113   2.902  15.963  0.1657  0.2900  0.2295
  562TMC3     C 8339   1.210   2.850  16.360  0.0321  0.3427 -0.4824
  562TMC3     O 8340   1.316   2.801  16.386 -0.5738 -0.3664  0.6981
  562TMC3     H 8341   1.030   3.039  16.263  0.4346  0.9217 -0.4930
  562TMC3    H1 8342   1.309   2.736  16.174 -0.6267 -0.0240 -1.4574
  562TMC3    H2 8343   1.100   2.904  15.856 -1.2702 -0.1858  0.4083
  562TMC3    C7 8344   1.270   2.733  15.903 -0.2759 -0.4083 -0.3602
  562TMC3    C8 8345   0.919   3.025  16.024 -0.9199 -0.5049 -0.2144
  562TMC3    O1 8346   1.267   2.784  15.792  0.3167  0.2805 -0.5199
  562TMC3    O2 8347   0.858   3.088  16.110  0.2912  0.0795 -0.3318
  563MPD2     C 8348   3.453   3.281  15.927 -1.2495  0.8158 -0.2995
  563MPD2    C1 8349   3.416   3.411  15.943 -0.9681  0.1873  0.0007
  563MPD2    C2 8350   3.501   3.518  15.945  0.0116 -0.2021  0.2290
  563MPD2    C3 8351   3.632   3.493  15.911 -1.1094  0.2239 -0.7026
  563MPD2    C4 8352   3.666   3.370  15.865  0.2452  0.5469 -0.7005
  563MPD2    C5 8353   3.579   3.265  15.881 -0.2549  0.5439  1.3525
  563MPD2     H 8354   3.471   3.621  15.958  0.6271 -0.2338  1.8659
  563MPD2    H1 8355   3.766   3.338  15.836  0.5329  1.8664 -1.1644
  563MPD2    H2 8356   3.390   3.195  15.949 -1.7590  1.7108  1.7099
  563MPD2    H3 8357   3.619   3.166  15.861  0.0163  0.7872  0.6897
  563MPD2     N 8358   3.717   3.608  15.914  0.1530  0.6544 -0.9822
  563MPD2    H5 8359   3.675   3.699  15.929 -1.4919 -0.2190 -0.2128
  563MPD2    N1 8360   3.274   3.432  15.969 -0.1549  0.1822 -0.6431
  563MPD2    H7 8361   3.213   3.352  15.957 -0.3857 -0.3663  4.2431
  564TMC3    C1 8362   3.085   3.520  16.073 -0.5114  0.2791 -0.5774
  564TMC3    C2 8363   3.022   3.402  16.039  0.1874 -0.2236 -0.2245
  564TMC3    C3 8364   2.950   3.332  16.134 -0.0376 -0.1239 -0.0656
  564TMC3    C4 8365   3.085   3.566  16.198 -0.0785  0.3654 -0.6063
  564TMC3    C5 8366   3.049   3.472  16.293  0.0638  0.1106  0.6401
  564TMC3    C6 8367   2.965   3.370  16.268 -0.7368  0.6746 -0.5932
  564TMC3     C 8368   3.213   3.546  16.019 -0.2850 -0.1224  0.3107
  564TMC3     O 8369   3.245   3.662  16.002 -0.4916  0.1098 -0.0324
  564TMC3     H 8370   3.027   3.367  15.936  0.5921  0.6687 -0.5096
  564TMC3    H1 8371   3.161   3.638  16.227  0.5040 -0.5334  0.1230
  564TMC3    H2 8372   2.931   3.312  16.354  3.4559  1.5917  1.6647
  564TMC3    C7 8373   3.178   3.431  16.351 -0.0176 -0.0982 -0.8550
  564TMC3    C8 8374   2.939   3.193  16.117 -0.1965  0.7150 -0.0056
  564TMC3    O1 8375   3.277   3.512  16.364  0.0727  0.0785 -0.0181
  564TMC3    O2 8376   2.965   3.136  16.228 -0.1844 -0.6931  0.3013
  565TMC3    C1 8377   4.111   0.195  10.584  0.4786 -0.2021  0.1142
  565TMC3    C2 8378   4.153   0.123  10.693 -0.2047  0.4321 -0.1365
  565TMC3    C3 8379   4.067   0.033  10.751  0.4132 -0.3145  0.4380
  565TMC3    C4 8380   3.993   0.165  10.517 -0.1181  0.2043  0.0057
  565TMC3    C5 8381   3.915   0.067  10.575 -0.7729  0.4195 -0.2667
  565TMC3    C6 8382   3.954   4.717  10.682  0.3037  1.1013 -0.5391
  565TMC3     C 8383   4.204   0.289  10.512 -0.7146  0.1358  0.0267
  565TMC3     O 8384   4.174   0.347  10.404  0.3508  0.3431 -0.2563
  565TMC3     H 8385   4.241   0.151  10.751 -0.6653  0.9930  0.2874
  565TMC3    H1 8386   3.960   0.225  10.433  1.4926 -1.2153 -1.6422
  565TMC3    H2 8387   3.887   4.640  10.719  0.5810  0.9305 -0.3880
  565TMC3    C7 8388   3.790   0.026  10.509 -0.7968  0.0167  0.0184
  565TMC3    C8 8389   4.103   4.697  10.881 -0.0233 -0.2881 -1.3895
  565TMC3    O1 8390   3.792   0.050  10.391  0.5025  0.2308 -0.5294
  565TMC3    O2 8391   4.184   0.028  10.952  0.2966  0.1287  0.4711
  566MPD2     C 8392   0.874   1.659  14.291  0.3298  0.4534  0.4543
  566MPD2    C1 8393   0.947   1.718  14.194  0.2991 -0.7527 -0.2041
  566MPD2    C2 8394   0.887   1.734  14.072  0.2464  0.1345  0.9002
  566MPD2    C3 8395   0.758   1.698  14.045 -0.2825 -0.5115 -0.5188
  566MPD2    C4 8396   0.679   1.652  14.146 -0.0737 -0.1066 -0.0944
  566MPD2    C5 8397   0.740   1.637  14.270  1.2317 -0.3530 -0.2939
  566MPD2     H 8398   0.941   1.787  13.994  2.4453 -1.6654  1.2113
  566MPD2    H1 8399   0.576   1.622  14.133 -0.2159  0.5294 -0.4564
  566MPD2    H2 8400   0.915   1.648  14.391  0.7822 -1.7084  0.0196
  566MPD2    H3 8401   0.677   1.592  14.347  2.6128 -2.4069 -0.3668
  566MPD2     N 8402   0.694   1.718  13.922  0.5285 -0.3194 -0.5024
  566MPD2    H5 8403   0.596   1.693  13.923  0.2148  0.9335  1.8501
  566MPD2    N1 8404   1.090   1.741  14.217 -0.7497 -0.1804  0.2778
  566MPD2    H7 8405   1.132   1.751  14.309  1.1674 -1.3454 -0.4629
  567TMC3    C1 8406   1.300   1.832  14.172 -0.7983 -0.4567  0.1467
  567TMC3    C2 8407   1.389   1.897  14.091  0.4635  0.2730 -0.4520
  567TMC3    C3 8408   1.503   1.946  14.141  0.3987 -0.4521  0.3469
  567TMC3    C4 8409   1.336   1.799  14.302  0.2788 -0.1487 -0.9768
  567TMC3    C5 8410   1.463   1.832  14.344  0.2164  0.0458 -0.2650
  567TMC3    C6 8411   1.547   1.909  14.265 -0.0217 -0.9495 -0.2982
  567TMC3     C 8412   1.181   1.774  14.118  1.2774 -0.4328  0.3885
  567TMC3     O 8413   1.161   1.769  13.998 -0.0054  0.5992  0.2608
  567TMC3     H 8414   1.372   1.909  13.984 -1.7521  0.1119 -0.1210
  567TMC3    H1 8415   1.271   1.742  14.367  0.4864 -0.1648 -0.7806
  567TMC3    H2 8416   1.635   1.955  14.309 -0.0151 -0.2811 -1.0002
  567TMC3    C7 8417   1.498   1.803  14.486  0.0769 -0.1394 -0.0791
  567TMC3    C8 8418   1.580   2.037  14.056  0.0535 -0.0585  0.7746
  567TMC3    O1 8419   1.607   1.761  14.512  0.3009 -0.3859 -0.3008
  567TMC3    O2 8420   1.516   2.072  13.957 -0.2769 -0.1404 -0.2128
  568MPD2     C 8421   3.382   1.909  16.404 -0.4940  0.2678 -0.2307
  568MPD2    C1 8422   3.345   1.992  16.510  0.6959 -0.7453  0.8640
  568MPD2    C2 8423   3.279   2.108  16.477 -0.4470  0.4151 -0.7745
  568MPD2    C3 8424   3.245   2.143  16.350 -0.5026 -0.2416 -0.5391
  568MPD2    C4 8425   3.276   2.059  16.245  0.1215 -0.1115  0.2433
  568MPD2    C5 8426   3.349   1.946  16.274  0.5902 -0.2564 -0.2241
  568MPD2     H 8427   3.230   2.158  16.559 -0.8763 -2.1598  0.5625
  568MPD2    H1 8428   3.241   2.092  16.147 -0.5179  1.4643  1.0032
  568MPD2    H2 8429   3.440   1.820  16.429  2.5116  2.0860 -0.7728
  568MPD2    H3 8430   3.375   1.885  16.189 -0.1235 -0.0254 -0.6146
  568MPD2     N 8431   3.150   2.249  16.327 -0.6722 -0.0156  0.6979
  568MPD2    H5 8432   3.097   2.250  16.240 -0.1112  1.2295  0.3699
  568MPD2    N1 8433   3.382   1.953  16.644 -0.2195  0.2339  0.9391
  568MPD2    H7 8434   3.428   1.864  16.655 -0.9966 -0.1587  1.0199
  569TMC3    C1 8435   3.008   2.427  16.396  0.2769 -0.2131 -1.2883
  569TMC3    C2 8436   2.959   2.516  16.490 -0.6773  0.1424  0.1700
  569TMC3    C3 8437   2.857   2.604  16.470 -0.1509 -0.0680 -0.2084
  569TMC3    C4 8438   2.944   2.428  16.276  0.5624 -0.1883 -0.4527
  569TMC3    C5 8439   2.837   2.508  16.254 -0.4314  0.0119 -0.5612
  569TMC3    C6 8440   2.793   2.598  16.350 -0.4510  0.0125  0.0573
  569TMC3     C 8441   3.124   2.349  16.420  0.2711 -0.4332 -0.1035
  569TMC3     O 8442   3.194   2.380  16.516  0.1308  0.1187 -0.0919
  569TMC3     H 8443   3.003   2.503  16.588  0.5251 -0.5138 -0.4531
  569TMC3    H1 8444   2.974   2.370  16.189 -0.3844 -1.1681 -0.1116
  569TMC3    H2 8445   2.705   2.656  16.326  0.1678  0.8565 -0.1829
  569TMC3    C7 8446   2.839   2.560  16.123 -0.3233  0.0503 -0.1526
  569TMC3    C8 8447   2.885   2.740  16.501  0.7428  0.3888 -0.2993
  569TMC3    O1 8448   2.857   2.484  16.027  0.0035  0.4110  0.0812
  569TMC3    O2 8449   2.816   2.820  16.439 -0.3601  0.0966 -0.1128
  570TMC3    C1 8450   2.668   1.369  16.504 -0.5558  0.3948  0.1723
  570TMC3    C2 8451   2.781   1.407  16.435  0.3204  0.5276 -0.6340
  570TMC3    C3 8452   2.777   1.534  16.378  1.2258 -0.1956 -0.1079
  570TMC3    C4 8453   2.558   1.441  16.519 -0.3086 -0.0457 -0.2447
  570TMC3    C5 8454   2.561   1.564  16.467  0.5017 -0.0558  0.0366
  570TMC3    C6 8455   2.669   1.612  16.391  0.0843 -0.3584  0.1975
  570TMC3     C 8456   2.687   1.238  16.573  0.8208 -0.3613  0.4941
  570TMC3     O 8457   2.767   1.159  16.516 -0.5810  0.0162 -0.3565
  570TMC3     H 8458   2.862   1.336  16.432  0.3152  0.5219 -0.6430
  570TMC3    H1 8459   2.464   1.407  16.563  0.4862 -1.8235  0.0810
  570TMC3    H2 8460   2.674   1.715  16.358  1.2875 -0.4369  0.1368
  570TMC3    C7 8461   2.450   1.651  16.500 -0.2458  1.2917  0.1397
  570TMC3    C8 8462   2.875   1.580  16.278  0.2411  0.3957  0.1841
  570TMC3    O1 8463   2.390   1.641  16.606  0.6252  0.3862  0.1237
  570TMC3    O2 8464   2.854   1.677  16.217  0.0200 -0.1500 -0.1878
  571MPD2     C 8465   0.589   2.864  17.289  0.5466 -0.0461 -0.0690
  571MPD2    C1 8466   0.503   2.961  17.332 -0.1843  0.2597  1.0335
  571MPD2    C2 8467   0.563   3.064  17.402  0.1998 -0.5115  0.1229
  571MPD2    C3 8468   0.705   3.077  17.418  0.5984 -0.8974  0.3871
  571MPD2    C4 8469   0.783   2.986  17.363 -1.3849  0.2649 -0.0593
  571MPD2    C5 8470   0.722   2.870  17.316 -1.3393  0.0813 -0.1505
  571MPD2     H 8471   0.487   3.130  17.440  0.1435  0.2377 -1.2766
  571MPD2    H1 8472   0.890   2.987  17.381 -1.3372 -0.3010 -0.3291
  571MPD2    H2 8473   0.551   2.769  17.255 -0.1462 -0.1731  1.0376
  571MPD2    H3 8474   0.779   2.780  17.295 -0.7616 -0.0012  1.7328
  571MPD2     N 8475   0.755   3.183  17.492  0.4052  0.2394  0.4087
  571MPD2    H5 8476   0.853   3.206  17.479  1.1086 -0.7976  3.8591
  571MPD2    N1 8477   0.363   2.936  17.325  0.0688 -0.9492 -0.3170
  571MPD2    H7 8478   0.335   2.840  17.306 -0.9941 -0.9931  1.4753
  572TMC3    C1 8479   0.768   3.335  17.667 -0.2974 -0.2019 -0.0128
  572TMC3    C2 8480   0.771   3.340   0.098  0.0371  0.3754 -0.6272
  572TMC3    C3 8481   0.859   3.427   0.152  0.1764 -0.3062 -0.5318
  572TMC3    C4 8482   0.823   3.425  17.583  0.3705 -0.1412  0.2037
  572TMC3    C5 8483   0.897   3.525  17.644  0.0234 -0.6103 -0.0887
  572TMC3    C6 8484   0.923   3.525   0.073  0.2883  0.2793  0.3665
  572TMC3     C 8485   0.693   3.225  17.608 -0.3167  0.5609  0.2067
  572TMC3     O 8486   0.612   3.175  17.682 -0.2422 -0.2210  0.4363
  572TMC3     H 8487   0.724   3.262   0.158  0.5978 -0.6670 -1.5384
  572TMC3    H1 8488   0.797   3.425  17.478 -0.1346 -1.7062  0.3273
  572TMC3    H2 8489   0.979   3.596   0.133 -0.7449 -1.5048  3.4584
  572TMC3    C7 8490   0.929   3.637  17.569  0.5339 -0.2441  0.1528
  572TMC3    C8 8491   0.850   3.459   0.288  0.6844 -0.1513 -0.1121
  572TMC3    O1 8492   0.891   3.656  17.451 -0.4059 -0.2606 -0.1453
  572TMC3    O2 8493   0.945   3.499   0.349 -0.6035 -0.1271 -0.3283
  573MPD2     C 8494   2.476   3.137   0.806 -0.0895 -0.2272  0.3285
  573MPD2    C1 8495   2.573   3.209   0.731  0.1712 -0.9400  0.0163
  573MPD2    C2 8496   2.553   3.232   0.595 -0.0733  0.1965  0.3611
  573MPD2    C3 8497   2.442   3.175   0.532  0.1533 -0.2539  0.3239
  573MPD2    C4 8498   2.349   3.102   0.604  0.0061 -0.1719 -0.6828
  573MPD2    C5 8499   2.364   3.086   0.740 -0.6630 -0.1730 -0.1798
  573MPD2     H 8500   2.620   3.295   0.538 -1.3320  0.9880 -0.2455
  573MPD2    H1 8501   2.259   3.061   0.560 -0.7725  1.1041 -0.3023
  573MPD2    H2 8502   2.479   3.133   0.914 -1.3311  2.2147  0.4410
  573MPD2    H3 8503   2.296   3.031   0.803 -1.2878  1.4839  0.5835
  573MPD2     N 8504   2.411   3.206   0.395 -0.0336 -0.6408  0.2172
  573MPD2    H5 8505   2.325   3.161   0.366 -2.2938  2.4565  2.0165
  573MPD2    N1 8506   2.685   3.249   0.802  0.8443 -0.4604 -0.0885
  573MPD2    H7 8507   2.687   3.230   0.901 -0.5623 -0.5603 -0.0924
  574TMC3    C1 8508   2.396   3.329   0.195  0.7143 -0.3397  0.1317
  574TMC3    C2 8509   2.258   3.322   0.206 -0.1858 -0.2857  0.0464
  574TMC3    C3 8510   2.186   3.405   0.134  0.4669  0.6531 -0.2845
  574TMC3    C4 8511   2.454   3.416   0.109 -0.2375  0.2187  0.7889
  574TMC3    C5 8512   2.379   3.508   0.044 -0.1246  0.4160 -0.7585
  574TMC3    C6 8513   2.241   3.508   0.054 -0.2549  1.2142  0.0563
  574TMC3     C 8514   2.474   3.300   0.315  0.0918  0.0316  0.0912
  574TMC3     O 8515   2.582   3.354   0.338  0.0121  0.3107  0.2942
  574TMC3     H 8516   2.210   3.250   0.272 -1.3669 -0.1474 -0.6682
  574TMC3    H1 8517   2.560   3.405   0.091 -0.7006 -0.8905 -1.2183
  574TMC3    H2 8518   2.193   3.594   0.009 -0.7532  1.4039  0.9591
  574TMC3    C7 8519   2.450   3.620  17.683  0.5896 -0.5118 -0.5527
  574TMC3    C8 8520   2.048   3.405   0.169 -0.4412 -0.0367  0.2935
  574TMC3    O1 8521   2.384   3.669  17.592 -0.1858  0.2264 -0.4072
  574TMC3    O2 8522   1.995   3.308   0.229  0.3189  0.1628 -0.3185
  575TMC3    C1 8523   4.598   4.482  11.591 -0.1612  0.4966 -0.3769
  575TMC3    C2 8524   4.600   4.355  11.640  0.1130 -0.4199  0.6167
  575TMC3    C3 8525   4.510   4.268  11.584  0.1639 -0.2862  0.3754
  575TMC3    C4 8526   4.507   4.530  11.497 -0.5133  0.5001 -0.2939
  575TMC3    C5 8527   4.435   4.434  11.433  0.1579 -0.0522  0.2042
  575TMC3    C6 8528   4.429   4.308  11.483 -0.0193 -0.4512  0.4560
  575TMC3     C 8529   4.718   4.571  11.622 -0.7317  0.1170 -0.3176
  575TMC3     O 8530   0.014   4.668  11.553  0.4130 -0.2131 -0.0234
  575TMC3     H 8531   4.669   4.314  11.714  0.8204 -3.0927 -1.5438
  575TMC3    H1 8532   4.517   4.629  11.453  0.7747 -0.0946 -1.3071
  575TMC3    H2 8533   4.367   4.232  11.436  2.5896 -1.8521 -0.7786
  575TMC3    C7 8534   4.354   4.480  11.324 -0.7594  0.2814  1.1421
  575TMC3    C8 8535   4.504   4.129  11.619  0.0991 -0.1524  0.4203
  575TMC3    O1 8536   4.399   4.572  11.255 -0.0200 -0.1501  0.2278
  575TMC3    O2 8537   4.458   4.055  11.533  0.5626  0.3224 -0.6464
  576MPD2     C 8538   4.069   1.823  12.328  0.1616  0.0787 -0.1097
  576MPD2    C1 8539   3.956   1.756  12.298  0.6312 -0.0009  0.5692
  576MPD2    C2 8540   3.845   1.832  12.264  0.4981 -0.0073  0.0966
  576MPD2    C3 8541   3.847   1.968  12.246 -0.3065  0.5805  0.5642
  576MPD2    C4 8542   3.961   2.033  12.274  0.0129 -0.7167  0.3548
  576MPD2    C5 8543   4.065   1.958  12.320  0.2826 -0.5646 -0.5324
  576MPD2     H 8544   3.751   1.785  12.239 -0.4155  2.5764 -1.2973
  576MPD2    H1 8545   3.986   2.135  12.250  0.8369 -0.8330  0.7098
  576MPD2    H2 8546   4.166   1.783  12.357 -0.0783  1.8036  3.1305
  576MPD2    H3 8547   4.163   2.002  12.328 -1.3163  2.6684  1.2149
  576MPD2     N 8548   3.734   2.032  12.195  0.3879  0.3141  0.1846
  576MPD2    H5 8549   3.663   1.969  12.160  0.4957  1.1591 -1.5750
  576MPD2    N1 8550   3.936   1.617  12.297  0.1488  0.0168  0.7918
  576MPD2    H7 8551   3.855   1.578  12.250 -0.2562  2.2840 -0.4174
  577TMC3    C1 8552   4.029   1.396  12.278 -0.2064 -0.2631  0.1796
  577TMC3    C2 8553   4.141   1.323  12.307  0.1831  0.5872 -0.4005
  577TMC3    C3 8554   4.196   1.247  12.207  1.1472 -0.5463  0.4639
  577TMC3    C4 8555   3.983   1.405  12.148  0.2546 -0.1508 -0.0303
  577TMC3    C5 8556   4.050   1.342  12.048  0.8685  0.9695 -0.1208
  577TMC3    C6 8557   4.154   1.258  12.074  0.2268 -0.2980 -0.0224
  577TMC3     C 8558   4.032   1.526  12.352 -0.3763 -0.3987  0.3400
  577TMC3     O 8559   4.116   1.558  12.437 -0.0011 -0.8915 -0.1272
  577TMC3     H 8560   4.176   1.316  12.409 -0.5504 -0.1855 -0.1995
  577TMC3    H1 8561   3.902   1.470  12.116  0.2491 -0.7015 -1.1441
  577TMC3    H2 8562   4.192   1.209  11.985 -1.4808 -1.3556 -0.1565
  577TMC3    C7 8563   3.990   1.354  11.915 -0.0185 -0.0150 -0.0549
  577TMC3    C8 8564   4.316   1.181  12.241  0.5365  0.2285  0.1897
  577TMC3    O1 8565   3.965   1.470  11.880  0.1969 -0.0786  0.7236
  577TMC3    O2 8566   4.337   1.145  12.358  0.2793  0.5938  0.2183
  578MPD2     C 8567   1.591   1.053   0.766  0.2391 -0.3554 -0.9372
  578MPD2    C1 8568   1.713   1.001   0.741 -0.5130 -0.2991 -0.8070
  578MPD2    C2 8569   1.808   1.012   0.842 -0.0723  0.3234 -0.8829
  578MPD2    C3 8570   1.767   1.082   0.959  0.1383 -0.5785  0.2878
  578MPD2    C4 8571   1.646   1.133   0.981  0.0483  0.2808 -0.0806
  578MPD2    C5 8572   1.556   1.109   0.886 -0.6674 -0.3398  0.4994
  578MPD2     H 8573   1.909   0.978   0.822  0.0603  0.8807 -1.1748
  578MPD2    H1 8574   1.608   1.181   1.070  0.7978 -0.0813  0.4311
  578MPD2    H2 8575   1.522   1.040   0.683  0.8878 -1.6754 -1.2831
  578MPD2    H3 8576   1.452   1.136   0.900 -0.7397 -0.0264 -0.6343
  578MPD2     N 8577   1.871   1.101   1.059 -0.0873  0.1034  0.1750
  578MPD2    H5 8578   1.965   1.070   1.037 -0.7791 -0.9866 -1.1972
  578MPD2    N1 8579   1.738   0.936   0.622  0.3886  0.5955 -0.1335
  578MPD2    H7 8580   1.669   0.947   0.547 -0.7913  2.3368  1.2081
  579TMC3    C1 8581   1.959   1.125   1.275  0.3304 -0.2468 -0.0359
  579TMC3    C2 8582   1.992   1.221   1.364 -0.1110 -0.4930  0.3600
  579TMC3    C3 8583   2.109   1.208   1.433  0.1355 -0.0965  0.5122
  579TMC3    C4 8584   2.025   1.008   1.257 -0.1956  0.4151  0.4278
  579TMC3    C5 8585   2.135   0.995   1.342 -0.0574 -0.4832  0.2312
  579TMC3    C6 8586   2.178   1.090   1.429 -0.0836 -0.0568  0.2178
  579TMC3     C 8587   1.847   1.143   1.190 -0.3885 -0.1792  0.7488
  579TMC3     O 8588   1.749   1.206   1.233  0.4855 -1.0164 -0.3467
  579TMC3     H 8589   1.929   1.309   1.367  1.4816  0.7054 -0.8998
  579TMC3    H1 8590   1.986   0.925   1.201 -0.4308  1.5928 -1.1504
  579TMC3    H2 8591   2.267   1.078   1.489  0.1890 -1.3268 -0.4393
  579TMC3    C7 8592   2.212   0.873   1.343  0.0516  0.0882 -0.2485
  579TMC3    C8 8593   2.159   1.318   1.508  0.2988  0.4915 -0.0183
  579TMC3    O1 8594   2.288   0.873   1.439  0.1948  0.1196 -0.3316
  579TMC3    O2 8595   2.086   1.396   1.570 -0.5907 -0.1180  0.0966
  580TMC3    C1 8596   2.137   0.121  12.407 -0.0826  0.2945  0.8123
  580TMC3    C2 8597   2.065   0.120  12.288  0.2308  0.5410 -0.1800
  580TMC3    C3 8598   2.087   0.020  12.202  0.0407  0.0943 -0.0085
  580TMC3    C4 8599   2.227   0.019  12.432 -0.4168  0.2628  0.3176
  580TMC3    C5 8600   2.251   4.644  12.346 -0.7994 -0.3874 -0.5236
  580TMC3    C6 8601   2.184   4.642  12.226  0.1779  0.4863  0.2382
  580TMC3     C 8602   2.198   0.255  12.424  0.6437  0.0258  0.6485
  580TMC3     O 8603   2.136   0.349  12.388 -0.6033 -0.2089 -0.4988
  580TMC3     H 8604   2.010   0.208  12.256 -1.7494  0.3973  2.8053
  580TMC3    H1 8605   2.279   0.017  12.527 -0.8973  1.2231  0.6063
  580TMC3    H2 8606   2.211   4.568  12.152  1.0476  2.0318 -0.9960
  580TMC3    C7 8607   2.386   4.600  12.343  0.8651 -0.6207 -0.7309
  580TMC3    C8 8608   2.111   0.067  12.070 -0.6564 -0.4900  0.2158
  580TMC3    O1 8609   2.454   4.689  12.395  0.1208  0.4212  0.1630
  580TMC3    O2 8610   2.048   0.017  11.974 -0.3882 -0.2064 -0.4290
  581MPD2     C 8611   0.143   0.627  15.513 -0.3549 -0.2299 -0.2330
  581MPD2    C1 8612   0.164   0.553  15.401 -0.8536 -0.5289 -0.2409
  581MPD2    C2 8613   0.072   0.553  15.300 -0.1919 -0.0506  0.2268
  581MPD2    C3 8614   4.697   0.655  15.293  0.0940 -0.8025  0.2388
  581MPD2    C4 8615   4.702   0.748  15.399 -0.3474 -0.0245 -0.8023
  581MPD2    C5 8616   0.058   0.735  15.503 -0.3242  0.5885 -1.1888
  581MPD2     H 8617   0.064   0.479  15.221  0.2313  1.8264 -1.6042
  581MPD2    H1 8618   4.631   0.830  15.396 -0.3163 -0.0607 -2.2659
  581MPD2    H2 8619   0.193   0.606  15.607 -0.7671 -1.9429 -0.3945
  581MPD2    H3 8620   0.040   0.798  15.589  0.9769 -0.8425  0.1563
  581MPD2     N 8621   4.599   0.676  15.194 -0.5218  0.1057 -0.3165
  581MPD2    H5 8622   4.544   0.761  15.197 -2.2516 -1.0858  2.0031
  581MPD2    N1 8623   0.271   0.463  15.414 -0.1614 -0.4106 -0.1152
  581MPD2    H7 8624   0.323   0.455  15.501 -0.9041 -1.4956  0.2338
  582TMC3    C1 8625   0.390   0.266  15.385  0.9079 -0.3078  0.1976
  582TMC3    C2 8626   0.439   0.292  15.511 -0.0193  0.1182 -0.2267
  582TMC3    C3 8627   0.410   0.204  15.608 -0.3720  0.1361  0.3616
  582TMC3    C4 8628   0.341   0.145  15.366 -0.6096  0.0365 -0.4948
  582TMC3    C5 8629   0.305   0.063  15.469 -0.2609  0.3203 -0.2876
  582TMC3    C6 8630   0.337   0.088  15.600 -0.3778 -0.0131 -0.4365
  582TMC3     C 8631   0.288   0.358  15.330 -0.0912  0.7998 -0.1861
  582TMC3     O 8632   0.231   0.328  15.226 -0.6480  0.5227 -0.6714
  582TMC3     H 8633   0.504   0.377  15.527 -0.1099 -0.0156  0.9215
  582TMC3    H1 8634   0.308   0.122  15.265  0.2581 -2.8822 -0.1031
  582TMC3    H2 8635   0.294   0.030  15.681  0.8116  1.0237  0.9348
  582TMC3    C7 8636   0.174   0.013  15.453 -0.3707 -0.4605 -0.3954
  582TMC3    C8 8637   0.446   0.248  15.744  0.2251  0.5094  0.9264
  582TMC3    O1 8638   0.145   4.643  15.523  0.7403  0.8796  0.4432
  582TMC3    O2 8639   0.429   0.367  15.769 -0.0273 -0.3967  0.2543
  583MPD2     C 8640   4.603   1.840  16.601 -0.2296  0.0976  0.2404
  583MPD2    C1 8641   4.581   1.960  16.546  0.1011  0.4665 -1.1910
  583MPD2    C2 8642   4.521   2.057  16.620  0.2689  0.0634  0.1128
  583MPD2    C3 8643   4.475   2.037  16.743  0.0521  0.2877  0.2953
  583MPD2    C4 8644   4.492   1.907  16.801 -0.2332  0.1392 -0.1144
  583MPD2    C5 8645   4.546   1.806  16.723 -0.6143 -0.9904  0.2913
  583MPD2     H 8646   4.521   2.154  16.571  1.8934 -0.9786 -1.9207
  583MPD2    H1 8647   4.453   1.872  16.896 -0.6688  0.7869 -0.0596
  583MPD2    H2 8648   4.665   1.761  16.560  0.4377  0.6529  0.1634
  583MPD2    H3 8649   4.558   1.707  16.766 -1.6525 -0.1358  2.5457
  583MPD2     N 8650   4.409   2.137  16.811  0.0211  0.3659  0.0667
  583MPD2    H5 8651   4.386   2.224  16.765  2.2556  1.2815  0.7058
  583MPD2    N1 8652   4.634   2.003  16.425  0.2722  0.3695  0.1095
  583MPD2    H7 8653   4.607   2.094  16.389  1.8704  0.6745 -0.3294
  584TMC3    C1 8654   4.320   2.258  17.001 -0.0216  0.3464  0.5327
  584TMC3    C2 8655   4.314   2.367  16.926 -0.3583  0.4620  0.4137
  584TMC3    C3 8656   4.252   2.478  16.984 -0.3294 -0.1512  0.1337
  584TMC3    C4 8657   4.291   2.264  17.136  0.0024  0.5720  0.4689
  584TMC3    C5 8658   4.216   2.366  17.191  0.5032  0.4676  0.4628
  584TMC3    C6 8659   4.200   2.475  17.113  0.4556 -0.5862 -0.0652
  584TMC3     C 8660   4.367   2.132  16.947 -0.4515  0.2963  0.3378
  584TMC3     O 8661   4.378   2.039  17.023  0.6405  0.2639 -0.0704
  584TMC3     H 8662   4.353   2.375  16.825  2.0850  1.7328  1.4657
  584TMC3    H1 8663   4.294   2.169  17.187 -0.9674 -0.4531 -1.3780
  584TMC3    H2 8664   4.121   2.548  17.126  2.2948  1.2604  0.7093
  584TMC3    C7 8665   4.122   2.320  17.294 -0.6023 -0.2915 -0.1951
  584TMC3    C8 8666   4.211   2.590  16.898  0.7971  0.7665  0.0361
  584TMC3    O1 8667   4.100   2.200  17.297  0.9531 -0.2381 -0.1555
  584TMC3    O2 8668   4.194   2.563  16.781 -0.0529 -0.0974  0.1373
  585MPD2     C 8669   3.795   0.800   0.706 -0.7528  0.0048  0.1365
  585MPD2    C1 8670   3.852   0.897   0.627  0.4272 -0.6539  0.3426
  585MPD2    C2 8671   3.924   0.860   0.511  0.4065  0.3349 -0.6272
  585MPD2    C3 8672   3.946   0.725   0.480 -0.4110  0.4162  0.3316
  585MPD2    C4 8673   3.904   0.625   0.567 -0.3494 -0.3058  0.4466
  585MPD2    C5 8674   3.829   0.672   0.676 -0.0657 -0.5303 -0.5265
  585MPD2     H 8675   3.965   0.934   0.443 -1.3604  1.2435 -0.7140
  585MPD2    H1 8676   3.922   0.520   0.550  1.4628 -0.4707  3.2719
  585MPD2    H2 8677   3.729   0.818   0.790 -3.3698  1.2471 -2.1868
  585MPD2    H3 8678   3.786   0.598   0.743 -0.6474 -1.5829 -2.0627
  585MPD2     N 8679   4.006   0.687   0.356 -0.2291  0.4957  0.2882
  585MPD2    H5 8680   3.984   0.593   0.325  1.2478  0.1187  0.3665
  585MPD2    N1 8681   3.827   1.033   0.670 -0.4105 -0.1197  0.1158
  585MPD2    H7 8682   3.754   1.052   0.737  0.3372 -1.8027  1.4176
  586TMC3    C1 8683   4.110   0.725   0.140  0.1099 -0.3848  0.2774
  586TMC3    C2 8684   4.195   0.801   0.059 -0.1308 -0.5502  0.2789
  586TMC3    C3 8685   4.200   0.782  17.624  0.1506  0.3862  0.4379
  586TMC3    C4 8686   4.021   0.633   0.090  0.4189 -0.4051  0.0290
  586TMC3    C5 8687   4.032   0.615  17.653  0.4233 -0.3075 -0.0413
  586TMC3    C6 8688   4.119   0.681  17.570 -0.1531 -0.8103 -0.6762
  586TMC3     C 8689   4.092   0.768   0.277  0.4698 -0.6153 -0.3889
  586TMC3     O 8690   4.143   0.880   0.309 -0.0579  0.2925 -0.1420
  586TMC3     H 8691   4.261   0.880   0.094  0.7730 -1.9445  1.7323
  586TMC3    H1 8692   3.948   0.570   0.139  1.4203 -1.0920  0.6502
  586TMC3    H2 8693   4.123   0.653  17.465 -0.7501 -0.6865 -0.7331
  586TMC3    C7 8694   3.987   0.487  17.604  0.2328  0.4884  0.4461
  586TMC3    C8 8695   4.329   0.807  17.565  0.1945  0.1815 -0.6737
  586TMC3    O1 8696   3.880   0.439  17.647 -0.3759  0.6457  0.5631
  586TMC3    O2 8697   4.429   0.813  17.636  0.3716 -0.0089 -0.2445
  587TMC3    C1 8698   1.342   4.105  16.285  0.0082 -0.0290  0.8967
  587TMC3    C2 8699   1.276   4.222  16.234  0.2778 -0.0217 -0.2437
  587TMC3    C3 8700   1.347   4.307  16.149 -0.1380 -0.3288 -0.0383
  587TMC3    C4 8701   1.471   4.078  16.256  0.5058  0.2683 -0.0833
  587TMC3    C5 8702   1.540   4.171  16.175 -0.7721  0.5149 -0.2066
  587TMC3    C6 8703   1.476   4.285  16.118  0.7945 -0.2728  0.5398
  587TMC3     C 8704   1.275   4.015  16.367 -0.2452 -0.4841 -0.3878
  587TMC3     O 8705   1.302   3.894  16.364  0.4780  0.8220  0.1156
  587TMC3     H 8706   1.169   4.234  16.241  0.7423  2.7831  1.8987
  587TMC3    H1 8707   1.527   4.001  16.308 -1.1189 -0.0241  1.2129
  587TMC3    H2 8708   1.534   4.350  16.053 -1.1533  1.2111  0.2898
  587TMC3    C7 8709   1.667   4.138  16.106 -0.6625 -0.4378 -0.6909
  587TMC3    C8 8710   1.286   4.428  16.106  0.0429 -0.0878 -0.1550
  587TMC3    O1 8711   1.741   4.228  16.069  0.1255 -0.3990 -0.0253
  587TMC3    O2 8712   1.329   4.478  16.007  0.1623  0.2375 -0.3418
  588TMC3    C1 8713   3.873   1.993   9.405 -0.3354 -0.1416  0.1092
  588TMC3    C2 8714   3.838   1.861   9.439 -0.6020 -0.3872  0.5223
  588TMC3    C3 8715   3.851   1.810   9.570  0.5196 -0.0332  0.4615
  588TMC3    C4 8716   3.932   2.066   9.498 -0.3196 -0.3144  0.1617
  588TMC3    C5 8717   3.932   2.019   9.634 -0.4349  0.2152 -0.2314
  588TMC3    C6 8718   3.900   1.887   9.669 -0.0111 -0.0648  0.0797
  588TMC3     C 8719   3.799   2.052   9.295  0.0401  0.2372 -0.0877
  588TMC3     O 8720   3.702   1.992   9.249  0.5708  0.7329  0.4238
  588TMC3     H 8721   3.801   1.799   9.359 -2.1277 -1.0759  1.7782
  588TMC3    H1 8722   3.976   2.160   9.468  1.9897 -1.5631 -0.3281
  588TMC3    H2 8723   3.893   1.851   9.771  0.3047  1.4300  0.6282
  588TMC3    C7 8724   3.896   2.120   9.734  0.5018 -0.4934  0.2653
  588TMC3    C8 8725   3.841   1.664   9.576 -0.0225  0.0135 -0.3740
  588TMC3    O1 8726   3.843   2.077   9.835  0.0134 -0.0431 -0.3516
  588TMC3    O2 8727   3.782   1.602   9.490  0.7578  0.6007  0.0691
  589TMC3    C1 8728   3.058   4.180   1.014 -0.3200 -0.9648 -0.2590
  589TMC3    C2 8729   3.121   4.145   1.137 -0.6372 -0.6216  0.5200
  589TMC3    C3 8730   3.255   4.109   1.130  0.1614 -0.5755 -0.6422
  589TMC3    C4 8731   3.118   4.149   0.896 -0.3196 -0.1408 -0.8691
  589TMC3    C5 8732   3.248   4.102   0.900 -0.4701 -0.7054  0.0820
  589TMC3    C6 8733   3.318   4.080   1.019  0.3095 -0.1580  0.3377
  589TMC3     C 8734   2.917   4.191   1.002 -0.1177  0.8526  0.2735
  589TMC3     O 8735   2.863   4.117   0.921 -0.1686  0.3941  0.2696
  589TMC3     H 8736   3.075   4.176   1.229 -0.5925 -0.3157  0.4417
  589TMC3    H1 8737   3.076   4.187   0.804  0.9866  1.9304 -0.6162
  589TMC3    H2 8738   3.415   4.034   1.034  0.9295  0.7282 -1.0511
  589TMC3    C7 8739   3.318   4.041   0.785  0.4514  0.1938 -0.2486
  589TMC3    C8 8740   3.316   4.100   1.260 -0.4511  0.2568 -0.0931
  589TMC3    O1 8741   3.439   4.049   0.791 -0.1715 -0.5289 -0.7419
  589TMC3    O2 8742   3.252   4.055   1.354  0.0389 -0.3594 -0.2704
  590MPD2     C 8743   1.861   2.903  16.537 -0.6153 -0.2998  0.1693
  590MPD2    C1 8744   1.858   2.990  16.431 -0.2106 -0.4260 -0.7346
  590MPD2    C2 8745   1.975   3.024  16.369  0.9364  0.5582 -0.0427
  590MPD2    C3 8746   2.094   2.957  16.401 -0.1703  0.0290  0.5196
  590MPD2    C4 8747   2.095   2.866  16.501 -0.4847  0.4384 -0.5842
  590MPD2    C5 8748   1.976   2.838  16.563 -0.9436 -0.3795 -0.0532
  590MPD2     H 8749   1.975   3.101  16.293  0.7254  1.7019  1.1312
  590MPD2    H1 8750   2.181   2.805  16.525  0.7941  1.7513 -1.7839
  590MPD2    H2 8751   1.776   2.891  16.603 -0.4065  0.7324  0.6334
  590MPD2    H3 8752   1.974   2.762  16.641  0.9107 -0.6295 -0.2562
  590MPD2     N 8753   2.215   2.993  16.331  0.2468 -0.1940  0.5713
  590MPD2    H5 8754   2.214   3.084  16.286 -1.2563 -0.4463  0.0806
  590MPD2    N1 8755   1.730   3.038  16.387  0.4964 -0.2823  0.3716
  590MPD2    H7 8756   1.651   3.000  16.439 -0.3093  0.9542  0.0423
  591TMC3    C1 8757   2.413   2.957  16.212  0.3241  0.1418  0.1701
  591TMC3    C2 8758   2.406   2.931  16.084  0.3035 -0.9821 -0.4145
  591TMC3    C3 8759   2.447   3.011  15.988  0.6258  0.0070 -0.4875
  591TMC3    C4 8760   2.467   3.083  16.246  0.3046  0.0198 -0.3063
  591TMC3    C5 8761   2.526   3.160  16.150  0.2978  0.5026  0.2196
  591TMC3    C6 8762   2.515   3.129  16.018 -0.8401  0.2174 -0.1429
  591TMC3     C 8763   2.315   2.903  16.304  0.1804 -0.0834  0.2178
  591TMC3     O 8764   2.332   2.787  16.343  0.2285 -0.2095  0.1431
  591TMC3     H 8765   2.363   2.836  16.055 -1.7593 -0.8903  2.2751
  591TMC3    H1 8766   2.463   3.109  16.351 -0.6085  3.0845 -1.0966
  591TMC3    H2 8767   2.565   3.188  15.942  1.1474 -0.9661  0.2202
  591TMC3    C7 8768   2.539   3.301  16.192  0.5361 -0.5215 -0.3403
  591TMC3    C8 8769   2.464   2.941  15.859  0.0686  0.2231  0.2161
  591TMC3    O1 8770   2.503   3.329  16.301  1.7258 -0.3901 -0.1050
  591TMC3    O2 8771   2.467   2.819  15.863  0.0874  0.2103  0.3274
  592MPD2     C 8772   3.139   0.364  11.353  0.5587 -0.3657  0.9833
  592MPD2    C1 8773   3.200   0.334  11.475 -0.5045  0.9167 -0.2480
  592MPD2    C2 8774   3.147   0.225  11.543 -0.8249  0.2968 -0.7081
  592MPD2    C3 8775   3.041   0.149  11.492 -0.0335 -0.4777 -0.1289
  592MPD2    C4 8776   2.986   0.195  11.380 -0.2835  0.2427  0.1518
  592MPD2    C5 8777   3.033   0.300  11.312 -0.8805  0.5208  0.1952
  592MPD2     H 8778   3.189   0.191  11.637 -2.1111  2.7793  0.7525
  592MPD2    H1 8779   2.903   0.142  11.334 -0.1839 -0.4044  0.7286
  592MPD2    H2 8780   3.171   0.448  11.292  0.8019 -1.3009 -0.1724
  592MPD2    H3 8781   2.971   0.329  11.228  3.6206  3.0911 -2.2612
  592MPD2     N 8782   2.999   0.045  11.571  0.3000  0.1664  0.5187
  592MPD2    H5 8783   3.051   0.026  11.656 -0.4830 -2.4839  0.4189
  592MPD2    N1 8784   3.309   0.418  11.524 -0.1193  0.5242 -0.2369
  592MPD2    H7 8785   3.361   0.476  11.460  1.1670 -0.8826 -0.4650
  593TMC3    C1 8786   3.475   0.506  11.676 -0.5008  0.2511  0.8523
  593TMC3    C2 8787   3.518   0.516  11.806  0.8139  0.1637  0.4566
  593TMC3    C3 8788   3.622   0.592  11.831 -0.3250 -0.1567  0.1986
  593TMC3    C4 8789   3.541   0.566  11.572  0.5217 -0.3668 -0.1082
  593TMC3    C5 8790   3.645   0.648  11.610  0.7686 -0.2502  0.4835
  593TMC3    C6 8791   3.695   0.663  11.733  0.3069  0.1504 -0.2399
  593TMC3     C 8792   3.359   0.420  11.655 -0.4818 -0.4731 -0.4466
  593TMC3     O 8793   3.308   0.374  11.757  0.0560  0.0585  0.3152
  593TMC3     H 8794   3.452   0.478  11.883 -0.8520  1.1786 -0.4637
  593TMC3    H1 8795   3.501   0.569  11.471 -1.2100  1.9885  0.6603
  593TMC3    H2 8796   3.779   0.727  11.756  1.1818 -0.6215 -1.2544
  593TMC3    C7 8797   3.710   0.721  11.507 -0.1877  0.3689 -0.0208
  593TMC3    C8 8798   3.665   0.588  11.970 -0.0284  0.8780  0.0582
  593TMC3    O1 8799   3.644   0.745  11.406 -0.3976  0.2989  0.4289
  593TMC3    O2 8800   3.600   0.528  12.053 -0.5711 -0.2311  0.1400
  594MPD2     C 8801   1.731   3.204  14.241 -0.2315 -0.3190  0.2551
  594MPD2    C1 8802   1.659   3.318  14.205  0.0287  0.3584 -0.4142
  594MPD2    C2 8803   1.723   3.440  14.173  0.2945 -0.2598 -0.3987
  594MPD2    C3 8804   1.859   3.453  14.176  0.0348  0.0163  0.8135
  594MPD2    C4 8805   1.931   3.339  14.205 -0.4504 -0.2978  0.2173
  594MPD2    C5 8806   1.867   3.222  14.238  0.1067 -0.4598 -0.3258
  594MPD2     H 8807   1.673   3.532  14.146 -0.2351 -0.1460  0.9689
  594MPD2    H1 8808   2.039   3.346  14.203 -0.2767 -2.1185  3.7641
  594MPD2    H2 8809   1.685   3.119  14.290  0.4729 -0.7074  0.2261
  594MPD2    H3 8810   1.933   3.145  14.278 -0.4813 -0.9525 -0.2896
  594MPD2     N 8811   1.909   3.579  14.140 -0.2120  0.5138  0.0374
  594MPD2    H5 8812   1.835   3.648  14.137 -0.5253  0.2867  2.3796
  594MPD2    N1 8813   1.520   3.308  14.236 -0.2529  0.2620  0.1225
  594MPD2    H7 8814   1.478   3.217  14.253  0.2086  0.0195 -0.0318
  595TMC3    C1 8815   2.221   3.923  14.124  0.2055 -0.0619 -0.2772
  595TMC3    C2 8816   2.200   3.787  14.110  0.2933  0.3698 -0.1562
  595TMC3    C3 8817   2.075   3.751  14.088  0.5599  0.6084  0.3923
  595TMC3    C4 8818   2.126   4.021  14.131 -0.6751  0.0074 -0.0572
  595TMC3    C5 8819   2.002   3.979  14.105 -0.5428  0.3014  0.5077
  595TMC3    C6 8820   1.974   3.846  14.086  0.3514  0.6355 -1.2690
  595TMC3     C 8821   2.354   3.970  14.158 -1.1704 -0.0692  0.1492
  595TMC3     O 8822   2.368   4.090  14.185 -0.4976 -0.7974 -0.0830
  595TMC3     H 8823   2.286   3.722  14.118 -1.0009 -1.2248  0.9508
  595TMC3    H1 8824   2.158   4.125  14.130 -1.3216  0.2072 -0.0985
  595TMC3    H2 8825   1.871   3.815  14.093  0.6394  0.2027  1.0517
  595TMC3    C7 8826   1.899   4.035  14.193 -0.1882  0.6360 -0.3547
  595TMC3    C8 8827   2.042   3.608  14.122 -0.4947 -1.3183  0.2921
  595TMC3    O1 8828   1.783   4.053  14.154 -0.1134  0.6382 -0.7672
  595TMC3    O2 8829   2.136   3.531  14.130  0.8223  0.5101  0.2292
  596MPD2     C 8830   0.511   2.242  16.520 -0.9183  0.2326 -0.1160
  596MPD2    C1 8831   0.491   2.360  16.458  0.6687  0.2305 -0.5888
  596MPD2    C2 8832   0.554   2.378  16.338 -0.8738  0.0178 -0.1710
  596MPD2    C3 8833   0.613   2.269  16.269  0.4455  0.2646  0.1948
  596MPD2    C4 8834   0.616   2.144  16.325  0.0285  0.3346 -0.1630
  596MPD2    C5 8835   0.554   2.130  16.448 -0.5037 -0.6859  0.2127
  596MPD2     H 8836   0.558   2.479  16.300 -0.6797  0.7597  1.8331
  596MPD2    H1 8837   0.650   2.053  16.275  1.8124  0.5742  0.6174
  596MPD2    H2 8838   0.468   2.223  16.617 -0.8256 -0.4585 -0.2120
  596MPD2    H3 8839   0.537   2.032  16.490 -1.3807 -2.1776 -3.6517
  596MPD2     N 8840   0.668   2.283  16.144 -0.1499 -0.2955  0.7112
  596MPD2    H5 8841   0.709   2.198  16.107  0.5955 -0.6870  2.4476
  596MPD2    N1 8842   0.420   2.465  16.517  0.2782 -0.4208 -0.0824
  596MPD2    H7 8843   0.422   2.551  16.463  0.9217  0.4309  1.3236
  597TMC3    C1 8844   0.317   2.590  16.692 -0.1523  0.0067 -0.4876
  597TMC3    C2 8845   0.286   2.674  16.590 -0.1071 -0.7370 -0.1599
  597TMC3    C3 8846   0.212   2.783  16.628  0.1206  0.3868 -0.1129
  597TMC3    C4 8847   0.268   2.593  16.822  0.7214  0.0578 -0.2932
  597TMC3    C5 8848   0.197   2.710  16.850 -0.1909 -0.3713  0.1163
  597TMC3    C6 8849   0.175   2.810  16.758  0.5638 -0.1089 -0.9936
  597TMC3     C 8850   0.390   2.473  16.651 -0.2011  0.5243  1.4584
  597TMC3     O 8851   0.406   2.393  16.740  0.1604 -0.3475  0.2143
  597TMC3     H 8852   0.308   2.655  16.486  0.6298  0.0526 -0.1500
  597TMC3    H1 8853   0.284   2.515  16.897 -0.6535  0.1578  0.1100
  597TMC3    H2 8854   0.109   2.895  16.774 -0.5728 -0.8338 -1.8023
  597TMC3    C7 8855   0.119   2.714  16.972  0.0520 -0.3845  0.0714
  597TMC3    C8 8856   0.211   2.898  16.534  0.7276  0.8370  0.6608
  597TMC3    O1 8857   0.128   2.617  17.047  0.2963 -0.1482  0.2733
  597TMC3    O2 8858   0.103   2.953  16.526  0.1338 -0.1877  0.3556
  598TMC3    C1 8859   3.583   3.446  15.280 -0.2960  0.5485 -0.3930
  598TMC3    C2 8860   3.470   3.387  15.297  0.0863 -0.5282 -0.0975
  598TMC3    C3 8861   3.389   3.386  15.191 -0.4287  0.3989 -0.4360
  598TMC3    C4 8862   3.617   3.513  15.167  0.2276  0.1804  0.8381
  598TMC3    C5 8863   3.536   3.510  15.057 -0.0727 -0.8846 -0.5024
  598TMC3    C6 8864   3.417   3.448  15.070 -0.1327  0.1081  0.2262
  598TMC3     C 8865   3.695   3.443  15.378 -0.4109 -0.3945  0.4084
  598TMC3     O 8866   3.793   3.514  15.361 -0.4861  0.5869  0.1517
  598TMC3     H 8867   3.445   3.335  15.388 -2.5127  2.4534  0.9150
  598TMC3    H1 8868   3.719   3.547  15.157  0.4862 -1.0643 -0.7340
  598TMC3    H2 8869   3.350   3.442  14.985 -1.8520 -0.0295  1.5732
  598TMC3    C7 8870   3.589   3.547  14.925  0.7964 -0.0344 -0.7505
  598TMC3    C8 8871   3.261   3.323  15.190 -0.5127 -0.3328  0.6236
  598TMC3    O1 8872   3.528   3.510  14.824  0.0935  0.2484 -0.6727
  598TMC3    O2 8873   3.218   3.288  15.080 -0.0369 -0.1789 -0.0316
  599MPD2     C 8874   3.828   1.266  16.397 -0.4821  0.1336 -0.8272
  599MPD2    C1 8875   3.753   1.174  16.333  0.4615  0.6917  0.8176
  599MPD2    C2 8876   3.617   1.176  16.366  0.4306  0.8848  0.1902
  599MPD2    C3 8877   3.558   1.264  16.455 -0.5309 -0.4146 -0.6745
  599MPD2    C4 8878   3.636   1.359  16.510 -0.7196  0.8697 -0.7735
  599MPD2    C5 8879   3.768   1.362  16.478  0.8433  0.4174  0.1792
  599MPD2     H 8880   3.552   1.098  16.328  0.4286  1.0852 -0.2144
  599MPD2    H1 8881   3.600   1.433  16.581 -3.3611  0.5682 -1.8015
  599MPD2    H2 8882   3.934   1.273  16.376 -0.5200  1.0361 -0.7384
  599MPD2    H3 8883   3.818   1.454  16.505  0.9075 -0.3742  2.7782
  599MPD2     N 8884   3.427   1.243  16.509  0.3344  0.1756 -0.5696
  599MPD2    H5 8885   3.399   1.316  16.574  1.3370  0.1390 -0.0936
  599MPD2    N1 8886   3.819   1.082  16.248 -0.4663  0.3945  0.5435
  599MPD2    H7 8887   3.914   1.110  16.227 -0.2206  1.5361  3.1172
  600TMC3    C1 8888   3.231   1.147  16.576  0.0912  0.1127  0.1271
  600TMC3    C2 8889   3.190   1.033  16.636  0.3831  0.4230 -0.2458
  600TMC3    C3 8890   3.076   1.053  16.712  0.9151  0.0453  0.2022
  600TMC3    C4 8891   3.177   1.276  16.595 -0.9960 -0.3883  0.0056
  600TMC3    C5 8892   3.071   1.284  16.681  0.1632  0.6276 -0.0339
  600TMC3    C6 8893   3.016   1.173  16.731 -0.0886 -0.3924 -0.0080
  600TMC3     C 8894   3.342   1.135  16.488 -0.3558 -0.1926 -0.5807
  600TMC3     O 8895   3.363   1.029  16.434  0.0413 -0.2548  0.0182
  600TMC3     H 8896   3.241   0.940  16.613  0.8245  1.1217 -2.1039
  600TMC3    H1 8897   3.213   1.359  16.536 -1.0263 -0.9201 -0.7695
  600TMC3    H2 8898   2.934   1.181  16.802  0.6750 -0.6885  0.8943
  600TMC3    C7 8899   3.001   1.411  16.699 -0.6743  0.4491 -0.2313
  600TMC3    C8 8900   3.020   0.939  16.790 -0.4822  0.1432 -0.2247
  600TMC3    O1 8901   2.898   1.403  16.764 -0.1991  0.1979  0.0339
  600TMC3    O2 8902   2.962   0.963  16.898  0.1720  0.2380 -0.7540
  601MPD2     C 8903   1.001   4.126  17.686  0.0617  0.1639  0.6363
  601MPD2    C1 8904   0.937   4.077  17.577 -0.0334  0.4938  0.0913
  601MPD2    C2 8905   0.952   3.942  17.558 -0.0587  0.3095 -0.0295
  601MPD2    C3 8906   1.029   3.857  17.645  0.0241  0.3193  0.5779
  601MPD2    C4 8907   1.089   3.911   0.053 -0.5780 -0.0409  0.3647
  601MPD2    C5 8908   1.079   4.046   0.061  0.8539  0.1456 -0.4010
  601MPD2     H 8909   0.908   3.900  17.468  2.6234 -0.6127 -0.9090
  601MPD2    H1 8910   1.137   3.846   0.126  0.1365  1.7125  1.4553
  601MPD2    H2 8911   1.003   4.233   0.005 -3.8266  0.2479  0.4519
  601MPD2    H3 8912   1.133   4.095   0.141  0.9001 -1.2074  0.3897
  601MPD2     N 8913   1.014   3.716  17.648 -0.4878  0.5117 -0.2260
  601MPD2    H5 8914   1.068   3.664   0.014 -1.1792 -1.4077 -1.1481
  601MPD2    N1 8915   0.862   4.156  17.482 -0.2015 -0.1603 -0.0609
  601MPD2    H7 8916   0.818   4.111  17.403 -1.1871 -0.6821  0.7812
  602TMC3    C1 8917   0.754   4.359  17.398 -0.2974  0.4788 -0.1760
  602TMC3    C2 8918   0.674   4.465  17.437 -0.3447  0.2435 -0.3869
  602TMC3    C3 8919   0.593   4.520  17.345 -0.0047  0.8188 -0.3771
  602TMC3    C4 8920   0.742   4.299  17.275 -0.4242  0.1555  0.2479
  602TMC3    C5 8921   0.653   4.355  17.190 -0.9860 -0.4393  0.7529
  602TMC3    C6 8922   0.576   4.467  17.216 -0.0770  0.3384  0.3154
  602TMC3     C 8923   0.832   4.292  17.504 -0.8887 -0.1707 -0.1536
  602TMC3     O 8924   0.836   4.351  17.608 -0.1418 -0.2575 -0.7741
  602TMC3     H 8925   0.683   4.511  17.534 -1.7198  0.1878 -0.2340
  602TMC3    H1 8926   0.807   4.216  17.248  1.9877  1.7948  1.0834
  602TMC3    H2 8927   0.524   4.523  17.139 -2.4097 -2.1908  0.0327
  602TMC3    C7 8928   0.606   4.264  17.081 -0.6785 -0.5268  0.3441
  602TMC3    C8 8929   0.498   4.614  17.395 -0.8250  0.6711  0.0495
  602TMC3    O1 8930   0.680   4.170  17.056 -0.4481  0.2561 -0.4234
  602TMC3    O2 8931   0.469   4.606  17.511 -0.2054  0.1974 -0.0616
  603TMC3    C1 8932   3.206   4.616  11.311 -0.0696 -0.0050  0.8148
  603TMC3    C2 8933   3.310   4.596  11.395 -0.8627 -0.1921 -0.2289
  603TMC3    C3 8934   3.420   4.671  11.386  0.0989 -0.1592  0.5273
  603TMC3    C4 8935   3.209   4.721  11.215  0.0163  0.4149  0.6590
  603TMC3    C5 8936   3.321   0.080  11.214  0.6434  0.5012  0.8082
  603TMC3    C6 8937   3.423   0.050  11.298  0.7561 -0.2694  0.1428
  603TMC3     C 8938   3.081   4.549  11.328  0.0875  0.3722 -0.5523
  603TMC3     O 8939   2.985   4.601  11.277  0.5940  0.2017 -0.3697
  603TMC3     H 8940   3.307   4.516  11.468 -3.7927  1.1457  1.1703
  603TMC3    H1 8941   3.126   4.717  11.146 -1.0565  0.7714  1.9253
  603TMC3    H2 8942   3.511   0.113  11.287  1.7549 -1.4669  1.1468
  603TMC3    C7 8943   3.340   0.171  11.106  0.2744 -0.6555 -0.2003
  603TMC3    C8 8944   3.533   4.615  11.463 -0.0996  0.2333  0.0348
  603TMC3    O1 8945   3.424   0.259  11.120 -0.1522  0.5342 -0.7975
  603TMC3    O2 8946   3.511   4.534  11.550  0.3135  0.0171  0.4855
  604MPD2     C 8947   4.382   3.410  15.820 -0.4518  0.0299 -0.7313
  604MPD2    C1 8948   4.311   3.310  15.881  0.3968 -0.0682 -0.0408
  604MPD2    C2 8949   4.303   3.190  15.817  0.1384  0.0531  0.6279
  604MPD2    C3 8950   4.366   3.168  15.699 -0.2032 -0.5528 -0.0259
  604MPD2    C4 8951   4.442   3.271  15.651 -0.2629 -0.7149 -0.1782
  604MPD2    C5 8952   4.452   3.392  15.710  0.4859  0.3920  0.5179
  604MPD2     H 8953   4.255   3.107  15.868  0.8821 -0.1640  0.9814
  604MPD2    H1 8954   4.490   3.265  15.554 -0.4206 -0.1720 -0.2841
  604MPD2    H2 8955   4.379   3.512  15.857  1.1411 -0.8068  1.7453
  604MPD2    H3 8956   4.513   3.466  15.658  0.3353  0.1761  0.0317
  604MPD2     N 8957   4.348   3.042  15.628 -0.3228 -0.1245  0.1252
  604MPD2    H5 8958   4.410   3.035  15.547  1.6900 -1.0762  1.7433
  604MPD2    N1 8959   4.239   3.355  15.995 -0.4610  0.4451  0.0161
  604MPD2    H7 8960   4.258   3.451  16.022 -3.4743  0.7095  1.2249
  605TMC3    C1 8961   4.075   3.355  16.169  1.3457  0.4054  0.4454
  605TMC3    C2 8962   4.120   3.485  16.183  0.2820  1.5398 -0.6184
  605TMC3    C3 8963   4.038   3.586  16.237 -0.4151  0.5890 -0.0175
  605TMC3    C4 8964   3.946   3.323  16.203  0.3603  0.5293  0.2142
  605TMC3    C5 8965   3.859   3.427  16.242  0.7217  0.4516 -0.5396
  605TMC3    C6 8966   3.906   3.553  16.270 -0.0239 -0.3741 -0.8287
  605TMC3     C 8967   4.139   3.284  16.061  0.0466 -0.3545 -0.7377
  605TMC3     O 8968   4.080   3.183  16.023 -0.0630  0.3025 -0.1990
  605TMC3     H 8969   4.227   3.504  16.183  0.3080  1.3709  1.7283
  605TMC3    H1 8970   3.925   3.217  16.205 -0.8495  0.7666  0.1634
  605TMC3    H2 8971   3.844   3.634  16.305 -2.4672 -2.4934 -0.2818
  605TMC3    C7 8972   3.725   3.397  16.287 -0.6389 -0.6538  0.0709
  605TMC3    C8 8973   4.098   3.713  16.289 -0.5255  0.5149  0.4210
  605TMC3    O1 8974   3.659   3.494  16.324  0.4135  0.3364  0.2731
  605TMC3    O2 8975   4.218   3.712  16.298 -0.2045  0.1741 -0.5800
  606TMC3    C1 8976   1.433   1.325  15.940  0.8176 -0.2434 -0.5390
  606TMC3    C2 8977   1.499   1.252  16.038 -0.7234  0.3217 -0.0162
  606TMC3    C3 8978   1.428   1.212  16.149 -0.6459  0.2431 -0.0299
  606TMC3    C4 8979   1.300   1.349  15.953 -0.0388 -0.0308  0.5485
  606TMC3    C5 8980   1.230   1.303  16.065  0.6423  0.6748 -0.8378
  606TMC3    C6 8981   1.295   1.231  16.161 -0.5773 -0.2576  0.5549
  606TMC3     C 8982   1.515   1.411  15.855  0.0297  0.2877 -0.7371
  606TMC3     O 8983   1.628   1.368  15.837  0.4189 -0.3422 -0.1770
  606TMC3     H 8984   1.607   1.253  16.043 -0.7965 -0.4401  1.8578
  606TMC3    H1 8985   1.257   1.419  15.883 -0.2520 -1.5031 -0.7848
  606TMC3    H2 8986   1.237   1.193  16.244  0.6177 -1.5117  0.8203
  606TMC3    C7 8987   1.138   1.401  16.117  0.0389 -0.3272  0.0223
  606TMC3    C8 8988   1.490   1.141  16.258 -0.4333  0.2733 -1.8626
  606TMC3    O1 8989   1.142   1.511  16.071 -0.1946  0.0378  0.0738
  606TMC3    O2 8990   1.426   1.141  16.360 -0.0432 -0.1869  0.7445
  607MPD2     C 8991   3.099   4.378  11.810  0.7665  0.6639 -0.0054
  607MPD2    C1 8992   3.205   4.394  11.907 -0.5821 -0.2242  0.7113
  607MPD2    C2 8993   3.219   4.307  12.017 -0.0573  0.0753  0.0396
  607MPD2    C3 8994   3.128   4.199  12.032 -0.6700 -0.0318 -0.2115
  607MPD2    C4 8995   3.043   4.181  11.934  1.1179  0.8699  0.6009
  607MPD2    C5 8996   3.025   4.263  11.827  0.5012 -0.3229  0.4928
  607MPD2     H 8997   3.285   4.334  12.098  1.3954 -0.0185 -1.1191
  607MPD2    H1 8998   2.972   4.099  11.929  1.0027  0.8345  2.7245
  607MPD2    H2 8999   3.094   4.435  11.718  2.1412  0.2117 -0.3572
  607MPD2    H3 9000   2.940   4.247  11.762  1.0219  1.3729 -0.5922
  607MPD2     N 9001   3.144   4.127  12.154 -0.1094  0.9485 -0.3736
  607MPD2    H5 9002   3.224   4.150  12.212  0.1413 -2.8250  0.7967
  607MPD2    N1 9003   3.297   4.502  11.913 -0.2507 -0.6280  0.2521
  607MPD2    H7 9004   3.364   4.496  11.989  1.5512 -3.0243 -1.5242
  608TMC3    C1 9005   3.398   4.702  11.879 -0.0074 -0.4143  0.2843
  608TMC3    C2 9006   3.437   4.694  12.009 -0.2492 -0.2416 -0.3779
  608TMC3    C3 9007   3.537   0.058  12.046  0.1445 -0.6417  0.0431
  608TMC3    C4 9008   3.458   0.058  11.789  1.0381  0.5284  0.2188
  608TMC3    C5 9009   3.556   0.146  11.825 -0.0845 -0.4030  0.1391
  608TMC3    C6 9010   3.593   0.150  11.958 -0.3947  0.1997 -0.2467
  608TMC3     C 9011   3.300   4.612  11.824 -0.4479 -0.5549  0.0122
  608TMC3     O 9012   3.236   4.641  11.724  0.5221  0.4607  0.1677
  608TMC3     H 9013   3.384   4.637  12.085 -1.2699 -0.3016 -1.1310
  608TMC3    H1 9014   3.418   0.060  11.688  1.7765 -0.0036 -0.0825
  608TMC3    H2 9015   3.681   0.203  11.992 -1.3743  0.6529  1.5966
  608TMC3    C7 9016   3.634   0.208  11.722  0.5459  0.1759  0.3510
  608TMC3    C8 9017   3.610   0.044  12.174 -0.3371  0.4933 -0.5077
  608TMC3    O1 9018   3.594   0.201  11.609  0.5151  0.5802  0.3130
  608TMC3    O2 9019   3.659   0.146  12.223  0.0074  0.5189  0.1196
  609TMC3    C1 9020   2.013   2.567   9.032 -0.3307 -0.1306 -0.3124
  609TMC3    C2 9021   2.049   2.453   8.967 -0.6214 -0.6315 -0.6072
  609TMC3    C3 9022   2.180   2.426   8.951 -0.2914 -0.1879 -0.4165
  609TMC3    C4 9023   2.094   2.658   9.076 -1.1426 -0.5192 -0.1205
  609TMC3    C5 9024   2.228   2.632   9.058  0.2098  0.3934  0.4661
  609TMC3    C6 9025   2.270   2.517   9.000  0.2498  0.5071  0.1719
  609TMC3     C 9026   1.872   2.611   9.035 -0.5146  0.5642 -0.0464
  609TMC3     O 9027   1.852   2.732   9.050  0.2687 -0.0510  0.1925
  609TMC3     H 9028   1.974   2.387   8.925 -2.7403  0.3128  1.6908
  609TMC3    H1 9029   2.061   2.748   9.126  1.4862  1.5695 -2.1075
  609TMC3    H2 9030   2.374   2.487   8.986  0.0103 -0.9119  1.4846
  609TMC3    C7 9031   2.326   2.723   9.100  0.0794  0.1525  0.0050
  609TMC3    C8 9032   2.233   2.303   8.886  0.2490  0.3293  0.0135
  609TMC3    O1 9033   2.424   2.674   9.158  0.2136 -0.3128  0.0739
  609TMC3    O2 9034   2.353   2.306   8.863 -0.2291  0.3505  0.2648
  610TMC3    C1 9035   4.300   4.317  12.650  0.8814 -0.1818  0.5385
  610TMC3    C2 9036   4.343   4.385  12.538  0.1248  0.2102  0.5462
  610TMC3    C3 9037   4.458   4.458  12.550  0.6798  0.3713  0.2327
  610TMC3    C4 9038   4.366   4.307  12.772  0.0978 -0.0570  0.8411
  610TMC3    C5 9039   4.479   4.387  12.777 -0.0811 -0.8092  0.1065
  610TMC3    C6 9040   4.527   4.459  12.670 -0.4726  0.1565 -0.0435
  610TMC3     C 9041   4.186   4.228  12.629 -0.1440  0.2363  0.5325
  610TMC3     O 9042   4.171   4.175  12.522  0.1365  0.3153 -0.1021
  610TMC3     H 9043   4.282   4.384  12.449  0.5253 -0.9964  0.2955
  610TMC3    H1 9044   4.325   4.251  12.855  0.0668  0.4507  1.1621
  610TMC3    H2 9045   4.615   4.522  12.679  0.0680 -0.4995 -0.8123
  610TMC3    C7 9046   4.556   4.357  12.901 -0.0750  0.3054 -0.1206
  610TMC3    C8 9047   4.510   4.519  12.431  0.5609  0.2147 -0.0325
  610TMC3    O1 9048   4.510   4.274  12.977  0.2837 -0.3881 -0.2728
  610TMC3    O2 9049   4.447   4.498  12.330  0.3411  0.0994  0.0358
  611MPD2     C 9050   2.577   4.300  10.666  0.0895  0.9489  0.4601
  611MPD2    C1 9051   2.582   4.283  10.526  0.5526 -0.4836  0.2116
  611MPD2    C2 9052   2.663   4.367  10.453 -0.7095 -0.0820  0.4621
  611MPD2    C3 9053   2.732   4.469  10.514 -0.0917  0.5987 -0.0839
  611MPD2    C4 9054   2.731   4.479  10.654  0.1563 -0.6420 -0.7136
  611MPD2    C5 9055   2.657   4.401  10.725  0.7556 -0.4573  0.2876
  611MPD2     H 9056   2.664   4.350  10.346 -0.2396  1.4923  0.2162
  611MPD2    H1 9057   2.795   4.546  10.709 -2.5897  1.0495  0.3731
  611MPD2    H2 9058   2.523   4.236  10.735 -0.2960  0.0910 -0.6177
  611MPD2    H3 9059   2.673   4.419  10.831  0.3456  0.2445  0.2334
  611MPD2     N 9060   2.818   4.556  10.442  0.1265  0.0118 -0.5070
  611MPD2    H5 9061   2.852   4.636  10.494 -0.8121 -0.0560  0.2005
  611MPD2    N1 9062   2.512   4.175  10.466  0.0416  0.4312 -0.5020
  611MPD2    H7 9063   2.532   4.154  10.368 -0.8399 -0.4235 -0.4984
  612TMC3    C1 9064   2.929   4.664  10.267  0.1540 -0.5553  0.1650
  612TMC3    C2 9065   3.031   4.697  10.352 -0.4067 -0.0880  0.0499
  612TMC3    C3 9066   3.142   0.029  10.290 -0.1608 -0.0472  0.2967
  612TMC3    C4 9067   2.917   4.704  10.135  0.7387 -0.1111  0.4320
  612TMC3    C5 9068   3.025   0.056  10.091  0.7624  0.1765 -0.4330
  612TMC3    C6 9069   3.145   0.069  10.158 -0.7260  0.0178 -0.7075
  612TMC3     C 9070   2.840   4.558  10.306  0.2303 -0.7417  0.0433
  612TMC3     O 9071   2.801   4.488  10.211 -0.6283 -0.2509 -0.2085
  612TMC3     H 9072   3.039   4.650  10.449  2.1163  0.3705  0.0584
  612TMC3    H1 9073   2.840   4.668  10.066  0.0252 -1.3472  1.8730
  612TMC3    H2 9074   3.234   0.120  10.122  0.6401 -0.4048  2.0437
  612TMC3    C7 9075   3.010   0.101   9.952  0.1332  0.1795 -0.4324
  612TMC3    C8 9076   3.221   0.116  10.374  0.3944  0.3649 -0.0543
  612TMC3    O1 9077   2.936   0.034   9.880 -0.6736 -0.3192  0.2091
  612TMC3    O2 9078   3.276   0.209  10.318  0.1322 -0.0033  0.8285
  613MPD2     C 9079   1.490   2.417  16.626  0.0353 -0.5859 -0.9181
  613MPD2    C1 9080   1.506   2.430  16.488 -0.0565 -0.0847 -0.0615
  613MPD2    C2 9081   1.520   2.314  16.417  0.5163 -0.0626  0.1298
  613MPD2    C3 9082   1.514   2.188  16.471  0.1836 -0.4852 -0.3631
  613MPD2    C4 9083   1.512   2.180  16.604 -0.4538 -0.1719  0.0440
  613MPD2    C5 9084   1.491   2.294  16.681  0.0616 -0.2256  0.3682
  613MPD2     H 9085   1.530   2.320  16.309 -1.3642  0.0318 -0.0490
  613MPD2    H1 9086   1.513   2.081  16.648  1.2002  0.3514  1.1775
  613MPD2    H2 9087   1.497   2.502  16.693 -1.1401 -1.8608  0.8353
  613MPD2    H3 9088   1.491   2.286  16.789  4.1667 -1.4602  0.2733
  613MPD2     N 9089   1.556   2.076  16.390  0.3581 -0.4222 -0.0959
  613MPD2    H5 9090   1.585   1.993  16.441 -1.3840  0.0318  1.6240
  613MPD2    N1 9091   1.528   2.558  16.433  1.1835  0.5116 -0.0030
  613MPD2    H7 9092   1.556   2.632  16.496  2.6235 -1.3393  1.5268
  614TMC3    C1 9093   1.620   2.701  16.260 -0.2599  0.9300  0.1035
  614TMC3    C2 9094   1.746   2.688  16.316  0.1527 -0.7934 -0.0572
  614TMC3    C3 9095   1.851   2.722  16.238  0.6565  0.1239  0.2530
  614TMC3    C4 9096   1.600   2.764  16.144 -0.3581  0.3970  0.8204
  614TMC3    C5 9097   1.706   2.827  16.089 -0.3931 -0.3642  0.0038
  614TMC3    C6 9098   1.838   2.793  16.121  0.2116 -0.3480 -0.2687
  614TMC3     C 9099   1.532   2.590  16.295 -0.1809 -0.2297 -0.3421
  614TMC3     O 9100   1.463   2.534  16.209 -0.1222 -0.0376  0.2510
  614TMC3     H 9101   1.767   2.656  16.417  1.5656  0.1224 -0.0701
  614TMC3    H1 9102   1.504   2.770  16.094  0.8176  1.3033 -1.3523
  614TMC3    H2 9103   1.924   2.835  16.070  0.4458 -2.8881 -1.9231
  614TMC3    C7 9104   1.675   2.880  15.955  0.0341 -0.4460  0.5145
  614TMC3    C8 9105   1.964   2.633  16.256  0.7224  0.3670  0.6142
  614TMC3    O1 9106   1.581   2.953  15.935 -0.2422  0.2745 -0.2120
  614TMC3    O2 9107   1.956   2.545  16.341  0.5210 -0.5241 -0.3063
  615MPD2     C 9108   1.701   3.469  16.077  0.5857 -0.1814  0.1595
  615MPD2    C1 9109   1.618   3.536  16.162 -0.5135  0.0342  0.2282
  615MPD2    C2 9110   1.526   3.621  16.107 -0.2655 -0.4117 -0.0075
  615MPD2    C3 9111   1.499   3.635  15.972  0.1451 -0.1730  0.6572
  615MPD2    C4 9112   1.574   3.559  15.892 -0.1517 -0.5425 -0.4608
  615MPD2    C5 9113   1.675   3.473  15.943  0.4379  0.2266  0.1570
  615MPD2     H 9114   1.463   3.674  16.179 -1.6743 -1.7531 -0.2446
  615MPD2    H1 9115   1.568   3.560  15.784  0.6173  1.6824 -0.4882
  615MPD2    H2 9116   1.779   3.401  16.110  0.0161 -0.5042  0.8368
  615MPD2    H3 9117   1.734   3.404  15.884 -2.9395 -1.8164 -0.7766
  615MPD2     N 9118   1.394   3.718  15.923  0.2316  0.0893  0.0667
  615MPD2    H5 9119   1.365   3.701  15.827  1.0638  1.0243 -0.3494
  615MPD2    N1 9120   1.628   3.546  16.302  0.4866 -0.3282  0.4403
  615MPD2    H7 9121   1.562   3.599  16.358 -0.3853 -0.9566  0.0048
  616TMC3    C1 9122   1.742   3.562  16.500 -0.1482  0.3818  0.2520
  616TMC3    C2 9123   1.735   3.700  16.492 -0.0621  0.5077  0.0594
  616TMC3    C3 9124   1.826   3.779  16.566  0.5186 -0.7907 -0.2440
  616TMC3    C4 9125   1.836   3.506  16.575  0.1121  0.4524  0.0352
  616TMC3    C5 9126   1.922   3.581  16.649  0.4108  0.1791 -0.4435
  616TMC3    C6 9127   1.920   3.719  16.647  0.4101 -0.1726 -0.2707
  616TMC3     C 9128   1.720   3.488  16.378  0.0596 -0.1731 -0.7355
  616TMC3     O 9129   1.815   3.416  16.344 -0.1007 -0.7444  0.1656
  616TMC3     H 9130   1.656   3.752  16.439  0.2076 -0.5030 -1.3327
  616TMC3    H1 9131   1.838   3.398  16.568  2.1538  0.4389  1.0251
  616TMC3    H2 9132   1.986   3.785  16.703  2.7927 -1.5662 -1.4259
  616TMC3    C7 9133   2.016   3.518  16.739 -0.0432  0.1332  0.2601
  616TMC3    C8 9134   1.864   3.900  16.499  0.0437 -0.0788  0.1505
  616TMC3    O1 9135   2.070   3.585  16.830 -0.0110 -0.1260  0.0497
  616TMC3    O2 9136   1.777   3.987  16.481  0.6316  0.2495  0.1820
  617MPD2     C 9137   4.445   1.530  13.722  0.3256  0.8619  0.3988
  617MPD2    C1 9138   4.458   1.506  13.857 -0.3674  0.2212 -0.1508
  617MPD2    C2 9139   4.343   1.487  13.935 -0.2289  0.3640 -0.5930
  617MPD2    C3 9140   4.213   1.500  13.882  0.0946  0.0035  0.4547
  617MPD2    C4 9141   4.200   1.536  13.747  0.3830 -0.0111 -0.1625
  617MPD2    C5 9142   4.318   1.553  13.674 -0.4762  0.5835  0.1899
  617MPD2     H 9143   4.354   1.460  14.039 -0.4006  1.6937 -0.2241
  617MPD2    H1 9144   4.100   1.543  13.706  0.8047  1.5600 -0.9265
  617MPD2    H2 9145   4.529   1.524  13.655 -0.4064 -3.1742 -0.1451
  617MPD2    H3 9146   4.302   1.579  13.570 -1.0103  0.0297  0.1305
  617MPD2     N 9147   4.091   1.439  13.936 -0.4059 -0.0246 -0.1985
  617MPD2    H5 9148   4.006   1.438  13.881 -0.8299 -0.1735  0.4556
  617MPD2    N1 9149   4.589   1.469  13.900 -0.0405  0.0464 -0.3907
  617MPD2    H7 9150   4.654   1.455  13.823  1.9737 -0.8983  1.4786
  618TMC3    C1 9151   0.015   1.358  14.043 -0.2296  0.7158  0.4108
  618TMC3    C2 9152   0.011   1.268  13.942 -0.6024  0.5348  0.1312
  618TMC3    C3 9153   0.125   1.197  13.918  0.3884  0.3784 -0.8331
  618TMC3    C4 9154   0.129   1.394  14.108 -0.2146 -0.4715  0.6255
  618TMC3    C5 9155   0.244   1.333  14.066  0.2324  0.3301 -0.2131
  618TMC3    C6 9156   0.247   1.222  13.983 -0.1731 -0.5337 -0.0358
  618TMC3     C 9157   4.633   1.457  14.033  0.2519  0.8168  0.6266
  618TMC3     O 9158   4.583   1.503  14.133 -0.1845  0.2916 -0.1797
  618TMC3     H 9159   4.647   1.230  13.892 -1.1158 -0.2751  1.6790
  618TMC3    H1 9160   0.130   1.485  14.166  1.2212 -0.4674  0.5942
  618TMC3    H2 9161   0.336   1.162  13.965 -1.4558 -2.0874 -1.2111
  618TMC3    C7 9162   0.365   1.357  14.144 -0.3384  0.3914  0.5276
  618TMC3    C8 9163   0.130   1.161  13.779 -0.5954  0.9196  0.1248
  618TMC3    O1 9164   0.344   1.352  14.264  0.0726 -0.5550 -0.1846
  618TMC3    O2 9165   0.025   1.151  13.718  0.3883  0.1647 -0.3851
  619MPD2     C 9166   1.491   2.490  13.765  0.1608 -0.0141  0.2772
  619MPD2    C1 9167   1.428   2.595  13.720  1.1796  0.2310 -0.4072
  619MPD2    C2 9168   1.289   2.609  13.731 -0.2121  0.3464 -0.1550
  619MPD2    C3 9169   1.207   2.508  13.788  0.0412 -0.6201 -0.1876
  619MPD2    C4 9170   1.277   2.395  13.831  0.5535  0.0666  0.1156
  619MPD2    C5 9171   1.418   2.398  13.823  0.0644  0.4585 -0.3604
  619MPD2     H 9172   1.242   2.691  13.677 -1.8212  0.4590  1.4035
  619MPD2    H1 9173   1.229   2.301  13.859  0.2471 -0.3052 -1.6212
  619MPD2    H2 9174   1.600   2.486  13.761  0.2266 -1.1084  2.8849
  619MPD2    H3 9175   1.462   2.306  13.859 -2.7461 -0.6152  0.3575
  619MPD2     N 9176   1.065   2.499  13.785 -0.6776 -0.0430  0.7086
  619MPD2    H5 9177   1.026   2.420  13.836  0.6202 -0.9190  0.3397
  619MPD2    N1 9178   1.488   2.690  13.631  0.1520 -0.6382 -0.0102
  619MPD2    H7 9179   1.427   2.756  13.584  1.5207 -0.1725 -1.1284
  620TMC3    C1 9180   1.654   2.794  13.499  0.3646  0.3201 -0.8037
  620TMC3    C2 9181   1.572   2.796  13.393  0.8721  0.0562 -0.2837
  620TMC3    C3 9182   1.599   2.881  13.290 -0.3138 -0.0654  0.6776
  620TMC3    C4 9183   1.754   2.881  13.507  0.3604  0.1256 -0.5387
  620TMC3    C5 9184   1.776   2.971  13.404 -0.3850  0.0672  0.2745
  620TMC3    C6 9185   1.702   2.958  13.292  0.3409  0.0581  0.5727
  620TMC3     C 9186   1.615   2.718  13.623 -0.5568  0.0256  0.6395
  620TMC3     O 9187   1.707   2.676  13.697  0.3185  0.3347  0.2555
  620TMC3     H 9188   1.481   2.737  13.389 -0.6277  2.4041 -0.9920
  620TMC3    H1 9189   1.821   2.877  13.593  0.3620  1.3623 -0.4727
  620TMC3    H2 9190   1.723   3.017  13.204 -2.6022 -0.2552 -0.3525
  620TMC3    C7 9191   1.786   3.105  13.447  0.9874  0.8371 -0.0232
  620TMC3    C8 9192   1.490   2.930  13.207  0.4551 -0.1772  0.4313
  620TMC3    O1 9193   1.855   3.123  13.545 -0.5635 -0.3866  0.1614
  620TMC3    O2 9194   1.502   3.051  13.186 -0.2362  0.3952 -0.5588
  621MPD2     C 9195   1.702   2.376   9.468  0.2961  0.1196 -0.5087
  621MPD2    C1 9196   1.668   2.367   9.598 -0.7454 -0.4457 -0.1442
  621MPD2    C2 9197   1.715   2.457   9.689  0.3480  0.3273 -0.8086
  621MPD2    C3 9198   1.797   2.559   9.647 -0.1838  0.2300  0.3328
  621MPD2    C4 9199   1.832   2.563   9.515 -0.1670  0.1345 -0.4361
  621MPD2    C5 9200   1.787   2.465   9.424  0.0017 -0.0701  0.1186
  621MPD2     H 9201   1.684   2.444   9.792 -0.0881  0.0771 -0.9747
  621MPD2    H1 9202   1.902   2.635   9.474 -0.5759  1.5208  1.3002
  621MPD2    H2 9203   1.672   2.305   9.392  0.9187 -2.3110  1.4973
  621MPD2    H3 9204   1.807   2.468   9.318 -2.0244  1.1355 -0.2524
  621MPD2     N 9205   1.850   2.650   9.736  0.0871  0.0075 -0.8176
  621MPD2    H5 9206   1.826   2.640   9.834  0.9934  0.3898 -0.5610
  621MPD2    N1 9207   1.601   2.255   9.646  0.3420 -0.3067  0.3518
  621MPD2    H7 9208   1.557   2.265   9.737  0.8547 -0.1129  0.5798
  622TMC3    C1 9209   1.537   2.031   9.657 -0.0429 -0.1566 -0.8005
  622TMC3    C2 9210   1.575   2.027   9.790 -0.5748  0.9311 -0.3451
  622TMC3    C3 9211   1.505   1.945   9.874  0.0362  0.5256 -0.1217
  622TMC3    C4 9212   1.443   1.952   9.601 -0.1817 -0.1757  0.0593
  622TMC3    C5 9213   1.397   1.852   9.685 -0.3682  0.6697 -0.2108
  622TMC3    C6 9214   1.422   1.854   9.821 -0.3781 -0.0112  0.3403
  622TMC3     C 9215   1.583   2.140   9.576  0.2576  0.0204 -0.3887
  622TMC3     O 9216   1.613   2.108   9.464  0.5612 -0.3648  0.1741
  622TMC3     H 9217   1.661   2.077   9.833 -0.2940  0.7372 -0.6890
  622TMC3    H1 9218   1.433   1.952   9.493 -0.3153  0.0922  0.0695
  622TMC3    H2 9219   1.390   1.772   9.883  0.8326 -0.6962  0.0515
  622TMC3    C7 9220   1.306   1.753   9.632  0.2011  0.0759  0.2010
  622TMC3    C8 9221   1.495   1.976  10.018 -0.1744  0.2683  0.8047
  622TMC3    O1 9222   1.245   1.700   9.723 -0.7777  0.1673 -0.1500
  622TMC3    O2 9223   1.447   1.889  10.089  0.0406 -0.7382  0.8741
  623MPD2     C 9224   4.541   3.913  15.985 -0.3232  0.4325  0.6478
  623MPD2    C1 9225   4.439   3.901  16.075  0.1417 -0.9911  0.2430
  623MPD2    C2 9226   4.456   3.920  16.211  0.2662 -0.3144 -0.0101
  623MPD2    C3 9227   4.586   3.943  16.257 -0.2086  0.2759 -0.1240
  623MPD2    C4 9228   4.684   3.960  16.167 -0.3861  0.3212  0.3297
  623MPD2    C5 9229   4.667   3.933  16.032  0.8122  0.0427 -0.3542
  623MPD2     H 9230   4.373   3.890  16.274  0.9540  1.7558  1.8758
  623MPD2    H1 9231   0.054   4.006  16.190 -0.1274  0.3470 -0.7828
  623MPD2    H2 9232   4.514   3.913  15.880 -0.6048  0.1410  0.7197
  623MPD2    H3 9233   0.021   3.954  15.961  2.9492 -2.5038  1.2355
  623MPD2     N 9234   4.607   3.975  16.392  0.5484  0.3670  0.1134
  623MPD2    H5 9235   4.526   3.976  16.453  0.1407  0.6331 -0.4326
  623MPD2    N1 9236   4.308   3.878  16.025  0.5148  0.0992  0.7096
  623MPD2    H7 9237   4.234   3.898  16.092 -0.5988  0.2608 -0.5848
  624TMC3    C1 9238   4.664   3.810  16.732  0.2403 -0.4346 -0.0959
  624TMC3    C2 9239   4.536   3.864  16.745  0.0823  0.0820 -0.3094
  624TMC3    C3 9240   4.504   3.989  16.704 -0.2939  0.2268 -0.3120
  624TMC3    C4 9241   0.031   3.878  16.660  0.2064  0.8171 -0.6185
  624TMC3    C5 9242   4.713   3.998  16.602  0.1741  0.8305 -0.7265
  624TMC3    C6 9243   4.593   4.057  16.625 -0.2994 -0.5245 -0.0212
  624TMC3     C 9244   4.678   3.670  16.720 -0.5908  0.2833 -0.1935
  624TMC3     O 9245   4.573   3.612  16.692 -0.2565 -0.2890  1.0076
  624TMC3     H 9246   4.460   3.804  16.794  0.2283  0.1058 -0.0575
  624TMC3    H1 9247   0.120   3.822  16.629 -1.0944 -1.7986  0.3480
  624TMC3    H2 9248   4.587   4.156  16.580 -0.6404  0.8456  3.0234
  624TMC3    C7 9249   0.001   3.993  16.460 -0.0781  0.6272  0.1225
  624TMC3    C8 9250   4.369   3.990  16.655  0.0552 -0.6363 -0.8649
  624TMC3    O1 9251   0.120   3.965  16.427  0.1776 -0.7032  0.4595
  624TMC3    O2 9252   4.288   3.910  16.699  0.0857 -0.2721  0.5470
  625MPD2     C 9253   0.537   4.053   0.835  0.3030 -0.7207  0.3004
  625MPD2    C1 9254   0.620   4.168   0.844 -0.1058 -0.4423 -0.1797
  625MPD2    C2 9255   0.758   4.143   0.857 -0.5609 -0.2703  0.1799
  625MPD2    C3 9256   0.811   4.011   0.849 -0.7250  0.8613 -0.0298
  625MPD2    C4 9257   0.723   3.899   0.848 -0.2992 -0.1023  0.1092
  625MPD2    C5 9258   0.590   3.927   0.842 -0.1234 -0.9845  0.3179
  625MPD2     H 9259   0.822   4.230   0.862 -1.6491  0.5357 -0.1720
  625MPD2    H1 9260   0.762   3.798   0.845  3.5660  1.4283 -0.1224
  625MPD2    H2 9261   0.429   4.058   0.833  0.2961 -1.6428 -1.6184
  625MPD2    H3 9262   0.519   3.845   0.836 -0.5149 -0.5311 -1.0549
  625MPD2     N 9263   0.950   4.006   0.863  0.0696 -0.1700  0.0543
  625MPD2    H5 9264   0.998   4.093   0.846 -2.2489  0.9401 -0.8968
  625MPD2    N1 9265   0.573   4.301   0.829 -0.3082 -0.6287 -0.3414
  625MPD2    H7 9266   0.641   4.375   0.818 -0.1228 -0.7961 -0.3018
  626TMC3    C1 9267   0.424   4.461   0.750  0.4895  0.4400 -0.0305
  626TMC3    C2 9268   0.317   4.494   0.669  0.5516  0.1234 -0.4956
  626TMC3    C3 9269   0.305   4.620   0.612  0.3041 -0.0897 -0.1808
  626TMC3    C4 9270   0.514   4.559   0.785  0.3065 -0.2019  0.4231
  626TMC3    C5 9271   0.497   4.686   0.737  0.2319  0.1141  0.3649
  626TMC3    C6 9272   0.392   4.716   0.652 -0.1396  0.2701  0.2273
  626TMC3     C 9273   0.444   4.325   0.798  0.4970 -0.4839  0.3482
  626TMC3     O 9274   0.347   4.251   0.788 -0.5043 -0.8918  0.3131
  626TMC3     H 9275   0.252   4.413   0.638  0.1897  0.2204  0.0140
  626TMC3    H1 9276   0.604   4.538   0.841  1.1718 -0.8027 -1.2140
  626TMC3    H2 9277   0.390   0.091   0.613 -0.6995 -0.1735 -0.8945
  626TMC3    C7 9278   0.538   0.066   0.828  0.4271 -0.4412 -0.1556
  626TMC3    C8 9279   0.199   4.647   0.521  0.1342 -0.3658  0.0354
  626TMC3    O1 9280   0.640   0.041   0.894  0.0765  0.4825 -0.2676
  626TMC3    O2 9281   0.124   4.557   0.488  0.4593  0.0068 -0.1251
  627MPD2     C 9282   4.153   0.319  14.516  0.0408 -0.6522 -0.1685
  627MPD2    C1 9283   4.154   0.303  14.656 -0.0364  0.2007  0.9625
  627MPD2    C2 9284   4.063   0.213  14.712  0.3309 -0.3257  0.5310
  627MPD2    C3 9285   3.980   0.135  14.636  0.2331  0.0059  0.3177
  627MPD2    C4 9286   3.978   0.151  14.498  0.8686 -0.1264  0.4639
  627MPD2    C5 9287   4.067   0.245  14.444 -0.8760 -0.4429 -0.3934
  627MPD2     H 9288   4.060   0.217  14.820 -0.0346  0.0508  0.5079
  627MPD2    H1 9289   3.895   0.121  14.435  1.2245 -0.4478  0.1470
  627MPD2    H2 9290   4.219   0.383  14.459  1.8182 -0.8947  1.5917
  627MPD2    H3 9291   4.061   0.270  14.339 -1.3452 -1.0195 -0.5064
  627MPD2     N 9292   3.888   0.055  14.702  0.1018  0.3097 -0.4446
  627MPD2    H5 9293   3.891   0.053  14.804  0.2388  0.2615 -0.4499
  627MPD2    N1 9294   4.241   0.378  14.737  0.1856 -0.5290  0.1839
  627MPD2    H7 9295   4.229   0.364  14.836 -2.0135  0.2101  0.0314
  628TMC3    C1 9296   4.351   0.580  14.800  0.2636  1.0443  0.8435
  628TMC3    C2 9297   4.413   0.531  14.910  0.3340  0.1322  0.3002
  628TMC3    C3 9298   4.459   0.622  15.004  0.2876  0.2262 -0.3441
  628TMC3    C4 9299   4.330   0.713  14.781 -0.4551  1.2456 -0.2269
  628TMC3    C5 9300   4.350   0.800  14.886 -0.9576 -0.3074 -0.2948
  628TMC3    C6 9301   4.425   0.754  14.990  0.1254 -0.1120  0.5872
  628TMC3     C 9302   4.310   0.489  14.693 -0.5301 -0.0031  0.5070
  628TMC3     O 9303   4.348   0.518  14.582  0.3448 -0.2890  0.2871
  628TMC3     H 9304   4.455   0.433  14.894 -3.8506 -1.8899  1.6762
  628TMC3    H1 9305   4.273   0.734  14.691 -3.2123 -0.7779  1.0345
  628TMC3    H2 9306   4.432   0.824  15.072 -0.9515  2.4453 -1.4726
  628TMC3    C7 9307   4.259   0.919  14.897 -0.2438 -0.3434 -0.6070
  628TMC3    C8 9308   4.568   0.579  15.093 -0.5581 -0.1033 -0.8484
  628TMC3    O1 9309   4.275   0.970  15.009 -0.1339  0.4478 -0.4618
  628TMC3    O2 9310   4.614   0.464  15.075  0.3265  0.0265  0.8881
  629MPD2     C 9311   2.207   4.200  16.286  0.6306  0.3186 -0.7052
  629MPD2    C1 9312   2.270   4.092  16.337  0.4729  0.1222  0.0065
  629MPD2    C2 9313   2.198   3.991  16.391 -0.2159 -0.4018  0.4116
  629MPD2    C3 9314   2.062   3.993  16.398  0.6064  0.1786 -0.1685
  629MPD2    C4 9315   2.002   4.108  16.349 -0.0932 -0.1972  0.4027
  629MPD2    C5 9316   2.074   4.200  16.287  0.3115 -0.0116  0.3328
  629MPD2     H 9317   2.240   3.897  16.426  0.9809 -0.0169  0.0040
  629MPD2    H1 9318   1.895   4.123  16.341  0.0640  0.7558  0.1570
  629MPD2    H2 9319   2.260   4.281  16.239  1.5081 -0.3093 -0.7983
  629MPD2    H3 9320   2.017   4.283  16.247  0.1665 -1.0517 -1.5767
  629MPD2     N 9321   1.997   3.889  16.465  0.4375 -0.1653 -0.6401
  629MPD2    H5 9322   2.046   3.804  16.493 -1.0008 -1.4554 -2.0808
  629MPD2    N1 9323   2.413   4.102  16.342  0.6001  0.3204 -0.1539
  629MPD2    H7 9324   2.459   4.189  16.316  0.2766  0.5568  0.0640
  630TMC3    C1 9325   2.630   4.054  16.411 -0.3168  0.3546  0.5970
  630TMC3    C2 9326   2.675   4.179  16.373 -0.2769  0.4432  0.3229
  630TMC3    C3 9327   2.799   4.215  16.413 -0.6053 -0.5879  0.4907
  630TMC3    C4 9328   2.706   3.978  16.498 -0.2825  0.4307 -0.2499
  630TMC3    C5 9329   2.815   4.032  16.547 -0.3729  0.4553 -0.2492
  630TMC3    C6 9330   2.860   4.153  16.516 -0.2837  0.7585  0.2122
  630TMC3     C 9331   2.500   4.005  16.383  0.5397  0.4727  0.7160
  630TMC3     O 9332   2.472   3.890  16.413 -0.1938 -0.4554  0.2515
  630TMC3     H 9333   2.613   4.248  16.316  2.2759  0.0957 -2.8493
  630TMC3    H1 9334   2.682   3.873  16.503  2.0152 -0.1011 -0.2231
  630TMC3    H2 9335   2.951   4.193  16.559  1.1076 -2.9083  0.6936
  630TMC3    C7 9336   2.876   3.964  16.660  0.4745 -0.0598  0.0264
  630TMC3    C8 9337   2.878   4.314  16.347 -0.1546 -0.3036 -0.5289
  630TMC3    O1 9338   2.802   3.880  16.706  0.3250  0.4683 -0.2029
  630TMC3    O2 9339   2.977   4.355  16.406 -0.2426 -0.6414  0.0795
  631MPD2     C 9340   1.170   4.644  15.448  0.0761 -0.3044 -0.9343
  631MPD2    C1 9341   1.053   4.570  15.446  0.5529  0.5435  0.4015
  631MPD2    C2 9342   1.044   4.448  15.522 -0.4380  0.3917  0.0222
  631MPD2    C3 9343   1.148   4.410  15.605  0.3810 -1.0901 -0.1931
  631MPD2    C4 9344   1.268   4.483  15.602  0.0380 -0.2007  0.2387
  631MPD2    C5 9345   1.272   4.596  15.526  0.6195  0.0472  0.4727
  631MPD2     H 9346   0.961   4.378  15.522  0.2652 -0.4498 -0.6075
  631MPD2    H1 9347   1.358   4.459  15.657  1.5539  1.1481 -1.6667
  631MPD2    H2 9348   1.182   0.015  15.400  0.8629  0.1660  0.1828
  631MPD2    H3 9349   1.363   4.655  15.526  1.6597 -1.5681  0.3491
  631MPD2     N 9350   1.131   4.301  15.694 -0.8481  0.2814 -0.0171
  631MPD2    H5 9351   1.039   4.258  15.699  0.0418 -1.4363  1.6280
  631MPD2    N1 9352   0.939   4.624  15.373  0.8066  0.1807 -0.2062
  631MPD2    H7 9353   0.955   4.710  15.321  0.4450  1.4220  1.6868
  632TMC3    C1 9354   0.736   4.625  15.277 -0.3137 -0.1686  0.4082
  632TMC3    C2 9355   0.599   4.597  15.296  0.1658 -0.1740  0.3622
  632TMC3    C3 9356   0.522   4.576  15.189 -0.4795 -0.3377  0.7158
  632TMC3    C4 9357   0.785   4.631  15.147 -0.4620 -0.1434 -0.3494
  632TMC3    C5 9358   0.699   4.602  15.046  0.2429  0.0613 -0.7394
  632TMC3    C6 9359   0.563   4.591  15.060 -0.0827  0.3760 -0.8602
  632TMC3     C 9360   0.815   4.563  15.376 -0.0083 -0.1798 -0.0065
  632TMC3     O 9361   0.770   4.462  15.416 -0.0426 -0.3327  0.4949
  632TMC3     H 9362   0.562   4.584  15.397  1.7159  0.3841  1.0157
  632TMC3    H1 9363   0.892   4.627  15.129 -0.9254  1.2307 -3.2773
  632TMC3    H2 9364   0.498   4.569  14.977 -1.6846  0.7610  0.2868
  632TMC3    C7 9365   0.751   4.583  14.912  0.0516  0.3267  0.3663
  632TMC3    C8 9366   0.389   4.521  15.211  0.3020 -0.6111 -0.2905
  632TMC3    O1 9367   0.659   4.598  14.832  0.1557 -0.1106 -0.1580
  632TMC3    O2 9368   0.378   4.458  15.314 -0.2513  0.1250  0.2249
  633MPD2     C 9369   0.241   1.774  17.213  0.4120 -0.3207  0.8465
  633MPD2    C1 9370   0.305   1.776  17.092 -0.2585 -0.0512 -0.7297
  633MPD2    C2 9371   0.400   1.678  17.063  0.1044  0.1880  0.1536
  633MPD2    C3 9372   0.436   1.587  17.162 -0.4785 -0.7813 -0.4581
  633MPD2    C4 9373   0.368   1.594  17.283  0.0894 -0.5131  0.5191
  633MPD2    C5 9374   0.268   1.681  17.305 -0.2750  0.1371  0.2488
  633MPD2     H 9375   0.446   1.688  16.965 -0.9663 -1.4367 -0.5041
  633MPD2    H1 9376   0.391   1.531  17.368  2.1835  2.0993  1.8856
  633MPD2    H2 9377   0.161   1.845  17.231 -0.5775 -1.0556 -0.6968
  633MPD2    H3 9378   0.228   1.687  17.405 -0.1168  1.0993  0.2578
  633MPD2     N 9379   0.520   1.476  17.140  1.1827  0.6773 -0.0219
  633MPD2    H5 9380   0.516   1.399  17.206 -0.7308  0.3599 -0.5081
  633MPD2    N1 9381   0.270   1.862  16.984  0.1109 -0.3804  1.0234
  633MPD2    H7 9382   0.329   1.852  16.902  0.6928 -0.3839  1.4377
  634TMC3    C1 9383   0.135   1.980  16.844  0.2636  0.5227 -0.3421
  634TMC3    C2 9384   0.177   1.888  16.749 -0.2063 -0.4448  0.0825
  634TMC3    C3 9385   0.210   1.941  16.626  0.1495 -0.1728  0.5560
  634TMC3    C4 9386   0.107   2.111  16.813  0.0741 -0.3588 -0.1202
  634TMC3    C5 9387   0.130   2.152  16.683 -0.1415  0.9184 -0.4535
  634TMC3    C6 9388   0.199   2.077  16.590  0.7232 -0.3079  0.0929
  634TMC3     C 9389   0.166   1.949  16.978 -0.4459 -0.4525  0.2259
  634TMC3     O 9390   0.112   2.006  17.069 -0.5096 -0.1831  0.2166
  634TMC3     H 9391   0.188   1.785  16.781  0.5745 -1.2353 -2.7042
  634TMC3    H1 9392   0.059   2.176  16.885 -0.1914  0.2770 -0.8795
  634TMC3    H2 9393   0.213   2.116  16.490 -0.3405 -0.5648 -0.1530
  634TMC3    C7 9394   0.089   2.288  16.636  0.0129 -0.1941 -0.6869
  634TMC3    C8 9395   0.280   1.847  16.543 -0.0963  0.3311  0.4903
  634TMC3    O1 9396   0.117   2.312  16.520 -0.0721  0.3218  0.1910
  634TMC3    O2 9397   0.287   1.734  16.583  0.5022  0.1952  0.2735
  635TMC3    C1 9398   0.142   2.980  17.398 -1.3452  0.2778  1.2791
  635TMC3    C2 9399   0.153   2.862  17.460  0.2517 -0.5657  0.0537
  635TMC3    C3 9400   0.036   2.824  17.524 -0.4843 -0.3729 -0.2298
  635TMC3    C4 9401   0.044   3.071  17.409 -0.3706  0.7564  0.1134
  635TMC3    C5 9402   4.658   3.034  17.484 -0.5251 -0.6117  0.2010
  635TMC3    C6 9403   4.650   2.909  17.536 -0.2434  0.5100 -0.9631
  635TMC3     C 9404   0.268   3.027  17.363 -0.0069 -0.3995 -0.2957
  635TMC3     O 9405   0.274   3.146  17.338 -0.9871  0.5400  0.3681
  635TMC3     H 9406   0.239   2.797  17.470  2.1701  2.0374  0.6154
  635TMC3    H1 9407   0.054   3.167  17.360  0.1561  0.5409 -0.2034
  635TMC3    H2 9408   4.562   2.881  17.594 -0.1796 -0.3509 -1.2726
  635TMC3    C7 9409   4.564   3.132  17.543 -0.5551 -0.4289 -0.1175
  635TMC3    C8 9410   0.035   2.697  17.597  0.0293  0.3317  0.2722
  635TMC3    O1 9411   4.454   3.082  17.570 -0.9595 -0.0693  0.2254
  635TMC3    O2 9412   4.671   2.687  17.681 -0.1103  0.0770  0.1462
  636MPD2     C 9413   1.461   2.577  15.740  0.4412 -0.8347 -0.8308
  636MPD2    C1 9414   1.410   2.534  15.860 -0.8922 -0.4368  0.4707
  636MPD2    C2 9415   1.448   2.412  15.909 -0.7070  0.1064 -0.5080
  636MPD2    C3 9416   1.533   2.327  15.842 -0.2919  0.2410  0.2151
  636MPD2    C4 9417   1.587   2.379  15.726 -0.8036 -0.7652 -0.3178
  636MPD2    C5 9418   1.548   2.499  15.672 -0.3157 -0.6117  0.1783
  636MPD2     H 9419   1.400   2.386  16.003  1.2706  1.5657  0.9010
  636MPD2    H1 9420   1.668   2.332  15.670  1.3591  1.4766  0.9172
  636MPD2    H2 9421   1.428   2.666  15.688 -2.3000 -0.5529  1.3931
  636MPD2    H3 9422   1.592   2.541  15.582 -1.6205  0.1664 -0.0960
  636MPD2     N 9423   1.588   2.211  15.907 -0.8767  0.4451  0.6884
  636MPD2    H5 9424   1.557   2.193  16.001  0.4415 -0.9502  0.8479
  636MPD2    N1 9425   1.328   2.620  15.950 -0.4588 -0.1841  0.0915
  636MPD2    H7 9426   1.325   2.594  16.048  1.5187 -0.3543  0.1062
  637TMC3    C1 9427   1.717   2.029  15.961  0.8052  0.1403  0.3450
  637TMC3    C2 9428   1.621   1.986  16.048  0.2225 -0.1050 -0.6166
  637TMC3    C3 9429   1.650   1.987  16.180 -0.0123  0.8246 -0.5859
  637TMC3    C4 9430   1.850   2.024  15.999 -0.1448 -0.8980 -0.0523
  637TMC3    C5 9431   1.882   2.010  16.132 -0.3976  0.7824 -0.7837
  637TMC3    C6 9432   1.780   1.998  16.225  0.1728 -0.2264 -0.2944
  637TMC3     C 9433   1.689   2.131  15.861  0.4130  0.5297  0.3832
  637TMC3     O 9434   1.757   2.134  15.759 -0.0553  0.5148 -0.3388
  637TMC3     H 9435   1.517   1.986  16.017 -0.0573 -0.1150  0.3216
  637TMC3    H1 9436   1.930   2.042  15.929  0.2019  2.9379  1.3660
  637TMC3    H2 9437   1.807   1.981  16.329  0.5990 -0.1025 -0.3866
  637TMC3    C7 9438   1.973   2.119  16.180  0.4639  0.1537  0.3808
  637TMC3    C8 9439   1.555   2.076  16.249  0.2903  0.5447 -0.1529
  637TMC3    O1 9440   1.942   2.166  16.286 -0.0584 -0.4503  0.3424
  637TMC3    O2 9441   1.502   2.153  16.172  0.0168 -0.1270 -0.1293
  638MPD2     C 9442   1.179   1.116  14.506 -0.8873 -0.1323  0.7582
  638MPD2    C1 9443   1.284   1.068  14.579  0.2441 -0.0671 -0.8337
  638MPD2    C2 9444   1.264   1.006  14.703  0.7613  0.1289  0.2488
  638MPD2    C3 9445   1.136   0.973  14.751  0.0081  0.0069  0.5249
  638MPD2    C4 9446   1.032   1.024  14.678  0.6446 -0.6543 -0.1290
  638MPD2    C5 9447   1.056   1.090  14.555 -0.4867  0.3877 -0.3515
  638MPD2     H 9448   1.350   0.954  14.743 -0.7756 -1.3886  1.6012
  638MPD2    H1 9449   0.931   0.995  14.701  0.2936  0.1281 -0.6838
  638MPD2    H2 9450   1.183   1.167  14.410 -0.9879  0.5597  1.1169
  638MPD2    H3 9451   0.970   1.134  14.507 -0.4085 -2.4995 -3.1623
  638MPD2     N 9452   1.113   0.883  14.871  0.1279 -0.2137 -0.0671
  638MPD2    H5 9453   1.199   0.841  14.905  0.9718  0.8359 -0.9316
  638MPD2    N1 9454   1.421   1.079  14.529 -0.4737 -0.0303  0.0814
  638MPD2    H7 9455   1.437   1.111  14.434  1.4101 -0.9667  0.0951
  639TMC3    C1 9456   1.007   0.704  14.967  0.4821 -0.3427  0.2631
  639TMC3    C2 9457   0.953   0.612  14.881 -0.3664  0.3457  0.3560
  639TMC3    C3 9458   1.026   0.500  14.864 -0.5597 -0.3957  0.1947
  639TMC3    C4 9459   1.117   0.680  15.040  0.0687 -0.7248  0.3667
  639TMC3    C5 9460   1.191   0.562  15.018  0.4112  0.0993 -0.2350
  639TMC3    C6 9461   1.144   0.473  14.920 -0.0647  0.3846 -0.2792
  639TMC3     C 9462   0.991   0.836  14.914  0.3239 -0.1487  0.3685
  639TMC3     O 9463   0.876   0.864  14.878  0.3152  0.0290  0.5059
  639TMC3     H 9464   0.859   0.641  14.835 -0.7961  0.4467  1.2770
  639TMC3    H1 9465   1.158   0.757  15.105 -0.5979  0.8517 -1.0689
  639TMC3    H2 9466   1.189   0.376  14.900  1.0100  1.3141 -2.2716
  639TMC3    C7 9467   1.304   0.529  15.109  0.0491  0.3622 -0.0417
  639TMC3    C8 9468   0.987   0.408  14.762  0.3384 -0.0793 -0.2160
  639TMC3    O1 9469   1.315   0.599  15.210  0.1275 -0.2657  0.4730
  639TMC3    O2 9470   1.067   0.378  14.678  0.7757 -0.5796  0.2908
  640MPD2     C 9471   2.046   3.960  10.087  0.3410  0.2640  0.5064
  640MPD2    C1 9472   1.968   3.936   9.981 -0.2633  0.5786 -0.4406
  640MPD2    C2 9473   1.858   4.024   9.965 -0.1102 -0.4918 -0.8692
  640MPD2    C3 9474   1.832   4.127  10.064  0.0407 -0.0333 -0.7584
  640MPD2    C4 9475   1.924   4.149  10.163  0.3152  0.3804  0.4592
  640MPD2    C5 9476   2.030   4.065  10.175  0.9958 -0.3881 -0.3342
  640MPD2     H 9477   1.776   4.013   9.895 -1.5020  1.2439  0.4637
  640MPD2    H1 9478   1.909   4.224  10.239 -0.5695 -0.1133  0.7657
  640MPD2    H2 9479   2.121   3.890  10.121  0.2059 -0.2844 -0.3161
  640MPD2    H3 9480   2.094   4.082  10.260  1.3424  0.2396 -0.7196
  640MPD2     N 9481   1.725   4.223  10.056 -0.5591  0.1531 -0.0552
  640MPD2    H5 9482   1.736   4.304  10.116  1.5800 -0.1845  0.0030
  640MPD2    N1 9483   2.001   3.832   9.888 -0.4156  0.3856  0.0867
  640MPD2    H7 9484   2.092   3.790   9.907  0.2075  2.7020  2.2476
  641TMC3    C1 9485   1.998   3.691   9.699  0.9610  0.0946  0.2271
  641TMC3    C2 9486   2.108   3.622   9.753  0.4228  0.1900  0.4465
  641TMC3    C3 9487   2.180   3.545   9.660  0.6061 -0.1565 -0.1608
  641TMC3    C4 9488   1.946   3.664   9.574  0.9908 -0.2223  0.3534
  641TMC3    C5 9489   2.015   3.581   9.491  0.5475 -0.4077 -0.4557
  641TMC3    C6 9490   2.130   3.513   9.536 -0.3377 -0.1338 -0.2374
  641TMC3     C 9491   1.926   3.792   9.779  0.1273 -0.1858 -0.1285
  641TMC3     O 9492   1.815   3.823   9.748 -0.0246  0.2524  0.1747
  641TMC3     H 9493   2.148   3.638   9.852  1.0094  1.1694  0.0540
  641TMC3    H1 9494   1.848   3.698   9.542 -0.2584 -1.8820  2.3994
  641TMC3    H2 9495   2.173   3.436   9.472  0.0515 -1.6839  1.8956
  641TMC3    C7 9496   1.951   3.545   9.365  0.3721  0.2403  0.3223
  641TMC3    C8 9497   2.316   3.497   9.679  0.2600  0.0210 -0.0124
  641TMC3    O1 9498   1.833   3.586   9.355 -0.2983 -0.0414  0.0072
  641TMC3    O2 9499   2.369   3.468   9.576  0.1081  0.1221 -0.0186
  642TMC3    C1 9500   3.387   0.698  12.288 -0.0375 -0.2980  0.0114
  642TMC3    C2 9501   3.433   0.688  12.413  0.3461  0.5585 -0.5140
  642TMC3    C3 9502   3.459   0.566  12.467 -0.3500 -0.6312 -0.3420
  642TMC3    C4 9503   3.340   0.581  12.225 -0.2005 -0.7722  1.1694
  642TMC3    C5 9504   3.375   0.458  12.273  0.7221  0.0849 -0.4851
  642TMC3    C6 9505   3.436   0.454  12.396  0.8303 -0.0144  0.2523
  642TMC3     C 9506   3.317   0.814  12.265  0.2255  0.2418  0.1494
  642TMC3     O 9507   3.374   0.920  12.271 -0.2974 -0.1183  0.0630
  642TMC3     H 9508   3.460   0.779  12.467  0.3027  0.0461  0.3561
  642TMC3    H1 9509   3.277   0.589  12.137 -1.3080  2.7571  2.2913
  642TMC3    H2 9510   3.466   0.366  12.452  0.3703 -0.8492 -0.7812
  642TMC3    C7 9511   3.310   0.333  12.233  0.8788 -0.1012  0.6098
  642TMC3    C8 9512   3.553   0.559  12.581 -0.0405  0.0388 -0.5951
  642TMC3    O1 9513   3.250   0.350  12.124 -0.5004  0.1594 -0.1086
  642TMC3    O2 9514   3.626   0.463  12.591  0.2116 -0.2319 -0.4077
  643TMC3    C1 9515   2.177   4.390   0.076  0.4374 -0.4795  0.4436
  643TMC3    C2 9516   2.074   4.407  17.685  0.0091 -0.3143 -0.3541
  643TMC3    C3 9517   2.051   4.297  17.605 -0.1574  0.6994  0.0116
  643TMC3    C4 9518   2.257   4.282   0.079 -0.5404  0.3675  0.3565
  643TMC3    C5 9519   2.225   4.179  17.698  0.5212 -0.5251 -1.1852
  643TMC3    C6 9520   2.111   4.179  17.621  0.0491 -0.2378  1.0733
  643TMC3     C 9521   2.225   4.518   0.134  0.4945 -0.4849 -0.1554
  643TMC3     O 9522   2.212   4.614   0.059 -0.3758  0.2724  0.3014
  643TMC3     H 9523   1.998   4.484  17.695 -1.0594 -1.2649 -1.2274
  643TMC3    H1 9524   2.348   4.284   0.139  0.0268  1.8112 -0.5429
  643TMC3    H2 9525   2.075   4.091  17.567 -1.5664  0.9414  0.2377
  643TMC3    C7 9526   2.277   4.046   0.017  0.0763  0.1636 -0.1265
  643TMC3    C8 9527   2.018   4.336  17.468  0.2662 -0.7096  0.2862
  643TMC3    O1 9528   2.293   4.019   0.132  0.1433  0.0814 -0.1955
  643TMC3    O2 9529   1.990   4.243  17.395  0.0750 -0.2798  0.4604
  644MPD2     C 9530   1.801   4.305   9.702 -0.0201 -0.0868  0.2053
  644MPD2    C1 9531   1.932   4.339   9.725  0.5819  0.1893 -0.2284
  644MPD2    C2 9532   1.958   4.475   9.754 -0.4144 -0.6741 -0.3308
  644MPD2    C3 9533   1.866   4.573   9.745 -0.3834  0.2585  0.1873
  644MPD2    C4 9534   1.736   4.532   9.707  0.0509  0.0994 -0.0465
  644MPD2    C5 9535   1.708   4.399   9.689 -0.0717 -0.4501  0.4725
  644MPD2     H 9536   2.056   4.499   9.793 -1.4644  1.8681  0.7383
  644MPD2    H1 9537   1.651   4.598   9.692 -0.1665 -0.0498  0.5043
  644MPD2    H2 9538   1.775   4.200   9.696 -3.0478  0.7413 -1.6382
  644MPD2    H3 9539   1.616   4.355   9.653 -1.1831  3.6366 -1.5689
  644MPD2     N 9540   1.908   4.704   9.765 -0.3942 -0.3215 -0.7905
  644MPD2    H5 9541   2.007   4.715   9.782 -0.3392 -0.2549 -1.1408
  644MPD2    N1 9542   2.029   4.234   9.726  0.6831 -0.0896  0.4572
  644MPD2    H7 9543   1.993   4.142   9.703 -0.6425  0.3236  0.8356
  645TMC3    C1 9544   1.914   0.210   9.734 -0.0116 -0.8306 -0.1205
  645TMC3    C2 9545   2.037   0.201   9.790 -0.2372  0.5472 -0.6962
  645TMC3    C3 9546   2.129   0.300   9.753  0.0400  0.2623  0.0563
  645TMC3    C4 9547   1.886   0.305   9.641  0.3692 -0.0597  0.0123
  645TMC3    C5 9548   1.976   0.406   9.614  0.1440 -0.8359  0.4047
  645TMC3    C6 9549   2.103   0.394   9.665  0.1457 -0.0130 -0.2051
  645TMC3     C 9550   1.831   0.088   9.741  0.0046  0.0172  0.0099
  645TMC3     O 9551   1.717   0.095   9.701 -0.4580  0.4797 -0.6139
  645TMC3     H 9552   2.055   0.139   9.877 -0.7328  0.5976 -0.5575
  645TMC3    H1 9553   1.782   0.320   9.611 -0.1966 -1.1964  1.3976
  645TMC3    H2 9554   2.179   0.468   9.642  0.6285 -0.8765 -1.3787
  645TMC3    C7 9555   1.960   0.497   9.500  0.5463 -0.0849  0.2946
  645TMC3    C8 9556   2.259   0.307   9.825 -0.2242 -0.7026  0.0723
  645TMC3    O1 9557   2.060   0.523   9.434  0.6983  0.4479  0.3284
  645TMC3    O2 9558   2.316   0.417   9.830  0.1124 -0.0111 -0.2379
  646MPD2     C 9559   1.609   4.305  14.009  0.1227 -0.4125  0.4304
  646MPD2    C1 9560   1.517   4.299  14.110  0.5625  0.4732 -0.1363
  646MPD2    C2 9561   1.433   4.409  14.129 -0.2007  0.0357  0.1257
  646MPD2    C3 9562   1.438   4.517  14.047 -0.4258  0.1338 -0.8143
  646MPD2    C4 9563   1.531   4.516  13.942 -0.5659 -0.1492 -0.3161
  646MPD2    C5 9564   1.614   4.410  13.928 -0.3512  0.4955  0.1110
  646MPD2     H 9565   1.352   4.413  14.201 -0.2796  1.1898 -0.0269
  646MPD2    H1 9566   1.545   4.594  13.868 -1.1585  0.2258 -0.0331
  646MPD2    H2 9567   1.670   4.216  13.998  2.0135  1.0819 -1.2621
  646MPD2    H3 9568   1.686   4.402  13.847 -1.5776 -1.6426 -0.7668
  646MPD2     N 9569   1.335   4.610  14.065 -0.2191 -0.1338 -0.0271
  646MPD2    H5 9570   1.281   4.593  14.150  0.2785 -1.5637  0.0042
  646MPD2    N1 9571   1.516   4.181  14.188 -0.6530 -0.0788  0.6182
  646MPD2    H7 9572   1.602   4.128  14.183  0.4979  1.7640  0.8312
  647TMC3    C1 9573   1.469   4.054  14.401 -0.9971 -0.0317  0.0976
  647TMC3    C2 9574   1.409   4.061  14.529 -0.1648 -0.1323  0.2291
  647TMC3    C3 9575   1.464   3.992  14.630 -0.1038  0.5788  0.3393
  647TMC3    C4 9576   1.569   3.961  14.372 -0.1441  0.7220 -0.3924
  647TMC3    C5 9577   1.625   3.899  14.477 -0.0341  0.0153 -0.1624
  647TMC3    C6 9578   1.573   3.907  14.604  1.1183 -0.2461  0.2147
  647TMC3     C 9579   1.436   4.165  14.301 -0.2261  0.5583 -0.1436
  647TMC3     O 9580   1.348   4.238  14.334  0.2790  0.2062  0.4937
  647TMC3     H 9581   1.343   4.143  14.554 -0.1505 -0.6621  1.9866
  647TMC3    H1 9582   1.609   3.942  14.273 -2.2209 -0.4235 -1.0155
  647TMC3    H2 9583   1.601   3.838  14.683 -2.4221 -1.7593  0.1600
  647TMC3    C7 9584   1.732   3.806  14.449 -0.3324 -0.2870 -0.2589
  647TMC3    C8 9585   1.403   3.976  14.758 -0.1677  0.4751  0.2218
  647TMC3    O1 9586   1.757   3.773  14.337  0.0065 -0.0542 -0.4033
  647TMC3    O2 9587   1.470   3.912  14.842  0.0603  0.2577  0.4884
  648TMC3    C1 9588   0.712   2.361  15.933 -0.5510 -0.3719 -0.1091
  648TMC3    C2 9589   0.784   2.245  15.933  0.3327 -0.4387 -0.0860
  648TMC3    C3 9590   0.758   2.163  15.831  0.2023  0.2729 -0.3004
  648TMC3    C4 9591   0.603   2.384  15.855 -0.3271 -0.3119  0.4137
  648TMC3    C5 9592   0.577   2.283  15.770  0.0187 -0.1715  0.2138
  648TMC3    C6 9593   0.672   2.184  15.727  0.4229 -0.5754  0.7479
  648TMC3     C 9594   0.686   2.402  16.072 -0.0844 -0.1080 -0.2755
  648TMC3     O 9595   0.642   2.514  16.093  0.4546  0.2893 -0.3151
  648TMC3     H 9596   0.864   2.218  16.002 -0.6573 -0.0043  1.2374
  648TMC3    H1 9597   0.544   2.474  15.865  1.7100  1.1737 -0.9627
  648TMC3    H2 9598   0.639   2.111  15.655  0.9817 -0.6914  0.6083
  648TMC3    C7 9599   0.458   2.297  15.695  0.6132 -0.3491  0.2171
  648TMC3    C8 9600   0.789   2.022  15.855 -0.0223 -0.4414  0.2266
  648TMC3    O1 9601   0.460   2.264  15.577  0.5195 -0.1581  0.2814
  648TMC3    O2 9602   0.773   1.983  15.969 -0.0926  0.7016  0.1045
  649TMC3    C1 9603   4.251   2.497  12.754  0.4656 -0.4567  0.2395
  649TMC3    C2 9604   4.380   2.534  12.778  0.0459 -0.3020 -0.0551
  649TMC3    C3 9605   4.424   2.526  12.903 -0.2882 -0.6046  0.5036
  649TMC3    C4 9606   4.175   2.433  12.847 -0.0885 -0.1226  0.0351
  649TMC3    C5 9607   4.235   2.409  12.968  0.7378  0.3462  0.1774
  649TMC3    C6 9608   4.357   2.459  12.999  0.6640  0.2131 -0.1617
  649TMC3     C 9609   4.184   2.557  12.644  0.3551  0.4034 -0.3728
  649TMC3     O 9610   4.241   2.645  12.578 -0.3264 -0.1083 -0.0699
  649TMC3     H 9611   4.426   2.607  12.712 -1.8096  0.8237 -0.1101
  649TMC3    H1 9612   4.075   2.395  12.835 -0.4786  0.0209  2.9696
  649TMC3    H2 9613   4.389   2.453  13.103  1.9168  0.8399 -0.5180
  649TMC3    C7 9614   4.144   2.354  13.070 -0.4474 -0.2835 -0.0378
  649TMC3    C8 9615   4.548   2.595  12.938  0.1872  0.1644 -0.4338
  649TMC3    O1 9616   4.025   2.340  13.045  0.3848  0.3895 -0.2393
  649TMC3    O2 9617   4.589   2.675  12.856  0.2793 -0.2116  0.5118
  650TMC3    C1 9618   3.124   4.548  12.808  0.6997  0.4008  0.1864
  650TMC3    C2 9619   3.062   4.664  12.846  1.0211  0.0107  0.2132
  650TMC3    C3 9620   2.983   4.712  12.750 -0.0710 -1.1392  0.1611
  650TMC3    C4 9621   3.125   4.495  12.682 -0.4046 -0.1734  0.3528
  650TMC3    C5 9622   3.029   4.537  12.599  0.3468  0.3135  1.3431
  650TMC3    C6 9623   2.958   4.644  12.631  0.3605 -0.1987  0.1230
  650TMC3     C 9624   3.160   4.452  12.911 -0.1566 -0.8877  0.1390
  650TMC3     O 9625   3.183   4.495  13.024 -0.2824 -0.3463 -0.3989
  650TMC3     H 9626   3.062   4.702  12.947 -0.4260 -0.7642  0.4979
  650TMC3    H1 9627   3.194   4.414  12.661  0.8442  1.5786 -2.2194
  650TMC3    H2 9628   2.886   4.694  12.567  0.0075  0.8998  1.3813
  650TMC3    C7 9629   2.951   4.424  12.552  0.1027 -0.4945  0.9677
  650TMC3    C8 9630   2.883   0.086  12.785  0.2851 -0.3111  1.0708
  650TMC3    O1 9631   2.994   4.315  12.583  0.3585 -0.6235 -0.4483
  650TMC3    O2 9632   2.924   0.204  12.801  0.4446  0.4141 -0.2779
  651MPD2     C 9633   1.383   1.017  10.634  0.6599 -0.4043 -0.6378
  651MPD2    C1 9634   1.384   1.153  10.608 -0.3363 -0.4860 -0.4957
  651MPD2    C2 9635   1.501   1.212  10.557  0.0149  0.2554  0.2667
  651MPD2    C3 9636   1.603   1.134  10.505  0.1674 -0.1956 -0.3152
  651MPD2    C4 9637   1.599   1.000  10.530  0.6172  0.6193 -0.0662
  651MPD2    C5 9638   1.488   0.941  10.582 -0.4603 -0.4433  0.6057
  651MPD2     H 9639   1.507   1.319  10.542 -1.8528  0.4110  0.6381
  651MPD2    H1 9640   1.678   0.930  10.505  1.0280  1.4838 -1.1971
  651MPD2    H2 9641   1.296   0.967  10.675  0.1480  0.9437 -0.0765
  651MPD2    H3 9642   1.495   0.836  10.606  0.2501 -0.6943 -0.6870
  651MPD2     N 9643   1.710   1.201  10.443 -0.3468  0.2789  0.2123
  651MPD2    H5 9644   1.694   1.297  10.417  0.8980  0.4538  0.0863
  651MPD2    N1 9645   1.279   1.241  10.639 -0.3218  0.4463  0.3644
  651MPD2    H7 9646   1.275   1.336  10.606 -0.6556  0.7077  1.1426
  652TMC3    C1 9647   2.130   1.303  10.308  1.1762 -0.3097  0.1551
  652TMC3    C2 9648   2.039   1.201  10.328 -0.7460 -0.6393  0.1959
  652TMC3    C3 9649   1.910   1.222  10.303 -0.1963 -0.4166  0.3513
  652TMC3    C4 9650   2.090   1.434  10.275  0.3405  0.1369  0.7498
  652TMC3    C5 9651   1.949   1.454  10.270 -0.1539  0.0812  0.4814
  652TMC3    C6 9652   1.866   1.345  10.270  0.0098  0.0559  0.0116
  652TMC3     C 9653   2.232   1.307  10.409  0.1122  0.1879 -0.6198
  652TMC3     O 9654   2.186   1.316  10.524 -0.0449  0.0844  0.6439
  652TMC3     H 9655   2.069   1.111  10.380  0.0679 -1.5494 -1.8359
  652TMC3    H1 9656   2.158   1.518  10.279 -0.6745  1.1342 -3.3798
  652TMC3    H2 9657   1.761   1.365  10.252  0.5271  3.7375  0.9906
  652TMC3    C7 9658   1.900   1.528  10.381  0.6027 -0.5528 -0.1243
  652TMC3    C8 9659   1.820   1.139  10.387  0.1979 -0.1626  0.4632
  652TMC3    O1 9660   1.794   1.493  10.433  0.2798 -0.2751 -0.0645
  652TMC3    O2 9661   1.853   1.021  10.395  0.3995  0.3811  0.0969
  653MPD2     C 9662   4.538   1.893  17.311 -0.0548 -0.1749  0.1085
  653MPD2    C1 9663   4.406   1.922  17.355  0.5471 -0.3769 -0.3083
  653MPD2    C2 9664   4.306   1.828  17.349  0.2147  0.0587 -0.4080
  653MPD2    C3 9665   4.338   1.694  17.325  0.7293 -0.2319  0.1277
  653MPD2    C4 9666   4.468   1.669  17.288  0.5343  0.0292  0.0120
  653MPD2    C5 9667   4.564   1.764  17.284  0.5109  0.3618  0.0447
  653MPD2     H 9668   4.207   1.859  17.383  2.1045  2.4129  2.9151
  653MPD2    H1 9669   4.501   1.572  17.252 -0.1993  0.5936 -2.1708
  653MPD2    H2 9670   4.627   1.954  17.323  1.4081 -1.9424 -1.7896
  653MPD2    H3 9671   4.664   1.739  17.252  1.4176  0.0491  3.0980
  653MPD2     N 9672   4.240   1.602  17.318  1.0509  0.0388 -0.5588
  653MPD2    H5 9673   4.142   1.624  17.304  0.5914 -2.2073 -0.9679
  653MPD2    N1 9674   4.381   2.051  17.413 -0.4576 -0.0090  0.1740
  653MPD2    H7 9675   4.291   2.062  17.459 -0.9179 -1.8418 -0.3000
  654TMC3    C1 9676   4.158   1.388  17.255 -0.2415  0.0042 -0.0080
  654TMC3    C2 9677   4.072   1.439  17.161  0.1118  0.2281 -0.7438
  654TMC3    C3 9678   4.041   1.359  17.056  0.3574 -0.7708 -0.5942
  654TMC3    C4 9679   4.194   1.261  17.259  0.2624 -0.2662  0.3265
  654TMC3    C5 9680   4.168   1.186  17.147 -0.7747 -0.5495  0.4994
  654TMC3    C6 9681   4.083   1.228  17.049  0.1041  0.8369 -0.2615
  654TMC3     C 9682   4.260   1.468  17.309  0.7505  0.3992 -0.1131
  654TMC3     O 9683   4.360   1.407  17.338  0.3684  0.4062  0.3495
  654TMC3     H 9684   4.040   1.542  17.157  1.1311  0.6241  1.3620
  654TMC3    H1 9685   4.262   1.225  17.335  0.2645  1.4194  1.1404
  654TMC3    H2 9686   4.061   1.164  16.965 -1.6598 -0.3555  1.1288
  654TMC3    C7 9687   4.282   1.112  17.094  0.5295 -0.0104  0.4713
  654TMC3    C8 9688   3.936   1.403  16.965  0.6735  0.6190 -0.2864
  654TMC3    O1 9689   4.298   1.111  16.973 -0.0480  0.3103 -0.2299
  654TMC3    O2 9690   3.921   1.527  16.960  0.1883  0.2041  0.7538
  655MPD2     C 9691   1.047   2.429  15.708 -0.0843 -0.5395  0.4989
  655MPD2    C1 9692   0.922   2.418  15.643 -0.4116  0.2129  0.2922
  655MPD2    C2 9693   0.908   2.325  15.538 -0.2221  0.6564 -0.0100
  655MPD2    C3 9694   1.006   2.227  15.516  0.9414  0.2258 -0.0955
  655MPD2    C4 9695   1.118   2.231  15.592  0.3601 -0.1371 -0.0264
  655MPD2    C5 9696   1.138   2.333  15.682  0.1286 -0.5400  0.2561
  655MPD2     H 9697   0.816   2.336  15.483  0.6857 -0.3229 -1.7141
  655MPD2    H1 9698   1.196   2.158  15.573  1.5948  0.9583  0.8464
  655MPD2    H2 9699   1.073   2.513  15.772 -1.8347  0.2471  0.1725
  655MPD2    H3 9700   1.237   2.342  15.726 -0.0472  1.9455  0.1838
  655MPD2     N 9701   0.985   2.121  15.425  0.0154 -0.0490  0.2716
  655MPD2    H5 9702   1.066   2.063  15.404 -0.5102  0.0827 -2.0876
  655MPD2    N1 9703   0.822   2.511  15.645  0.1861 -0.2505 -0.1543
  655MPD2    H7 9704   0.753   2.495  15.573  0.2265 -2.0800  0.2173
  656TMC3    C1 9705   0.695   2.696  15.710 -0.1943  0.3929 -0.3752
  656TMC3    C2 9706   0.628   2.738  15.817 -0.2243 -0.3832  0.5191
  656TMC3    C3 9707   0.503   2.799  15.801  0.3670  0.0200 -0.8101
  656TMC3    C4 9708   0.650   2.722  15.590  0.7252 -0.5216  0.1708
  656TMC3    C5 9709   0.529   2.787  15.567  0.6283 -0.0783  0.6950
  656TMC3    C6 9710   0.453   2.811  15.675  0.0075  0.5342 -0.0308
  656TMC3     C 9711   0.814   2.615  15.733  0.7064 -0.0779 -0.1581
  656TMC3     O 9712   0.879   2.631  15.834 -0.1159 -0.4104  0.0366
  656TMC3     H 9713   0.678   2.733  15.913  1.8192  0.7979 -0.4806
  656TMC3    H1 9714   0.718   2.695  15.509  0.5904 -1.0316  0.2259
  656TMC3    H2 9715   0.349   2.838  15.657 -0.7349 -2.4729 -0.2321
  656TMC3    C7 9716   0.465   2.778  15.435 -0.3139  0.7329 -0.2975
  656TMC3    C8 9717   0.402   2.807  15.905 -0.1439 -0.0207  0.0207
  656TMC3    O1 9718   0.529   2.712  15.353  0.2050 -0.3602  0.1859
  656TMC3    O2 9719   0.293   2.866  15.885 -0.0076 -0.1414  0.2854
  657TMC3    C1 9720   4.449   1.750  14.707  0.1953 -0.5854 -0.0049
  657TMC3    C2 9721   4.447   1.787  14.842 -0.3857 -0.1617 -0.5471
  657TMC3    C3 9722   4.353   1.882  14.878 -0.0086 -0.7972 -0.4094
  657TMC3    C4 9723   4.347   1.777  14.625 -1.3466 -0.2739  0.3855
  657TMC3    C5 9724   4.243   1.854  14.667  0.0426  0.3399 -0.1111
  657TMC3    C6 9725   4.250   1.913  14.792 -0.1440 -0.0352 -0.3176
  657TMC3     C 9726   4.545   1.655  14.653 -0.2810  0.4767 -0.6687
  657TMC3     O 9727   4.529   1.619  14.536 -0.5093 -0.0781  0.0482
  657TMC3     H 9728   4.513   1.744  14.916  0.5177  0.5174 -0.9539
  657TMC3    H1 9729   4.351   1.751  14.520  0.6363  1.3716  0.0474
  657TMC3    H2 9730   4.170   1.976  14.831 -1.0413  0.0923 -2.3631
  657TMC3    C7 9731   4.148   1.911  14.568 -0.1305  0.2905  0.1135
  657TMC3    C8 9732   4.334   1.933  15.008 -0.1577 -0.3268  1.3858
  657TMC3    O1 9733   4.072   2.002  14.611 -0.5264 -0.8072  0.0491
  657TMC3    O2 9734   4.305   2.050  15.010 -0.0254 -0.3331  0.0799
  658MPD2     C 9735   1.399   1.799  14.986 -0.3195 -0.5249 -0.1888
  658MPD2    C1 9736   1.283   1.848  14.917  0.0165  0.3737  0.1614
  658MPD2    C2 9737   1.282   1.843  14.779  0.3120  0.2670 -0.6005
  658MPD2    C3 9738   1.399   1.812  14.712  0.0245  0.6039  0.3104
  658MPD2    C4 9739   1.511   1.758  14.781  0.1732 -0.7496  0.3790
  658MPD2    C5 9740   1.507   1.755  14.918  0.6076  0.2602  0.0845
  658MPD2     H 9741   1.195   1.872  14.722 -1.0701 -1.0765  0.8236
  658MPD2    H1 9742   1.596   1.719  14.726  0.3748 -1.9319  1.5277
  658MPD2    H2 9743   1.400   1.815  15.093 -2.3449  0.0102 -0.2415
  658MPD2    H3 9744   1.601   1.733  14.966  0.4532  1.2919  0.8603
  658MPD2     N 9745   1.393   1.815  14.569 -0.1294  0.3184 -0.0616
  658MPD2    H5 9746   1.305   1.850  14.533 -0.1427 -0.7550 -1.0436
  658MPD2    N1 9747   1.174   1.896  14.994 -0.3484 -0.1960 -0.2063
  658MPD2    H7 9748   1.179   1.876  15.093 -0.9173  0.7673  0.0228
  659TMC3    C1 9749   0.956   1.975  15.035  0.5326  0.6642  0.5809
  659TMC3    C2 9750   0.980   2.018  15.162  0.2089 -0.1102  0.7191
  659TMC3    C3 9751   0.882   2.000  15.252 -0.0375  0.7442  0.1016
  659TMC3    C4 9752   0.832   1.948  14.985 -0.0654 -0.6656  0.0507
  659TMC3    C5 9753   0.729   1.937  15.075  0.0772  0.1365  0.5270
  659TMC3    C6 9754   0.761   1.947  15.209  0.0850 -0.5717  0.2644
  659TMC3     C 9755   1.066   1.965  14.941 -0.1771  0.9275 -0.5397
  659TMC3     O 9756   1.050   2.014  14.835  1.1018  0.1445 -0.1213
  659TMC3     H 9757   1.072   2.073  15.179 -0.0661  0.9480 -1.1467
  659TMC3    H1 9758   0.819   1.916  14.882 -1.1901 -1.2208  0.3629
  659TMC3    H2 9759   0.682   1.926  15.281 -1.8175  1.2411 -1.3045
  659TMC3    C7 9760   0.598   1.974  15.036 -0.5488  0.2047  0.6303
  659TMC3    C8 9761   0.868   2.089  15.364  0.4842 -0.0367  0.0239
  659TMC3    O1 9762   0.508   1.923  15.100 -0.0136 -0.1102  0.0807
  659TMC3    O2 9763   0.760   2.132  15.396 -0.2395 -0.8617  0.3723
  660MPD2     C 9764   4.721   0.416  12.847  0.5793 -0.0424  0.6040
  660MPD2    C1 9765   4.597   0.478  12.822 -0.4775 -0.5506  0.6849
  660MPD2    C2 9766   4.484   0.437  12.893 -0.8579  0.5061  0.5262
  660MPD2    C3 9767   4.499   0.321  12.972  0.7410  1.0964  0.7791
  660MPD2    C4 9768   4.617   0.259  12.986 -0.2739  0.2275  0.2027
  660MPD2    C5 9769   0.006   0.300  12.927  0.3890 -0.7405  0.8494
  660MPD2     H 9770   4.388   0.486  12.884 -0.7869  0.2753 -1.6167
  660MPD2    H1 9771   4.630   0.170  13.047  0.8180  0.8241  0.8389
  660MPD2    H2 9772   0.086   0.455  12.801 -0.9701  0.7960 -1.7118
  660MPD2    H3 9773   0.104   0.254  12.940  1.4841  0.8735 -1.6932
  660MPD2     N 9774   4.387   0.270  13.046 -0.4850  0.3107 -0.1456
  660MPD2    H5 9775   4.417   0.203  13.116 -1.7090 -0.6109 -0.4954
  660MPD2    N1 9776   4.589   0.582  12.723 -0.3136 -0.0406  0.2531
  660MPD2    H7 9777   4.672   0.605  12.669 -0.5524 -0.3497 -0.2418
  661TMC3    C1 9778   4.486   0.709  12.557 -0.2452 -0.5810  0.0639
  661TMC3    C2 9779   4.541   0.624  12.464 -0.1527 -0.3026  0.6054
  661TMC3    C3 9780   4.488   0.636  12.335  0.8444 -0.4116  0.5570
  661TMC3    C4 9781   4.391   0.800  12.534 -0.3309 -0.3113 -0.0671
  661TMC3    C5 9782   4.336   0.807  12.408  0.1242 -0.1693 -0.2711
  661TMC3    C6 9783   4.396   0.733  12.308 -0.3794 -0.5441 -0.0318
  661TMC3     C 9784   4.483   0.661  12.695  0.0752  0.8122  0.3650
  661TMC3     O 9785   4.367   0.652  12.731  0.2402  0.3534  0.2421
  661TMC3     H 9786   4.624   0.557  12.484 -1.3051 -1.0578  2.8848
  661TMC3    H1 9787   4.338   0.853  12.613 -0.5626 -0.0615 -0.3956
  661TMC3    H2 9788   4.356   0.750  12.209  1.2803 -1.9123 -0.9321
  661TMC3    C7 9789   4.192   0.841  12.395  0.0782  0.5304 -0.3460
  661TMC3    C8 9790   4.582   0.625  12.228 -0.1608  0.2639  0.3361
  661TMC3    O1 9791   4.148   0.886  12.498  0.3492 -0.0858 -0.8467
  661TMC3    O2 9792   4.697   0.619  12.268  0.1270 -0.2169 -0.2610
  662MPD2     C 9793   4.483   0.430  17.267  0.0269 -0.7742  0.0483
  662MPD2    C1 9794   4.496   0.446  17.402 -0.6167  0.4769 -0.7506
  662MPD2    C2 9795   4.459   0.567  17.461 -0.3450  0.1261  0.5873
  662MPD2    C3 9796   4.398   0.667  17.386 -0.2742 -0.3064 -0.3653
  662MPD2    C4 9797   4.402   0.649  17.250  0.6187  0.1818 -0.2380
  662MPD2    C5 9798   4.448   0.535  17.183 -0.3930  0.2413 -0.9035
  662MPD2     H 9799   4.444   0.565  17.569  1.0570  1.0408  0.8069
  662MPD2    H1 9800   4.369   0.737  17.194 -2.4370 -0.7475  0.1014
  662MPD2    H2 9801   4.508   0.339  17.214 -1.0029 -1.3716  0.5998
  662MPD2    H3 9802   4.449   0.529  17.075  1.0555  0.3767 -0.9031
  662MPD2     N 9803   4.328   0.773  17.435  0.1373 -0.2621 -0.4740
  662MPD2    H5 9804   4.250   0.802  17.377 -0.8803 -0.0080  1.0272
  662MPD2    N1 9805   4.533   0.339  17.487  0.8013  0.1418 -0.0660
  662MPD2    H7 9806   4.530   0.361  17.585 -1.6872 -0.5848  0.0160
  663TMC3    C1 9807   4.421   0.143  17.569  0.8721  0.8302  0.2841
  663TMC3    C2 9808   4.413   0.211  17.689  0.1102 -0.4437 -0.2205
  663TMC3    C3 9809   4.298   0.222   0.057 -0.4341 -0.2822 -0.5445
  663TMC3    C4 9810   4.324   0.052  17.536 -0.1302 -0.2351  0.0669
  663TMC3    C5 9811   4.210   0.061  17.613  0.2923 -0.4549  0.2612
  663TMC3    C6 9812   4.189   0.159   0.009  0.1171 -0.4367  0.3058
  663TMC3     C 9813   4.498   0.206  17.462  0.2707  0.0245  0.1198
  663TMC3     O 9814   4.495   0.139  17.356  0.2355 -0.6945 -0.3279
  663TMC3     H 9815   4.493   0.275   0.023 -0.7169 -0.3231  1.3896
  663TMC3    H1 9816   4.343   4.701  17.461 -0.9210 -0.0013 -0.3699
  663TMC3    H2 9817   4.098   0.160   0.068 -0.7935  0.4482 -1.1172
  663TMC3    C7 9818   4.092   4.708  17.598 -0.1976  0.0516  0.3656
  663TMC3    C8 9819   4.280   0.360   0.085 -0.3880  0.4412 -0.4442
  663TMC3    O1 9820   3.989   0.002  17.663 -0.1519 -0.1674 -0.1574
  663TMC3    O2 9821   4.296   0.433  17.689  0.0872  0.1841 -0.0309
  664MPD2     C 9822   2.466   3.270  17.423  0.3104 -0.6459  0.1573
  664MPD2    C1 9823   2.585   3.335  17.432  0.9256  0.8608  0.2289
  664MPD2    C2 9824   2.672   3.289  17.531 -0.2644  0.1421 -0.0431
  664MPD2    C3 9825   2.644   3.177  17.610 -0.1694  1.2401 -0.2228
  664MPD2    C4 9826   2.517   3.124  17.607  0.0308  0.7369 -0.0984
  664MPD2    C5 9827   2.427   3.169  17.510  0.5658 -0.5516 -0.4162
  664MPD2     H 9828   2.765   3.341  17.547  0.4386 -1.3552  0.7493
  664MPD2    H1 9829   2.492   3.043  17.674 -0.5236  0.2956 -0.8374
  664MPD2    H2 9830   2.387   3.302  17.356  0.5037  1.7199  1.0773
  664MPD2    H3 9831   2.331   3.120  17.502  0.0227  0.2652  1.1038
  664MPD2     N 9832   2.744   3.150   0.004  0.3261 -0.2226 -0.2105
  664MPD2    H5 9833   2.820   3.216   0.019  1.5822 -1.5228 -0.8684
  664MPD2    N1 9834   2.630   3.439  17.353  0.5029 -0.3848 -0.3157
  664MPD2    H7 9835   2.722   3.476  17.375  0.5107 -0.5684 -0.0395
  665TMC3    C1 9836   2.847   3.055   0.199  0.2039 -0.8107 -0.1673
  665TMC3    C2 9837   2.820   2.995   0.321 -0.1837 -0.2244 -0.4242
  665TMC3    C3 9838   2.914   3.002   0.425  0.2223  0.5637 -0.0945
  665TMC3    C4 9839   2.967   3.121   0.177 -0.5884 -0.1685  0.0699
  665TMC3    C5 9840   3.049   3.126   0.286  0.3781 -0.4066 -0.3055
  665TMC3    C6 9841   3.031   3.059   0.406 -0.0755 -0.0396  0.2445
  665TMC3     C 9842   2.741   3.054   0.102  0.1266 -0.1241 -0.7215
  665TMC3     O 9843   2.655   2.972   0.120 -0.0841  0.0425  0.0050
  665TMC3     H 9844   2.721   2.952   0.338  0.2553 -1.7209 -1.6609
  665TMC3    H1 9845   2.996   3.188   0.097  2.6094 -0.6248  0.8353
  665TMC3    H2 9846   3.098   3.070   0.491  3.1436 -0.4242 -2.2311
  665TMC3    C7 9847   3.148   3.223   0.296 -0.0484 -0.9794 -0.0545
  665TMC3    C8 9848   2.883   2.982   0.564 -0.6981  0.1717  0.6796
  665TMC3    O1 9849   3.203   3.265   0.198  0.5114  0.7292 -0.3039
  665TMC3    O2 9850   2.973   2.982   0.647  0.2633 -0.2696 -0.0333
  666TMC3    C1 9851   1.957   2.844   9.827 -0.3998  0.2750  0.0394
  666TMC3    C2 9852   2.006   2.762   9.930  0.1174  0.0887  0.5365
  666TMC3    C3 9853   2.096   2.821  10.008  0.0702  0.9408  0.3142
  666TMC3    C4 9854   1.979   2.976   9.815 -0.2930  0.2100  0.0986
  666TMC3    C5 9855   2.063   3.027   9.904 -0.5341 -0.1745  0.0402
  666TMC3    C6 9856   2.119   2.947  10.000  0.3261  0.0495 -0.0444
  666TMC3     C 9857   1.917   2.770   9.707  0.0622 -0.4098 -0.2529
  666TMC3     O 9858   1.938   2.825   9.601 -0.2354  0.3075  0.0220
  666TMC3     H 9859   1.993   2.655   9.939 -0.1229  0.2707  2.4239
  666TMC3    H1 9860   1.942   3.029   9.728 -0.7508  1.3188  0.9675
  666TMC3    H2 9861   2.171   2.994  10.082 -0.2754  1.7780 -0.6477
  666TMC3    C7 9862   2.029   3.161   9.952  0.0649  0.4517 -0.0285
  666TMC3    C8 9863   2.176   2.744  10.101 -0.4333  0.3652 -0.2474
  666TMC3    O1 9864   2.026   3.181  10.073  0.7268 -0.7245  0.4064
  666TMC3    O2 9865   2.111   2.649  10.142  0.0449  0.2439 -0.7726
  667MPD2     C 9866   2.877   3.350  14.734 -0.1897 -0.0244 -0.1937
  667MPD2    C1 9867   2.830   3.328  14.861  0.7874 -0.4715  0.4184
  667MPD2    C2 9868   2.738   3.229  14.889  0.9809  0.1029  0.9287
  667MPD2    C3 9869   2.705   3.131  14.793  0.6406 -0.2215 -0.1257
  667MPD2    C4 9870   2.768   3.143  14.672  0.4366  0.5402 -0.1374
  667MPD2    C5 9871   2.845   3.256  14.637 -0.1466  0.0358  0.1653
  667MPD2     H 9872   2.680   3.240  14.980 -0.8220 -0.4831 -0.1471
  667MPD2    H1 9873   2.754   3.065  14.599 -0.1616 -0.4603  1.0594
  667MPD2    H2 9874   2.934   3.436  14.703  0.0402 -0.1733 -0.1862
  667MPD2    H3 9875   2.868   3.250  14.532  2.1975  0.9375  0.6187
  667MPD2     N 9876   2.612   3.020  14.814  0.2389  0.1216  0.1218
  667MPD2    H5 9877   2.601   2.957  14.735  1.9918 -0.1777  0.1330
  667MPD2    N1 9878   2.857   3.421  14.961  0.4225 -0.0025  0.6374
  667MPD2    H7 9879   2.801   3.411  15.045 -1.6121  0.3187 -0.6741
  668TMC3    C1 9880   2.974   3.578  15.086  0.9536  0.8579 -0.3563
  668TMC3    C2 9881   3.094   3.634  15.116 -0.4671  0.2639 -0.4658
  668TMC3    C3 9882   3.114   3.687  15.239 -0.0023  0.2432  0.9466
  668TMC3    C4 9883   2.870   3.587  15.179 -0.2381  0.2423  0.0162
  668TMC3    C5 9884   2.901   3.623  15.307 -0.3651 -0.0932 -0.1569
  668TMC3    C6 9885   3.030   3.666  15.339  0.6034 -0.2405  0.3059
  668TMC3     C 9886   2.968   3.504  14.962 -0.2657 -0.4201 -0.4155
  668TMC3     O 9887   3.066   3.503  14.884  0.3267  0.2885 -0.2442
  668TMC3     H 9888   3.174   3.639  15.042 -1.1123  0.0403 -1.1815
  668TMC3    H1 9889   2.770   3.564  15.143 -0.0054 -1.3367  0.3900
  668TMC3    H2 9890   3.062   3.680  15.442  0.9956  2.2200 -0.1470
  668TMC3    C7 9891   2.809   3.629  15.417 -0.2584 -0.9178 -0.6986
  668TMC3    C8 9892   3.251   3.717  15.270 -0.1237  0.1849 -0.5647
  668TMC3    O1 9893   2.858   3.682  15.517 -0.4503  0.1063 -0.3232
  668TMC3    O2 9894   3.294   3.678  15.375 -0.2673  0.2277 -0.1416
  669TMC3    C1 9895   1.145   3.323  14.447  0.2964 -0.0148  0.0764
  669TMC3    C2 9896   1.055   3.423  14.403  0.2215 -0.2483 -0.7237
  669TMC3    C3 9897   1.072   3.469  14.276  0.9508  0.1324  0.0294
  669TMC3    C4 9898   1.262   3.299  14.382 -1.0636 -0.5334  0.0319
  669TMC3    C5 9899   1.290   3.366  14.259  0.0820  0.0303 -0.9138
  669TMC3    C6 9900   1.189   3.439  14.198  0.2089  0.3417  0.0528
  669TMC3     C 9901   1.121   3.245  14.569 -0.1059 -0.7995 -0.2962
  669TMC3     O 9902   1.058   3.307  14.654  0.4966 -0.1671 -0.8436
  669TMC3     H 9903   0.972   3.445  14.469  1.0728  1.2867 -0.1728
  669TMC3    H1 9904   1.339   3.231  14.414  0.6284  0.5914 -1.6918
  669TMC3    H2 9905   1.206   3.485  14.102  0.0897  0.6482  0.1794
  669TMC3    C7 9906   1.428   3.409  14.227 -0.8870  0.0419  0.4282
  669TMC3    C8 9907   0.965   3.542  14.214 -0.1929  0.5458 -0.6734
  669TMC3    O1 9908   1.433   3.534  14.210 -0.0949  0.0621 -0.0132
  669TMC3    O2 9909   0.872   3.579  14.282 -0.2172 -0.0422 -0.0263
  670MPD2     C 9910   4.288   1.269  13.549 -0.7149 -0.1507 -0.6991
  670MPD2    C1 9911   4.409   1.214  13.586 -0.1038  0.4510  0.1104
  670MPD2    C2 9912   4.419   1.147  13.699  0.0019 -0.4744 -0.0560
  670MPD2    C3 9913   4.310   1.118  13.779  0.0746 -0.1067  0.3815
  670MPD2    C4 9914   4.182   1.155  13.726  0.0061  0.1214 -0.2263
  670MPD2    C5 9915   4.174   1.229  13.611 -1.0301  0.0694  0.1087
  670MPD2     H 9916   4.515   1.111  13.733 -0.8611 -1.5758  1.2745
  670MPD2    H1 9917   4.096   1.135  13.789  0.2531  3.0230  1.0683
  670MPD2    H2 9918   4.284   1.339  13.467  1.2517  1.4379  0.5661
  670MPD2    H3 9919   4.078   1.270  13.581 -0.3889  3.6304  2.9255
  670MPD2     N 9920   4.331   1.056  13.905  0.2242 -0.5884 -0.1774
  670MPD2    H5 9921   4.423   1.017  13.922  0.2676 -0.7441 -0.7715
  670MPD2    N1 9922   4.531   1.247  13.526  0.7739  0.3362 -0.1746
  670MPD2    H7 9923   4.619   1.221  13.569 -0.0711 -0.4781  1.0528
  671TMC3    C1 9924   4.252   0.914  14.088 -0.3373  0.1321 -0.9270
  671TMC3    C2 9925   4.338   0.817  14.052  0.5796  0.3439  0.1539
  671TMC3    C3 9926   4.348   0.714  14.145  0.1005  0.0830 -0.1959
  671TMC3    C4 9927   4.153   0.890  14.178  0.3891  0.5029 -0.1845
  671TMC3    C5 9928   4.152   0.772  14.257  0.3983  0.4191 -0.2096
  671TMC3    C6 9929   4.258   0.685  14.247 -0.0656 -0.7624  0.5505
  671TMC3     C 9930   4.223   1.020  13.993  0.0656  0.5983  0.2721
  671TMC3     O 9931   4.113   1.071  13.999  0.0172  0.3463  0.2596
  671TMC3     H 9932   4.417   0.843  13.982  1.3047 -1.7228  0.2116
  671TMC3    H1 9933   4.088   0.974  14.202  0.9737  0.8836  0.0689
  671TMC3    H2 9934   4.256   0.592  14.302 -0.3083 -0.6853  0.6741
  671TMC3    C7 9935   4.030   0.698  14.231  0.0598 -0.1242  0.2273
  671TMC3    C8 9936   4.459   0.622  14.130 -0.9066 -0.0775  0.7918
  671TMC3    O1 9937   4.034   0.576  14.215  0.3136  0.2822 -0.2824
  671TMC3    O2 9938   4.471   0.586  14.016 -0.0006 -0.4897 -0.7015
  672MPD2     C 9939   0.074   1.125   0.877 -0.4272 -0.0012 -0.7136
  672MPD2    C1 9940   0.203   1.151   0.847 -0.4159 -0.0061  0.8719
  672MPD2    C2 9941   0.302   1.173   0.948  0.9784 -0.5926  0.2162
  672MPD2    C3 9942   0.266   1.194   1.073  1.2968  0.1194 -0.3003
  672MPD2    C4 9943   0.131   1.195   1.105 -0.1135  0.4753 -0.3028
  672MPD2    C5 9944   0.039   1.147   1.008 -0.1315 -0.1238  0.1033
  672MPD2     H 9945   0.403   1.194   0.912 -0.1809  1.8730 -1.5987
  672MPD2    H1 9946   0.110   1.192   1.211 -0.6292 -1.0903 -0.4380
  672MPD2    H2 9947   0.002   1.088   0.805 -0.4307 -1.9046  0.2840
  672MPD2    H3 9948   4.669   1.109   1.045 -1.1259  0.8133 -1.4782
  672MPD2     N 9949   0.355   1.233   1.175  0.2661  0.1340  0.3634
  672MPD2    H5 9950   0.315   1.256   1.266  0.3452 -1.0936  0.7121
  672MPD2    N1 9951   0.247   1.125   0.713  0.2356  0.0792 -0.2016
  672MPD2    H7 9952   0.347   1.112   0.704 -0.0112 -1.6013 -0.5594
  673TMC3    C1 9953   0.252   1.148   0.481 -0.3567 -0.2572 -0.0380
  673TMC3    C2 9954   0.366   1.075   0.483 -0.3435 -0.4981  0.2671
  673TMC3    C3 9955   0.444   1.095   0.364 -0.7672  0.3350 -0.3854
  673TMC3    C4 9956   0.202   1.223   0.378  0.0637 -0.5000  0.6411
  673TMC3    C5 9957   0.281   1.240   0.267 -0.3247  0.0651 -0.1406
  673TMC3    C6 9958   0.396   1.176   0.258 -0.4660  0.6578 -0.0478
  673TMC3     C 9959   0.171   1.147   0.601  0.3887 -0.0751 -0.2865
  673TMC3     O 9960   0.054   1.178   0.591 -0.4290 -0.6870 -0.3933
  673TMC3     H 9961   0.392   0.997   0.553 -2.7410 -0.0610  1.6454
  673TMC3    H1 9962   0.106   1.271   0.391  0.8486  1.4789 -0.8798
  673TMC3    H2 9963   0.456   1.187   0.168  1.2975 -0.7878  0.9496
  673TMC3    C7 9964   0.220   1.307   0.151  0.2879  0.6144 -0.2472
  673TMC3    C8 9965   0.533   0.990   0.329 -0.4888  0.1330  0.8238
  673TMC3    O1 9966   0.287   1.297   0.047 -0.1779 -0.1775  0.0576
  673TMC3    O2 9967   0.548   0.964   0.209 -0.1457 -0.6601 -0.2647
  674MPD2     C 9968   4.178   1.508  17.654  0.9628 -0.3836 -0.0298
  674MPD2    C1 9969   4.220   1.406   0.030 -0.0868 -0.3357  0.9817
  674MPD2    C2 9970   4.152   1.382   0.144  0.4001  0.1708  0.0829
  674MPD2    C3 9971   4.028   1.448   0.168 -0.1738  1.1388 -0.4993
  674MPD2    C4 9972   3.979   1.541   0.076  0.5662  0.2110 -0.3706
  674MPD2    C5 9973   4.054   1.571  17.668 -0.2033 -0.4861 -0.6423
  674MPD2     H 9974   4.195   1.321   0.223 -2.1877 -2.2774 -0.4258
  674MPD2    H1 9975   3.893   1.604   0.096  0.2012 -0.6588  0.8335
  674MPD2    H2 9976   4.236   1.545  17.570  0.5456  1.7416  0.6195
  674MPD2    H3 9977   4.025   1.642  17.591 -0.7982  1.0822  1.0497
  674MPD2     N 9978   3.970   1.426   0.293 -0.1744 -0.7575  0.3501
  674MPD2    H5 9979   4.021   1.368   0.359 -1.1431 -2.8492 -0.7412
  674MPD2    N1 9980   4.335   1.342  17.685 -0.6608  0.6039  0.4531
  674MPD2    H7 9981   4.391   1.384  17.611 -1.3236  1.8405  0.6594
  675TMC3    C1 9982   4.511   1.186  17.672 -0.3681 -0.2566  0.6910
  675TMC3    C2 9983   4.586   1.097   0.039  0.2124  0.5201 -0.2465
  675TMC3    C3 9984   4.711   1.070  17.692 -0.1570 -0.1773 -0.5609
  675TMC3    C4 9985   4.550   1.242  17.555  0.3846 -0.0796  0.3461
  675TMC3    C5 9986   4.679   1.211  17.508  0.7702 -0.0487 -0.2693
  675TMC3    C6 9987   0.038   1.124  17.576  0.4153  0.2081  0.3042
  675TMC3     C 9988   4.388   1.229   0.038 -0.2948 -0.2613  0.0623
  675TMC3     O 9989   4.336   1.145   0.113  0.2273 -0.5745 -0.0638
  675TMC3     H 9990   4.546   1.041   0.123 -0.2186  1.7702  0.3812
  675TMC3    H1 9991   4.483   1.305  17.497  0.8218  0.8912  0.8849
  675TMC3    H2 9992   0.134   1.094  17.537 -0.7408 -2.1397 -0.6914
  675TMC3    C7 9993   0.019   1.292  17.400  0.0015 -0.0632 -1.0963
  675TMC3    C8 9994   0.075   0.974   0.058 -0.4317  0.6150 -0.3163
  675TMC3    O1 9995   0.142   1.294  17.398  0.6228  0.0938  0.2951
  675TMC3    O2 9996   0.177   0.945   0.001  0.2731  0.1192 -0.8477
  676MPD2     C 9997   2.537   4.362  11.183  0.0986 -0.1154 -0.0755
  676MPD2    C1 9998   2.418   4.306  11.216  0.1377 -0.3765  0.4664
  676MPD2    C2 9999   2.387   4.187  11.160 -0.2920 -0.0068 -0.1346
  676MPD2    C310000   2.466   4.117  11.075 -0.2237  0.1009 -0.1329
  676MPD2    C410001   2.584   4.172  11.033  0.5366  0.7357 -0.0222
  676MPD2    C510002   2.620   4.297  11.087  0.3154 -0.3962 -0.2001
  676MPD2     H10003   2.293   4.138  11.182 -0.3862  1.0005  1.7301
  676MPD2    H110004   2.659   4.118  10.977 -0.7574 -0.8629 -0.2165
  676MPD2    H210005   2.570   4.454  11.229  0.9071  0.5285 -1.9196
  676MPD2    H310006   2.713   4.345  11.059  0.0635 -0.7058 -1.5711
  676MPD2     N10007   2.444   3.987  11.031 -0.1865  0.0743 -0.7305
  676MPD2    H510008   2.500   3.956  10.952  0.0946  0.4187 -0.6668
  676MPD2    N110009   2.324   4.361  11.305  0.1177  0.3019 -0.0120
  676MPD2    H710010   2.243   4.302  11.322 -0.9475  1.4576 -1.0522
  677TMC3    C110011   2.244   4.484  11.485 -0.0712 -0.4830  0.0706
  677TMC3    C210012   2.159   4.375  11.512 -0.6954  0.7964 -0.1682
  677TMC3    C310013   2.101   4.369  11.632  0.0660 -0.3294 -0.7789
  677TMC3    C410014   2.277   4.573  11.588 -0.2234 -0.3497 -0.2675
  677TMC3    C510015   2.215   4.549  11.712  0.0721 -0.4894 -0.2223
  677TMC3    C610016   2.124   4.447  11.735  0.0095 -0.7970 -0.5555
  677TMC3     C10017   2.345   4.467  11.391 -0.1486  0.0217 -0.7495
  677TMC3     O10018   2.450   4.532  11.403 -0.3380  0.3385 -0.1672
  677TMC3     H10019   2.125   4.309  11.433  1.5417 -1.0414  0.3874
  677TMC3    H110020   2.336   4.661  11.565 -1.9834  1.1908  1.1808
  677TMC3    H210021   2.086   4.412  11.830  1.9001 -1.3039  0.0065
  677TMC3    C710022   2.299   4.571  11.827 -0.1010  0.2898  0.1017
  677TMC3    C810023   2.047   4.243  11.658 -0.0554  0.8669  1.4152
  677TMC3    O110024   2.269   4.519  11.935  0.1607  0.4794 -0.3217
  677TMC3    O210025   1.971   4.212  11.565  0.0063 -0.1901  0.0988
  678MPD2     C10026   3.669   4.267   1.592  0.3902 -0.0168  0.2293
  678MPD2    C110027   3.717   4.274   1.466 -0.4497 -0.3021 -0.3233
  678MPD2    C210028   3.636   4.243   1.359  0.2710 -0.8272  0.5623
  678MPD2    C310029   3.514   4.183   1.380 -0.5785  0.5175 -0.0840
  678MPD2    C410030   3.469   4.162   1.508  0.1999  0.5986 -0.0719
  678MPD2    C510031   3.545   4.205   1.617  0.0275  0.0593 -0.5630
  678MPD2     H10032   3.674   4.253   1.258 -1.1866  0.0916  0.1116
  678MPD2    H110033   3.377   4.108   1.528  0.2802  0.7565  0.7325
  678MPD2    H210034   3.722   4.275   1.686  0.3532  1.0850  0.1567
  678MPD2    H310035   3.511   4.185   1.718 -0.4902  0.4408 -0.6614
  678MPD2     N10036   3.442   4.154   1.265 -0.4868  0.1442  0.4374
  678MPD2    H510037   3.475   4.177   1.172 -0.0076 -0.8964  0.3608
  678MPD2    N110038   3.847   4.327   1.434 -0.4899 -0.2860 -0.0750
  678MPD2    H710039   3.879   4.325   1.338 -0.8031 -1.6835 -0.1430
  679TMC3    C110040   4.248   4.373   1.359 -0.5806 -0.1946 -1.3332
  679TMC3    C210041   4.133   4.330   1.420 -0.0252  0.2381  0.3884
  679TMC3    C310042   4.060   4.427   1.473  0.3056  0.0238 -0.1456
  679TMC3    C410043   4.291   4.499   1.353  0.8286  0.3925 -0.6683
  679TMC3    C510044   4.214   4.596   1.421  0.5881 -0.0462 -0.4194
  679TMC3    C610045   4.090   4.555   1.470  0.3584  0.4156 -0.3003
  679TMC3     C10046   4.304   4.269   1.282 -0.3687  0.1457 -0.1911
  679TMC3     O10047   4.303   4.161   1.341 -0.3678 -0.0357  0.0272
  679TMC3     H10048   4.098   4.228   1.419  1.8067 -0.4212  2.2917
  679TMC3    H110049   4.385   4.520   1.304  1.8487 -0.7430  0.7962
  679TMC3    H210050   4.013   4.618   1.515  0.4185  0.3522 -0.1103
  679TMC3    C710051   4.247   0.010   1.407 -0.5629  0.8844 -0.1418
  679TMC3    C810052   3.925   4.401   1.519  0.4446  0.2826 -0.2539
  679TMC3    O110053   4.322   0.046   1.319 -0.6415  0.0473  1.2012
  679TMC3    O210054   3.896   4.453   1.623 -0.4981 -0.0549 -0.4349
  680MPD2     C10055   3.483   2.664  13.230  0.5272  0.2348 -0.5186
  680MPD2    C110056   3.530   2.656  13.357  0.0279  0.1808 -0.1925
  680MPD2    C210057   3.634   2.738  13.396  0.1596  0.4122  0.2657
  680MPD2    C310058   3.685   2.844  13.321  0.6122 -0.4529  0.4751
  680MPD2    C410059   3.632   2.859  13.194  0.3929  0.3534  0.3017
  680MPD2    C510060   3.544   2.764  13.152 -0.0537  0.3765 -0.1012
  680MPD2     H10061   3.662   2.725  13.500 -0.3396 -0.5806  0.2802
  680MPD2    H110062   3.673   2.932  13.125 -1.3264  1.2875  0.2752
  680MPD2    H210063   3.403   2.604  13.189  0.6714  0.7487 -1.5498
  680MPD2    H310064   3.507   2.777  13.050  0.6754  0.4553 -0.3537
  680MPD2     N10065   3.804   2.913  13.364 -0.1670 -0.4070  0.6353
  680MPD2    H510066   3.831   2.988  13.302  1.8467 -0.3024  1.6323
  680MPD2    N110067   3.492   2.562  13.449  0.0375 -0.2874 -0.2213
  680MPD2    H710068   3.526   2.575  13.544 -1.6895 -2.3632  0.6805
  681TMC3    C110069   3.448   2.358  13.529 -0.5686 -0.9160 -0.3687
  681TMC3    C210070   3.435   2.436  13.643 -0.3411  0.5486  0.8083
  681TMC3    C310071   3.533   2.424  13.742 -0.0866 -0.0552  0.2528
  681TMC3    C410072   3.564   2.276  13.518 -0.3160  0.1716 -0.0813
  681TMC3    C510073   3.658   2.271  13.620 -0.3824  0.2497  0.7347
  681TMC3    C610074   3.638   2.341  13.737 -0.3609 -0.3973  0.4212
  681TMC3     C10075   3.432   2.448  13.415 -0.1160 -0.8397 -0.3180
  681TMC3     O10076   3.404   2.402  13.306  0.0879  0.1953 -0.2957
  681TMC3     H10077   3.359   2.513  13.653 -1.6321 -0.3733 -1.7441
  681TMC3    H110078   3.586   2.215  13.431 -2.3615  1.3044 -1.3843
  681TMC3    H210079   3.707   2.334  13.821  0.7147  4.1746 -0.1263
  681TMC3    C710080   3.800   2.214  13.606 -0.2706 -0.0164  0.0513
  681TMC3    C810081   3.543   2.553  13.809 -0.0691 -0.0442  0.0161
  681TMC3    O110082   3.865   2.195  13.708  0.0027  0.2178 -0.2621
  681TMC3    O210083   3.492   2.650  13.755 -0.0897  0.5869 -0.1441
  682MPD2     C10084   1.619   4.286  10.663 -0.4178  0.0237 -0.6540
  682MPD2    C110085   1.545   4.170  10.693  0.1511 -0.1218  0.4228
  682MPD2    C210086   1.455   4.184  10.800 -0.0212 -1.2523  0.2339
  682MPD2    C310087   1.439   4.304  10.863 -0.0434 -0.5084  0.8083
  682MPD2    C410088   1.508   4.415  10.822  1.0385  0.0995  0.6676
  682MPD2    C510089   1.597   4.403  10.721 -0.5314 -0.6813  1.0818
  682MPD2     H10090   1.395   4.097  10.821 -1.1296 -0.2412  1.2473
  682MPD2    H110091   1.482   4.510  10.866 -0.3035  0.6088 -1.2184
  682MPD2    H210092   1.704   4.281  10.596  0.6147 -1.6545  0.7845
  682MPD2    H310093   1.653   4.491  10.691  0.6610 -1.5646  0.7138
  682MPD2     N10094   1.341   4.316  10.967  0.4272  0.5890 -0.1357
  682MPD2    H510095   1.332   4.409  11.008 -1.9728 -0.1673  1.0615
  682MPD2    N110096   1.557   4.050  10.618  0.5021 -0.4288  0.2091
  682MPD2    H710097   1.489   3.978  10.638  0.3385 -0.8988 -1.9504
  683TMC3    C110098   1.123   4.327  11.345 -0.4513  0.1121  0.0180
  683TMC3    C210099   1.012   4.250  11.344 -0.0629  0.0267 -0.1380
  683TMC3    C310100   0.983   4.186  11.229 -0.5410 -0.7266 -0.5327
  683TMC3    C410101   1.210   4.341  11.234 -0.4912 -0.4808  0.3679
  683TMC3    C510102   1.171   4.269  11.118  0.1932  0.0963 -0.9397
  683TMC3    C610103   1.057   4.197  11.118 -0.2484 -0.0775 -0.3585
  683TMC3     C10104   1.174   4.344  11.479 -0.0672 -0.7499  0.7230
  683TMC3     O10105   1.106   4.346  11.580 -0.2708 -0.1319 -0.6296
  683TMC3     H10106   0.956   4.229  11.434  3.1905 -1.1272  1.6148
  683TMC3    H110107   1.293   4.411  11.237 -0.2537 -0.6815 -1.5695
  683TMC3    H210108   1.021   4.152  11.027  1.1326 -4.1404  1.1190
  683TMC3    C710109   1.264   4.223  11.022 -0.1793 -0.4203  0.1510
  683TMC3    C810110   0.971   4.050  11.268  0.1758 -1.1669 -0.3408
  683TMC3    O110111   1.255   4.100  11.005 -0.2981 -0.3202  0.8873
  683TMC3    O210112   0.890   4.017  11.347 -0.3816 -0.4327 -0.4244
  684MPD2     C10113   3.783   4.357  15.848  0.0642  0.5327  0.1457
  684MPD2    C110114   3.918   4.319  15.846 -0.2163  0.0804  0.0100
  684MPD2    C210115   4.013   4.421  15.820  0.2889 -0.0858  0.4133
  684MPD2    C310116   3.967   4.552  15.810 -0.2496  0.2105 -0.6296
  684MPD2    C410117   3.834   4.586  15.816 -0.1722 -0.4831  0.1424
  684MPD2    C510118   3.748   4.485  15.836 -0.7545 -0.0803 -0.2359
  684MPD2     H10119   4.117   4.393  15.809  0.3070  0.1713 -0.0489
  684MPD2    H110120   3.799   4.689  15.817  1.0308 -0.0777  2.2570
  684MPD2    H210121   3.708   4.279  15.853  1.2907 -0.5577  1.3807
  684MPD2    H310122   3.645   4.519  15.831 -0.5260  0.9733  1.9673
  684MPD2     N10123   4.069   4.645  15.804  0.4747 -0.4892  0.3419
  684MPD2    H510124   4.040   0.013  15.777  0.6870 -0.8079 -0.9895
  684MPD2    N110125   3.967   4.187  15.871  0.3759 -0.2457  0.2080
  684MPD2    H710126   4.069   4.182  15.867  0.1885 -3.5974 -0.8238
  685TMC3    C110127   3.947   3.949  15.897  0.2449 -0.3824  0.1596
  685TMC3    C210128   3.864   3.840  15.887 -0.6248  0.6173  0.1217
  685TMC3    C310129   3.923   3.723  15.872  0.0229  0.0653 -0.1833
  685TMC3    C410130   4.078   3.941  15.908 -0.9473  0.0844 -0.3581
  685TMC3    C510131   4.130   3.813  15.893 -0.3146 -0.2946  0.4034
  685TMC3    C610132   4.057   3.702  15.870  0.2555  0.1343  0.8161
  685TMC3     C10133   3.884   4.080  15.895  0.0750 -0.3023  0.7489
  685TMC3     O10134   3.765   4.087  15.935 -0.7459  0.5271  0.0923
  685TMC3     H10135   3.756   3.853  15.895 -0.8149  0.1613 -1.5589
  685TMC3    H110136   4.138   4.031  15.916  1.5355 -1.5180 -0.8110
  685TMC3    H210137   4.094   3.612  15.821 -0.9926  0.9529 -1.6085
  685TMC3    C710138   4.270   3.807  15.915  0.9033  0.8161  0.3376
  685TMC3    C810139   3.851   3.595  15.884 -0.1983 -0.3909  1.0048
  685TMC3    O110140   4.346   3.758  15.835 -0.4052  0.3835  0.0901
  685TMC3    O210141   3.919   3.495  15.875  0.1401  0.1089  0.0259
  686MPD2     C10142   0.727   3.451  15.472 -0.3654  0.5596 -0.0548
  686MPD2    C110143   0.682   3.579  15.504  0.1686  0.2071 -0.7074
  686MPD2    C210144   0.765   3.670  15.562 -0.2898 -0.1481  0.2386
  686MPD2    C310145   0.896   3.633  15.592 -0.5980 -0.3931  0.4423
  686MPD2    C410146   0.945   3.511  15.546  0.0541  0.2858 -0.1981
  686MPD2    C510147   0.856   3.422  15.494 -0.4469 -0.2865 -0.1591
  686MPD2     H10148   0.731   3.769  15.589 -0.1679  0.2000 -0.9173
  686MPD2    H110149   1.052   3.496  15.556 -0.3816 -2.2230  0.7059
  686MPD2    H210150   0.658   3.373  15.442 -0.2283 -0.1138  1.4066
  686MPD2    H310151   0.880   3.318  15.471 -1.5509 -0.5033 -0.3341
  686MPD2     N10152   0.990   3.719  15.648  0.3858  0.1852  0.7984
  686MPD2    H510153   1.086   3.685  15.656 -0.4048 -2.1754  0.4064
  686MPD2    N110154   0.551   3.619  15.477  0.0924 -0.1333  0.1188
  686MPD2    H710155   0.504   3.554  15.414 -1.2599  0.8165  0.1436
  687TMC3    C110156   1.063   3.911  15.784  0.2462 -0.1242  0.1945
  687TMC3    C210157   1.067   4.052  15.774  0.5176 -0.1030  0.0020
  687TMC3    C310158   1.173   4.115  15.832  0.1906 -0.2096 -0.4543
  687TMC3    C410159   1.164   3.835  15.836 -0.7583  1.1953 -0.3631
  687TMC3    C510160   1.272   3.909  15.891 -0.6009  0.6961 -0.2159
  687TMC3    C610161   1.279   4.046  15.886 -0.6828 -0.1265  0.1000
  687TMC3     C10162   0.959   3.840  15.707  0.9587  0.1341  0.1894
  687TMC3     O10163   0.862   3.911  15.685  0.1239  0.6052  0.0136
  687TMC3     H10164   0.997   4.107  15.712 -1.7696 -1.3225  1.5313
  687TMC3    H110165   1.158   3.731  15.865  0.7736  0.8402 -1.3024
  687TMC3    H210166   1.377   4.087  15.908 -1.3602  2.1483 -1.1121
  687TMC3    C710167   1.365   3.842  15.971 -0.4561 -0.4344  0.0516
  687TMC3    C810168   1.223   4.243  15.771  0.6226 -0.0729  0.3831
  687TMC3    O110169   1.434   3.904  16.051  0.3731 -0.0336 -0.5016
  687TMC3    O210170   1.341   4.269  15.780 -0.0919 -0.0674 -0.2084
  688MPD2     C10171   4.451   2.846  17.289 -0.1173 -0.7194 -0.4522
  688MPD2    C110172   4.513   2.724  17.264 -0.4003  0.2107  0.2918
  688MPD2    C210173   4.613   2.714  17.168 -0.4674 -0.7320  0.7967
  688MPD2    C310174   4.639   2.816  17.083  0.0050 -0.7597  0.0505
  688MPD2    C410175   4.576   2.939  17.107 -0.6096 -0.2802 -0.1232
  688MPD2    C510176   4.483   2.951  17.211  0.4843  0.2083 -0.4594
  688MPD2     H10177   4.678   2.627  17.168 -0.0384 -0.4054  1.1774
  688MPD2    H110178   4.590   3.033  17.056 -0.1548 -0.9387 -1.2222
  688MPD2    H210179   4.383   2.866  17.370  1.0427  1.2241  0.0418
  688MPD2    H310180   4.436   3.045  17.237 -0.9080 -0.9004  1.0624
  688MPD2     N10181   0.017   2.809  16.984 -0.0527 -0.1858  0.1151
  688MPD2    H510182   0.023   2.889  16.922 -2.4400 -0.5804 -0.6006
  688MPD2    N110183   4.509   2.624  17.360 -0.6611 -0.1828 -0.1004
  688MPD2    H710184   4.566   2.541  17.352  0.4165  0.4332  1.4616
  689TMC3    C110185   4.442   2.491  17.534 -1.0076 -0.5659  0.8154
  689TMC3    C210186   4.405   2.480  17.665  0.2208 -0.8313  0.2521
  689TMC3    C310187   4.406   2.354   0.014 -0.1855 -0.4529  0.0784
  689TMC3    C410188   4.465   2.390  17.449  0.4286  0.8689 -0.1434
  689TMC3    C510189   4.436   2.267  17.503 -0.4665 -0.0093 -0.8723
  689TMC3    C610190   4.413   2.247  17.632  0.0185 -0.1689 -0.3201
  689TMC3     C10191   4.442   2.628  17.480  0.0063 -0.0159 -1.1523
  689TMC3     O10192   4.367   2.709  17.535  0.1476  0.0706 -0.0480
  689TMC3     H10193   4.379   2.573   0.013  2.2915  0.7252 -1.5487
  689TMC3    H110194   4.507   2.390  17.350 -1.2003  0.3792 -0.8255
  689TMC3    H210195   4.400   2.145  17.666  0.2869  0.7209  2.4136
  689TMC3    C710196   4.474   2.153  17.416  0.4670  0.0002 -0.3121
  689TMC3    C810197   4.417   2.337   0.161  0.4580 -0.7448 -0.0529
  689TMC3    O110198   4.580   2.171  17.359  0.4327  0.3408  0.0251
  689TMC3    O210199   4.416   2.223   0.212  0.3471  0.3967  0.5951
  690MPD2     C10200   2.634   4.672  15.644  0.1849 -0.1708  0.7356
  690MPD2    C110201   2.599   4.642  15.510 -0.5562  0.4737  0.2816
  690MPD2    C210202   2.695   4.588  15.432 -0.1360  0.2169  0.8261
  690MPD2    C310203   2.822   4.564  15.478  0.2241 -0.0506 -0.5361
  690MPD2    C410204   2.856   4.607  15.610  0.5095  0.2883  0.0826
  690MPD2    C510205   2.758   4.654  15.688  0.1020  0.3546 -0.2085
  690MPD2     H10206   2.672   4.579  15.327  1.8590 -0.1118  0.4295
  690MPD2    H110207   2.956   4.613  15.649  0.0404 -1.3247  1.5457
  690MPD2    H210208   2.568   4.712  15.720 -0.5955  0.4577 -0.2739
  690MPD2    H310209   2.776   4.681  15.791  0.6430 -0.4100 -0.0953
  690MPD2     N10210   2.927   4.506  15.398  0.1185 -0.5518 -0.4392
  690MPD2    H510211   2.915   4.500  15.297  0.8139 -1.8617 -0.4372
  690MPD2    N110212   2.473   4.653  15.456  0.5685 -0.3977 -0.5277
  690MPD2    H710213   2.461   4.623  15.360  0.9627 -0.4668 -0.5573
  691TMC3    C110214   2.251   0.007  15.426 -0.5134  0.0362 -0.2526
  691TMC3    C210215   2.147   0.053  15.493 -0.3849 -0.0976 -0.5457
  691TMC3    C310216   2.019   0.016  15.464  0.0550 -0.0503  0.6768
  691TMC3    C410217   2.229   4.641  15.325 -0.2197  0.1664 -0.3003
  691TMC3    C510218   2.101   4.599  15.297  0.0097 -0.7442 -0.3355
  691TMC3    C610219   1.993   4.649  15.365  0.2466 -0.4978  0.3022
  691TMC3     C10220   2.368   0.000  15.512 -0.0984 -0.2831 -0.1494
  691TMC3     O10221   2.357   0.043  15.628 -0.1827  0.0768  0.0148
  691TMC3     H10222   2.162   0.138  15.558 -1.0374  0.1530 -0.7275
  691TMC3    H110223   2.314   4.611  15.265 -0.0011  1.6326 -0.7206
  691TMC3    H210224   1.895   4.615  15.336 -0.3652  0.2805  1.4645
  691TMC3    C710225   2.071   4.479  15.231 -0.9551  0.2718 -0.4662
  691TMC3    C810226   1.904   0.057  15.541 -0.5056 -0.4654  0.2643
  691TMC3    O110227   2.119   4.455  15.124  0.2998  0.1700 -0.1240
  691TMC3    O210228   1.794   0.030  15.497 -0.4084 -0.0909 -0.1352
  692TMC3    C110229   3.851   0.934  16.079 -0.4290 -0.2885 -0.3844
  692TMC3    C210230   3.976   0.930  16.130 -0.1261 -0.5192  0.5709
  692TMC3    C310231   4.075   0.942  16.038 -0.4536  0.4372  0.5793
  692TMC3    C410232   3.823   0.959  15.946  0.4327 -0.1640  0.2970
  692TMC3    C510233   3.922   0.974  15.858 -0.2542  0.5779  0.0748
  692TMC3    C610234   4.048   0.958  15.903  0.0968  0.3005 -0.3669
  692TMC3     C10235   3.754   0.988  16.169 -0.3855  0.2921  0.0959
  692TMC3     O10236   3.635   0.988  16.135  0.4068 -0.1377 -0.0448
  692TMC3     H10237   4.000   0.922  16.236 -3.8145 -0.6666  1.4323
  692TMC3    H110238   3.720   0.965  15.910  0.1168  0.2551  1.2708
  692TMC3    H210239   4.131   0.995  15.843  0.3975 -2.3258 -1.5352
  692TMC3    C710240   3.896   0.894  15.746  0.2714 -0.3093 -0.0791
  692TMC3    C810241   4.176   0.837  16.025  0.7077 -0.2591 -0.5292
  692TMC3    O110242   3.780   0.896  15.708 -0.0336 -0.3284  0.2775
  692TMC3    O210243   4.208   0.804  15.912  0.8658  0.6356 -0.2415
  693MPD2     C10244   3.564   3.450  10.786 -0.0059  0.6134 -0.2479
  693MPD2    C110245   3.551   3.327  10.727  0.1801 -0.5865 -0.0477
  693MPD2    C210246   3.661   3.249  10.746 -0.3666 -0.5849  0.0938
  693MPD2    C310247   3.781   3.284  10.805  0.6970  0.2288  0.8011
  693MPD2    C410248   3.794   3.412  10.849  0.6897 -0.4159  0.3639
  693MPD2    C510249   3.684   3.491  10.839 -0.0610  0.1660 -0.5956
  693MPD2     H10250   3.657   3.143  10.722 -0.7453 -0.9342  1.7186
  693MPD2    H110251   3.881   3.452  10.899  0.0747  0.8607  0.4185
  693MPD2    H210252   3.485   3.525  10.781 -0.9512 -0.2930  1.1892
  693MPD2    H310253   3.700   3.592  10.878  1.0305  0.0750 -0.8162
  693MPD2     N10254   3.891   3.201  10.834  0.4015 -0.6887  0.2169
  693MPD2    H510255   3.956   3.228  10.907  0.3672  1.2951 -0.4935
  693MPD2    N110256   3.435   3.289  10.671  0.3001 -0.0869 -0.0108
  693MPD2    H710257   3.357   3.352  10.685  0.1427 -0.3137  0.1395
  694TMC3    C110258   3.272   3.123  10.643  0.4512 -0.3472 -1.0178
  694TMC3    C210259   3.235   3.021  10.572 -0.5819  0.3925 -0.3478
  694TMC3    C310260   3.129   2.950  10.622 -0.1014  0.0328 -0.5005
  694TMC3    C410261   3.229   3.154  10.768  0.2597 -0.4974  0.5898
  694TMC3    C510262   3.147   3.057  10.822 -0.0611 -0.2419  1.2514
  694TMC3    C610263   3.098   2.948  10.756  0.2183 -0.1323  0.3001
  694TMC3     C10264   3.408   3.165  10.616  0.1923 -0.3270  0.2821
  694TMC3     O10265   3.488   3.094  10.554  0.0347 -0.9147 -0.4686
  694TMC3     H10266   3.284   2.985  10.482  1.1369  0.4275  0.5715
  694TMC3    H110267   3.285   3.216  10.837 -0.2513  1.0265 -0.3727
  694TMC3    H210268   3.012   2.894  10.793  1.2681 -1.5933  0.5856
  694TMC3    C710269   3.140   3.058  10.964  0.1579 -0.1052  0.4720
  694TMC3    C810270   3.065   2.840  10.539 -0.2504  0.5897  0.2800
  694TMC3    O110271   3.141   3.170  11.014 -0.0243  0.8725  0.1301
  694TMC3    O210272   2.983   2.766  10.598  0.3615 -0.0257  1.2329
  695MPD2     C10273   4.481   0.452  13.316 -0.3960  0.1471  0.5177
  695MPD2    C110274   4.441   0.385  13.429 -1.4351  0.7896  0.7366
  695MPD2    C210275   4.307   0.395  13.460 -0.4389  0.2536 -0.0023
  695MPD2    C310276   4.215   0.462  13.383 -0.7434 -0.0187 -0.0464
  695MPD2    C410277   4.253   0.515  13.258 -0.0602 -0.8650 -0.2664
  695MPD2    C510278   4.394   0.520  13.236 -0.5926 -0.1192 -0.0505
  695MPD2     H10279   4.272   0.353  13.554 -1.7770  2.7475  0.6210
  695MPD2    H110280   4.193   0.565  13.183 -0.2667  0.6656  0.9171
  695MPD2    H210281   4.581   0.438  13.275 -0.3822  0.7276  0.3483
  695MPD2    H310282   4.424   0.565  13.143  1.5716  1.1785  1.2727
  695MPD2     N10283   4.081   0.457  13.439  0.5339 -0.0508  0.5649
  695MPD2    H510284   4.067   0.404  13.525 -0.0529  1.7314  1.5633
  695MPD2    N110285   4.528   0.307  13.510  0.2186 -0.1577  0.3853
  695MPD2    H710286   4.496   0.282  13.603  0.7781  2.1694  1.2002
  696TMC3    C110287   3.850   0.492  13.456  0.2273 -0.3561  0.0825
  696TMC3    C210288   3.849   0.447  13.587  0.2349  0.4776  0.2941
  696TMC3    C310289   3.741   0.456  13.666  0.1133 -0.2322  0.4994
  696TMC3    C410290   3.743   0.562  13.407 -0.3429  0.1791  0.7840
  696TMC3    C510291   3.636   0.576  13.492  0.3146  0.1138  0.6952
  696TMC3    C610292   3.629   0.516  13.616 -0.3077  0.0119 -0.6393
  696TMC3     C10293   3.973   0.500  13.369 -1.6442  0.6016 -0.0669
  696TMC3     O10294   3.958   0.544  13.256  0.0546  0.3150 -0.3124
  696TMC3     H10295   3.945   0.411  13.622  0.7108 -0.0985 -1.6011
  696TMC3    H110296   3.751   0.613  13.312  3.1854 -0.6813  0.6085
  696TMC3    H210297   3.535   0.527  13.669  1.3889 -0.0045  2.4079
  696TMC3    C710298   3.570   0.705  13.494  0.3471  0.5454 -0.2984
  696TMC3    C810299   3.777   0.486  13.811 -0.0278  0.1982  0.4973
  696TMC3    O110300   3.472   0.731  13.432  0.2744  0.6498 -0.0058
  696TMC3    O210301   3.894   0.477  13.841 -0.1371 -0.3391  0.8817
  697MPD2     C10302   2.907   2.467  15.560  0.5119  0.6484  0.9030
  697MPD2    C110303   3.017   2.412  15.500 -0.0442  0.1159 -0.1964
  697MPD2    C210304   3.090   2.493  15.413 -0.5291 -0.2110  0.0118
  697MPD2    C310305   3.069   2.630  15.406  0.2654  0.8749 -0.1052
  697MPD2    C410306   2.964   2.691  15.474  0.4563  0.1910 -0.0025
  697MPD2    C510307   2.883   2.608  15.543  0.5452 -0.8805 -0.4488
  697MPD2     H10308   3.159   2.440  15.347 -1.8108 -2.3334  0.3834
  697MPD2    H110309   2.941   2.797  15.460 -0.6185 -0.1272 -0.6364
  697MPD2    H210310   2.837   2.419  15.627  0.2559 -0.2060  0.0167
  697MPD2    H310311   2.791   2.646  15.587  0.9836  0.9775 -1.1518
  697MPD2     N10312   3.147   2.694  15.307  0.1659 -0.0131  0.5616
  697MPD2    H510313   3.191   2.632  15.239 -1.7563  0.2675 -0.9555
  697MPD2    N110314   3.060   2.278  15.512  0.2119 -0.4215 -0.1545
  697MPD2    H710315   3.145   2.251  15.464 -0.6360 -3.6349  0.1480
  698TMC3    C110316   3.278   2.850  15.199  0.3293 -0.5724  0.1399
  698TMC3    C210317   3.359   2.960  15.205  0.2497  0.4299 -0.5573
  698TMC3    C310318   3.463   2.973  15.119 -0.2808 -0.2221 -0.0556
  698TMC3    C410319   3.283   2.768  15.085  0.1556 -0.1175  0.3539
  698TMC3    C510320   3.393   2.789  15.003 -0.3577 -0.0057 -0.2876
  698TMC3    C610321   3.487   2.888  15.018  0.2776 -0.2959  0.6997
  698TMC3     C10322   3.184   2.825  15.312 -0.2338  0.1095 -0.3947
  698TMC3     O10323   3.169   2.916  15.394  0.7155 -0.0134  0.6686
  698TMC3     H10324   3.335   3.035  15.279  0.5370  1.3268 -1.3728
  698TMC3    H110325   3.212   2.688  15.068  0.4418 -0.1469 -0.6914
  698TMC3    H210326   3.574   2.900  14.955 -0.3517  0.4989 -0.0223
  698TMC3    C710327   3.436   2.665  14.944 -0.3044 -0.8458  0.6411
  698TMC3    C810328   3.552   3.091  15.138  0.1140  0.0588  0.1116
  698TMC3    O110329   3.339   2.597  14.916 -0.6128  0.0822 -0.0645
  698TMC3    O210330   3.566   3.114  15.256 -0.4508  0.7970 -0.0539
  699TMC3    C110331   4.168   0.230  13.137 -0.0153 -0.4109 -1.1204
  699TMC3    C210332   4.217   0.128  13.222 -0.5097 -0.2944 -0.2922
  699TMC3    C310333   4.126   0.055  13.296  0.4412  0.1341 -0.4954
  699TMC3    C410334   4.035   0.262  13.135  0.5411  0.2520 -0.1010
  699TMC3    C510335   3.948   0.181  13.203  0.8500  0.1362  0.1136
  699TMC3    C610336   3.991   0.075  13.285  0.1044 -0.1750 -0.1788
  699TMC3     C10337   4.253   0.303  13.040 -0.7104 -0.3225 -0.4124
  699TMC3     O10338   4.192   0.381  12.963  0.1096  0.4524  0.1526
  699TMC3     H10339   4.323   0.104  13.214 -0.4802 -0.8865  1.6908
  699TMC3    H110340   3.998   0.345  13.077 -1.4366 -1.2316 -0.9436
  699TMC3    H210341   3.921   0.010  13.337 -1.8899  0.7175 -1.7259
  699TMC3    C710342   3.808   0.217  13.218 -0.3432  0.1713 -0.6377
  699TMC3    C810343   4.165   4.697  13.408  0.2072 -0.9109  0.4807
  699TMC3    O110344   3.764   0.181  13.328  0.2065  0.1458 -0.3045
  699TMC3    O210345   4.075   4.632  13.461  0.1367 -0.5602 -0.2422
  700TMC3    C110346   2.732   2.833  17.278 -0.2765  0.0245 -0.7088
  700TMC3    C210347   2.730   2.693  17.248 -0.4176 -0.1198 -0.3542
  700TMC3    C310348   2.789   2.603  17.335 -0.3271 -0.2451 -0.3484
  700TMC3    C410349   2.804   2.881  17.389  0.1098 -0.0457  0.1748
  700TMC3    C510350   2.874   2.787  17.458 -0.0004  0.4066 -0.4943
  700TMC3    C610351   2.872   2.652  17.433 -0.4133  0.0709  0.6179
  700TMC3     C10352   2.666   2.933  17.197  0.3086  0.1295  0.7388
  700TMC3     O10353   2.557   2.902  17.146  0.4092  0.1963  0.3089
  700TMC3     H10354   2.672   2.659  17.163  1.4522 -2.5186 -0.6631
  700TMC3    H110355   2.792   2.983  17.425  2.3038 -0.1014  1.0933
  700TMC3    H210356   2.941   2.590  17.489  0.4996  0.9363  0.4530
  700TMC3    C710357   2.982   2.854  17.523  0.4018  0.4625  0.0913
  700TMC3    C810358   2.829   2.482  17.277 -0.5624  0.9457 -0.7633
  700TMC3    O110359   3.025   2.955  17.467  0.2553  0.1429  0.0831
  700TMC3    O210360   2.942   2.440  17.297  0.0818 -0.0881 -0.4330
  701TMC3    C110361   2.927   1.373  15.814 -0.4216 -0.5577 -0.7499
  701TMC3    C210362   3.029   1.344  15.722  0.7481 -0.5384  0.4177
  701TMC3    C310363   3.105   1.452  15.670  0.0454 -1.1764  0.9666
  701TMC3    C410364   2.898   1.507  15.841  0.4406  0.2911 -0.4983
  701TMC3    C510365   2.971   1.607  15.790  0.1499  0.5027 -0.7429
  701TMC3    C610366   3.072   1.582  15.700  0.0442  0.3353 -0.5776
  701TMC3     C10367   2.886   1.270  15.910  0.2643 -0.9649 -0.2508
  701TMC3     O10368   2.822   1.312  16.006 -0.7609 -0.2294  0.1896
  701TMC3     H10369   3.062   1.243  15.703  0.7581 -0.6230  0.8698
  701TMC3    H110370   2.823   1.529  15.915 -0.8867 -1.8868 -1.1822
  701TMC3    H210371   3.136   1.661  15.665  1.7879 -0.8893 -0.1456
  701TMC3    C710372   2.896   1.725  15.749 -0.3102  0.1587 -0.2829
  701TMC3    C810373   3.182   1.430  15.552  0.4211 -0.5949  0.6421
  701TMC3    O110374   2.941   1.786  15.651  0.0298  0.1208 -0.1963
  701TMC3    O210375   3.280   1.499  15.554  0.4539 -0.3411 -0.0412
  702MPD2     C10376   2.740   3.685  10.548  0.1691 -0.1410  0.0974
  702MPD2    C110377   2.603   3.680  10.545  0.0311  0.0974 -0.0306
  702MPD2    C210378   2.543   3.679  10.424  0.1693 -0.0208 -0.0178
  702MPD2    C310379   2.621   3.700  10.308  1.0338  0.1627 -0.2585
  702MPD2    C410380   2.757   3.689  10.318  0.7959  0.4042  0.4490
  702MPD2    C510381   2.817   3.675  10.437  0.3065  0.2167  0.4711
  702MPD2     H10382   2.437   3.658  10.418  0.3179 -0.4842 -1.0498
  702MPD2    H110383   2.818   3.691  10.228  0.6854  1.6041  0.4027
  702MPD2    H210384   2.791   3.679  10.643  1.4921 -0.5923 -0.6325
  702MPD2    H310385   2.925   3.670  10.444  0.2645 -1.8810 -0.4069
  702MPD2     N10386   2.566   3.719  10.179  0.3793  0.0511 -0.1178
  702MPD2    H510387   2.634   3.695  10.107 -1.7206 -1.4354 -1.6204
  702MPD2    N110388   2.530   3.669  10.665 -0.4725 -0.3237 -0.1045
  702MPD2    H710389   2.572   3.703  10.750  1.6251 -0.3996 -1.1084
  703TMC3    C110390   2.365   3.837  10.255  0.7854 -0.6448  0.2487
  703TMC3    C210391   2.246   3.785  10.303 -0.5029 -0.5509 -0.1773
  703TMC3    C310392   2.180   3.847  10.407 -0.4406 -0.2581 -0.4525
  703TMC3    C410393   2.419   3.944  10.319 -0.1101  0.1058  0.1693
  703TMC3    C510394   2.366   3.986  10.441  0.6479 -0.4069 -0.0100
  703TMC3    C610395   2.250   3.929  10.487  0.3225 -0.0007  0.3966
  703TMC3     C10396   2.434   3.766  10.147 -0.1716 -0.1130 -0.1752
  703TMC3     O10397   2.382   3.752  10.038  0.0131 -0.5005 -0.2354
  703TMC3     H10398   2.194   3.703  10.254  1.5616 -2.6547  1.2165
  703TMC3    H110399   2.519   3.978  10.298  0.2041 -1.7780 -1.4132
  703TMC3    H210400   2.202   3.983  10.568 -1.5890 -0.3455 -0.5052
  703TMC3    C710401   2.426   4.082  10.530  0.4335 -0.3125  0.4861
  703TMC3    C810402   2.072   3.762  10.471 -0.2230  0.6479  0.7257
  703TMC3    O110403   2.389   4.076  10.648  0.6771  0.2852  0.6949
  703TMC3    O210404   2.061   3.641  10.446  0.1622 -0.1672 -0.1909
  704TMC3    C110405   4.418   1.762  12.191  0.0365 -0.4967  0.5263
  704TMC3    C210406   4.463   1.870  12.256  0.6135 -0.1192 -0.3335
  704TMC3    C310407   4.512   1.842  12.381  0.2155 -0.4721 -0.0224
  704TMC3    C410408   4.410   1.633  12.243  1.0659 -0.6854  0.2037
  704TMC3    C510409   4.446   1.623  12.373 -0.8059  0.2240 -0.2981
  704TMC3    C610410   4.487   1.728  12.447 -0.6594  0.1463  0.4428
  704TMC3     C10411   4.388   1.771  12.051  0.2341 -0.0515  0.3737
  704TMC3     O10412   4.297   1.697  12.013  0.0564  0.1961  0.3435
  704TMC3     H10413   4.493   1.960  12.204 -0.5666  1.2687  1.4103
  704TMC3    H110414   4.354   1.551  12.199  0.9296 -0.9917  0.9416
  704TMC3    H210415   4.520   1.710  12.549 -0.2210  0.8810  0.4239
  704TMC3    C710416   4.510   1.497  12.394  0.5369  0.3038  0.6754
  704TMC3    C810417   4.620   1.927  12.425  0.3048  0.4673  0.1412
  704TMC3    O110418   4.546   1.441  12.290  0.8553 -0.0603  0.5170
  704TMC3    O210419   4.695   1.979  12.339  0.4105 -0.0271  0.1737
  705MPD2     C10420   4.437   0.134  16.765 -0.1759  0.5738 -0.1089
  705MPD2    C110421   4.436   0.268  16.765 -0.2513  0.0454  0.0872
  705MPD2    C210422   4.346   0.336  16.847 -0.0608  0.1147  0.5437
  705MPD2    C310423   4.257   0.260  16.917  0.0872  0.9390  0.1454
  705MPD2    C410424   4.261   0.119  16.910 -0.2397 -0.2356  0.1063
  705MPD2    C510425   4.358   0.064  16.843 -0.3040  0.1962 -0.1560
  705MPD2     H10426   4.335   0.444  16.837  0.1715  0.1312  0.4818
  705MPD2    H110427   4.188   0.065  16.969 -0.1920 -0.3270  0.0802
  705MPD2    H210428   4.510   0.069  16.718 -1.2056 -0.9231  0.3729
  705MPD2    H310429   4.371   4.682  16.843 -0.4496  0.1789 -0.3623
  705MPD2     N10430   4.153   0.312  16.991  0.7889 -0.1131 -0.7780
  705MPD2    H510431   4.082   0.242  17.013 -0.8552  1.2269 -1.8535
  705MPD2    N110432   4.534   0.344  16.687  0.4048  0.4814 -0.1714
  705MPD2    H710433   4.532   0.445  16.702 -0.5917  0.1063  2.3672
  706TMC3    C110434   0.097   0.437  16.306 -0.4138 -0.8874 -0.0659
  706TMC3    C210435   0.037   0.561  16.292 -0.1003  0.0345  0.0084
  706TMC3    C310436   4.671   0.604  16.386 -0.3600 -0.5485 -0.3625
  706TMC3    C410437   0.047   0.357  16.409  0.2679  0.5456 -0.8989
  706TMC3    C510438   4.673   0.398  16.495  0.2716 -0.2445  0.7771
  706TMC3    C610439   4.619   0.522  16.480  0.3981 -0.2974  0.0520
  706TMC3     C10440   0.209   0.403  16.220  0.3328 -0.0013  0.8852
  706TMC3     O10441   0.233   0.488  16.137  0.5074  0.0770  0.6482
  706TMC3     H10442   0.069   0.638  16.222  2.1455 -1.1837 -0.3119
  706TMC3    H110443   0.085   0.257  16.425 -1.7738  0.0456  0.6996
  706TMC3    H210444   4.545   0.556  16.551 -0.3832 -2.0887  0.0768
  706TMC3    C710445   4.604   0.298  16.575  0.4256 -0.1957  0.2020
  706TMC3    C810446   4.624   0.735  16.371  0.1214  0.1632 -0.4373
  706TMC3    O110447   4.600   0.180  16.531 -0.2410  0.0188 -0.1557
  706TMC3    O210448   4.654   0.796  16.269 -0.6167  0.0480 -0.5039
  707TMC3    C110449   2.683   3.750   1.655 -0.2693  0.7904  0.3695
  707TMC3    C210450   2.683   3.701   1.784  0.4927 -0.8251 -0.4318
  707TMC3    C310451   2.564   3.698   1.851 -0.5430  0.3248 -0.0280
  707TMC3    C410452   2.564   3.798   1.592 -0.2665 -0.0316  0.1932
  707TMC3    C510453   2.455   3.811   1.677  0.0951 -0.6891 -0.2434
  707TMC3    C610454   2.449   3.750   1.798 -0.3493 -0.5466  0.0493
  707TMC3     C10455   2.784   3.691   1.563 -0.2164 -0.5685  0.0339
  707TMC3     O10456   2.741   3.658   1.453 -0.2658 -0.6450  0.0071
  707TMC3     H10457   2.768   3.649   1.828  2.3182  2.2723 -0.3441
  707TMC3    H110458   2.570   3.843   1.494  1.0826  1.1185  0.7911
  707TMC3    H210459   2.360   3.710   1.845  2.1189 -2.3804  3.1941
  707TMC3    C710460   2.325   3.844   1.627 -0.5397  0.4639 -0.1571
  707TMC3    C810461   2.535   3.573   1.909 -0.1627 -1.2270 -0.0910
  707TMC3    O110462   2.306   3.832   1.512  0.2734  0.2116 -0.7449
  707TMC3    O210463   2.447   3.562   1.991 -0.2204  0.3120  0.4221
  708MPD2     C10464   3.649   3.463  13.808  0.3614 -0.8116  0.5607
  708MPD2    C110465   3.551   3.372  13.828 -0.1546  0.3470  0.4016
  708MPD2    C210466   3.446   3.399  13.922 -0.2692 -0.1433 -0.2580
  708MPD2    C310467   3.445   3.514  13.997 -0.1468  0.2355  0.3455
  708MPD2    C410468   3.561   3.595  13.987  0.4003 -0.0434 -0.2981
  708MPD2    C510469   3.665   3.569  13.899 -0.5452 -0.1767 -0.0385
  708MPD2     H10470   3.361   3.331  13.933 -1.3925  0.9106 -2.4774
  708MPD2    H110471   3.583   3.678  14.053  0.2643  0.9846 -1.5509
  708MPD2    H210472   3.731   3.434  13.744 -0.9920 -1.9640 -0.6494
  708MPD2    H310473   3.754   3.630  13.889 -0.1164 -0.6459  0.9090
  708MPD2     N10474   3.344   3.546  14.094  0.0177  0.6751 -1.0772
  708MPD2    H510475   3.353   3.638  14.136  0.7375 -0.9399  2.2969
  708MPD2    N110476   3.545   3.253  13.755  0.3502  0.3524  0.3020
  708MPD2    H710477   3.477   3.185  13.787  0.1981  0.4092  0.1007
  709TMC3    C110478   3.544   3.096  13.591  0.0977  0.2367 -0.3123
  709TMC3    C210479   3.469   3.100  13.478  0.1266  0.0926 -0.0845
  709TMC3    C310480   3.357   3.017  13.464 -0.5964  0.3329 -0.2409
  709TMC3    C410481   3.508   3.022  13.703 -0.1594  1.1077  0.5737
  709TMC3    C510482   3.396   2.940  13.688 -0.0553  0.0860  0.3058
  709TMC3    C610483   3.325   2.935  13.572  0.6259  0.2104 -0.1338
  709TMC3     C10484   3.605   3.224  13.631 -0.2533 -0.2237 -0.0471
  709TMC3     O10485   3.679   3.286  13.563 -0.3285  0.0356 -0.3590
  709TMC3     H10486   3.505   3.164  13.399 -0.7678  0.9904  0.2352
  709TMC3    H110487   3.569   3.015  13.792 -1.7190 -0.2935  1.5476
  709TMC3    H210488   3.232   2.880  13.562 -0.3981  1.2536  3.5485
  709TMC3    C710489   3.312   2.944  13.809 -0.1768 -0.4164 -0.4818
  709TMC3    C810490   3.314   2.974  13.332 -0.0560  0.6110  0.1982
  709TMC3    O110491   3.363   3.005  13.903 -0.2117 -0.3787 -0.3192
  709TMC3    O210492   3.247   2.873  13.330  0.3750  0.7129  0.2424
  710TMC3    C110493   4.130   0.806   0.933 -0.7272 -0.3848  0.0599
  710TMC3    C210494   4.212   0.775   0.828 -0.1447 -0.2504 -0.5990
  710TMC3    C310495   4.291   0.669   0.833  1.1566  0.9644 -0.5895
  710TMC3    C410496   4.123   0.717   1.036  0.4258 -0.7102 -0.2963
  710TMC3    C510497   4.214   0.608   1.039  0.6548 -0.0130 -0.4382
  710TMC3    C610498   4.301   0.580   0.939 -0.2434 -0.0832 -0.1732
  710TMC3     C10499   4.050   0.931   0.932 -0.7296  0.0094  0.5001
  710TMC3     O10500   4.095   1.019   0.862 -0.3377 -0.7726  0.1771
  710TMC3     H10501   4.214   0.834   0.737  1.2176  2.3180  1.0896
  710TMC3    H110502   4.063   0.740   1.123 -1.5238  0.9526 -2.0918
  710TMC3    H210503   4.358   0.489   0.925 -2.8963 -1.3254 -2.7491
  710TMC3    C710504   4.208   0.501   1.137 -0.3490 -0.0969 -0.4800
  710TMC3    C810505   4.327   0.611   0.704 -0.0803  0.5137  0.3011
  710TMC3    O110506   4.302   0.422   1.135 -0.0291  0.1690 -0.3085
  710TMC3    O210507   4.313   0.490   0.686  0.0894  0.0594 -0.3951
  711TMC3    C110508   3.400   1.185  15.280 -0.5296  1.0338  0.9067
  711TMC3    C210509   3.401   1.210  15.418 -0.0038  0.2901  0.2166
  711TMC3    C310510   3.514   1.256  15.463  0.6323 -0.1945 -0.6230
  711TMC3    C410511   3.492   1.230  15.197 -0.7898 -0.1080 -0.8177
  711TMC3    C510512   3.615   1.266  15.246 -0.1177 -0.2301 -0.1068
  711TMC3    C610513   3.619   1.291  15.384  0.3791  0.2644 -0.7005
  711TMC3     C10514   3.298   1.108  15.214 -0.4305 -0.0174  0.2869
  711TMC3     O10515   3.309   1.100  15.090  0.0602 -0.0430 -0.0496
  711TMC3     H10516   3.323   1.175  15.485 -0.4933  2.3089  0.7013
  711TMC3    H110517   3.486   1.219  15.089 -2.9983 -0.7741 -0.6297
  711TMC3    H210518   3.719   1.302  15.424 -1.1836  1.1661  2.9617
  711TMC3    C710519   3.736   1.207  15.194  0.2411 -0.8690 -0.6795
  711TMC3    C810520   3.524   1.247  15.606  0.7177 -0.2905  0.6934
  711TMC3    O110521   3.830   1.201  15.267 -0.4257  0.1560  0.0753
  711TMC3    O210522   3.434   1.195  15.671  0.3796 -0.1783  0.0521
  712MPD2     C10523   0.509   1.955  14.052  0.2483 -0.5809  0.2199
  712MPD2    C110524   0.451   1.972  13.928  0.4809 -0.0948  0.4507
  712MPD2    C210525   0.512   2.076  13.856 -0.1802 -0.1918 -0.6926
  712MPD2    C310526   0.613   2.161  13.901  1.2128 -0.6537 -0.0693
  712MPD2    C410527   0.655   2.143  14.025  0.3141  0.3805 -0.7854
  712MPD2    C510528   0.610   2.038  14.099  0.1797 -0.7269 -0.4628
  712MPD2     H10529   0.484   2.079  13.751  0.3495  0.3192 -0.8209
  712MPD2    H110530   0.718   2.220  14.068 -0.6428  0.9304 -0.3796
  712MPD2    H210531   0.468   1.874  14.111  0.1609 -1.0977 -0.5517
  712MPD2    H310532   0.649   2.024  14.199  3.3366 -1.2006 -1.7491
  712MPD2     N10533   0.659   2.272  13.829  0.1378  0.3323 -0.2811
  712MPD2    H510534   0.738   2.322  13.869  0.3355 -2.7573  3.2238
  712MPD2    N110535   0.339   1.896  13.877  0.1320 -0.6226  0.1858
  712MPD2    H710536   0.304   1.928  13.788 -0.2257 -0.0397  0.5345
  713TMC3    C110537   0.679   2.436  13.656 -0.5311 -0.0370 -0.3925
  713TMC3    C210538   0.802   2.458  13.710  0.3614 -0.2788  0.4481
  713TMC3    C310539   0.852   2.585  13.705 -0.0815 -0.4406 -0.0882
  713TMC3    C410540   0.610   2.528  13.586 -0.3152 -0.1614  0.3796
  713TMC3    C510541   0.670   2.650  13.577 -0.1817 -0.0839 -0.3925
  713TMC3    C610542   0.786   2.688  13.641 -0.3445 -0.4060  0.1051
  713TMC3     C10543   0.612   2.311  13.710  0.3236  0.2823  0.0449
  713TMC3     O10544   0.503   2.285  13.661 -0.2092  0.3635  0.2083
  713TMC3     H10545   0.862   2.370  13.724 -0.2000 -0.4316  1.8322
  713TMC3    H110546   0.510   2.518  13.546 -0.0512 -1.7841  0.1435
  713TMC3    H210547   0.830   2.787  13.632 -2.2198  0.5379  1.3946
  713TMC3    C710548   0.609   2.747  13.494  0.8798 -0.3313 -0.6307
  713TMC3    C810549   0.988   2.607  13.742  0.5620 -0.0180 -0.1557
  713TMC3    O110550   0.558   2.709  13.388  0.1230 -0.1386 -0.0083
  713TMC3    O210551   1.024   2.724  13.736  0.1996  0.2697  0.2071
  714MPD2     C10552   1.602   0.628   0.696 -0.2533 -0.1261 -0.9578
  714MPD2    C110553   1.699   0.532   0.715 -0.2772  0.0302 -0.1946
  714MPD2    C210554   1.736   0.461   0.606  0.1586  0.3810  0.1414
  714MPD2    C310555   1.685   0.468   0.480 -0.0910 -0.6373 -0.5897
  714MPD2    C410556   1.574   0.553   0.460  0.2039  0.2496  0.4275
  714MPD2    C510557   1.542   0.633   0.573  0.4064  0.8354  0.4680
  714MPD2     H10558   1.828   0.403   0.616  0.9231  1.6449  0.4035
  714MPD2    H110559   1.529   0.563   0.362  0.6307 -0.5153  0.1454
  714MPD2    H210560   1.568   0.706   0.763 -0.8782 -1.3009  0.0694
  714MPD2    H310561   1.473   0.714   0.553  1.0055  1.5558  1.3521
  714MPD2     N10562   1.727   0.384   0.378  0.8264  0.1030 -0.8993
  714MPD2    H510563   1.801   0.321   0.408 -0.8101 -1.5038 -0.2013
  714MPD2    N110564   1.755   0.523   0.844  0.4132 -0.3174 -0.2835
  714MPD2    H710565   1.730   0.597   0.909  1.2909  0.1458 -0.4772
  715TMC3    C110566   1.884   0.440   1.024  0.2604  0.3668  0.0789
  715TMC3    C210567   1.951   0.329   1.073 -0.8334 -0.2112 -0.1990
  715TMC3    C310568   1.989   0.333   1.199  0.5591 -0.1379  0.1170
  715TMC3    C410569   1.860   0.552   1.103  0.1067  0.0295 -0.0598
  715TMC3    C510570   1.905   0.547   1.232  0.3330 -0.1063  0.3417
  715TMC3    C610571   1.967   0.440   1.286 -0.7423  0.0125  0.3408
  715TMC3     C10572   1.836   0.423   0.893 -0.8691  0.3099  0.3774
  715TMC3     O10573   1.841   0.311   0.844 -0.7086  0.1238 -0.3360
  715TMC3     H10574   1.961   0.236   1.018 -2.1481 -0.2888 -0.3104
  715TMC3    H110575   1.816   0.641   1.060 -0.3837 -0.3211 -0.2817
  715TMC3    H210576   1.994   0.439   1.391  0.7707  2.5393 -0.0207
  715TMC3    C710577   1.871   0.666   1.308 -0.0178 -0.1702 -0.0150
  715TMC3    C810578   2.094   0.234   1.232 -0.2965 -0.3325  1.2047
  715TMC3    O110579   1.806   0.751   1.250 -0.1659  0.2794 -0.2751
  715TMC3    O210580   2.113   0.137   1.163 -0.4228 -0.7839  0.2163
  716MPD2     C10581   2.533   3.450   9.968 -0.3970  0.0976  0.4322
  716MPD2    C110582   2.498   3.440   9.837  0.1464  0.0750 -0.1097
  716MPD2    C210583   2.586   3.375   9.752 -0.4356 -0.7373  0.0627
  716MPD2    C310584   2.696   3.311   9.801  0.1037 -0.0496 -0.6786
  716MPD2    C410585   2.738   3.328   9.930 -0.2263 -0.2889  0.2955
  716MPD2    C510586   2.653   3.405  10.009 -0.8047  0.4777 -0.2028
  716MPD2     H10587   2.555   3.354   9.650  2.4510  0.2434 -1.0473
  716MPD2    H110588   2.831   3.295   9.975  0.2389  0.3028 -0.2307
  716MPD2    H210589   2.464   3.497  10.038 -0.0261  0.2200  0.7110
  716MPD2    H310590   2.683   3.419  10.113  0.5453 -0.4399 -0.4596
  716MPD2     N10591   2.762   3.231   9.708  0.4996  0.1045 -0.3488
  716MPD2    H510592   2.729   3.234   9.612 -0.7139 -3.4339 -0.0411
  716MPD2    N110593   2.375   3.503   9.804  0.0130  0.4509 -0.1642
  716MPD2    H710594   2.328   3.538   9.887  2.8778 -1.2336  2.1796
  717TMC3    C110595   2.895   3.045   9.623 -0.3813  0.3399  0.3498
  717TMC3    C210596   2.838   3.049   9.499  0.0624  0.7920  0.3026
  717TMC3    C310597   2.868   2.951   9.410 -0.6168  0.3309 -0.2437
  717TMC3    C410598   2.985   2.950   9.653 -0.1255 -0.3461 -0.8999
  717TMC3    C510599   3.008   2.848   9.567  0.3407  0.0776  0.4138
  717TMC3    C610600   2.953   2.852   9.443  1.0105 -0.4502  1.0613
  717TMC3     C10601   2.865   3.141   9.733 -0.0685 -0.0486  0.1149
  717TMC3     O10602   2.926   3.123   9.835  0.4416  0.1337  0.1995
  717TMC3     H10603   2.758   3.118   9.472  1.1289  1.9353  0.0734
  717TMC3    H110604   3.034   2.950   9.750 -1.1192 -0.5821 -0.3948
  717TMC3    H210605   2.969   2.770   9.374  1.4834  0.3987  0.1603
  717TMC3    C710606   3.032   2.724   9.639 -0.0076 -0.6696 -0.0476
  717TMC3    C810607   2.773   2.925   9.304 -0.9418  0.2159 -0.1202
  717TMC3    O110608   3.021   2.720   9.760  0.6442  0.0717  0.1603
  717TMC3    O210609   2.760   2.806   9.275 -0.2303 -0.6777 -0.3308
  718MPD2     C10610   1.479   3.094  12.646 -0.1563 -0.1555  0.0450
  718MPD2    C110611   1.493   3.001  12.545  0.1961 -0.1321  0.2895
  718MPD2    C210612   1.514   2.872  12.576 -0.9896  0.4205 -0.3611
  718MPD2    C310613   1.532   2.832  12.708  0.6580 -0.1241  0.5112
  718MPD2    C410614   1.524   2.927  12.806  0.7582 -0.4990  0.6162
  718MPD2    C510615   1.489   3.057  12.773 -0.8899 -0.3155 -0.8317
  718MPD2     H10616   1.533   2.796  12.500  0.5406 -0.0440  0.5000
  718MPD2    H110617   1.535   2.908  12.912  0.3350 -1.7989  0.4240
  718MPD2    H210618   1.457   3.199  12.631  0.1862 -0.5346 -3.0881
  718MPD2    H310619   1.480   3.131  12.852 -0.9509  1.1779 -2.2344
  718MPD2     N10620   1.550   2.698  12.730 -0.9909  0.0247  0.4846
  718MPD2    H510621   1.520   2.636  12.655  2.7371 -1.0167 -0.2035
  718MPD2    N110622   1.484   3.046  12.411 -0.2523  0.0108 -0.2871
  718MPD2    H710623   1.482   3.146  12.394 -2.0416 -0.2426 -1.5795
  719TMC3    C110624   1.498   3.010  12.172  0.1761 -0.2859  0.1911
  719TMC3    C210625   1.471   2.912  12.086  0.0449 -0.2910  0.5400
  719TMC3    C310626   1.557   2.872  11.987 -0.7674 -0.0739  0.7153
  719TMC3    C410627   1.620   3.076  12.163 -0.4047  0.8820 -0.0237
  719TMC3    C510628   1.713   3.031  12.075  1.1155  1.0497  0.4453
  719TMC3    C610629   1.674   2.945  11.972  0.2283 -0.4701 -0.8699
  719TMC3     C10630   1.465   2.961  12.303  0.8729  0.0895 -0.5568
  719TMC3     O10631   1.435   2.843  12.305 -0.7498 -0.5572 -0.3579
  719TMC3     H10632   1.373   2.867  12.088 -1.0323  2.0617  0.8455
  719TMC3    H110633   1.656   3.157  12.225  0.7505  0.4259 -0.0945
  719TMC3    H210634   1.750   2.915  11.901  2.2815 -0.1157  1.2012
  719TMC3    C710635   1.838   3.100  12.057  0.2707 -0.1202 -0.0793
  719TMC3    C810636   1.583   2.729  11.987  0.1990  0.2087 -0.2185
  719TMC3    O110637   1.896   3.074  11.951 -0.1585  0.6538  0.4376
  719TMC3    O210638   1.655   2.689  11.897  0.3782 -0.7047 -0.6677
  720MPD2     C10639   0.182   4.327  13.780 -0.1510  0.0644 -0.6442
  720MPD2    C110640   0.287   4.355  13.691 -0.2639  0.4403 -0.0991
  720MPD2    C210641   0.416   4.357  13.744  0.0415 -0.1798 -0.0644
  720MPD2    C310642   0.442   4.336  13.883 -0.5038  0.7485 -0.2069
  720MPD2    C410643   0.334   4.302  13.967  0.1445  0.3731 -0.3508
  720MPD2    C510644   0.207   4.296  13.911  0.2837 -0.8826 -0.2147
  720MPD2     H10645   0.507   4.366  13.686  0.4243 -0.6087  0.4705
  720MPD2    H110646   0.345   4.264  14.068  0.8044  0.6084 -0.3328
  720MPD2    H210647   0.077   4.337  13.757 -0.7474 -0.5472  1.8079
  720MPD2    H310648   0.124   4.266  13.974  0.7715 -1.5230  0.1306
  720MPD2     N10649   0.574   4.327  13.924 -0.2600  0.2274  0.2777
  720MPD2    H510650   0.645   4.364  13.861 -0.3070  0.4235  0.3428
  720MPD2    N110651   0.261   4.395  13.559 -0.3529 -0.3714 -0.2556
  720MPD2    H710652   0.340   4.414  13.497  0.9783  3.1870  2.5194
  721TMC3    C110653   0.766   4.315  14.072 -0.6964  0.0382  0.7150
  721TMC3    C210654   0.810   4.378  14.182  0.5411  0.2279 -0.3749
  721TMC3    C310655   0.938   4.425  14.186 -0.0041 -0.2074 -0.1990
  721TMC3    C410656   0.850   4.301  13.966  0.1026  0.2626  0.4751
  721TMC3    C510657   0.974   4.353  13.972  0.4526 -0.1842  0.2302
  721TMC3    C610658   1.027   4.414  14.081 -0.0638  0.3803  0.3979
  721TMC3     C10659   0.620   4.288  14.057  1.0952  0.1438 -0.5837
  721TMC3     O10660   0.560   4.265  14.155  0.5374 -0.5071  0.2112
  721TMC3     H10661   0.740   4.400  14.262  0.7892 -2.6183  0.6257
  721TMC3    H110662   0.822   4.239  13.881  0.0228 -0.2693  0.8910
  721TMC3    H210663   1.131   4.444  14.090 -0.5299  2.6570 -1.9936
  721TMC3    C710664   1.077   4.292  13.884  0.3601  0.5876 -0.5006
  721TMC3    C810665   0.993   4.490  14.305  0.4023  0.7591 -0.7514
  721TMC3    O110666   1.156   4.374  13.840  0.0125 -0.3369 -0.1930
  721TMC3    O210667   1.114   4.514  14.299  0.3052  0.5880 -0.0058
  722MPD2     C10668   4.211   2.728  13.248  0.7764 -0.3787  0.3481
  722MPD2    C110669   4.232   2.802  13.134 -0.5361  0.8967  0.3356
  722MPD2    C210670   4.117   2.817  13.050  0.0392  0.8175 -0.1453
  722MPD2    C310671   4.003   2.744  13.071 -0.3586  0.0248 -0.5842
  722MPD2    C410672   3.992   2.669  13.186 -0.3668  0.0294  0.2286
  722MPD2    C510673   4.091   2.659  13.272 -0.7872 -0.2899 -0.2544
  722MPD2     H10674   4.124   2.877  12.960  0.5116 -0.9955 -1.3220
  722MPD2    H110675   3.896   2.621  13.204 -0.4085 -0.3913 -1.1572
  722MPD2    H210676   4.287   2.717  13.325 -0.5942 -2.1445  1.4416
  722MPD2    H310677   4.078   2.616  13.370 -1.7599 -0.4521 -0.4568
  722MPD2     N10678   3.896   2.746  12.970  0.4814  0.0774 -0.2376
  722MPD2    H510679   3.901   2.820  12.901  0.7151 -0.0057 -0.3111
  722MPD2    N110680   4.348   2.869  13.096 -0.1297 -0.4868  0.5991
  722MPD2    H710681   4.336   2.941  13.025  2.8781  1.7025  2.3115
  723TMC3    C110682   3.711   2.682  12.839 -1.0980  0.3524  0.0042
  723TMC3    C210683   3.615   2.590  12.819  0.1900  0.0949  0.4957
  723TMC3    C310684   3.511   2.625  12.737 -0.0567  0.2036 -0.0401
  723TMC3    C410685   3.693   2.811  12.798 -0.7710  0.6876 -0.1457
  723TMC3    C510686   3.599   2.839  12.700  0.3208 -0.8826 -0.5328
  723TMC3    C610687   3.506   2.741  12.662 -0.1549 -0.8108  0.0583
  723TMC3     C10688   3.800   2.651  12.952  1.1742  0.1760 -0.1222
  723TMC3     O10689   3.789   2.541  13.003 -0.3843  0.3507 -0.2577
  723TMC3     H10690   3.626   2.492  12.863  1.0288 -0.5858 -1.2177
  723TMC3    H110691   3.761   2.892  12.821  0.6558 -1.5776  3.5468
  723TMC3    H210692   3.418   2.766  12.604  0.1079 -2.0754 -0.8921
  723TMC3    C710693   3.592   2.960  12.615 -0.0921  0.2667  0.8059
  723TMC3    C810694   3.394   2.539  12.721  0.0001  0.0387 -0.0642
  723TMC3    O110695   3.517   2.952  12.519  0.5185  0.5100  0.7864
  723TMC3    O210696   3.307   2.594  12.652 -0.1649 -0.2525 -0.6475
  724TMC3    C110697   4.278   0.782  10.584 -0.1126  0.1173  0.6011
  724TMC3    C210698   4.231   0.796  10.456  0.2294 -0.2081  0.0381
  724TMC3    C310699   4.305   0.868  10.370 -0.3699  0.8729  0.0555
  724TMC3    C410700   4.390   0.844  10.630 -0.0868  0.0160  0.2943
  724TMC3    C510701   4.463   0.921  10.538  0.1300 -0.4963  0.2867
  724TMC3    C610702   4.417   0.934  10.409 -0.5826 -0.0889  0.3696
  724TMC3     C10703   4.201   0.712  10.684 -0.4713  0.3354  0.1317
  724TMC3     O10704   4.247   0.686  10.793 -0.5198  0.6481  0.1704
  724TMC3     H10705   4.148   0.739  10.416 -1.0469  1.5009  0.2641
  724TMC3    H110706   4.424   0.821  10.730 -0.1979  0.1951  0.3729
  724TMC3    H210707   4.476   0.993  10.339  0.8487 -0.1437  1.5277
  724TMC3    C710708   4.585   0.986  10.573 -0.3111 -0.5368 -0.0401
  724TMC3    C810709   4.233   0.911  10.250  0.0009 -1.0237 -0.0679
  724TMC3    O110710   4.671   1.005  10.489  0.0435  0.2114 -0.2241
  724TMC3    O210711   4.125   0.864  10.228  0.8923  0.0954 -0.5684
  725TMC3    C110712   1.344   4.502  13.008  0.7586  0.3769  0.0585
  725TMC3    C210713   1.217   4.517  12.951  0.8442 -0.1876  0.8437
  725TMC3    C310714   1.150   4.409  12.912  0.4049  0.0772  0.1367
  725TMC3    C410715   1.404   4.379  13.015  0.0674  0.2426  0.2755
  725TMC3    C510716   1.342   4.268  12.968  0.1091  0.0851  0.8245
  725TMC3    C610717   1.208   4.287  12.925  1.5531  0.1632  0.1734
  725TMC3     C10718   1.401   4.619  13.069 -0.2458  0.2568  0.0191
  725TMC3     O10719   1.355   0.008  13.041 -0.4683 -0.4966  0.2950
  725TMC3     H10720   1.166   4.613  12.956  2.7362  0.9886 -2.3054
  725TMC3    H110721   1.512   4.371  13.021  0.1395  0.9272 -0.1622
  725TMC3    H210722   1.151   4.210  12.874 -0.0485  3.1557 -2.4914
  725TMC3    C710723   1.413   4.151  12.908  0.0869 -0.1760 -0.1013
  725TMC3    C810724   1.050   4.424  12.808  0.4048 -0.2593 -0.8610
  725TMC3    O110725   1.355   4.092  12.813  0.5998 -0.5662  0.2517
  725TMC3    O210726   0.979   4.330  12.771  0.0270 -0.0823 -0.3393
  726MPD2     C10727   3.757   1.136  10.884 -0.1064 -0.1637 -0.1163
  726MPD2    C110728   3.678   1.177  10.771  0.5658  0.3233  0.0154
  726MPD2    C210729   3.551   1.125  10.748  0.0258 -0.5060 -0.6705
  726MPD2    C310730   3.501   1.028  10.839 -0.6204  0.6920 -0.4654
  726MPD2    C410731   3.580   0.988  10.947  0.0940  0.9232  0.2851
  726MPD2    C510732   3.706   1.039  10.964  0.4627  0.2142  0.2739
  726MPD2     H10733   3.494   1.157  10.661  0.2660 -0.9486 -0.9879
  726MPD2    H110734   3.546   0.908  11.012  2.9840 -0.8822 -0.4217
  726MPD2    H210735   3.859   1.171  10.897 -0.1120 -0.2500  0.1663
  726MPD2    H310736   3.777   0.999  11.036 -0.7513 -1.7771  0.3701
  726MPD2     N10737   3.370   0.972  10.818  0.3560 -0.2548 -0.0415
  726MPD2    H510738   3.332   0.919  10.896 -2.0594  3.1892  1.1247
  726MPD2    N110739   3.733   1.274  10.682  0.4710  0.4763 -0.6214
  726MPD2    H710740   3.676   1.279  10.598  0.2556 -1.0056 -0.5624
  727TMC3    C110741   3.849   1.442  10.578  0.6998  0.0257 -0.3108
  727TMC3    C210742   3.955   1.532  10.578 -0.1156  0.0385  0.4924
  727TMC3    C310743   3.980   1.611  10.471  0.0241  0.8146 -0.2328
  727TMC3    C410744   3.789   1.425  10.460  0.0733 -0.6931  0.0011
  727TMC3    C510745   3.807   1.518  10.356  0.1999 -0.0267  0.5987
  727TMC3    C610746   3.898   1.618  10.360 -0.3246 -0.4261 -0.3890
  727TMC3     C10747   3.841   1.352  10.692 -0.3915  0.0626 -0.2446
  727TMC3     O10748   3.931   1.349  10.772  0.3926 -0.2113 -0.2632
  727TMC3     H10749   4.022   1.528  10.664  0.7644 -1.3746 -0.2596
  727TMC3    H110750   3.706   1.356  10.446 -0.4727 -0.1665  0.6216
  727TMC3    H210751   3.933   1.683  10.280 -2.1908 -1.3766 -1.9755
  727TMC3    C710752   3.716   1.515  10.244  0.2255 -0.2564 -0.4533
  727TMC3    C810753   4.082   1.709  10.487  0.5533  0.1208  0.5470
  727TMC3    O110754   3.644   1.421  10.228  0.0035 -0.0901 -0.2859
  727TMC3    O210755   4.191   1.670  10.520  0.5242 -0.4077 -0.3743
  728TMC3    C110756   3.130   4.384  15.346  0.1227 -0.0568  0.2962
  728TMC3    C210757   3.243   4.327  15.392 -0.0225 -0.9390 -0.0570
  728TMC3    C310758   3.347   4.300  15.312 -0.4080  0.1451 -0.3351
  728TMC3    C410759   3.113   4.409  15.208 -0.4341 -0.2543  0.2690
  728TMC3    C510760   3.217   4.366  15.129  0.6934  0.6035 -0.3215
  728TMC3    C610761   3.342   4.316  15.174  0.5423  0.5312  0.2233
  728TMC3     C10762   3.045   4.452  15.446 -0.3497  0.3917  0.8651
  728TMC3     O10763   3.064   4.415  15.564  0.3325 -0.0511 -0.1551
  728TMC3     H10764   3.251   4.309  15.499  0.8129 -0.4352 -0.0357
  728TMC3    H110765   3.023   4.450  15.164  0.1355 -0.3224 -0.9399
  728TMC3    H210766   3.411   4.278  15.099  1.2999  0.4436  0.9597
  728TMC3    C710767   3.213   4.402  14.993 -0.5936 -1.1937 -0.3660
  728TMC3    C810768   3.431   4.196  15.364  0.3655 -0.2853 -0.2257
  728TMC3    O110769   3.241   4.317  14.909  0.7453  0.0060  0.2944
  728TMC3    O210770   3.391   4.107  15.436 -0.4712  0.0384 -0.0192
  729MPD2     C10771   0.154   1.126  16.619  0.2439 -0.2853 -0.3029
  729MPD2    C110772   0.286   1.087  16.602  0.7142 -0.7464 -0.1818
  729MPD2    C210773   0.354   1.047  16.715  0.4054 -0.4173  0.2643
  729MPD2    C310774   0.294   1.064  16.842  0.8188 -0.0817  0.3410
  729MPD2    C410775   0.168   1.114  16.855  0.3046 -0.4646 -0.3929
  729MPD2    C510776   0.099   1.136  16.740  0.3118  0.3255 -0.2555
  729MPD2     H10777   0.461   1.033  16.708  0.3004 -0.3309 -1.5893
  729MPD2    H110778   0.124   1.133  16.952 -2.1479 -0.7616 -1.4444
  729MPD2    H210779   0.102   1.164  16.532  1.7825  1.6025 -0.4147
  729MPD2    H310780   0.005   1.190  16.747  0.0877 -0.0207 -0.5744
  729MPD2     N10781   0.371   1.041  16.957 -0.2498  0.0197 -0.1096
  729MPD2    H510782   0.327   1.070  17.044  0.4096  1.5724 -0.2905
  729MPD2    N110783   0.340   1.102  16.469 -0.0035 -0.0673 -0.3891
  729MPD2    H710784   0.291   1.164  16.405  0.4889 -0.0315 -0.7346
  730TMC3    C110785   0.581   1.112  16.937 -0.5276  0.2622 -0.4343
  730TMC3    C210786   0.657   1.117  16.824  0.5608  0.2871 -0.0146
  730TMC3    C310787   0.721   1.232  16.788 -0.4551 -0.0843 -0.5442
  730TMC3    C410788   0.558   1.222  17.013 -0.0688  0.4300  0.0171
  730TMC3    C510789   0.634   1.336  16.979 -0.2634  0.2193 -0.2063
  730TMC3    C610790   0.704   1.344  16.864  0.5406  0.9833 -0.2102
  730TMC3     C10791   0.499   0.999  16.953 -0.1460  0.6833  0.4696
  730TMC3     O10792   0.541   0.898  16.900 -0.1959 -0.1902  0.1346
  730TMC3     H10793   0.678   1.034  16.758  1.9866  0.5352  0.1234
  730TMC3    H110794   0.488   1.213  17.095 -0.9448  2.4267 -0.5150
  730TMC3    H210795   0.774   1.426  16.852  1.7162  0.2837  2.0037
  730TMC3    C710796   0.599   1.464  17.031 -0.7869 -0.7113  0.1608
  730TMC3    C810797   0.785   1.247  16.658 -0.0572 -0.3242  0.4649
  730TMC3    O110798   0.635   1.552  16.954 -0.0427  0.0666 -0.1581
  730TMC3    O210799   0.841   1.146  16.619  0.6324  0.7098 -0.2856
  731MPD2     C10800   0.183   3.127  12.142 -0.0811 -0.0425 -0.3096
  731MPD2    C110801   0.317   3.148  12.164 -0.9816 -0.0294 -0.2884
  731MPD2    C210802   0.364   3.172  12.294  0.4394 -0.8444  0.2270
  731MPD2    C310803   0.278   3.155  12.401  0.3639  0.8043 -0.5048
  731MPD2    C410804   0.141   3.143  12.380 -0.2746  0.2233  0.1015
  731MPD2    C510805   0.096   3.128  12.250 -0.0569 -0.1130  0.1352
  731MPD2     H10806   0.468   3.202  12.297 -0.1799  1.1105  2.2675
  731MPD2    H110807   0.062   3.143  12.454  0.7176  0.7627  1.1533
  731MPD2    H210808   0.148   3.104  12.042 -1.3217  0.3364  0.0431
  731MPD2    H310809   4.715   3.113  12.231  0.3162 -0.7208 -1.4830
  731MPD2     N10810   0.332   3.173  12.531  0.3153 -0.2333 -0.0227
  731MPD2    H510811   0.432   3.186  12.540  0.2774 -0.7706  1.2687
  731MPD2    N110812   0.398   3.158  12.047  0.0644 -0.1742 -0.0869
  731MPD2    H710813   0.345   3.140  11.962  0.7442 -1.4160 -0.2366
  732TMC3    C110814   0.555   3.279  11.940  0.9032  0.4440  0.4901
  732TMC3    C210815   0.462   3.286  11.838 -0.0370  0.2966 -1.0541
  732TMC3    C310816   0.424   3.403  11.781 -0.4841 -0.0298 -0.2130
  732TMC3    C410817   0.630   3.388  11.971  0.4949  0.4064  0.1977
  732TMC3    C510818   0.590   3.506  11.916 -0.6972  0.3211  0.2632
  732TMC3    C610819   0.483   3.519  11.826  0.0685 -0.2269  0.0889
  732TMC3     C10820   0.529   3.193  12.046  0.7787  0.5275 -0.7937
  732TMC3     O10821   0.613   3.188  12.140  0.3601 -0.5966  0.0753
  732TMC3     H10822   0.398   3.203  11.812 -1.2007  0.8032  0.1465
  732TMC3    H110823   0.705   3.386  12.050 -0.2719 -0.6377  0.8950
  732TMC3    H210824   0.452   3.619  11.797 -1.2781 -0.4541  0.7408
  732TMC3    C710825   0.668   3.628  11.952 -0.7886  0.4198  0.1807
  732TMC3    C810826   0.298   3.402  11.710  0.0045  0.0863  0.2379
  732TMC3    O110827   0.611   3.736  11.936  0.1581  0.1201  0.0382
  732TMC3    O210828   0.275   3.307  11.634 -0.3810  0.2830  0.1439
  733TMC3    C110829   1.436   2.334  12.897  0.1050  0.1161 -0.2651
  733TMC3    C210830   1.492   2.455  12.911 -0.2723 -0.7107  0.7035
  733TMC3    C310831   1.585   2.495  12.823 -0.5122 -0.1543 -0.2407
  733TMC3    C410832   1.453   2.257  12.779  0.2444  0.5322 -0.2664
  733TMC3    C510833   1.528   2.318  12.683  0.6466  0.0131 -0.3597
  733TMC3    C610834   1.594   2.434  12.702 -0.0919  0.5985 -0.4038
  733TMC3     C10835   1.308   2.324  12.960 -0.3608  0.8725 -0.5763
  733TMC3     O10836   1.250   2.423  13.003  0.5581  0.3595  0.0847
  733TMC3     H10837   1.476   2.509  13.004 -0.1032 -1.4976  1.1875
  733TMC3    H110838   1.390   2.173  12.750  0.4318  0.8715 -1.6720
  733TMC3    H210839   1.658   2.474  12.624 -0.6257 -0.5711 -1.4297
  733TMC3    C710840   1.517   2.271  12.546 -0.3327 -0.1500  0.2713
  733TMC3    C810841   1.596   2.638  12.840 -0.8252 -0.0234 -0.6036
  733TMC3    O110842   1.561   2.157  12.517 -0.0192  0.5505 -0.0436
  733TMC3    O210843   1.623   2.686  12.952  0.1984 -0.8250 -0.0453
  734MPD2     C10844   3.543   4.498  12.605 -0.5723  0.3166  0.3720
  734MPD2    C110845   3.496   4.420  12.500 -0.2670 -0.0937  0.0225
  734MPD2    C210846   3.515   4.467  12.369  0.1155 -0.7530  0.1818
  734MPD2    C310847   3.574   4.592  12.355 -0.4908 -0.1560 -0.5007
  734MPD2    C410848   3.605   4.668  12.465 -0.0333 -0.1504  0.3069
  734MPD2    C510849   3.597   4.617  12.586 -0.9834  0.1467 -0.1411
  734MPD2     H10850   3.472   4.411  12.287 -2.3775 -0.1996  1.1049
  734MPD2    H110851   3.640   0.045  12.454  0.8518 -0.5700 -0.7815
  734MPD2    H210852   3.550   4.469  12.709  3.5730 -0.2878 -0.1056
  734MPD2    H310853   3.625   4.678  12.671 -3.1424 -0.4118  0.9720
  734MPD2     N10854   3.585   4.638  12.223 -0.0418  0.3006  0.2887
  734MPD2    H510855   3.567   4.568  12.152 -0.9756  1.4490 -0.6256
  734MPD2    N110856   3.430   4.298  12.530 -0.7673  0.5675  0.4776
  734MPD2    H710857   3.445   4.251  12.619  0.6289 -2.5948 -1.4382
  735TMC3    C110858   3.288   4.102  12.473  0.4870  0.0848 -0.0503
  735TMC3    C210859   3.164   4.089  12.406 -0.1781  0.0659 -0.5089
  735TMC3    C310860   3.139   3.978  12.328  0.5590 -0.2852 -0.2037
  735TMC3    C410861   3.384   4.007  12.464 -0.5287  0.1762 -0.1274
  735TMC3    C510862   3.358   3.896  12.382  0.2449  0.2244 -0.1060
  735TMC3    C610863   3.236   3.878  12.316 -0.2163  0.7413  0.3362
  735TMC3     C10864   3.341   4.231  12.442 -0.1216  0.1617  0.0640
  735TMC3     O10865   3.308   4.268  12.329  0.2606  0.2277 -0.1086
  735TMC3     H10866   3.090   4.168  12.410 -0.0556  0.0965  0.9416
  735TMC3    H110867   3.485   4.025  12.498 -0.4826  0.3445 -0.3491
  735TMC3    H210868   3.227   3.812  12.230  1.4616 -0.9327  1.4319
  735TMC3    C710869   3.472   3.867  12.292 -0.3973 -0.0077 -0.7601
  735TMC3    C810870   3.070   4.031  12.210  0.2168  0.3710  0.3451
  735TMC3    O110871   3.446   3.879  12.175 -0.1830 -0.4308 -0.0701
  735TMC3    O210872   2.973   3.977  12.165 -0.1485  0.8256  0.0986
  736MPD2     C10873   3.816   3.783  12.406 -1.0504  0.0461 -1.0373
  736MPD2    C110874   3.722   3.820  12.314  0.0502  1.0197  0.1264
  736MPD2    C210875   3.770   3.842  12.191  0.3128 -0.5721  0.1735
  736MPD2    C310876   3.905   3.825  12.151 -0.5024 -0.2384 -1.1689
  736MPD2    C410877   3.995   3.785  12.248 -0.1028 -0.6126 -0.3283
  736MPD2    C510878   3.947   3.760  12.374  0.4470  0.4066  0.2143
  736MPD2     H10879   3.697   3.860  12.113 -0.7353 -0.4697  1.1808
  736MPD2    H110880   4.095   3.760  12.216  0.1556 -1.2222  0.9738
  736MPD2    H210881   3.792   3.773  12.512  0.5998  0.1121 -0.6606
  736MPD2    H310882   4.020   3.725  12.446  0.4959  1.8947  0.8810
  736MPD2     N10883   3.949   3.846  12.017 -0.0693  0.6350 -0.1647
  736MPD2    H510884   4.046   3.818  12.008 -0.4210 -0.4416 -0.6014
  736MPD2    N110885   3.587   3.834  12.364 -0.1317  0.2491  0.1387
  736MPD2    H710886   3.580   3.824  12.465 -0.3519  2.7118  0.3772
  737TMC3    C110887   3.952   3.960  11.816  0.1470 -0.3644 -0.1141
  737TMC3    C210888   3.948   4.083  11.764  0.1471 -0.1377 -0.7020
  737TMC3    C310889   4.031   4.097  11.653  0.1777 -0.6101 -0.4602
  737TMC3    C410890   4.022   3.856  11.763  0.1770  0.2543  0.5850
  737TMC3    C510891   4.094   3.878  11.660 -0.1628  0.3161  0.6075
  737TMC3    C610892   4.113   4.000  11.602  0.5064  0.0678  0.1738
  737TMC3     C10893   3.881   3.941  11.935  0.4882 -0.1752  0.0861
  737TMC3     O10894   3.780   4.008  11.951 -0.0529  0.1746 -0.1188
  737TMC3     H10895   3.884   4.160  11.807  1.2100  0.1869  0.3000
  737TMC3    H110896   4.005   3.753  11.795  0.8188  0.5230  1.7973
  737TMC3    H210897   4.173   4.017  11.514  0.2773 -2.4671 -0.4867
  737TMC3    C710898   4.145   3.759  11.587 -0.5627  0.0746  0.2050
  737TMC3    C810899   4.045   4.229  11.601 -0.1741  0.0256 -0.9737
  737TMC3    O110900   4.092   3.651  11.616  0.0043  0.0667 -0.0126
  737TMC3    O210901   4.155   4.251  11.553  0.2215  0.2701 -0.4605
  738MPD2     C10902   3.812   3.256  15.135 -0.0316 -0.9743  0.4124
  738MPD2    C110903   3.742   3.210  15.023 -0.6593  0.5017  0.1833
  738MPD2    C210904   3.800   3.237  14.895 -0.1782  0.1531 -0.4788
  738MPD2    C310905   3.928   3.293  14.888  0.0774 -0.9771 -0.3561
  738MPD2    C410906   3.996   3.326  15.005 -0.3961 -0.4548  0.0381
  738MPD2    C510907   3.933   3.316  15.127  0.3905  0.2265  0.0029
  738MPD2     H10908   3.735   3.227  14.809 -0.1942  0.9378 -0.5574
  738MPD2    H110909   4.092   3.377  15.004 -0.3597 -0.5171  0.5536
  738MPD2    H210910   3.778   3.245  15.237  0.3742 -3.0649  0.3169
  738MPD2    H310911   3.991   3.337  15.216  0.0807 -0.1698  0.2974
  738MPD2     N10912   3.999   3.312  14.772 -0.0853  0.6375  0.6039
  738MPD2    H510913   4.092   3.350  14.783 -0.4573  0.7961  3.1797
  738MPD2    N110914   3.619   3.128  15.030  0.5158 -0.4175  0.1174
  738MPD2    H710915   3.584   3.082  14.946 -0.6847 -1.1835  1.0449
  739TMC3    C110916   4.042   3.319  14.536 -0.3166 -0.1963  0.1690
  739TMC3    C210917   4.046   3.244  14.420  0.3350  0.2397  0.1546
  739TMC3    C310918   4.141   3.301  14.330  0.0881  0.7020  0.4294
  739TMC3    C410919   4.116   3.435  14.561  0.1596  0.3855 -0.5853
  739TMC3    C510920   4.198   3.478  14.468  0.4123 -0.0662 -0.3729
  739TMC3    C610921   4.217   3.416  14.348 -0.2330  0.0394 -0.4266
  739TMC3     C10922   3.952   3.271  14.642  0.1769  0.5031 -0.1209
  739TMC3     O10923   3.856   3.209  14.613  0.2408 -0.6527 -0.0767
  739TMC3     H10924   3.996   3.149  14.404 -1.0467  0.9511  0.2440
  739TMC3    H110925   4.110   3.490  14.655  1.5910  0.5983 -0.6191
  739TMC3    H210926   4.293   3.448  14.277  0.3587 -0.9798 -0.2580
  739TMC3    C710927   4.242   3.614  14.487  0.3945  0.2053 -0.2446
  739TMC3    C810928   4.180   3.225  14.214 -0.6839  0.8062 -0.4057
  739TMC3    O110929   4.258   3.658  14.601 -0.2869 -0.7085 -0.1697
  739TMC3    O210930   4.259   3.271  14.131 -0.1568 -0.6422 -0.1087
  740TMC3    C110931   0.290   4.569  14.190 -0.7002 -0.3253 -0.0878
  740TMC3    C210932   0.338   4.516  14.311  0.2168  0.1815  0.0545
  740TMC3    C310933   0.465   4.540  14.353 -0.0313 -0.0523  0.2864
  740TMC3    C410934   0.373   4.642  14.108 -0.1884 -0.6347 -0.8946
  740TMC3    C510935   0.502   4.661  14.152  0.4060  0.5543  0.3032
  740TMC3    C610936   0.549   4.601  14.274 -0.4283 -0.7959 -0.5577
  740TMC3     C10937   0.152   4.566  14.161  0.0969 -0.3311 -0.2786
  740TMC3     O10938   0.118   4.643  14.075  0.6135 -0.7601  0.3452
  740TMC3     H10939   0.273   4.455  14.372  0.9010 -1.0151 -0.4092
  740TMC3    H110940   0.340   4.681  14.012  0.1255  1.3547 -0.1830
  740TMC3    H210941   0.650   4.616  14.310  1.0794 -2.2275 -4.1438
  740TMC3    C710942   0.613   4.696  14.062  0.3036 -0.5763 -0.1857
  740TMC3    C810943   0.517   4.474  14.468  0.5734  0.1019  0.3748
  740TMC3    O110944   0.727   4.693  14.109 -0.0750 -0.1411 -0.3987
  740TMC3    O210945   0.638   4.446  14.468 -0.2533 -0.0977 -0.1138
  741TMC3    C110946   4.402   3.653  13.761 -0.1817  0.3746 -0.3457
  741TMC3    C210947   4.277   3.594  13.763  0.0785  0.0291 -0.0518
  741TMC3    C310948   4.267   3.462  13.803 -0.3165  0.6164  0.3877
  741TMC3    C410949   4.513   3.582  13.802 -0.3053 -0.2754  0.3614
  741TMC3    C510950   4.497   3.453  13.852 -0.8645 -0.5003  0.0835
  741TMC3    C610951   4.376   3.395  13.846  0.0346  0.0369  0.0353
  741TMC3     C10952   4.430   3.782  13.701  0.3273 -0.3732 -0.4634
  741TMC3     O10953   4.552   3.791  13.682 -0.5390 -0.2595 -0.4722
  741TMC3     H10954   4.189   3.643  13.722  0.1061  0.2527  0.1570
  741TMC3    H110955   4.604   3.635  13.830 -1.1945  0.6307  1.5883
  741TMC3    H210956   4.366   3.302  13.901  0.3373 -0.8790 -1.4687
  741TMC3    C710957   4.587   3.427  13.957 -0.3867 -0.5336  0.0303
  741TMC3    C810958   4.135   3.430  13.865 -0.7352  0.0156  0.0802
  741TMC3    O110959   4.690   3.489  13.972  0.0597  0.2445 -0.0027
  741TMC3    O210960   4.058   3.523  13.877 -0.2378 -0.0421  1.1016
  742TMC3    C110961   3.573   2.295  15.379  1.0099  0.4250 -0.4255
  742TMC3    C210962   3.531   2.245  15.263 -0.6405 -0.1251 -0.3740
  742TMC3    C310963   3.629   2.227  15.164  0.4323  0.2960 -0.2334
  742TMC3    C410964   3.703   2.322  15.412 -0.0056 -0.1675  0.2987
  742TMC3    C510965   3.796   2.309  15.314 -0.2630  0.5337 -0.0877
  742TMC3    C610966   3.760   2.264  15.187  0.1116 -0.0983  0.5425
  742TMC3     C10967   3.466   2.312  15.483  0.3721 -0.0482 -0.0394
  742TMC3     O10968   3.353   2.291  15.446 -0.6238  0.3315  0.2013
  742TMC3     H10969   3.426   2.246  15.238 -0.2723 -1.6873 -1.9822
  742TMC3    H110970   3.723   2.372  15.506 -0.8132 -0.1304  0.4432
  742TMC3    H210971   3.833   2.259  15.107 -0.4028  0.8419  0.0138
  742TMC3    C710972   3.935   2.326  15.336  0.0622  0.0627 -0.2747
  742TMC3    C810973   3.595   2.194  15.023  0.3679  0.3641 -0.3571
  742TMC3    O110974   4.006   2.293  15.241 -0.2711  0.0794  0.1998
  742TMC3    O210975   3.687   2.139  14.965  0.5430 -0.4604 -0.4241
  743MPD2     C10976   3.288   3.230   1.770 -0.6666  0.3975  0.6288
  743MPD2    C110977   3.300   3.208   1.636  0.3607  1.2197  0.6079
  743MPD2    C210978   3.417   3.246   1.573 -0.2747  0.4367 -0.6805
  743MPD2    C310979   3.517   3.314   1.643  0.7202  0.6590  0.2286
  743MPD2    C410980   3.501   3.329   1.782 -0.5348  0.2522  0.1987
  743MPD2    C510981   3.387   3.284   1.846  0.6644  0.2674 -0.1013
  743MPD2     H10982   3.433   3.210   1.472  1.2958 -2.1865  0.4891
  743MPD2    H110983   3.563   3.378   1.855  1.2969  0.1038 -1.2770
  743MPD2    H210984   3.204   3.195   1.829  0.6065 -0.5581  1.8680
  743MPD2    H310985   3.380   3.318   1.949  0.0525  0.1342 -0.0981
  743MPD2     N10986   3.640   3.366   1.587  0.2563  0.2326  0.0633
  743MPD2    H510987   3.654   3.344   1.489  2.4608 -2.3944  0.9775
  743MPD2    N110988   3.206   3.126   1.573  0.0570  0.0264  0.4452
  743MPD2    H710989   3.134   3.095   1.637 -1.0399  0.0484 -0.7854
  744TMC3    C110990   3.069   3.031   1.410  0.0691  0.2345 -0.2476
  744TMC3    C210991   2.963   3.045   1.498  0.0188 -0.1259  0.4800
  744TMC3    C310992   2.835   3.029   1.446 -0.6066 -0.1084 -0.2545
  744TMC3    C410993   3.043   2.994   1.284 -0.4419 -0.1006 -0.0816
  744TMC3    C510994   2.915   2.984   1.237 -0.3500 -0.0864  0.0625
  744TMC3    C610995   2.808   3.007   1.319 -0.4722  0.8842 -0.5126
  744TMC3     C10996   3.199   3.094   1.438  0.1411  0.7136  0.2548
  744TMC3     O10997   3.270   3.119   1.342  0.4880  0.4894  0.3190
  744TMC3     H10998   2.979   3.084   1.598 -1.3941 -1.7058  1.3357
  744TMC3    H110999   3.122   2.988   1.209 -0.6814  0.4713 -0.3858
  744TMC3    H211000   2.704   3.023   1.293 -0.8168  0.7482  0.7889
  744TMC3    C711001   2.883   2.973   1.097 -0.5391  0.0072  0.2037
  744TMC3    C811002   2.739   3.105   1.521 -0.0825  0.2401 -0.8369
  744TMC3    O111003   2.976   2.994   1.018 -0.0216  0.0160 -0.8680
  744TMC3    O211004   2.651   3.169   1.461  0.3403  0.0757  0.5386
  745TMC3    C111005   0.133   1.782  13.878 -0.3854  0.3705  0.1453
  745TMC3    C211006   0.031   1.768  13.969 -0.1717  0.2710 -0.2464
  745TMC3    C311007   4.628   1.779  13.915 -1.2455  1.1521  0.0096
  745TMC3    C411008   0.122   1.785  13.743  0.8107  0.0656  0.3016
  745TMC3    C511009   4.717   1.795  13.692  0.5057 -0.3943 -0.1681
  745TMC3    C611010   4.608   1.799  13.781 -0.2395  0.1215 -0.4259
  745TMC3     C11011   0.260   1.807  13.945  0.2881 -0.0547  0.1626
  745TMC3     O11012   0.278   1.752  14.053  0.2200  0.5625 -0.4798
  745TMC3     H11013   0.041   1.764  14.077 -1.1741  1.0893 -0.1235
  745TMC3    H111014   0.209   1.776  13.679 -0.7248 -3.4039 -1.3374
  745TMC3    H211015   4.509   1.829  13.747 -0.2531 -1.6405 -1.9223
  745TMC3    C711016   4.690   1.828  13.547 -0.3389  0.5697 -0.7856
  745TMC3    C811017   4.523   1.837  14.007  0.1638 -0.4521  0.3423
  745TMC3    O111018   4.573   1.822  13.507 -1.0874  0.7000  0.4611
  745TMC3    O211019   4.462   1.927  13.956 -0.5552 -0.1636  0.1315
  746TMC3    C111020   2.300   3.792  10.996  0.6185 -0.8385  0.6216
  746TMC3    C211021   2.376   3.760  10.880  0.1347  0.0010  0.6072
  746TMC3    C311022   2.343   3.650  10.811 -0.7414  0.0217 -0.2122
  746TMC3    C411023   2.206   3.714  11.039 -0.2102 -0.0908  0.3913
  746TMC3    C511024   2.172   3.610  10.955 -0.1731 -0.4994 -0.1683
  746TMC3    C611025   2.234   3.583  10.839  0.2994  0.2750  0.4412
  746TMC3     C11026   2.346   3.904  11.081  0.1774  0.5592 -0.1277
  746TMC3     O11027   2.279   3.915  11.183  0.5338  0.3599  0.3462
  746TMC3     H11028   2.456   3.825  10.845  0.5629  0.4774  2.4260
  746TMC3    H111029   2.151   3.737  11.129 -1.3515  0.4592 -0.4407
  746TMC3    H211030   2.212   3.499  10.774  1.3996 -0.5326  1.1177
  746TMC3    C711031   2.082   3.509  11.005 -0.0260  0.3147  0.1716
  746TMC3    C811032   2.398   3.636  10.676  0.0174 -0.1266  0.1442
  746TMC3    O111033   2.042   3.416  10.933  0.3467 -0.0393  0.3547
  746TMC3    O211034   2.329   3.570  10.602  0.3964  0.3471 -0.0080
  747TMC3    C111035   0.343   3.502  11.070 -0.5186 -0.0439  0.2626
  747TMC3    C211036   0.205   3.505  11.083  0.4036 -0.0083 -0.2217
  747TMC3    C311037   0.156   3.563  11.199 -0.4978  0.0109  0.5472
  747TMC3    C411038   0.434   3.553  11.169 -0.2317 -0.6907  0.7245
  747TMC3    C511039   0.373   3.588  11.286  0.1240 -0.0251 -0.0902
  747TMC3    C611040   0.238   3.606  11.296 -0.7925 -0.2531  0.3975
  747TMC3     C11041   0.415   3.460  10.947  0.1379 -0.2130 -0.6187
  747TMC3     O11042   0.525   3.498  10.931  0.2214  0.1300  0.0420
  747TMC3     H11043   0.146   3.485  10.995 -1.1346  0.6759  0.6658
  747TMC3    H111044   0.540   3.536  11.151 -0.6996 -2.3802 -0.4032
  747TMC3    H211045   0.196   3.651  11.385  0.2397 -0.3665  0.9376
  747TMC3    C711046   0.453   3.604  11.401 -0.5983  0.5535 -0.1124
  747TMC3    C811047   0.024   3.511  11.225 -0.6019  0.0485  0.0405
  747TMC3    O111048   0.408   3.676  11.491  0.4914  0.2352  0.1938
  747TMC3    O211049   4.708   3.407  11.177 -0.0076  0.2345 -0.5499
  748MPD2     C11050   1.691   4.625   1.906  0.0872 -0.0146  0.4761
  748MPD2    C111051   1.652   4.595   1.782 -0.7226 -0.1079 -0.4096
  748MPD2    C211052   1.727   4.510   1.705  0.5175 -0.4224 -0.4113
  748MPD2    C311053   1.849   4.457   1.745  0.3748 -1.6758 -0.1271
  748MPD2    C411054   1.887   4.501   1.870  0.0960  0.1470  0.2199
  748MPD2    C511055   1.817   4.590   1.946 -0.5324 -1.2602 -0.3961
  748MPD2     H11056   1.695   4.493   1.603 -0.7197 -0.0550 -0.0844
  748MPD2    H111057   1.980   4.469   1.916  0.4909  3.6506  1.8753
  748MPD2    H211058   1.640   4.697   1.969  1.1100  0.5702  0.6321
  748MPD2    H311059   1.858   4.620   2.042 -3.4658  1.4683  0.0249
  748MPD2     N11060   1.924   4.375   1.657  0.0062 -0.3932 -0.1661
  748MPD2    H511061   1.878   4.351   1.570 -1.6958 -0.2042  0.6817
  748MPD2    N111062   1.535   4.651   1.732 -0.4894 -0.7129  0.3862
  748MPD2    H711063   1.489   4.704   1.805 -1.0655  1.1115 -1.3085
  749TMC3    C111064   2.123   4.272   1.577 -0.2745 -0.2393 -0.6210
  749TMC3    C211065   2.246   4.220   1.607 -0.6619  0.1595  0.5168
  749TMC3    C311066   2.327   4.186   1.499  1.0627 -0.3200 -0.7701
  749TMC3    C411067   2.074   4.283   1.448  0.5932 -0.2667 -0.1721
  749TMC3    C511068   2.162   4.242   1.345 -0.0371 -0.2230 -0.0488
  749TMC3    C611069   2.291   4.203   1.370  0.4830  0.2428  0.1870
  749TMC3     C11070   2.053   4.338   1.688  0.0314  0.7648  0.0601
  749TMC3     O11071   2.120   4.342   1.791  0.1578 -0.0041 -0.4798
  749TMC3     H11072   2.273   4.188   1.707 -1.4942  0.9087  0.9839
  749TMC3    H111073   1.986   4.342   1.426  2.1934  2.6783  1.2604
  749TMC3    H211074   2.365   4.184   1.294  0.1261  0.3164 -0.1791
  749TMC3    C711075   2.129   4.299   1.219 -0.8582  0.4415  0.9024
  749TMC3    C811076   2.466   4.172   1.537  0.0738  0.5200  0.4198
  749TMC3    O111077   2.070   4.407   1.216  0.5466  0.7646  0.1466
  749TMC3    O211078   2.487   4.218   1.650 -0.0152 -0.2163  0.0041
  750MPD2     C11079   2.546   1.015  11.554  0.0639  0.2763  0.2019
  750MPD2    C111080   2.458   0.926  11.614  0.1318 -1.0686 -0.2389
  750MPD2    C211081   2.419   0.815  11.542  0.8771  0.7100  0.0753
  750MPD2    C311082   2.470   0.785  11.422 -0.6213 -0.4373  0.3006
  750MPD2    C411083   2.563   0.869  11.360  0.0519  0.0612 -0.0409
  750MPD2    C511084   2.594   0.984  11.425  0.9822 -0.7186  1.2575
  750MPD2     H11085   2.346   0.745  11.581  0.8444  0.7401  0.0678
  750MPD2    H111086   2.592   0.859  11.256  0.9850 -2.0754  0.4148
  750MPD2    H211087   2.570   1.106  11.606 -1.6206 -0.1639  1.7448
  750MPD2    H311088   2.655   1.053  11.368  0.0968 -1.5616 -0.6941
  750MPD2     N11089   2.436   0.667  11.349  0.1424  0.1973  0.5252
  750MPD2    H511090   2.501   0.658  11.271 -0.2219 -0.5369  0.3026
  750MPD2    N111091   2.420   0.951  11.747  0.2273 -0.8692  0.1437
  750MPD2    H711092   2.470   1.026  11.794  0.3790 -0.4896 -0.6267
  751TMC3    C111093   2.328   0.469  11.286  0.3978  0.1663  0.3645
  751TMC3    C211094   2.251   0.365  11.323 -0.5794 -0.1222  0.2639
  751TMC3    C311095   2.278   0.240  11.263  0.0724  0.1768  0.3557
  751TMC3    C411096   2.416   0.458  11.180 -0.3722 -0.6052 -0.0873
  751TMC3    C511097   2.420   0.343  11.112 -0.2889  0.0735 -0.2160
  751TMC3    C611098   2.363   0.232  11.159  0.1793 -0.0233 -0.0263
  751TMC3     C11099   2.328   0.585  11.373  0.3937 -0.2865 -0.6472
  751TMC3     O11100   2.233   0.604  11.443 -0.0708  0.6351  0.1853
  751TMC3     H11101   2.189   0.370  11.411  0.1206  0.9740  0.6996
  751TMC3    H111102   2.443   0.548  11.126 -0.2931 -0.0572  0.8634
  751TMC3    H211103   2.377   0.132  11.120 -0.9767  0.4356 -1.6101
  751TMC3    C711104   2.490   0.343  10.985 -0.4573 -0.0775 -0.0501
  751TMC3    C811105   2.187   0.124  11.284 -0.0131 -0.7601  0.5714
  751TMC3    O111106   2.579   0.422  10.977 -0.0038 -0.4084 -0.1350
  751TMC3    O211107   2.178   0.042  11.196 -0.6408  0.3782  0.9630
  752TMC3    C111108   1.255   0.343  16.237 -0.0053 -0.2322  0.2769
  752TMC3    C211109   1.356   0.250  16.228  0.3971  0.4913  0.5308
  752TMC3    C311110   1.391   0.164  16.335  0.0065 -0.7650  0.3440
  752TMC3    C411111   1.187   0.356  16.359 -0.4671 -0.0923  0.6817
  752TMC3    C511112   1.228   0.276  16.462  0.1783 -0.6052 -0.3994
  752TMC3    C611113   1.331   0.186  16.456 -0.0842  0.2550  0.6051
  752TMC3     C11114   1.235   0.423  16.119 -0.7482  0.3052 -0.4056
  752TMC3     O11115   1.296   0.399  16.014  0.5026  0.5181  0.0420
  752TMC3     H11116   1.411   0.235  16.136 -0.9439  2.3386 -0.5642
  752TMC3    H111117   1.116   0.437  16.374 -0.7855 -0.5409  1.6050
  752TMC3    H211118   1.390   0.142  16.536  1.3770 -0.7256 -0.9933
  752TMC3    C711119   1.158   0.288  16.586  0.7950 -0.6979  0.3733
  752TMC3    C811120   1.497   0.057  16.316 -0.4232  0.6860 -0.1787
  752TMC3    O111121   1.083   0.385  16.614  0.2506 -0.5363 -0.0774
  752TMC3    O211122   1.569   0.072  16.217 -0.4769 -0.5208  0.2211
  753TMC3    C111123   2.827   1.758  13.415  0.3301 -0.1435 -0.3494
  753TMC3    C211124   2.902   1.778  13.530  0.4816 -0.2117  0.8924
  753TMC3    C311125   2.918   1.663  13.604 -0.3504 -1.1727 -0.5845
  753TMC3    C411126   2.796   1.635  13.361 -0.2894 -0.4122  0.1226
  753TMC3    C511127   2.838   1.527  13.433 -0.0021 -0.4816 -0.5627
  753TMC3    C611128   2.883   1.534  13.559  0.0623  0.7646 -0.1188
  753TMC3     C11129   2.807   1.870  13.326  0.2622 -0.4134  0.6391
  753TMC3     O11130   2.720   1.863  13.238  1.0557  0.2181 -0.4430
  753TMC3     H11131   2.883   1.867  13.589 -1.7846 -1.6228  2.2740
  753TMC3    H111132   2.750   1.628  13.263 -2.1914 -0.1175  1.0078
  753TMC3    H211133   2.911   1.444  13.613  0.4507  0.6166 -0.5548
  753TMC3    C711134   2.764   1.401  13.397  0.2562 -1.2605 -0.0736
  753TMC3    C811135   2.944   1.680  13.745 -0.5469 -0.7162  0.2150
  753TMC3    O111136   2.656   1.410  13.341 -0.0395  0.4037 -0.3737
  753TMC3    O211137   2.899   1.582  13.808 -0.2701 -0.0388 -0.7249
  754MPD2     C11138   2.409   0.844  13.037  0.0682  0.0144 -0.0739
  754MPD2    C111139   2.375   0.705  13.042  0.5742  0.1625  0.7401
  754MPD2    C211140   2.241   0.669  13.026  1.0097  0.3465  0.3177
  754MPD2    C311141   2.141   0.762  13.016  0.1318 -0.5160  0.5961
  754MPD2    C411142   2.172   0.894  13.022  0.8110 -0.7449 -0.0762
  754MPD2    C511143   2.302   0.935  13.035  0.0980 -0.3907 -1.1692
  754MPD2     H11144   2.214   0.564  13.022 -0.6744  0.7812  0.2428
  754MPD2    H111145   2.093   0.968  13.020 -0.9078 -2.5012  1.5748
  754MPD2    H211146   2.512   0.876  13.032  0.4009 -0.7217  1.9332
  754MPD2    H311147   2.316   1.042  13.051 -0.7834 -0.7043  1.5894
  754MPD2     N11148   2.003   0.729  13.011 -0.0484 -0.2212 -0.3733
  754MPD2    H511149   1.934   0.804  13.015  0.4353  0.3506 -2.9087
  754MPD2    N111150   2.478   0.616  13.058 -0.6553 -0.0281 -0.2874
  754MPD2    H711151   2.565   0.660  13.032 -0.1102 -1.8349 -1.5766
  755MPD2     C11152   1.286   1.252  12.916  0.8660  0.0346 -0.1318
  755MPD2    C111153   1.275   1.187  13.038  0.0358 -0.7170 -0.3514
  755MPD2    C211154   1.353   1.076  13.063  0.9503  0.4971  0.4796
  755MPD2    C311155   1.444   1.029  12.971 -0.8627  0.5350 -0.6432
  755MPD2    C411156   1.444   1.081  12.844  0.4687 -0.6253  0.5116
  755MPD2    C511157   1.371   1.199  12.819 -0.7081  0.5756 -0.4116
  755MPD2     H11158   1.344   1.023  13.157 -1.3722 -1.0541 -0.6352
  755MPD2    H111159   1.503   1.035  12.765 -1.7177 -1.9220 -0.3845
  755MPD2    H211160   1.249   1.351  12.892 -0.3803 -0.9166 -2.1752
  755MPD2    H311161   1.363   1.239  12.719  0.7230  0.6980 -0.4873
  755MPD2     N11162   1.526   0.915  12.994  0.0385 -0.0082 -0.3708
  755MPD2    H511163   1.579   0.878  12.916  2.4121 -0.6958  1.5703
  755MPD2    N111164   1.174   1.225  13.126 -0.0212  0.5500 -0.4072
  755MPD2    H711165   1.177   1.178  13.216  1.4436  0.6687 -0.3828
  756MPD2     C11166   2.200   0.754   9.796  0.0466 -1.2389 -0.2696
  756MPD2    C111167   2.096   0.795   9.870 -0.2303  0.2649 -0.2214
  756MPD2    C211168   1.977   0.836   9.814  0.7876  0.3558 -0.6058
  756MPD2    C311169   1.968   0.841   9.679  0.0206  0.0010 -0.3004
  756MPD2    C411170   2.072   0.789   9.600 -0.6741  0.1277  0.4620
  756MPD2    C511171   2.183   0.746   9.662  0.1186  0.2264 -0.4187
  756MPD2     H11172   1.911   0.890   9.881 -0.0557 -0.5221 -0.7371
  756MPD2    H111173   2.057   0.790   9.492 -1.2878  1.9597  0.5605
  756MPD2    H211174   2.290   0.719   9.845  0.0787 -0.4345  0.2421
  756MPD2    H311175   2.263   0.701   9.603 -2.6175 -2.3812 -2.1073
  756MPD2     N11176   1.850   0.888   9.622  0.5398 -0.2815  0.0405
  756MPD2    H511177   1.770   0.901   9.683  0.1212 -0.6940 -0.4147
  756MPD2    N111178   2.111   0.813  10.013  0.7893  0.0526  0.7867
  756MPD2    H711179   2.028   0.842  10.064 -1.3767 -0.3349 -2.5579
  757MPD2     C11180   1.084   0.624   9.843 -0.1053  0.1012 -0.2416
  757MPD2    C111181   1.205   0.562   9.825 -0.1412  0.9935 -0.0347
  757MPD2    C211182   1.309   0.625   9.755  0.0815 -0.9422 -0.0177
  757MPD2    C311183   1.284   0.745   9.692 -0.4579  0.0457 -0.1662
  757MPD2    C411184   1.156   0.796   9.713 -0.3732 -0.3688  0.5465
  757MPD2    C511185   1.064   0.752   9.792 -1.1593 -0.4724  0.7430
  757MPD2     H11186   1.403   0.575   9.739  0.3071 -0.5541  0.1058
  757MPD2    H111187   1.142   0.894   9.669 -0.4844 -0.7268 -0.2120
  757MPD2    H211188   1.017   0.568   9.907 -0.0386 -0.6645 -0.8553
  757MPD2    H311189   0.970   0.803   9.809 -0.5451  1.2266 -1.0149
  757MPD2     N11190   1.377   0.799   9.595 -0.6026 -0.2045  0.5651
  757MPD2    H511191   1.466   0.751   9.605  1.4084  3.1795 -0.9677
  757MPD2    N111192   1.209   0.431   9.878 -0.6203 -0.4292  0.0855
  757MPD2    H711193   1.129   0.404   9.934 -1.5218 -1.5014 -1.7221
  758MPD2     C11194   1.988   0.668  15.785 -0.4730  0.8718 -0.9146
  758MPD2    C111195   2.061   0.571  15.854  1.0617  0.1291 -0.1694
  758MPD2    C211196   2.000   0.510  15.961 -0.2723 -0.6846 -0.6147
  758MPD2    C311197   1.878   0.553  16.016  0.8568 -0.3496 -0.2568
  758MPD2    C411198   1.819   0.663  15.958  0.8878 -0.7356  0.6061
  758MPD2    C511199   1.866   0.708  15.838  0.5847 -1.1709 -0.5530
  758MPD2     H11200   2.038   0.414  15.995  0.0662 -0.7843 -1.2687
  758MPD2    H111201   1.722   0.701  15.987 -1.1843 -4.6496 -1.2292
  758MPD2    H211202   2.028   0.715  15.696 -1.1505  2.4172 -0.3869
  758MPD2    H311203   1.808   0.791  15.800  0.2202 -0.8484  0.7069
  758MPD2     N11204   1.830   0.498  16.134 -0.0522  0.5092  0.6141
  758MPD2    H511205   1.735   0.521  16.160 -0.5214 -1.6701  0.8060
  758MPD2    N111206   2.188   0.525  15.813  0.3468  0.0096 -0.0633
  758MPD2    H711207   2.232   0.470  15.887 -0.2371  0.2303  0.4415
  759MPD2     C11208   1.491   3.182   9.651 -0.4902 -0.6880  0.5542
  759MPD2    C111209   1.377   3.101   9.636 -0.0109 -0.0031  0.1629
  759MPD2    C211210   1.314   3.108   9.507  0.0533  0.0784  0.4104
  759MPD2    C311211   1.367   3.182   9.404 -0.9274  0.4312 -0.6981
  759MPD2    C411212   1.479   3.261   9.430  0.3432  0.4434 -0.2679
  759MPD2    C511213   1.531   3.265   9.556 -0.4636 -0.4872 -0.3259
  759MPD2     H11214   1.227   3.050   9.479  0.6645 -1.2568  1.2651
  759MPD2    H111215   1.531   3.319   9.354 -0.0135 -0.3689 -1.1370
  759MPD2    H211216   1.549   3.181   9.743  1.2338 -1.3006 -0.5503
  759MPD2    H311217   1.623   3.321   9.571  0.4677 -2.2557  0.6569
  759MPD2     N11218   1.310   3.158   9.275  0.0148 -0.0933 -0.3716
  759MPD2    H511219   1.236   3.090   9.265  1.1136 -1.3556  0.0898
  759MPD2    N111220   1.330   3.004   9.722  0.3414 -0.1100 -0.3910
  759MPD2    H711221   1.238   2.968   9.697  0.6497 -0.8610 -0.4587
  760MPD2     C11222   0.912   0.583  11.480  0.0050  0.5571 -0.0419
  760MPD2    C111223   0.966   0.682  11.564 -0.3910  0.6360  0.1294
  760MPD2    C211224   0.989   0.655  11.698 -0.2246 -0.0781 -0.5985
  760MPD2    C311225   0.961   0.531  11.751 -0.1891 -0.4754  0.2359
  760MPD2    C411226   0.912   0.432  11.666 -0.1397 -0.2012  0.0651
  760MPD2    C511227   0.894   0.460  11.531  0.0259  0.1375  0.8887
  760MPD2     H11228   1.040   0.733  11.754  0.7155  0.1542 -1.7646
  760MPD2    H111229   0.895   0.329  11.693  0.2878 -0.2244  0.2412
  760MPD2    H211230   0.917   0.607  11.375 -2.1742 -0.9761 -0.5091
  760MPD2    H311231   0.865   0.387  11.457  2.5274 -0.9091  0.9225
  760MPD2     N11232   1.008   0.487  11.881  0.2650 -0.2856  0.0093
  760MPD2    H511233   0.996   0.389  11.901  0.4182 -0.2642  0.2048
  760MPD2    N111234   0.986   0.822  11.535  0.5706  0.2757  0.4362
  760MPD2    H711235   1.015   0.883  11.610  3.7677  0.1941 -0.7125
  761MPD2     C11236   1.846   4.576  11.562  0.2614 -0.2639  0.1289
  761MPD2    C111237   1.884   4.566  11.435  0.0008  0.2072  0.4284
  761MPD2    C211238   1.968   4.655  11.371 -0.5680 -0.6510 -0.0510
  761MPD2    C311239   2.023   0.030  11.449  0.1126  0.5671 -0.2025
  761MPD2    C411240   1.983   0.046  11.582  0.2516 -0.3412 -0.1283
  761MPD2    C511241   1.890   4.690  11.634 -0.5523 -0.5535 -0.5529
  761MPD2     H11242   2.009   4.633  11.273 -2.1164  2.3298 -1.3729
  761MPD2    H111243   2.014   0.123  11.652 -1.9354 -1.3334  1.9308
  761MPD2    H211244   1.762   4.520  11.600  1.0509 -2.1730 -0.9173
  761MPD2    H311245   1.864   4.701  11.739 -0.8512 -1.2679 -0.5504
  761MPD2     N11246   2.120   0.121  11.403 -0.5151 -0.6835  0.1197
  761MPD2    H511247   2.153   0.184  11.475  0.4048 -1.2999  0.2369
  761MPD2    N111248   1.839   4.447  11.367  0.1986 -0.1818  0.4997
  761MPD2    H711249   1.794   4.375  11.421 -0.3089 -1.8342 -2.1493
  762MPD2     C11250   1.719   3.725  10.828 -0.0459 -0.0605  0.4123
  762MPD2    C111251   1.757   3.859  10.822  0.4272 -0.6088 -0.3529
  762MPD2    C211252   1.859   3.898  10.742  0.8332 -0.4801  0.4255
  762MPD2    C311253   1.922   3.801  10.662  0.2490  0.7761  0.8320
  762MPD2    C411254   1.889   3.669  10.672  0.1304  0.1464 -0.3423
  762MPD2    C511255   1.787   3.630  10.755  0.2885  0.4057 -0.3048
  762MPD2     H11256   1.914   3.991  10.734 -1.5892  0.8844 -0.4235
  762MPD2    H111257   1.921   3.587  10.609 -2.3538 -0.8887 -0.2290
  762MPD2    H211258   1.633   3.692  10.886 -0.1317  0.3717  0.5254
  762MPD2    H311259   1.763   3.524  10.764  2.3176 -0.0277 -0.1073
  762MPD2     N11260   2.010   3.844  10.563  0.2229 -0.2135  0.7750
  762MPD2    H511261   2.020   3.941  10.535 -2.1262 -0.2335 -0.0772
  762MPD2    N111262   1.701   3.953  10.906 -0.1451  0.2118  0.1102
  762MPD2    H711263   1.629   3.926  10.973 -0.6407  1.3356  0.0434
  763MPD2     C11264   3.439   0.160  16.006 -0.5051 -0.4150  0.2594
  763MPD2    C111265   3.579   0.180  15.987 -0.0473  0.2999 -0.2842
  763MPD2    C211266   3.662   0.205  16.101 -0.2252 -0.1165 -0.4055
  763MPD2    C311267   3.611   0.206  16.226 -0.0199 -0.1511  0.2130
  763MPD2    C411268   3.478   0.180  16.244  0.1477 -0.0292  0.3956
  763MPD2    C511269   3.397   0.156  16.136 -1.2730 -0.2241  0.0952
  763MPD2     H11270   3.767   0.232  16.094 -0.4750  0.8771 -0.4358
  763MPD2    H111271   3.439   0.183  16.345 -1.1789 -1.2274 -0.0839
  763MPD2    H211272   3.368   0.142  15.927 -0.0446 -1.9489  0.1943
  763MPD2    H311273   3.290   0.174  16.140 -1.5845 -1.5624 -1.8413
  763MPD2     N11274   3.693   0.249  16.342 -0.0822 -0.1207 -0.0008
  763MPD2    H511275   3.650   0.234  16.433  0.0797  0.0980  0.1106
  763MPD2    N111276   3.634   0.179  15.861 -0.3371 -0.4188 -0.3612
  763MPD2    H711277   3.735   0.189  15.864 -0.0198 -3.3092 -0.8167
  764MPD2     C11278   1.026   1.447  16.969 -0.0670 -0.2862  0.5930
  764MPD2    C111279   1.073   1.392  16.853 -1.6252 -0.2975 -0.1637
  764MPD2    C211280   1.122   1.267  16.863 -0.2397  0.1265 -0.5566
  764MPD2    C311281   1.139   1.202  16.982 -0.1539  0.3927 -0.5992
  764MPD2    C411282   1.098   1.258  17.102  0.0125 -0.1363 -0.5024
  764MPD2    C511283   1.036   1.381  17.090  0.5271  0.6164 -0.4689
  764MPD2     H11284   1.158   1.217  16.774  0.6099  1.1567 -0.7945
  764MPD2    H111285   1.116   1.211  17.198 -2.3810  1.6965  0.8453
  764MPD2    H211286   0.995   1.550  16.976 -0.4887 -0.4044  0.4654
  764MPD2    H311287   0.989   1.430  17.175  1.8357 -1.2004  1.2862
  764MPD2     N11288   1.216   1.084  16.979  0.4785 -0.2572  0.6564
  764MPD2    H511289   1.234   1.037  16.891 -0.9724  2.0274 -0.8292
  764MPD2    N111290   1.079   1.464  16.732 -0.4589 -0.0204 -0.4037
  764MPD2    H711291   1.135   1.417  16.662 -1.0865 -0.2173 -0.7701
  765MPD2     C11292   1.699   0.238  15.982  0.6696  0.9520  0.0756
  765MPD2    C111293   1.650   0.234  15.855  0.7866 -0.3832 -0.5940
  765MPD2    C211294   1.725   0.175  15.747 -0.5890  0.3897 -0.7722
  765MPD2    C311295   1.852   0.129  15.774 -0.8883 -0.5179 -0.8278
  765MPD2    C411296   1.901   0.133  15.907  0.2347 -0.0191 -0.2604
  765MPD2    C511297   1.821   0.180  16.010  0.0275  0.3998  0.1280
  765MPD2     H11298   1.690   0.187  15.645 -1.1877  1.9230 -0.3804
  765MPD2    H111299   2.001   0.101  15.935 -0.6660 -1.9867  0.7287
  765MPD2    H211300   1.639   0.279  16.062 -0.8641  0.2590 -0.7129
  765MPD2    H311301   1.856   0.187  16.112  1.4966  0.4298 -0.3652
  765MPD2     N11302   1.941   0.088  15.674 -0.6047 -0.8471 -0.2234
  765MPD2    H511303   2.030   0.053  15.709  0.1703  0.7854 -0.5572
  765MPD2    N111304   1.529   0.298  15.819 -0.4392 -0.4730 -0.3831
  765MPD2    H711305   1.475   0.353  15.886  0.6640  0.3799 -0.2079
  766MPD2     C11306   0.965   0.253  15.170 -0.3385  0.2827  0.2593
  766MPD2    C111307   1.095   0.227  15.203  0.5711 -0.0973 -1.1823
  766MPD2    C211308   1.174   0.147  15.120 -0.0524  0.1855 -0.0923
  766MPD2    C311309   1.128   0.104  14.996 -0.0092  0.2833 -0.3005
  766MPD2    C411310   1.002   0.140  14.958  0.0775 -0.1834 -0.0665
  766MPD2    C511311   0.918   0.212  15.049 -0.0514  0.2916  0.4208
  766MPD2     H11312   1.280   0.127  15.134  0.4833  1.8297 -1.7569
  766MPD2    H111313   0.977   0.120  14.854 -0.8962  2.6505 -0.3825
  766MPD2    H211314   0.901   0.308  15.238  1.0704  1.9039  0.2863
  766MPD2    H311315   0.815   0.238  15.028 -1.0282 -0.1862  4.7446
  766MPD2     N11316   1.212   0.055  14.894  0.3763  0.5585  0.1982
  766MPD2    H511317   1.171   0.040  14.803 -2.6340 -0.5505  1.7199
  766MPD2    N111318   1.155   0.281  15.317 -0.9563 -0.2041  0.1603
  766MPD2    H711319   1.245   0.239  15.340 -0.9147 -0.3302 -0.2306
  767MPD2     C11320   0.655   0.276  14.664 -0.2329  0.6629  0.0075
  767MPD2    C111321   0.794   0.301  14.658 -0.0437  0.2893  0.3051
  767MPD2    C211322   0.862   0.250  14.552 -0.0792 -0.1439  0.3900
  767MPD2    C311323   0.791   0.182  14.452  0.1332  0.0353 -0.4808
  767MPD2    C411324   0.654   0.165  14.455 -0.5796  0.6780  0.0598
  767MPD2    C511325   0.587   0.209  14.568  0.4222 -0.0240  0.5736
  767MPD2     H11326   0.970   0.259  14.538  0.1294 -0.6491  1.6659
  767MPD2    H111327   0.598   0.120  14.373  0.9915 -1.5796  0.2371
  767MPD2    H211328   0.592   0.302  14.748  3.5328  0.5973  2.8611
  767MPD2    H311329   0.479   0.208  14.578  0.2821 -0.8192 -1.0643
  767MPD2     N11330   0.849   0.145  14.329  0.2178  0.2354 -0.6868
  767MPD2    H511331   0.787   0.113  14.255 -1.6023 -2.5902  2.0729
  767MPD2    N111332   0.854   0.383  14.757  0.1329  0.2186 -0.1960
  767MPD2    H711333   0.793   0.414  14.832 -0.3485 -0.2529 -0.3969
  768MPD2     C11334   1.864   2.643  10.768 -0.4277 -0.6464  1.0426
  768MPD2    C111335   1.865   2.700  10.895  0.3506 -0.0299 -0.3651
  768MPD2    C211336   1.985   2.744  10.953  0.5564  0.4331 -0.3997
  768MPD2    C311337   2.112   2.734  10.884 -0.2722  0.6209  0.1966
  768MPD2    C411338   2.109   2.669  10.764  0.0235 -0.4489  0.3448
  768MPD2    C511339   1.986   2.624  10.704  0.2017 -0.1335  0.0748
  768MPD2     H11340   1.974   2.791  11.050  2.1148  0.4317 -0.2132
  768MPD2    H111341   2.201   2.643  10.712 -0.8236 -2.8716  0.0218
  768MPD2    H211342   1.782   2.605  10.708  1.5224 -0.2046 -1.9216
  768MPD2    H311343   1.982   2.585  10.603 -2.0944 -3.3825  1.4124
  768MPD2     N11344   2.234   2.783  10.931 -0.9216  0.1149 -0.1923
  768MPD2    H511345   2.323   2.765  10.885 -0.2016  1.2789  0.7295
  768MPD2    N111346   1.749   2.737  10.955  0.4200  0.0526 -0.1944
  768MPD2    H711347   1.759   2.777  11.047 -3.2634 -0.8694  0.5892
  769MPD2     C11348   3.113   1.371  15.046 -0.5890  0.1393 -0.2836
  769MPD2    C111349   3.012   1.310  15.103  0.2765 -0.4840 -0.3503
  769MPD2    C211350   3.013   1.319  15.245 -0.0416 -0.0416 -0.9087
  769MPD2    C311351   3.119   1.374  15.318  0.4935  0.6331 -0.5226
  769MPD2    C411352   3.213   1.440  15.250 -0.0734  0.5750  0.6709
  769MPD2    C511353   3.213   1.437  15.112 -0.1220 -0.0601  0.6163
  769MPD2     H11354   2.934   1.272  15.303 -0.5303  2.0953  0.1489
  769MPD2    H111355   3.286   1.494  15.309 -0.2994  0.5264  0.9948
  769MPD2    H211356   3.126   1.376  14.939  0.3567  0.9355 -0.1413
  769MPD2    H311357   3.296   1.477  15.056 -0.3987 -0.0832  0.1928
  769MPD2     N11358   3.103   1.380  15.451 -0.2501 -0.0669  0.3134
  769MPD2    H511359   3.016   1.340  15.487  0.5178 -2.9069 -0.9264
  769MPD2    N111360   2.918   1.236  15.024 -0.0362 -0.7281  0.8540
  769MPD2    H711361   2.949   1.222  14.928 -0.0846  0.1395  0.7180
  770MPD2     C11362   2.031   0.647  14.885  0.5289 -0.1133  1.2304
  770MPD2    C111363   2.128   0.568  14.814 -0.4983 -0.5390 -0.2227
  770MPD2    C211364   2.263   0.605  14.829  1.2834  0.2162 -0.1787
  770MPD2    C311365   2.299   0.713  14.907 -0.4068  0.3481  0.8157
  770MPD2    C411366   2.202   0.794  14.961  0.1028  0.4253  0.2159
  770MPD2    C511367   2.068   0.759  14.950 -0.4129  0.4014  1.0554
  770MPD2     H11368   2.338   0.551  14.773 -0.5962 -2.0893 -0.4882
  770MPD2    H111369   2.232   0.889  15.003 -1.3227  0.2059  1.7452
  770MPD2    H211370   1.924   0.633  14.875  1.0050 -1.5810 -1.6344
  770MPD2    H311371   1.994   0.821  15.000  1.0217  3.6631 -0.9005
  770MPD2     N11372   2.432   0.751  14.909 -0.1103 -0.0838  0.0548
  770MPD2    H511373   2.501   0.695  14.859  1.9679  1.2931  1.3717
  770MPD2    N111374   2.081   0.442  14.762  0.2566  0.2557  0.1199
  770MPD2    H711375   1.981   0.432  14.769  0.4236 -2.3332 -1.0307
  771MPD2     C11376   3.913   3.717  13.631  0.7879  0.2987  0.4344
  771MPD2    C111377   3.885   3.851  13.614 -0.8246 -0.3910  0.4244
  771MPD2    C211378   3.826   3.895  13.496  0.8625 -0.2534 -0.7173
  771MPD2    C311379   3.809   3.803  13.393  0.8954 -0.0795 -0.5335
  771MPD2    C411380   3.830   3.670  13.421 -0.3781 -0.3207 -0.6808
  771MPD2    C511381   3.859   3.631  13.549  0.1562 -0.7344  0.2599
  771MPD2     H11382   3.811   4.000  13.475  0.1555  0.1250  1.7132
  771MPD2    H111383   3.807   3.583  13.361 -2.5089 -1.9463  2.4942
  771MPD2    H211384   3.962   3.676  13.719 -1.8497  0.8624  2.1676
  771MPD2    H311385   3.861   3.525  13.569  2.5828 -1.1053 -2.0474
  771MPD2     N11386   3.751   3.842  13.273 -0.2396 -0.1632 -0.6554
  771MPD2    H511387   3.712   3.936  13.268 -0.0686 -0.1407 -1.6929
  771MPD2    N111388   3.915   3.949  13.716  0.2316 -0.4496 -0.4702
  771MPD2    H711389   3.874   4.041  13.704  1.8313  0.3078 -0.1134
  772MPD2     C11390   3.590   4.529  13.815  0.5684  0.0248 -0.5269
  772MPD2    C111391   3.585   4.405  13.889  0.4158 -0.5409  0.3887
  772MPD2    C211392   3.458   4.356  13.916  0.3344  0.6677 -0.2120
  772MPD2    C311393   3.342   4.434  13.888  0.1119  0.5696  0.0878
  772MPD2    C411394   3.350   4.558  13.824  0.0525 -1.0012  0.0936
  772MPD2    C511395   3.477   4.600  13.792 -0.0367 -0.2746  0.7529
  772MPD2     H11396   3.445   4.257  13.958 -0.9659  1.4677  1.2831
  772MPD2    H111397   3.269   4.628  13.813 -0.5373 -1.7160 -0.1493
  772MPD2    H211398   3.682   4.575  13.781  1.6397 -0.5644  1.5578
  772MPD2    H311399   3.486   4.699  13.747 -1.4938 -1.0271 -1.2413
  772MPD2     N11400   3.214   4.394  13.922  0.2560  0.8052  0.0573
  772MPD2    H511401   3.139   4.462  13.915  0.3626  1.0872  1.8208
  772MPD2    N111402   3.696   4.327  13.924  0.1896 -0.0565  0.6159
  772MPD2    H711403   3.681   4.237  13.969 -0.1983  0.0408  0.6753
  773MPD2     C11404   2.547   0.550  17.701  0.4157  0.4922 -0.0776
  773MPD2    C111405   2.501   0.432  17.647  0.0346 -0.2172 -0.7596
  773MPD2    C211406   2.546   0.313   0.003  1.2164  0.1602 -0.0148
  773MPD2    C311407   2.633   0.311   0.105  0.4159  0.3238 -0.0688
  773MPD2    C411408   2.679   0.430   0.155 -0.2299 -0.4815 -0.3993
  773MPD2    C511409   2.633   0.546   0.100  0.6786  0.0098 -1.1358
  773MPD2     H11410   2.517   0.213  17.673 -0.5343  0.5468  0.3769
  773MPD2    H111411   2.760   0.433   0.226 -1.2785  2.1814  0.6778
  773MPD2    H211412   2.533   0.654  17.674 -0.6451  0.5672  0.7670
  773MPD2    H311413   2.671   0.638   0.142 -1.5413  0.2397  0.3384
  773MPD2     N11414   2.672   0.179   0.147  0.0513 -0.6708 -0.1360
  773MPD2    H511415   2.640   0.103   0.087 -0.2308  0.1090 -0.9699
  773MPD2    N111416   2.407   0.427  17.539  0.2374  0.3097 -0.2741
  773MPD2    H711417   2.384   0.331  17.512  0.4675 -0.0561  0.8201
  774MPD2     C11418   1.970   4.359  13.214 -0.1564  0.7749 -0.5418
  774MPD2    C111419   1.972   4.424  13.335  0.4860  0.4300 -0.7697
  774MPD2    C211420   2.024   4.549  13.353 -0.1815  0.8361 -0.0254
  774MPD2    C311421   2.078   4.618  13.242 -0.1830  0.7899 -0.2660
  774MPD2    C411422   2.071   4.553  13.120 -0.1055 -0.3576 -0.1462
  774MPD2    C511423   2.032   4.423  13.109  0.6230 -0.1184  0.3776
  774MPD2     H11424   2.027   4.611  13.442 -1.1619 -0.1220  0.6692
  774MPD2    H111425   2.116   4.589  13.029 -2.7590  2.2912 -0.4047
  774MPD2    H211426   1.934   4.258  13.203 -0.6876  0.8003  0.9207
  774MPD2    H311427   2.047   4.375  13.013  1.0140  0.6868  0.0372
  774MPD2     N11428   2.143   0.019  13.259  0.4594 -0.0523 -0.8098
  774MPD2    H511429   2.157   0.049  13.355  0.9341  1.1325 -1.2559
  774MPD2    N111430   1.908   4.351  13.439 -0.2693  0.2479 -0.0558
  774MPD2    H711431   1.860   4.265  13.416 -0.5707 -0.0892  1.8053
  775MPD2     C11432   3.188   1.415  16.161 -0.6272  0.3537  0.1797
  775MPD2    C111433   3.094   1.515  16.172  0.8800 -0.0180 -0.3985
  775MPD2    C211434   3.115   1.633  16.095  0.3780 -0.8997 -0.3172
  775MPD2    C311435   3.231   1.649  16.022 -0.0955 -0.1524 -0.1699
  775MPD2    C411436   3.319   1.544  16.017  0.0547  0.0755  0.4866
  775MPD2    C511437   3.296   1.425  16.079  1.5213  0.4164  0.2404
  775MPD2     H11438   3.041   1.711  16.100  0.7172 -0.5929 -0.0944
  775MPD2    H111439   3.406   1.540  15.953 -0.9823 -0.1854 -0.8864
  775MPD2    H211440   3.184   1.325  16.221 -2.1842 -0.9768 -1.9110
  775MPD2    H311441   3.361   1.343  16.053  0.4890  0.1443 -1.5238
  775MPD2     N11442   3.253   1.759  15.935 -0.3292 -0.2950 -0.2030
  775MPD2    H511443   3.329   1.758  15.868  0.4312  0.6509  0.6513
  775MPD2    N111444   2.985   1.494  16.269  0.4295 -0.3941  0.1691
  775MPD2    H711445   2.977   1.410  16.325  2.6886 -0.2534  0.7203
  776MPD2     C11446   2.731   1.435  12.254 -0.0061 -0.3158 -1.1428
  776MPD2    C111447   2.688   1.391  12.131  0.0151  0.7166  0.2109
  776MPD2    C211448   2.711   1.470  12.021  0.9015 -0.1939 -0.8634
  776MPD2    C311449   2.759   1.600  12.029  0.1834  0.2676 -0.6380
  776MPD2    C411450   2.798   1.638  12.155 -0.0805 -0.0399 -0.3476
  776MPD2    C511451   2.783   1.556  12.265 -0.2012 -0.2885  0.0534
  776MPD2     H11452   2.675   1.432  11.926 -1.4779 -2.7812  1.0727
  776MPD2    H111453   2.844   1.735  12.171 -0.9661  0.3134  0.0130
  776MPD2    H211454   2.714   1.370  12.339 -3.5403  0.3492 -1.3200
  776MPD2    H311455   2.810   1.605  12.358  0.4475  1.2451 -0.9428
  776MPD2     N11456   2.774   1.688  11.920 -0.7957 -0.2974 -0.0169
  776MPD2    H511457   2.811   1.781  11.939  2.9288 -1.6599 -0.6363
  776MPD2    N111458   2.630   1.258  12.126 -0.1389  0.7248 -0.1312
  776MPD2    H711459   2.609   1.215  12.215  0.0816  0.4455 -0.2153
  777MPD2     C11460   3.404   3.562   0.583 -0.1796 -0.1378  0.6072
  777MPD2    C111461   3.279   3.538   0.642  0.0527  0.4774  0.0031
  777MPD2    C211462   3.191   3.448   0.586  0.4770 -0.6016 -0.2701
  777MPD2    C311463   3.227   3.381   0.471  0.1123 -0.0673  0.1416
  777MPD2    C411464   3.346   3.409   0.407 -0.7589  0.3925 -0.2888
  777MPD2    C511465   3.428   3.503   0.463 -0.1086 -0.0013 -0.4705
  777MPD2     H11466   3.093   3.431   0.630  2.4522 -4.1976  2.6058
  777MPD2    H111467   3.381   3.357   0.318 -3.6768 -1.5695 -0.2694
  777MPD2    H211468   3.466   3.641   0.623 -0.0998 -0.6514  1.5108
  777MPD2    H311469   3.521   3.512   0.408 -0.2121 -1.4767 -0.8981
  777MPD2     N11470   3.139   3.280   0.422 -0.2546  1.3263  0.0243
  777MPD2    H511471   3.064   3.256   0.485 -0.2826  3.9771  1.0218
  777MPD2    N111472   3.262   3.594   0.773 -0.3955  0.1590 -0.6270
  777MPD2    H711473   3.328   3.652   0.824 -1.9384  1.6006 -0.2474
  778MPD2     C11474   3.541   3.795  15.276  0.5390  0.4160  0.2289
  778MPD2    C111475   3.450   3.843  15.184 -0.0024  0.3222 -0.5347
  778MPD2    C211476   3.496   3.924  15.085  0.2986 -0.1005 -0.0339
  778MPD2    C311477   3.626   3.966  15.073 -0.1098  0.0107 -0.2133
  778MPD2    C411478   3.717   3.905  15.162 -0.0990  0.8159  0.5127
  778MPD2    C511479   3.670   3.822  15.261  0.0790 -0.0840 -0.2975
  778MPD2     H11480   3.424   3.960  15.012  1.0566 -0.8052 -1.1312
  778MPD2    H111481   3.824   3.921  15.166  0.0258 -0.0293  0.6863
  778MPD2    H211482   3.511   3.719  15.346  0.5623  0.5057  0.3371
  778MPD2    H311483   3.740   3.760  15.317 -0.2640  0.1007  0.3411
  778MPD2     N11484   3.665   4.057  14.975 -0.2987  0.1192  0.0112
  778MPD2    H511485   3.600   4.083  14.902  1.9488 -0.9759 -2.3698
  778MPD2    N111486   3.318   3.793  15.170 -0.0461  0.0673  0.1851
  778MPD2    H711487   3.271   3.815  15.083  1.2671  3.1530  0.2734
  779MPD2     C11488   3.080   2.902  14.315  0.2286 -0.5797 -0.2180
  779MPD2    C111489   3.215   2.876  14.305 -0.1803  0.2299 -0.0943
  779MPD2    C211490   3.301   2.979  14.351  0.0896 -0.0028  1.0541
  779MPD2    C311491   3.261   3.103  14.394 -0.3719  0.2028  0.4787
  779MPD2    C411492   3.122   3.125  14.398 -0.0532 -0.6678  0.6078
  779MPD2    C511493   3.036   3.024  14.350  0.3180 -0.3922 -0.2965
  779MPD2     H11494   3.409   2.965  14.355  0.4627  2.1134 -1.7081
  779MPD2    H111495   3.081   3.210  14.451  2.0032  0.9286 -0.3315
  779MPD2    H211496   3.012   2.821  14.292  2.0546 -2.3331  0.4956
  779MPD2    H311497   2.929   3.039  14.357  0.4272  0.7140 -0.9378
  779MPD2     N11498   3.358   3.191  14.434 -0.0265 -0.2994 -0.1612
  779MPD2    H511499   3.453   3.157  14.426  0.4494  0.6275  1.5225
  779MPD2    N111500   3.274   2.757  14.259 -0.0954 -0.1332 -0.5149
  779MPD2    H711501   3.376   2.753  14.259 -0.0107  2.0666  0.7499
  780MPD2     C11502   1.758   2.491   0.445  0.2987  0.2431 -0.5051
  780MPD2    C111503   1.818   2.396   0.363  0.5367 -1.2709 -0.0587
  780MPD2    C211504   1.940   2.431   0.305  0.9633 -0.1366 -0.2526
  780MPD2    C311505   2.000   2.558   0.311  1.1823 -0.8485  0.1750
  780MPD2    C411506   1.942   2.649   0.397  0.2532 -0.1461  0.3098
  780MPD2    C511507   1.822   2.615   0.451  0.2130 -0.0070 -0.3599
  780MPD2     H11508   1.998   2.351   0.261  1.4680  1.4589 -2.4937
  780MPD2    H111509   1.978   2.747   0.425  0.3252  0.0958 -0.6321
  780MPD2    H211510   1.685   2.455   0.517  0.9529 -0.4600 -0.1951
  780MPD2    H311511   1.777   2.686   0.519 -0.2196  0.0733 -0.7326
  780MPD2     N11512   2.127   2.571   0.247 -0.5625  0.6737  0.5631
  780MPD2    H511513   2.164   2.489   0.201 -0.7111  1.1879 -0.4679
  780MPD2    N111514   1.764   2.266   0.362  0.2097  0.2664 -0.0537
  780MPD2    H711515   1.686   2.246   0.422 -0.8646  0.8291 -1.2639
  781MPD2     C11516   0.202   4.227  11.915  0.1124  0.2730  0.5843
  781MPD2    C111517   0.294   4.248  12.018 -0.3796  0.4475  0.6703
  781MPD2    C211518   0.433   4.220  12.005 -0.6670 -0.0160 -0.5950
  781MPD2    C311519   0.480   4.177  11.883 -0.2902 -0.1933 -0.5764
  781MPD2    C411520   0.379   4.154  11.783  0.1546 -1.0557  0.5941
  781MPD2    C511521   0.247   4.175  11.800 -0.0042 -0.4738  0.0389
  781MPD2     H11522   0.501   4.237  12.088 -3.0729 -0.1527  1.4144
  781MPD2    H111523   0.403   4.123  11.682 -0.9739  4.0412 -1.2471
  781MPD2    H211524   0.094   4.240  11.921 -0.0696 -1.3079  0.7544
  781MPD2    H311525   0.177   4.152  11.721 -0.8957 -0.2094  0.7597
  781MPD2     N11526   0.617   4.154  11.857 -0.3572 -0.0848 -0.4896
  781MPD2    H511527   0.638   4.107  11.769 -2.0555 -1.7894  0.0317
  781MPD2    N111528   0.247   4.303  12.140 -0.1721  0.5144 -0.2060
  781MPD2    H711529   0.316   4.356  12.193  1.7766  0.9127 -3.1683
  782MPD2     C11530   2.715   0.641  10.167 -0.2783  0.0692 -0.2926
  782MPD2    C111531   2.848   0.674  10.167 -0.1134  0.3720 -0.4875
  782MPD2    C211532   2.901   0.766  10.257  0.2397  0.1487  0.5800
  782MPD2    C311533   2.825   0.814  10.363 -0.3805 -0.2939  0.5655
  782MPD2    C411534   2.692   0.779  10.365  0.6381 -0.0458  0.1233
  782MPD2    C511535   2.644   0.694  10.264 -0.1391 -0.1683  0.0773
  782MPD2     H11536   3.004   0.794  10.240 -0.3016  0.7011 -1.6499
  782MPD2    H111537   2.622   0.810  10.442 -0.0304 -0.5653 -0.2707
  782MPD2    H211538   2.663   0.572  10.101 -0.4662  0.1311 -0.2077
  782MPD2    H311539   2.539   0.670  10.264  0.2147 -1.7881  1.3666
  782MPD2     N11540   2.888   0.875  10.476  0.0471 -0.5174  0.2883
  782MPD2    H511541   2.989   0.891  10.472 -0.4360  1.9489 -1.7653
  782MPD2    N111542   2.933   0.612  10.079 -0.7149  0.2015  0.1584
  782MPD2    H711543   2.882   0.555  10.013  0.0895  0.2679 -0.5265
  783MPD2     C11544   2.473   0.090  10.720 -0.3995 -0.3947  0.7744
  783MPD2    C111545   2.509   0.212  10.774  0.2975  0.0788 -0.0209
  783MPD2    C211546   2.608   0.286  10.713  0.2207 -0.2142 -0.1117
  783MPD2    C311547   2.652   0.249  10.583  0.6473  0.1274  0.4269
  783MPD2    C411548   2.606   0.133  10.525 -0.6166  0.6056 -0.1172
  783MPD2    C511549   2.521   0.054  10.598  0.2392 -0.0626 -0.1210
  783MPD2     H11550   2.646   0.378  10.755  2.0922 -1.9952  2.0531
  783MPD2    H111551   2.650   0.101  10.431  2.2011  0.2702  1.3228
  783MPD2    H211552   2.406   0.021  10.770  0.1749 -0.5034  1.3999
  783MPD2    H311553   2.498   4.686  10.549 -0.2914  0.6968 -1.3202
  783MPD2     N11554   2.752   0.328  10.518 -0.1571 -0.6106  0.6105
  783MPD2    H511555   2.771   0.418  10.561 -2.2880  0.3913 -0.5411
  783MPD2    N111556   2.460   0.236  10.905  0.2889 -0.7311 -1.3249
  783MPD2    H711557   2.384   0.177  10.939  1.2591 -1.2800 -0.0844
  784MPD2     C11558   0.941   0.690   0.394  0.1308  0.5194 -0.0677
  784MPD2    C111559   0.926   0.760   0.512 -1.1748 -0.0246  0.0344
  784MPD2    C211560   0.820   0.840   0.528 -0.3148  0.3237 -0.0012
  784MPD2    C311561   0.723   0.860   0.425  0.5774 -1.0807 -0.1144
  784MPD2    C411562   0.735   0.774   0.312  0.4452  0.2542  0.0463
  784MPD2    C511563   0.841   0.695   0.298  0.4623  0.1123 -0.1642
  784MPD2     H11564   0.816   0.901   0.618  1.4132  0.9440 -0.3532
  784MPD2    H111565   0.660   0.758   0.235  1.5234 -0.3249 -0.8872
  784MPD2    H211566   1.026   0.628   0.365  0.2459  0.4772  0.3560
  784MPD2    H311567   0.852   0.625   0.216  0.9398  2.8107 -2.3973
  784MPD2     N11568   0.613   0.950   0.435  0.1885  0.2732  0.0031
  784MPD2    H511569   0.611   1.015   0.513  0.1347 -1.5715  1.5417
  784MPD2    N111570   1.013   0.746   0.617 -0.1283 -0.6211 -0.2331
  784MPD2    H711571   0.982   0.795   0.701 -1.2339 -0.2195 -0.8723
  785MPD2     C11572   1.079   3.455   9.641  0.4959 -0.2890  0.1175
  785MPD2    C111573   1.104   3.369   9.748 -0.1181 -0.1380 -0.9479
  785MPD2    C211574   1.005   3.274   9.774 -0.3299 -0.4427 -0.7863
  785MPD2    C311575   0.891   3.266   9.710  0.2431  0.0112 -1.1638
  785MPD2    C411576   0.871   3.349   9.604  0.4005  0.2619 -0.2651
  785MPD2    C511577   0.969   3.435   9.562 -0.3656 -0.0481 -0.9495
  785MPD2     H11578   1.019   3.212   9.862  1.9293  0.5807 -0.4400
  785MPD2    H111579   0.784   3.339   9.540 -0.1500 -2.2798  0.8889
  785MPD2    H211580   1.155   3.524   9.606  1.1768 -1.0274  0.1222
  785MPD2    H311581   0.949   3.492   9.472 -0.5117  0.1164 -0.8122
  785MPD2     N11582   0.794   3.172   9.758 -0.5071  0.1169  0.1324
  785MPD2    H511583   0.827   3.115   9.835  1.3238 -3.0798 -2.9694
  785MPD2    N111584   1.214   3.377   9.836 -0.0651  0.2263  0.7249
  785MPD2    H711585   1.234   3.314   9.913  0.3015 -1.0926 -0.4492
  786MPD2     C11586   3.327   2.155  14.586  0.0585 -0.3101  0.5839
  786MPD2    C111587   3.440   2.085  14.629  0.2724  0.2290 -0.3087
  786MPD2    C211588   3.482   2.109  14.759  0.1258 -0.1405 -0.3493
  786MPD2    C311589   3.418   2.199  14.846 -0.2381 -0.2483  0.5968
  786MPD2    C411590   3.306   2.267  14.801 -0.6099  0.2286  0.0132
  786MPD2    C511591   3.262   2.236  14.670  0.1279 -0.2711 -0.4014
  786MPD2     H11592   3.567   2.053  14.796 -0.5818 -0.9166  0.0927
  786MPD2    H111593   3.253   2.346  14.851 -3.3691  0.3687 -3.1281
  786MPD2    H211594   3.300   2.159  14.481  1.9883 -1.6411  0.0595
  786MPD2    H311595   3.181   2.292  14.625 -1.2001 -3.4664 -2.0193
  786MPD2     N11596   3.471   2.231  14.972  0.1945  0.8488 -0.3590
  786MPD2    H511597   3.406   2.282  15.031 -1.5756 -1.6066 -0.1884
  786MPD2    N111598   3.525   2.000  14.546  1.0309  0.5695 -0.0710
  786MPD2    H711599   3.603   1.950  14.588  0.7938  0.4939  0.2813
  787MPD2     C11600   3.914   1.766  14.852 -0.0559 -0.3182  0.1260
  787MPD2    C111601   3.935   1.682  14.746 -0.3797 -0.3044 -0.3062
  787MPD2    C211602   4.040   1.589  14.750  0.2525 -0.8079  0.7371
  787MPD2    C311603   4.118   1.571  14.865  0.3673  0.0063 -0.0239
  787MPD2    C411604   4.095   1.654  14.977 -0.0563  0.4093  0.4338
  787MPD2    C511605   3.997   1.755  14.967 -0.0233 -0.3307 -0.3081
  787MPD2     H11606   4.060   1.528  14.663  2.4030  0.4192  0.3745
  787MPD2    H111607   4.156   1.655  15.067  0.8991 -0.9668 -0.2010
  787MPD2    H211608   3.837   1.841  14.864  1.3270  1.1393 -0.0476
  787MPD2    H311609   3.978   1.838  15.035  0.6737  0.1184 -0.6590
  787MPD2     N11610   4.223   1.478  14.859  0.2740  0.1629  0.0971
  787MPD2    H511611   4.222   1.420  14.777 -2.4095 -1.3589  1.2081
  787MPD2    N111612   3.856   1.704  14.635  0.3715 -0.0123 -0.2698
  787MPD2    H711613   3.795   1.785  14.637  0.1776 -0.1489 -0.7000
  788MPD2     C11614   1.356   4.481   1.095 -0.1376 -0.1178 -0.3085
  788MPD2    C111615   1.323   4.440   0.972  0.0171  1.1363  0.0985
  788MPD2    C211616   1.282   4.535   0.874  0.7182 -0.2061 -0.2997
  788MPD2    C311617   1.304   4.669   0.908  0.3995 -0.7004  0.6645
  788MPD2    C411618   1.362   4.705   1.029 -0.3036 -0.2462  0.0459
  788MPD2    C511619   1.380   4.614   1.127  0.3002 -0.5904  0.0270
  788MPD2     H11620   1.237   4.502   0.781  2.5555  0.0334 -1.2764
  788MPD2    H111621   1.370   0.084   1.058 -0.8397 -0.3583  0.6283
  788MPD2    H211622   1.361   4.415   1.181  3.1148 -0.3291 -0.6556
  788MPD2    H311623   1.417   4.637   1.226 -2.7923  1.0652  0.8222
  788MPD2     N11624   1.266   0.056   0.828 -0.3089 -0.1553 -0.1334
  788MPD2    H511625   1.288   0.149   0.860 -1.1068  0.1772 -0.5472
  788MPD2    N111626   1.305   4.302   0.954  0.2784  0.4301 -0.1392
  788MPD2    H711627   1.236   4.272   0.887  0.0176  0.0079  0.3199
  789MPD2     C11628   1.132   4.688  16.061 -0.4034 -0.1015 -1.1149
  789MPD2    C111629   1.119   4.609  16.174 -0.2930  0.5641 -0.5380
  789MPD2    C211630   1.055   4.664  16.284  0.0900 -0.8758  0.0771
  789MPD2    C311631   0.985   0.051  16.280  0.1994  0.3988  0.1457
  789MPD2    C411632   0.992   0.124  16.162  0.1901  0.1178  0.0297
  789MPD2    C511633   1.064   0.081  16.049 -0.4388 -0.6081  0.2261
  789MPD2     H11634   1.067   4.605  16.374  1.3690  1.0542  1.1534
  789MPD2    H111635   0.946   0.222  16.156 -0.9533 -0.2761  2.4520
  789MPD2    H211636   1.186   4.656  15.973 -0.5295 -0.4810 -1.0509
  789MPD2    H311637   1.074   0.136  15.956 -1.3078  1.4306  1.3628
  789MPD2     N11638   0.914   0.108  16.386 -0.0973  0.5644  0.1360
  789MPD2    H511639   0.864   0.195  16.370 -1.9990 -0.5619 -0.0100
  789MPD2    N111640   1.185   4.483  16.188 -0.2508 -0.2690  0.0364
  789MPD2    H711641   1.180   4.439  16.279  1.7432 -2.4818 -0.9333
  790MPD2     C11642   2.478   1.688  13.768  0.9116 -0.4854  0.3064
  790MPD2    C111643   2.500   1.570  13.695 -0.2330 -0.0147  0.5565
  790MPD2    C211644   2.474   1.580  13.563  0.7511  0.0393 -0.4255
  790MPD2    C311645   2.405   1.685  13.510 -0.5518 -0.0812  0.4314
  790MPD2    C411646   2.385   1.800  13.577 -0.2435 -0.3653 -0.3060
  790MPD2    C511647   2.414   1.792  13.710 -0.1689 -0.6545  0.1732
  790MPD2     H11648   2.499   1.504  13.490  1.6853 -0.7824  0.7510
  790MPD2    H111649   2.346   1.893  13.538  1.0955  0.0716 -0.5889
  790MPD2    H211650   2.506   1.697  13.872 -2.0161  0.2119  1.0485
  790MPD2    H311651   2.394   1.879  13.771 -0.6941 -1.2229  0.8169
  790MPD2     N11652   2.384   1.678  13.363 -0.4101  0.6220 -0.0472
  790MPD2    H511653   2.419   1.597  13.313 -1.7969  0.8972 -1.4881
  790MPD2    N111654   2.583   1.470  13.747  0.2359  0.2957  0.1045
  790MPD2    H711655   2.633   1.473  13.835  0.5044 -1.0251 -0.0015
  791MPD2     C11656   1.832   1.872  12.771  0.2306  1.0852 -0.9421
  791MPD2    C111657   1.886   1.744  12.799 -0.9501 -0.8807 -0.0025
  791MPD2    C211658   1.814   1.639  12.743  0.0823  0.8623 -0.4793
  791MPD2    C311659   1.704   1.655  12.661  0.0590 -0.0097 -0.3486
  791MPD2    C411660   1.664   1.780  12.624 -0.2545  0.5085 -0.2118
  791MPD2    C511661   1.723   1.887  12.686 -0.2746  0.1751  0.2246
  791MPD2     H11662   1.848   1.542  12.778 -1.6998  0.0147 -1.0899
  791MPD2    H111663   1.571   1.791  12.569 -1.8763  1.4541  2.6991
  791MPD2    H211664   1.884   1.951  12.824 -1.1802  2.1346 -1.1491
  791MPD2    H311665   1.675   1.982  12.665  1.0763  0.8102  0.0108
  791MPD2     N11666   1.636   1.537  12.620 -0.3187  0.6250 -0.2102
  791MPD2    H511667   1.653   1.452  12.673 -0.4663  1.7939  1.6686
  791MPD2    N111668   2.003   1.735  12.877 -0.2915  0.0007  0.0936
  791MPD2    H711669   2.054   1.821  12.898  0.7900 -0.6709  0.2386
  792MPD2     C11670   2.204   1.616  11.455  0.0865 -0.6795 -0.9345
  792MPD2    C111671   2.255   1.549  11.346 -0.4630 -0.9613  0.3135
  792MPD2    C211672   2.199   1.426  11.314 -0.0889 -0.5948  0.0494
  792MPD2    C311673   2.098   1.369  11.391  0.1002 -0.9841  0.1327
  792MPD2    C411674   2.069   1.436  11.512 -0.5988 -0.4998 -0.6986
  792MPD2    C511675   2.122   1.563  11.542  0.4131 -0.6202 -0.2642
  792MPD2     H11676   2.230   1.362  11.232 -1.6366  0.4025 -1.3191
  792MPD2    H111677   1.993   1.395  11.577 -1.4883 -1.4672 -2.3567
  792MPD2    H211678   2.243   1.714  11.479 -1.3039 -0.3575 -0.0095
  792MPD2    H311679   2.088   1.612  11.633  0.0154 -0.1798 -0.6537
  792MPD2     N11680   2.054   1.240  11.360 -0.0434  1.0223 -0.1236
  792MPD2    H511681   2.106   1.198  11.283  1.2082  0.5424  0.9826
  792MPD2    N111682   2.373   1.602  11.278  0.0969 -0.3340 -0.0748
  792MPD2    H711683   2.420   1.683  11.318  2.0819 -1.3639 -0.3294
  793MPD2     C11684   1.794   0.712  10.693 -0.1789  0.1276  0.3349
  793MPD2    C111685   1.893   0.805  10.713 -0.0884  0.1773 -0.3461
  793MPD2    C211686   1.898   0.883  10.828 -0.6981 -0.1496 -0.6799
  793MPD2    C311687   1.802   0.855  10.928  1.1503  0.2317 -0.0000
  793MPD2    C411688   1.711   0.751  10.910 -0.0584 -0.0831 -0.7903
  793MPD2    C511689   1.697   0.686  10.788  0.5482 -0.8072  0.0986
  793MPD2     H11690   1.977   0.957  10.838  1.2491 -2.1507 -1.1119
  793MPD2    H111691   1.645   0.709  10.986  1.6706 -0.8301  0.2829
  793MPD2    H211692   1.785   0.656  10.601 -2.8176 -0.0735  0.7245
  793MPD2    H311693   1.631   0.601  10.777  0.3304 -0.6995  0.6170
  793MPD2     N11694   1.836   0.886  11.064 -0.4052 -0.4272  0.2535
  793MPD2    H511695   1.925   0.935  11.069 -1.6577  1.8160  0.8280
  793MPD2    N111696   1.995   0.832  10.621  0.3774 -1.0197 -0.1346
  793MPD2    H711697   2.058   0.910  10.634  1.1156 -1.6698  0.1194
  794MPD2     C11698   1.818   0.924  17.145  0.3351 -0.4938  0.0827
  794MPD2    C111699   1.908   0.847  17.070  0.6868  0.3774 -0.2800
  794MPD2    C211700   1.929   0.872  16.937 -0.2278 -0.3675 -0.3479
  794MPD2    C311701   1.883   0.990  16.880 -0.7936 -0.0821 -0.4078
  794MPD2    C411702   1.792   1.063  16.960 -0.6544 -1.3135  0.0042
  794MPD2    C511703   1.770   1.032  17.087  0.0680 -1.0562 -0.4720
  794MPD2     H11704   1.993   0.810  16.875 -0.6801  0.0852 -1.2663
  794MPD2    H111705   1.738   1.144  16.913  0.5715 -1.8848 -2.4090
  794MPD2    H211706   1.793   0.914  17.250  0.9275  0.7903  0.3478
  794MPD2    H311707   1.720   1.106  17.150  0.3415 -0.4506 -0.9723
  794MPD2     N11708   1.897   1.027  16.743  0.5429  0.2425  0.6284
  794MPD2    H511709   1.844   1.109  16.714  0.0807  0.2908  1.6195
  794MPD2    N111710   1.973   0.737  17.124  0.0476  0.3732 -0.4647
  794MPD2    H711711   2.024   0.681  17.056 -1.7577 -2.5290  0.5786
  795MPD2     C11712   0.324   3.170  13.440 -0.0887  0.0236  0.0141
  795MPD2    C111713   0.304   3.045  13.384  0.6639 -0.5185 -0.7794
  795MPD2    C211714   0.389   2.946  13.427 -0.6643 -0.2119 -0.0472
  795MPD2    C311715   0.483   2.970  13.524 -0.0098 -0.4279  0.2545
  795MPD2    C411716   0.482   3.084  13.600  0.2121 -0.5478  0.2143
  795MPD2    C511717   0.411   3.185  13.551  0.0550  0.3497  0.2320
  795MPD2     H11718   0.377   2.856  13.368 -0.5751 -0.4782  0.3430
  795MPD2    H111719   0.551   3.105  13.681  0.6753 -0.7367 -0.1271
  795MPD2    H211720   0.258   3.250  13.406 -1.3394 -1.2534 -0.5378
  795MPD2    H311721   0.412   3.281  13.603  0.5682  0.1180  0.6575
  795MPD2     N11722   0.575   2.864  13.565 -0.1960 -0.5139  0.1493
  795MPD2    H511723   0.628   2.889  13.648  3.0353 -0.8142 -1.8165
  795MPD2    N111724   0.206   3.022  13.283 -0.2321 -0.1386  0.7580
  795MPD2    H711725   0.186   2.927  13.254  0.0676 -0.1223  0.5006
  796MPD2     C11726   3.966   0.459  15.492 -0.1575  0.7722  0.4524
  796MPD2    C111727   4.062   0.471  15.590 -0.0480  0.0695 -0.2441
  796MPD2    C211728   4.075   0.585  15.657  0.1341 -0.4469 -0.3412
  796MPD2    C311729   3.991   0.690  15.636 -0.2665 -0.5545  0.0381
  796MPD2    C411730   3.894   0.679  15.540  0.2776 -0.2105  0.1457
  796MPD2    C511731   3.887   0.566  15.464 -0.0316  0.0329 -0.4220
  796MPD2     H11732   4.146   0.593  15.738 -1.5608 -1.0697  1.2152
  796MPD2    H111733   3.830   0.764  15.520  0.0390 -0.5018 -0.3272
  796MPD2    H211734   3.943   0.366  15.441 -0.2932  1.2894 -0.4261
  796MPD2    H311735   3.803   0.567  15.396 -0.5549  0.0572  0.2201
  796MPD2     N11736   3.999   0.796  15.726  0.4803 -0.0688  0.3073
  796MPD2    H511737   4.081   0.805  15.786 -0.1266 -2.5489  1.5050
  796MPD2    N111738   4.147   0.356  15.612  0.0418  0.1227 -0.3435
  796MPD2    H711739   4.123   0.263  15.579  1.1983  0.2003 -1.4263
  797MPD2     C11740   0.443   4.159  16.848  0.3796  0.7227  0.6321
  797MPD2    C111741   0.407   4.267  16.927  0.0415 -0.4510  1.1912
  797MPD2    C211742   0.287   4.329  16.906 -0.7886  0.0058  0.0443
  797MPD2    C311743   0.204   4.296  16.795 -0.4568 -0.0655  0.1276
  797MPD2    C411744   0.252   4.201  16.705  0.4220 -0.4806  0.3839
  797MPD2    C511745   0.366   4.121  16.736  0.6472 -0.0513 -0.2871
  797MPD2     H11746   0.261   4.405  16.979  1.9368 -1.5713  2.7021
  797MPD2    H111747   0.185   4.170  16.625  0.9970  0.5097 -0.4910
  797MPD2    H211748   0.535   4.104  16.867  0.4577  0.5384 -0.2773
  797MPD2    H311749   0.381   4.031  16.679  0.6272  0.7647 -1.5897
  797MPD2     N11750   0.095   4.374  16.751  0.1223  0.1494 -0.1948
  797MPD2    H511751   0.076   4.383  16.652 -1.5375 -1.9676 -0.0473
  797MPD2    N111752   0.483   4.305  17.038  0.4600 -0.8207  0.0762
  797MPD2    H711753   0.445   4.378  17.098  0.5608 -0.8964  0.2308
  798MPD2     C11754   0.105   0.184  17.286  0.5059 -0.5799  0.2234
  798MPD2    C111755   0.184   0.171  17.177  0.2752 -0.3144  0.2583
  798MPD2    C211756   0.313   0.129  17.186 -0.7294 -0.0429 -0.4323
  798MPD2    C311757   0.355   0.063  17.302 -0.1721  1.0934  0.0771
  798MPD2    C411758   0.268   0.073  17.414  0.0848  0.7413 -0.4486
  798MPD2    C511759   0.149   0.141  17.408 -0.4265 -0.4157  0.3547
  798MPD2     H11760   0.379   0.132  17.099 -1.8075 -1.0076 -1.2775
  798MPD2    H111761   0.297   0.033  17.510 -0.7342 -1.3490 -1.0635
  798MPD2    H211762   0.007   0.230  17.280 -0.3565 -2.6489 -1.4972
  798MPD2    H311763   0.082   0.152  17.493 -1.5798  1.0273 -0.7313
  798MPD2     N11764   0.461   4.702  17.295  0.2260  0.3264  0.5617
  798MPD2    H511765   0.508   4.706  17.205 -1.1443  1.2212 -0.1246
  798MPD2    N111766   0.118   0.174  17.052 -0.1741  0.5943  0.0974
  798MPD2    H711767   0.017   0.171  17.059 -0.2888  0.0835 -1.8449
  799MPD2     C11768   4.071   1.142  14.880  0.0756 -0.2556 -0.6805
  799MPD2    C111769   4.095   1.056  14.778  0.2712  0.3691  0.1618
  799MPD2    C211770   4.030   1.072  14.657  0.4268 -0.1830 -1.0218
  799MPD2    C311771   3.943   1.176  14.639 -0.4420  0.2739  0.1112
  799MPD2    C411772   3.924   1.265  14.741  0.8541  0.1840 -0.1912
  799MPD2    C511773   3.979   1.246  14.865  0.5223  0.1819 -0.3928
  799MPD2     H11774   4.070   1.015  14.574  0.4005 -0.3047 -0.9508
  799MPD2    H111775   3.854   1.347  14.740  2.8369  1.8707  0.7294
  799MPD2    H211776   4.113   1.129  14.979  0.4704 -0.0834 -0.8265
  799MPD2    H311777   3.966   1.320  14.944  1.2547 -1.0868  0.9137
  799MPD2     N11778   3.897   1.219  14.512 -0.4594  0.1138  0.1763
  799MPD2    H511779   3.849   1.308  14.504 -2.0751 -0.6891  0.9532
  799MPD2    N111780   4.184   0.946  14.787 -0.2260  0.2642  0.5545
  799MPD2    H711781   4.184   0.873  14.717 -0.9667  0.9600 -0.1863
  800MPD2     C11782   4.403   2.084  14.431  0.4302  0.0098  0.0256
  800MPD2    C111783   4.517   2.003  14.446 -0.3889 -0.0280 -0.1272
  800MPD2    C211784   4.543   1.897  14.365  0.2031 -1.0202 -0.4047
  800MPD2    C311785   4.487   1.900  14.243 -0.2202  0.5492 -0.9162
  800MPD2    C411786   4.378   1.988  14.224  0.2446 -0.0492 -0.0591
  800MPD2    C511787   4.324   2.073  14.321  0.0524  0.2347 -0.3542
  800MPD2     H11788   4.623   1.828  14.390  1.4062  1.1510  1.8448
  800MPD2    H111789   4.319   1.990  14.134  0.0741 -1.7635  0.0219
  800MPD2    H211790   4.378   2.158  14.507  0.0891 -0.5684  0.4792
  800MPD2    H311791   4.238   2.138  14.306 -1.1012 -1.0436  0.6227
  800MPD2     N11792   4.544   1.813  14.143  0.3908  0.0927  1.2591
  800MPD2    H511793   4.604   1.735  14.166  0.1747 -0.3961  0.1711
  800MPD2    N111794   4.595   2.039  14.553 -0.2966 -0.8037  0.1967
  800MPD2    H711795   4.574   2.129  14.596  0.2586 -0.0717 -1.0838
  801MPD2     C11796   4.672   2.671  14.784  0.2783 -0.6170 -0.1503
  801MPD2    C111797   4.613   2.582  14.690  0.3777 -0.2226 -0.4115
  801MPD2    C211798   4.481   2.602  14.650  0.1424 -0.4672  0.6057
  801MPD2    C311799   4.408   2.703  14.712 -0.1584 -0.1886 -0.0788
  801MPD2    C411800   4.464   2.794  14.801 -0.0364  0.2730 -0.1334
  801MPD2    C511801   4.592   2.770  14.839  0.2183 -0.3797 -0.1649
  801MPD2     H11802   4.438   2.531  14.581  0.6354 -0.1000 -0.0795
  801MPD2    H111803   4.397   2.871  14.838 -2.8234 -1.2151 -2.0265
  801MPD2    H211804   0.049   2.663  14.819  0.7629 -2.5550 -1.9918
  801MPD2    H311805   4.640   2.833  14.914 -0.5485  0.0909 -0.0688
  801MPD2     N11806   4.270   2.714  14.699  0.5393 -0.0533  0.6504
  801MPD2    H511807   4.227   2.792  14.748 -2.5412 -0.0182 -2.0814
  801MPD2    N111808   4.682   2.476  14.626 -0.9033 -0.2624  0.3243
  801MPD2    H711809   4.639   2.411  14.561 -1.3293 -0.9156  1.2528
  802MPD2     C11810   3.743   1.864  17.640  0.4736 -0.4458 -0.0228
  802MPD2    C111811   3.762   1.995  17.605  0.4417  0.4700  0.0111
  802MPD2    C211812   3.839   2.025  17.501 -0.2288 -0.0258  0.1145
  802MPD2    C311813   3.899   1.920  17.426  0.4195  0.2028 -0.4473
  802MPD2    C411814   3.862   1.787  17.453  0.0383 -0.1188  0.0411
  802MPD2    C511815   3.792   1.757  17.565 -0.5633 -0.0216  0.0971
  802MPD2     H11816   3.847   2.129  17.471 -0.1185 -0.2821 -0.7522
  802MPD2    H111817   3.881   1.697  17.395  0.6509 -1.9021  3.0053
  802MPD2    H211818   3.671   1.830   0.012  0.1487  1.8631  0.7064
  802MPD2    H311819   3.768   1.652  17.578 -0.4617 -0.2082 -1.1978
  802MPD2     N11820   3.965   1.960  17.311 -0.1192 -0.1843  0.4172
  802MPD2    H511821   3.991   2.058  17.300 -3.7780  1.2783  4.4763
  802MPD2    N111822   3.703   2.098  17.678 -0.1295  0.3035  0.1786
  802MPD2    H711823   3.724   2.190  17.641  0.7596  1.6158  3.9869
  803MPD2     C11824   0.401   1.583  11.980 -0.5926 -0.2003  0.0575
  803MPD2    C111825   0.494   1.544  12.075 -0.1167 -0.7646 -0.0151
  803MPD2    C211826   0.496   1.412  12.106  0.4151 -0.1562 -0.3802
  803MPD2    C311827   0.408   1.317  12.049  1.0558 -0.1214 -1.0908
  803MPD2    C411828   0.308   1.359  11.961  0.4388 -0.7177  0.0780
  803MPD2    C511829   0.311   1.492  11.920  0.4013  0.0132  0.5257
  803MPD2     H11830   0.572   1.377  12.175  1.1515 -0.3180 -1.2694
  803MPD2    H111831   0.235   1.293  11.915 -0.3068  0.4374 -0.4140
  803MPD2    H211832   0.398   1.685  11.943  0.1387 -0.8881 -1.9282
  803MPD2    H311833   0.255   1.544  11.844 -1.2896 -3.1829 -0.3807
  803MPD2     N11834   0.405   1.182  12.086 -0.3129  0.3275  0.4960
  803MPD2    H511835   0.325   1.127  12.058 -0.0149 -0.0314  0.3547
  803MPD2    N111836   0.581   1.629  12.144  0.4552 -0.0124  0.6172
  803MPD2    H711837   0.647   1.594  12.212  1.2777 -0.7670 -0.5727
  804MPD2     C11838   4.235   2.853  16.764 -0.0260 -0.1672 -0.4111
  804MPD2    C111839   4.231   2.841  16.904 -0.2774  0.0293  0.0157
  804MPD2    C211840   4.236   2.948  16.985  0.3725 -0.1933  0.0590
  804MPD2    C311841   4.249   3.075  16.929  0.4424  0.3947 -0.3061
  804MPD2    C411842   4.268   3.082  16.793 -0.2685  0.2890  0.2324
  804MPD2    C511843   4.254   2.978  16.711 -0.2930 -0.0472  0.0625
  804MPD2     H11844   4.238   2.939  17.093  3.0934 -1.8288 -0.1109
  804MPD2    H111845   4.284   3.178  16.744  0.1601 -0.5162 -1.1948
  804MPD2    H211846   4.228   2.769  16.695 -1.2013 -0.4844  0.1042
  804MPD2    H311847   4.251   2.995  16.604  1.5704 -0.0859 -0.0035
  804MPD2     N11848   4.264   3.197  17.001 -0.7778  0.8410 -0.3018
  804MPD2    H511849   4.298   3.273  16.943 -0.3571  0.5776 -0.4019
  804MPD2    N111850   4.224   2.711  16.965  0.1656  0.2703 -0.2927
  804MPD2    H711851   4.225   2.717  17.066  2.2527 -0.4191 -0.2701
  805MPD2     C11852   3.605   1.267  15.891 -0.2546  0.3958  0.4205
  805MPD2    C111853   3.686   1.302  15.785 -0.3823 -0.1948  0.0858
  805MPD2    C211854   3.812   1.352  15.807 -0.7245 -0.3833  0.6261
  805MPD2    C311855   3.864   1.350  15.935  0.0565  0.2249  0.1506
  805MPD2    C411856   3.785   1.310  16.036 -0.1005  0.1149 -0.0207
  805MPD2    C511857   3.655   1.273  16.016 -0.4978 -0.1217  0.2895
  805MPD2     H11858   3.882   1.392  15.734  1.2429 -3.5501  0.7812
  805MPD2    H111859   3.830   1.309  16.135 -0.9733 -1.4940  0.3623
  805MPD2    H211860   3.515   1.209  15.870  0.3515 -0.1298 -0.7603
  805MPD2    H311861   3.597   1.245  16.103 -0.2515  0.3864  0.6145
  805MPD2     N11862   4.000   1.383  15.953 -0.7000  0.0016 -0.3598
  805MPD2    H511863   4.056   1.413  15.874 -0.3370  0.6157  0.1283
  805MPD2    N111864   3.641   1.292  15.646 -0.3765  0.0965 -0.6913
  805MPD2    H711865   3.702   1.325  15.573 -0.5360 -0.1866 -0.9513
  806MPD2     C11866   0.232   0.702   0.455 -0.5701 -0.4054 -0.1453
  806MPD2    C111867   0.119   0.778   0.502 -0.0119 -0.8363 -0.4853
  806MPD2    C211868   0.064   0.865   0.417 -0.4259  0.3113 -0.1092
  806MPD2    C311869   0.106   0.860   0.284 -0.0307  0.8021 -0.7312
  806MPD2    C411870   0.200   0.771   0.234 -0.2722 -0.7666  0.3354
  806MPD2    C511871   0.268   0.692   0.320 -0.1579 -0.0520  0.3732
  806MPD2     H11872   4.719   0.941   0.450 -2.6315 -0.8746 -2.0261
  806MPD2    H111873   0.235   0.769   0.131 -1.2480 -1.0485  0.0100
  806MPD2    H211874   0.286   0.650   0.533  0.6090 -0.4317 -0.9950
  806MPD2    H311875   0.348   0.626   0.291  0.8234  1.3480 -0.1028
  806MPD2     N11876   0.040   0.949   0.195  0.8934 -0.0122  0.5428
  806MPD2    H511877   4.683   0.999   0.227 -0.0035 -0.3784 -1.2289
  806MPD2    N111878   0.088   0.766   0.638  0.5205 -1.1309  0.1065
  806MPD2    H711879   0.148   0.713   0.700  1.8385  0.4370  0.1698
  807MPD2     C11880   4.246   0.880   1.298 -0.6096 -0.7396  0.2139
  807MPD2    C111881   4.340   0.780   1.303 -0.1810  0.3328 -0.4668
  807MPD2    C211882   4.339   0.694   1.408  0.0808  0.0249 -0.4501
  807MPD2    C311883   4.238   0.689   1.502 -0.0157 -0.6077  0.3338
  807MPD2    C411884   4.145   0.784   1.494 -0.2345 -0.2087 -0.2225
  807MPD2    C511885   4.150   0.879   1.397  0.1839 -0.2775 -0.4965
  807MPD2     H11886   4.418   0.620   1.415  0.7275  0.7835  0.3132
  807MPD2    H111887   4.054   0.780   1.552 -0.9331 -0.9097 -1.3579
  807MPD2    H211888   4.228   0.951   1.217 -0.3224  1.7055  2.3027
  807MPD2    H311889   4.066   0.948   1.393  0.0625 -0.5122 -2.2554
  807MPD2     N11890   4.228   0.590   1.597 -0.5341 -0.3650  0.4647
  807MPD2    H511891   4.295   0.514   1.601  0.8992  0.8236 -1.1389
  807MPD2    N111892   4.442   0.766   1.211 -0.3058 -0.1393  0.1450
  807MPD2    H711893   4.512   0.693   1.219 -0.7556 -0.5492  0.3577
  808MPD2     C11894   4.659   1.841   9.292 -0.1900  0.0136 -0.1803
  808MPD2    C111895   4.701   1.890   9.416  0.1054  0.5862 -0.2281
  808MPD2    C211896   0.066   1.998   9.416  0.6836  0.1868  0.0335
  808MPD2    C311897   0.092   2.065   9.299 -0.5362  0.2186 -1.0176
  808MPD2    C411898   0.051   2.023   9.175 -0.0194  0.7650  0.5229
  808MPD2    C511899   4.695   1.910   9.175 -0.1084 -0.6794 -0.0864
  808MPD2     H11900   0.097   2.037   9.512  0.4970 -2.3711  1.1085
  808MPD2    H111901   0.076   2.076   9.084 -0.9893 -0.1789 -0.2848
  808MPD2    H211902   4.587   1.762   9.275 -1.3311  1.1415 -0.5723
  808MPD2    H311903   4.657   1.874   9.080 -0.8068 -1.1284  0.3621
  808MPD2     N11904   0.181   2.178   9.299 -0.3971  0.0410  0.0524
  808MPD2    H511905   0.190   2.229   9.211 -1.7611 -0.6837 -0.5076
  808MPD2    N111906   4.655   1.834   9.534 -0.3374  0.1107  0.3934
  808MPD2    H711907   4.684   1.879   9.621  1.5013 -3.6117  1.7163
  809MPD2     C11908   0.685   2.090   8.675 -0.1937 -0.1833  0.4252
  809MPD2    C111909   0.766   2.083   8.789 -1.0603  0.3052 -0.3781
  809MPD2    C211910   0.733   2.160   8.901  0.6292 -0.0700 -0.0444
  809MPD2    C311911   0.604   2.223   8.908  0.0883  0.1730 -0.1800
  809MPD2    C411912   0.523   2.219   8.800 -0.0284 -0.0447 -0.1343
  809MPD2    C511913   0.559   2.154   8.684 -0.1845  0.1650  0.5409
  809MPD2     H11914   0.797   2.162   8.988  0.5025  0.5034  0.0368
  809MPD2    H111915   0.432   2.278   8.806  0.4016  0.6261 -0.2479
  809MPD2    H211916   0.709   2.043   8.580  1.2438  1.4143  0.0007
  809MPD2    H311917   0.486   2.164   8.604  1.5705  0.9388 -0.9428
  809MPD2     N11918   0.555   2.282   9.021 -0.1165 -0.3706  0.3678
  809MPD2    H511919   0.467   2.332   9.015 -0.4770 -1.0169  0.1990
  809MPD2    N111920   0.887   2.009   8.787 -0.3297  0.4791  0.6707
  809MPD2    H711921   0.939   2.001   8.874 -1.6119 -0.2038  1.3631
  810MPD2     C11922   4.715   1.636  10.157 -0.4591  0.3948  0.1519
  810MPD2    C111923   4.666   1.590  10.276 -0.2551  0.3640 -0.6936
  810MPD2    C211924   4.722   1.645  10.391  0.2661  0.5473  0.4335
  810MPD2    C311925   0.069   1.769  10.383  0.2676 -0.6342 -0.4085
  810MPD2    C411926   0.117   1.811  10.262 -0.4440  0.1280 -0.6348
  810MPD2    C511927   0.080   1.739  10.149 -0.0028 -0.4758 -0.7092
  810MPD2     H11928   4.696   1.607  10.489  2.0920 -1.4447  0.1585
  810MPD2    H111929   0.157   1.911  10.250  0.7827 -0.3619 -0.6269
  810MPD2    H211930   4.670   1.595  10.067  2.3803 -0.5829 -0.7971
  810MPD2    H311931   0.125   1.780  10.060  0.3020 -0.8653 -0.7336
  810MPD2     N11932   0.100   1.839  10.499 -0.0316  0.1871  0.4436
  810MPD2    H511933   0.145   1.929  10.495  0.4520 -0.0582  0.3730
  810MPD2    N111934   4.563   1.499  10.276 -0.1143  0.0990  0.6853
  810MPD2    H711935   4.515   1.480  10.189  0.9528 -2.5155  0.6599
  811MPD2     C11936   3.883   1.265   9.882  0.1273  0.4867  0.5166
  811MPD2    C111937   3.945   1.373   9.948  0.3417 -1.0179  0.1536
  811MPD2    C211938   3.935   1.493   9.882 -0.2450 -0.1898 -0.8754
  811MPD2    C311939   3.878   1.502   9.757 -0.5735 -0.1971  0.8970
  811MPD2    C411940   3.807   1.397   9.700  0.0548 -0.3970 -0.4981
  811MPD2    C511941   3.808   1.277   9.769  0.3903 -0.0940 -0.1997
  811MPD2     H11942   3.973   1.578   9.937  1.2393 -2.0903  1.0455
  811MPD2    H111943   3.746   1.411   9.611  1.4364  0.9962 -1.2356
  811MPD2    H211944   3.887   1.170   9.934 -1.4960 -0.6607 -1.4874
  811MPD2    H311945   3.750   1.193   9.734  2.1165 -1.1864 -0.3792
  811MPD2     N11946   3.898   1.628   9.693 -0.2833 -0.5922 -0.8709
  811MPD2    H511947   3.951   1.696   9.746 -1.2619 -0.7981  0.3851
  811MPD2    N111948   4.014   1.348  10.072  0.0399  0.1985 -0.2189
  811MPD2    H711949   4.010   1.250  10.099 -0.6107  0.2963  0.0554
  812MPD2     C11950   2.495   1.881  12.626 -0.1382  0.5639  0.1233
  812MPD2    C111951   2.621   1.905  12.590  0.0709  0.4395  0.0657
  812MPD2    C211952   2.706   1.800  12.575  0.8292  0.5313 -0.0851
  812MPD2    C311953   2.659   1.672  12.591  0.2965  0.1202  0.4947
  812MPD2    C411954   2.525   1.650  12.616 -0.5363  0.1454  0.7246
  812MPD2    C511955   2.442   1.756  12.636  0.1224 -0.6412  0.0860
  812MPD2     H11956   2.809   1.815  12.547  0.5951  0.0185 -1.2236
  812MPD2    H111957   2.485   1.551  12.631  0.5933 -0.5912 -1.1710
  812MPD2    H211958   2.440   1.971  12.652 -2.6077 -1.2954  1.2552
  812MPD2    H311959   2.340   1.742  12.670  0.6109 -1.4288  1.2388
  812MPD2     N11960   2.762   1.576  12.599 -0.2208 -0.2233  0.5763
  812MPD2    H511961   2.859   1.603  12.612  0.0639  0.3843 -2.7079
  812MPD2    N111962   2.659   2.036  12.564 -0.1482 -0.4991 -0.1331
  812MPD2    H711963   2.594   2.114  12.563  0.0161 -0.3559  0.7026
  813MPD2     C11964   2.920   3.104  12.909  0.7260  0.3768 -0.4656
  813MPD2    C111965   2.873   3.230  12.874  0.2418 -0.0792 -0.1293
  813MPD2    C211966   2.784   3.291  12.968  0.2421  0.0575  0.2639
  813MPD2    C311967   2.774   3.246  13.098 -0.1509  0.2958  0.3174
  813MPD2    C411968   2.837   3.131  13.129 -0.0741 -0.1629  0.4436
  813MPD2    C511969   2.901   3.054  13.034  0.0357  0.1291 -0.1093
  813MPD2     H11970   2.729   3.380  12.940 -1.0844 -0.8203  0.0470
  813MPD2    H111971   2.826   3.077  13.222  0.3928  2.3953  1.9798
  813MPD2    H211972   2.978   3.033  12.851 -0.8735 -0.3284 -1.2131
  813MPD2    H311973   2.953   2.963  13.061 -1.1430  0.2115  2.4757
  813MPD2     N11974   2.698   3.329  13.192 -0.0233  0.1322 -0.5269
  813MPD2    H511975   2.656   3.413  13.153  1.0665  1.5594  1.3888
  813MPD2    N111976   2.907   3.287  12.747 -0.2855  0.2038 -0.0545
  813MPD2    H711977   2.962   3.227  12.685 -1.5783  0.4453 -1.4472
  814MPD2     C11978   3.122   4.575  12.244 -0.4025 -0.7030 -0.1897
  814MPD2    C111979   3.091   4.685  12.167 -0.5589 -0.0193 -0.1977
  814MPD2    C211980   3.163   0.079  12.187 -0.4657 -0.1543 -0.3061
  814MPD2    C311981   3.253   0.094  12.291 -0.7785  0.5579  0.3304
  814MPD2    C411982   3.267   4.714  12.381 -0.2288  0.5780  0.7551
  814MPD2    C511983   3.208   4.592  12.352 -0.4876  0.0895 -0.3201
  814MPD2     H11984   3.135   0.161  12.122 -1.4616 -0.6075 -0.4484
  814MPD2    H111985   3.333   0.001  12.466 -0.1457 -1.9376  1.0484
  814MPD2    H211986   3.070   4.481  12.225  1.0889 -1.3382 -1.1485
  814MPD2    H311987   3.228   4.510  12.421  2.6598 -0.7254 -2.2014
  814MPD2     N11988   3.324   0.222  12.313  0.4294  0.4422  0.1142
  814MPD2    H511989   3.369   0.224  12.403  2.2216 -0.8814 -0.7587
  814MPD2    N111990   2.999   4.684  12.063 -0.0159  0.7098  0.1062
  814MPD2    H711991   2.994   0.041  12.003  1.2489  0.5423 -0.2319
  815MPD2     C11992   3.384   3.310  11.638  0.0748 -0.9109  1.1538
  815MPD2    C111993   3.360   3.172  11.660 -0.2328  0.3124  0.7877
  815MPD2    C211994   3.235   3.133  11.706  0.2676 -0.5297  0.0950
  815MPD2    C311995   3.150   3.235  11.750 -0.7786  0.0724  1.3877
  815MPD2    C411996   3.186   3.369  11.737 -0.0413  0.4623  0.8809
  815MPD2    C511997   3.305   3.405  11.683  0.0699 -0.6147 -0.5845
  815MPD2     H11998   3.211   3.031  11.731  1.8448 -0.9121  0.0774
  815MPD2    H111999   3.121   3.445  11.778  0.3282  0.9374  0.5870
  815MPD2    H212000   3.471   3.339  11.581 -0.4671 -1.0178  0.2688
  815MPD2    H312001   3.328   3.510  11.667 -0.9562 -0.2333  0.3817
  815MPD2     N12002   3.025   3.196  11.803  0.0913  0.2173  1.0505
  815MPD2    H512003   2.999   3.098  11.798  3.4780 -0.5737 -0.6227
  815MPD2    N112004   3.443   3.075  11.603  0.7354  0.1325  0.2387
  815MPD2    H712005   3.525   3.109  11.553  0.3428  3.0539  1.6217
  816MPD2     C12006   2.616   2.244  17.092  0.0982 -0.3277  0.7909
  816MPD2    C112007   2.736   2.295  17.139  0.2592 -0.6681 -0.8172
  816MPD2    C212008   2.856   2.227  17.109  0.3534 -0.2261 -1.0826
  816MPD2    C312009   2.853   2.091  17.066 -0.0199  0.3752 -0.8176
  816MPD2    C412010   2.733   2.037  17.028  0.5415 -0.0629 -0.4344
  816MPD2    C512011   2.616   2.113  17.038  0.3106 -0.1403  0.4119
  816MPD2     H12012   2.952   2.268  17.137 -0.3302 -0.6803  1.9547
  816MPD2    H112013   2.723   1.939  16.982 -2.0005  0.6486 -1.3697
  816MPD2    H212014   2.519   2.291  17.103  0.2681  0.9048 -2.7634
  816MPD2    H312015   2.524   2.070  17.002  0.4982 -0.0376 -0.1979
  816MPD2     N12016   2.974   2.022  17.056 -0.1101  0.6628 -0.5438
  816MPD2    H512017   3.057   2.075  17.079  0.3148 -1.0430  1.8674
  816MPD2    N112018   2.733   2.420  17.204 -0.2249  0.9914 -0.2328
  816MPD2    H712019   2.636   2.451  17.211 -0.2523  0.4217  2.0883
  817MPD2     C12020   2.990   3.715   9.930  0.4210 -0.5469  0.0042
  817MPD2    C112021   2.915   3.650   9.838  0.9784 -0.2783 -0.1902
  817MPD2    C212022   2.787   3.689   9.808  0.2282 -0.2171 -0.8597
  817MPD2    C312023   2.732   3.795   9.871 -0.0744 -0.9042  0.1803
  817MPD2    C412024   2.795   3.861   9.972  0.6692 -0.6788  0.6356
  817MPD2    C512025   2.926   3.819   9.998 -0.0820  0.0116 -0.5237
  817MPD2     H12026   2.736   3.640   9.726 -1.5582  1.3046 -0.6665
  817MPD2    H112027   2.753   3.949  10.019 -0.4468  0.1227 -1.8426
  817MPD2    H212028   3.095   3.691   9.942  0.0461 -1.9438  0.5536
  817MPD2    H312029   2.991   3.876  10.064 -0.5372  0.5622 -0.5545
  817MPD2     N12030   2.617   3.843   9.819 -0.2665  0.2194  0.4773
  817MPD2    H512031   2.584   3.779   9.748  0.0567 -1.2237  1.6111
  817MPD2    N112032   2.970   3.538   9.768  0.2511  0.1286 -0.6616
  817MPD2    H712033   2.914   3.513   9.687  1.8145 -0.7351 -1.4702
  818MPD2     C12034   1.708   3.559   9.894 -0.3782 -0.1603  0.1311
  818MPD2    C112035   1.774   3.514  10.006  0.0038  0.0827  0.7336
  818MPD2    C212036   1.846   3.396  10.004  0.0571  0.4324 -0.3644
  818MPD2    C312037   1.867   3.335   9.883 -0.6802  0.2391 -0.0594
  818MPD2    C412038   1.804   3.383   9.771  0.7403 -0.0879 -0.0304
  818MPD2    C512039   1.722   3.493   9.777 -0.7744 -0.1022  0.3835
  818MPD2     H12040   1.889   3.358  10.096  2.4177 -0.9181 -2.0055
  818MPD2    H112041   1.825   3.341   9.673 -0.3567 -0.5919 -0.0448
  818MPD2    H212042   1.667   3.659   9.888  2.9761  1.0980 -1.7878
  818MPD2    H312043   1.686   3.534   9.683  0.3792  1.3912  0.5809
  818MPD2     N12044   1.955   3.232   9.858  0.8110 -1.1283 -0.3887
  818MPD2    H512045   1.954   3.195   9.763 -0.1048 -2.5238  0.1638
  818MPD2    N112046   1.769   3.576  10.134 -0.2114  0.2102 -0.0674
  818MPD2    H712047   1.818   3.529  10.209 -0.7380  1.6415  1.1713
  819MPD2     C12048   4.383   1.134  15.738  0.6728  0.2664  0.3964
  819MPD2    C112049   4.446   1.015  15.730 -0.1791 -0.3093 -0.1205
  819MPD2    C212050   4.565   0.985  15.793 -0.9214 -0.1604  0.1852
  819MPD2    C312051   4.627   1.077  15.880  0.2005 -0.3113 -0.1238
  819MPD2    C412052   4.564   1.199  15.886  1.3269 -0.7602  0.5289
  819MPD2    C512053   4.441   1.218  15.826 -0.5719  0.1706 -0.4046
  819MPD2     H12054   4.613   0.888  15.786  1.1779  0.8533  0.5471
  819MPD2    H112055   4.603   1.280  15.948  0.6870 -0.8898  1.1143
  819MPD2    H212056   4.302   1.165  15.674  0.0133  0.6383  1.4104
  819MPD2    H312057   4.399   1.315  15.850  2.3545  1.0903  0.9730
  819MPD2     N12058   0.017   1.042  15.954  0.2366  0.1544  0.3169
  819MPD2    H512059   0.055   0.949  15.939  1.3459  0.6706 -0.0335
  819MPD2    N112060   4.379   0.930  15.644 -0.2547 -0.2865  0.3726
  819MPD2    H712061   4.292   0.967  15.605 -1.0215 -0.5354  1.8396
  820MPD2     C12062   3.736   0.960  14.915  0.7698 -0.0233  0.5911
  820MPD2    C112063   3.776   1.022  15.032  0.0165  0.4126 -0.4164
  820MPD2    C212064   3.876   0.958  15.107 -0.0575  0.4165  0.0871
  820MPD2    C312065   3.943   0.847  15.064  0.3896 -0.4031  0.0563
  820MPD2    C412066   3.913   0.798  14.938 -0.6631  0.2752 -1.0533
  820MPD2    C512067   3.807   0.850  14.869  0.5269  0.4771 -0.1864
  820MPD2     H12068   3.906   1.006  15.200 -1.0653  1.5012 -0.1375
  820MPD2    H112069   3.964   0.716  14.889 -4.0875 -2.2817 -0.2572
  820MPD2    H212070   3.658   1.001  14.852  0.2927  0.0445  1.2194
  820MPD2    H312071   3.786   0.816  14.768 -1.0551  0.1538  0.2529
  820MPD2     N12072   4.044   0.793  15.136  0.2418  0.7709  0.1644
  820MPD2    H512073   4.096   0.713  15.104 -1.7307 -1.1360  1.7314
  820MPD2    N112074   3.709   1.137  15.075  0.2062 -0.1486  0.0143
  820MPD2    H712075   3.647   1.178  15.007 -1.6659 -0.2357  1.6761
  821MPD2     C12076   4.702   1.936  13.255  0.5017  0.1216 -0.2627
  821MPD2    C112077   0.076   1.951  13.356 -0.0280 -0.7908  0.4750
  821MPD2    C212078   0.183   2.041  13.331 -0.0085  0.6231  0.6869
  821MPD2    C312079   0.201   2.098  13.205 -0.0094 -0.4610  0.7306
  821MPD2    C412080   0.110   2.070  13.102  0.2142 -0.5500  0.3848
  821MPD2    C512081   4.720   1.991  13.133 -0.3475  0.1521 -0.3970
  821MPD2     H12082   0.259   2.040  13.409 -0.9602 -0.8451  1.6019
  821MPD2    H112083   0.126   2.122  13.009  0.1118 -2.3630 -0.6573
  821MPD2    H212084   4.614   1.875  13.269  1.0926 -0.4169  1.1175
  821MPD2    H312085   4.642   1.971  13.060 -2.1346  0.1880  1.5229
  821MPD2     N12086   0.297   2.195  13.175 -0.1992 -0.0399  0.0631
  821MPD2    H512087   0.292   2.234  13.082 -1.5148 -0.4641 -0.0406
  821MPD2    N112088   0.078   1.882  13.483 -0.3778  0.5737  0.4473
  821MPD2    H712089   0.162   1.899  13.537  0.9550  1.3226 -1.8603
  822MPD2     C12090   0.260   2.468  15.583  0.1773 -0.1132  0.9310
  822MPD2    C112091   0.256   2.428  15.711  0.7286 -0.5567  0.1291
  822MPD2    C212092   0.156   2.468  15.798 -0.1036  1.0745 -0.1639
  822MPD2    C312093   0.059   2.557  15.755  0.8179 -0.3051  0.0387
  822MPD2    C412094   0.058   2.591  15.622  0.4668  0.3738  0.4759
  822MPD2    C512095   0.156   2.544  15.541  0.5190 -0.0452  0.1139
  822MPD2     H12096   0.167   2.436  15.901 -0.2054 -1.2765 -0.8804
  822MPD2    H112097   4.709   2.662  15.586 -1.3107 -0.8243  1.7805
  822MPD2    H212098   0.328   2.430  15.508  0.9647  0.5665  1.2867
  822MPD2    H312099   0.149   2.570  15.436 -0.0894  1.9318  0.6412
  822MPD2     N12100   4.682   2.596  15.848  0.0421  0.1142 -0.3036
  822MPD2    H512101   4.686   2.550  15.938 -0.3869  0.5770 -0.0419
  822MPD2    N112102   0.358   2.352  15.770  0.2683  0.1355  0.3189
  822MPD2    H712103   0.357   2.336  15.870  0.4182 -0.1437  0.2746
  823MPD2     C12104   4.506   2.691  16.659 -0.3690 -0.1082  0.1076
  823MPD2    C112105   4.548   2.623  16.545  0.0985  0.7203 -0.9368
  823MPD2    C212106   4.620   2.505  16.564  0.0573  0.0711 -0.1747
  823MPD2    C312107   4.649   2.461  16.697  0.0841 -0.3712 -0.1200
  823MPD2    C412108   4.599   2.530  16.807  0.1389  0.2809 -0.2804
  823MPD2    C512109   4.533   2.647  16.787 -0.5506 -0.3347 -0.1799
  823MPD2     H12110   4.665   2.454  16.480  0.0490 -0.3350  0.0663
  823MPD2    H112111   4.632   2.497  16.905 -3.5725 -0.5459  0.6674
  823MPD2    H212112   4.454   2.786  16.649  0.9555  0.6784  0.6503
  823MPD2    H312113   4.500   2.704  16.873 -0.1367  2.3273 -1.7774
  823MPD2     N12114   0.001   2.345  16.721  0.0238 -0.2206 -0.4406
  823MPD2    H512115   0.009   2.324  16.820 -1.1612 -1.2811 -0.5711
  823MPD2    N112116   4.519   2.682  16.420 -0.2967 -0.3209 -0.9008
  823MPD2    H712117   4.491   2.779  16.429  0.4502 -0.1616 -0.3750
  824MPD2     C12118   0.860   1.742  15.849 -0.3084  0.2405 -0.0013
  824MPD2    C112119   0.894   1.835  15.752  1.3590 -0.9914 -0.1397
  824MPD2    C212120   0.983   1.789  15.655 -0.7871  0.3715 -0.5367
  824MPD2    C312121   1.029   1.662  15.654 -0.1962  0.1564 -0.2052
  824MPD2    C412122   0.990   1.576  15.756 -0.1284  1.3857  0.3326
  824MPD2    C512123   0.901   1.614  15.850 -0.2046  0.1217  0.7610
  824MPD2     H12124   1.027   1.859  15.586  0.5826 -0.7098 -0.7496
  824MPD2    H112125   1.042   1.484  15.780  0.2756  2.0221  1.8665
  824MPD2    H212126   0.788   1.763  15.928  0.1019 -0.2550  0.5040
  824MPD2    H312127   0.872   1.555  15.936  0.4322 -1.3860 -0.0683
  824MPD2     N12128   1.140   1.639  15.567  0.2854 -0.1607  0.4174
  824MPD2    H512129   1.176   1.721  15.520 -0.0278  0.8400  1.9353
  824MPD2    N112130   0.855   1.968  15.752  0.1071 -0.0733 -0.4790
  824MPD2    H712131   0.877   2.024  15.670  5.0621 -0.7826  0.3918
  825MPD2     C12132   1.856   1.726  15.143 -0.1259  0.0243  0.4585
  825MPD2    C112133   1.747   1.793  15.193 -0.7083 -0.5101  0.1127
  825MPD2    C212134   1.744   1.930  15.198 -0.1795  0.0579  0.5448
  825MPD2    C312135   1.836   2.002  15.133 -0.6348  0.1627 -0.0002
  825MPD2    C412136   1.938   1.936  15.068 -0.3824  0.1838 -0.6311
  825MPD2    C512137   1.943   1.794  15.063 -0.3001  0.3272  0.0013
  825MPD2     H12138   1.664   1.982  15.251  1.8998  3.3744  0.3767
  825MPD2    H112139   2.012   1.993  15.014  0.4512 -0.6725 -0.3935
  825MPD2    H212140   1.852   1.619  15.158 -1.0219 -0.6009 -4.3027
  825MPD2    H312141   2.016   1.737  15.005  0.9748  0.9821  0.9695
  825MPD2     N12142   1.844   2.140  15.125  0.1621 -1.0598  0.3879
  825MPD2    H512143   1.920   2.172  15.065  0.0212 -2.1149 -0.3534
  825MPD2    N112144   1.656   1.712  15.253 -0.4851  0.3745 -0.6245
  825MPD2    H712145   1.673   1.612  15.247  2.4325  0.8511 -0.4551
  826MPD2     C12146   1.559   1.412  13.744  1.0193  0.0707 -0.0403
  826MPD2    C112147   1.479   1.417  13.634 -0.2988 -0.2209  0.0993
  826MPD2    C212148   1.363   1.490  13.633 -0.4516  0.1492 -0.7374
  826MPD2    C312149   1.325   1.560  13.747  0.1823 -0.7845 -0.2926
  826MPD2    C412150   1.403   1.546  13.857  0.1859 -0.2963  0.3003
  826MPD2    C512151   1.521   1.480  13.859 -0.5951  0.3731 -0.0787
  826MPD2     H12152   1.296   1.492  13.548  0.5738 -0.6801 -1.5481
  826MPD2    H112153   1.367   1.592  13.948 -1.3123  1.1313 -0.9891
  826MPD2    H212154   1.648   1.349  13.743  1.5728  0.8493  0.9815
  826MPD2    H312155   1.587   1.480  13.945 -0.2553 -3.6457 -0.3198
  826MPD2     N12156   1.226   1.653  13.750 -0.8780 -0.6065  1.0363
  826MPD2    H512157   1.191   1.691  13.838 -1.6778  1.5869 -0.2099
  826MPD2    N112158   1.522   1.343  13.521 -0.3008 -0.1346  0.5650
  826MPD2    H712159   1.614   1.299  13.525 -1.1925 -2.2023 -1.5713
  827MPD2     C12160   2.363   2.597   9.876 -0.1025 -0.6462 -0.0524
  827MPD2    C112161   2.321   2.478   9.930  0.0437  0.0972 -0.3120
  827MPD2    C212162   2.244   2.395   9.856 -0.1313 -0.1903  0.2509
  827MPD2    C312163   2.216   2.426   9.724 -0.3221 -0.7283 -0.2845
  827MPD2    C412164   2.257   2.546   9.671 -0.9384  0.3903  0.0279
  827MPD2    C512165   2.331   2.638   9.751  0.3033  0.0489 -0.0432
  827MPD2     H12166   2.206   2.303   9.899 -0.8439 -0.2488 -0.4841
  827MPD2    H112167   2.229   2.570   9.569 -1.5622  0.1302  0.1406
  827MPD2    H212168   2.434   2.656   9.933  1.3243 -1.8494 -0.5639
  827MPD2    H312169   2.364   2.734   9.713 -1.4723  0.0438 -1.5808
  827MPD2     N12170   2.149   2.332   9.644  0.2098 -0.2907 -0.4579
  827MPD2    H512171   2.124   2.251   9.699  0.1882 -0.7259 -1.1054
  827MPD2    N112172   2.366   2.443  10.058 -0.1457  0.6800  0.1120
  827MPD2    H712173   2.433   2.504  10.104  2.7925 -2.5126  0.0948
  828MPD2     C12174   0.586   2.229  12.828  0.5442  0.0654 -0.0592
  828MPD2    C112175   0.524   2.254  12.707 -0.8698  0.4048 -0.6518
  828MPD2    C212176   0.602   2.265  12.592  0.7032  0.5897 -0.7625
  828MPD2    C312177   0.739   2.240  12.592  0.2417 -0.5135 -0.3950
  828MPD2    C412178   0.802   2.222  12.719 -0.4184  0.1893 -0.0249
  828MPD2    C512179   0.724   2.215  12.833  0.0312 -0.2638  0.2540
  828MPD2     H12180   0.548   2.272  12.499  0.5798  1.4765 -0.6261
  828MPD2    H112181   0.907   2.209  12.738 -0.1298  2.0887 -0.2628
  828MPD2    H212182   0.528   2.221  12.919  0.0162  1.2062 -0.2874
  828MPD2    H312183   0.767   2.188  12.928 -0.8523  0.8487  0.9704
  828MPD2     N12184   0.819   2.228  12.475 -0.3884 -0.0290 -0.0904
  828MPD2    H512185   0.917   2.208  12.490  0.3301  1.9088 -2.2200
  828MPD2    N112186   0.394   2.293  12.691  0.2968 -0.0750  0.2740
  828MPD2    H712187   0.363   2.333  12.603  1.2036 -1.1481 -0.5174
  829MPD2     C12188   0.330   2.835  12.133 -0.8827 -0.6957 -0.1508
  829MPD2    C112189   0.215   2.765  12.110 -0.1459 -0.3137  0.3516
  829MPD2    C212190   0.146   2.705  12.219  0.8147 -0.0073  0.6424
  829MPD2    C312191   0.195   2.726  12.348  0.3872  0.1775  0.0087
  829MPD2    C412192   0.316   2.799  12.366 -0.2133 -0.2975  0.4596
  829MPD2    C512193   0.381   2.847  12.258 -0.0708  0.7828  0.3621
  829MPD2     H12194   0.062   2.638  12.203  0.3215  1.0483 -1.2979
  829MPD2    H112195   0.375   2.813  12.457  1.3914 -3.0896 -0.1317
  829MPD2    H212196   0.389   2.873  12.051 -0.4531 -0.9719  0.0303
  829MPD2    H312197   0.477   2.890  12.285 -0.4929  0.9465  1.6128
  829MPD2     N12198   0.149   2.651  12.459  0.3989  0.4715 -0.7355
  829MPD2    H512199   0.202   2.663  12.545 -2.6108  0.8637  1.0695
  829MPD2    N112200   0.176   2.744  11.977  0.0734 -0.3002  1.2511
  829MPD2    H712201   0.236   2.776  11.901 -1.0373  0.3662  0.6649
  830MPD2     C12202   0.505   0.751  15.624 -0.2206 -0.5776  0.9355
  830MPD2    C112203   0.519   0.881  15.678 -0.6528 -0.8735  0.2242
  830MPD2    C212204   0.547   0.989  15.592 -0.1269  0.0535  0.0267
  830MPD2    C312205   0.568   0.971  15.451  0.2873  0.0119  0.5040
  830MPD2    C412206   0.560   0.842  15.400  0.1003 -0.4894 -0.1427
  830MPD2    C512207   0.525   0.737  15.486 -1.1093  0.1494 -0.4344
  830MPD2     H12208   0.573   1.085  15.637 -1.2945  0.2801  0.2158
  830MPD2    H112209   0.575   0.812  15.297 -1.2244 -0.9315 -0.2104
  830MPD2    H212210   0.496   0.660  15.682 -1.8258  0.2311  1.9430
  830MPD2    H312211   0.521   0.636  15.447  1.3555  1.3926 -3.9214
  830MPD2     N12212   0.589   1.082  15.367  0.4696  0.0122  0.2848
  830MPD2    H512213   0.589   1.170  15.417 -0.4279 -0.3886  1.0056
  830MPD2    N112214   0.499   0.892  15.815 -0.1664  0.0770 -0.5191
  830MPD2    H712215   0.470   0.811  15.870 -0.6719 -0.5051 -1.6468
  831MPD2     C12216   0.235   2.771  16.149 -0.0206 -0.0604  0.0175
  831MPD2    C112217   0.329   2.679  16.097  1.0062  0.3677  0.3258
  831MPD2    C212218   0.331   2.545  16.132  0.9925  0.6855  0.3529
  831MPD2    C312219   0.224   2.501  16.208 -0.3056  0.3433  0.5217
  831MPD2    C412220   0.139   2.597  16.266 -0.0991  0.0559  0.0076
  831MPD2    C512221   0.146   2.730  16.240 -0.8258  0.3712 -0.6420
  831MPD2     H12222   0.397   2.472  16.087  0.5305  2.1536 -2.6980
  831MPD2    H112223   0.050   2.577  16.324  0.6077 -0.2781  0.9759
  831MPD2    H212224   0.246   2.878  16.135 -0.6856  0.1626  1.2324
  831MPD2    H312225   0.082   2.799  16.294  0.2234 -0.3063  1.4515
  831MPD2     N12226   0.195   2.361  16.210  0.0878  0.1205 -0.3240
  831MPD2    H512227   0.120   2.330  16.272 -0.0306 -1.9780 -1.5024
  831MPD2    N112228   0.429   2.718  16.006 -0.1692 -0.2073  0.6883
  831MPD2    H712229   0.514   2.663  16.001 -1.7210 -2.4426 -0.7054
  832MPD2     C12230   3.958   3.410  16.917  0.4812 -0.7589  0.2872
  832MPD2    C112231   3.923   3.539  16.938 -0.2715 -0.6119  0.5160
  832MPD2    C212232   3.784   3.568  16.930 -0.0233  0.8557 -0.8729
  832MPD2    C312233   3.696   3.464  16.894 -0.6510  0.0592 -0.2614
  832MPD2    C412234   3.736   3.333  16.884 -0.1225  0.2880 -0.3426
  832MPD2    C512235   3.873   3.302  16.908 -0.0351  0.2516 -0.1601
  832MPD2     H12236   3.755   3.672  16.932  0.6079  0.9617  2.1312
  832MPD2    H112237   3.661   3.257  16.865  0.5687  0.3553 -3.4289
  832MPD2    H212238   4.063   3.389  16.927  0.9220  2.2214  1.9588
  832MPD2    H312239   3.918   3.204  16.911 -0.5872  0.0449  1.7195
  832MPD2     N12240   3.562   3.478  16.866 -0.7617 -0.1241  0.2962
  832MPD2    H512241   3.513   3.390  16.863 -0.3008 -0.4409  2.1478
  832MPD2    N112242   4.021   3.634  16.981 -0.1365 -0.6440 -0.1639
  832MPD2    H712243   4.117   3.606  16.964  0.0381 -0.7531  1.0270
  833MPD2     C12244   1.738   4.563  12.897  0.4041 -0.2271  0.1887
  833MPD2    C112245   1.655   4.655  12.833 -0.5226 -0.1439  0.5516
  833MPD2    C212246   1.570   4.610  12.735 -0.4303  0.2567 -0.4135
  833MPD2    C312247   1.579   4.477  12.696 -0.1119 -0.3013  0.0861
  833MPD2    C412248   1.661   4.387  12.762 -0.3528 -0.4405  0.5320
  833MPD2    C512249   1.737   4.431  12.866 -0.3668  0.5451 -0.1105
  833MPD2     H12250   1.505   4.675  12.678  0.4867  0.9442 -0.6729
  833MPD2    H112251   1.670   4.282  12.736 -0.7740 -0.3257 -0.0788
  833MPD2    H212252   1.811   4.603  12.966  0.5064  1.5962 -0.9688
  833MPD2    H312253   1.797   4.355  12.916 -1.2569  0.5418  0.9539
  833MPD2     N12254   1.488   4.446  12.590  0.0739  0.0325 -0.2728
  833MPD2    H512255   1.439   4.527  12.555  0.7265 -0.7613 -3.0336
  833MPD2    N112256   1.651   0.062  12.889 -0.0337 -0.2319 -0.7153
  833MPD2    H712257   1.725   0.081  12.956 -2.9331 -0.8695  2.6575
  834MPD2     C12258   1.518   4.281  11.549  0.2880 -0.4195 -0.1443
  834MPD2    C112259   1.399   4.336  11.584  0.1622 -0.0987 -0.5082
  834MPD2    C212260   1.375   4.388  11.708 -0.7214 -0.3263 -1.1439
  834MPD2    C312261   1.462   4.357  11.814 -0.8412 -0.2042  0.3709
  834MPD2    C412262   1.585   4.304  11.777  0.4434 -0.6878 -0.1826
  834MPD2    C512263   1.613   4.270  11.647  0.2912  0.2164  0.1163
  834MPD2     H12264   1.278   4.431  11.731  0.3262  0.8237  1.2020
  834MPD2    H112265   1.662   4.284  11.851 -0.4458 -0.2085  0.8839
  834MPD2    H212266   1.533   4.232  11.453 -0.7275 -0.2063 -0.4069
  834MPD2    H312267   1.711   4.230  11.625  0.6653  0.9883  0.3962
  834MPD2     N12268   1.428   4.378  11.952  0.5249  0.6295 -0.1514
  834MPD2    H512269   1.336   4.419  11.962 -0.6682 -1.4535 -2.5300
  834MPD2    N112270   1.311   4.336  11.476 -0.1182 -0.0534 -0.2451
  834MPD2    H712271   1.347   4.321  11.383  1.5057  0.7630  0.2561
  835MPD2     C12272   1.741   2.221  10.950  0.2374 -0.3092  0.0540
  835MPD2    C112273   1.629   2.288  10.999 -0.4285  0.4910  0.0111
  835MPD2    C212274   1.568   2.259  11.123  0.0049 -0.3290 -0.2173
  835MPD2    C312275   1.631   2.181  11.213 -0.5651 -0.6594  0.1173
  835MPD2    C412276   1.741   2.114  11.163 -0.1661  0.3350  0.2792
  835MPD2    C512277   1.801   2.141  11.043 -0.3077  0.4439  0.3119
  835MPD2     H12278   1.476   2.309  11.152  0.9184  1.2627 -0.0459
  835MPD2    H112279   1.803   2.046  11.221  1.0605  0.5952 -0.7325
  835MPD2    H212280   1.791   2.245  10.857  2.5382 -2.7237  0.6593
  835MPD2    H312281   1.899   2.105  11.015 -1.7000 -2.9518 -0.1914
  835MPD2     N12282   1.577   2.137  11.333  1.2995  0.8800  1.1962
  835MPD2    H512283   1.635   2.067  11.378  0.9524  0.8397  1.5733
  835MPD2    N112284   1.572   2.382  10.912  0.0356 -0.0096 -0.4165
  835MPD2    H712285   1.611   2.378  10.818  0.4496 -0.7359 -0.2203
  836MPD2     C12286   1.162   2.440  11.920  0.5810 -0.8972  0.3202
  836MPD2    C112287   1.082   2.373  11.830  0.4020  0.5437 -0.0752
  836MPD2    C212288   0.948   2.372  11.856 -0.0900 -0.6873  0.0096
  836MPD2    C312289   0.892   2.463  11.947  0.2427 -0.4646  0.3432
  836MPD2    C412290   0.974   2.540  12.022 -0.6066 -0.1433 -0.9922
  836MPD2    C512291   1.113   2.532  12.014 -0.6698 -0.3472  0.5186
  836MPD2     H12292   0.878   2.309  11.802 -1.4983 -0.7602  1.9274
  836MPD2    H112293   0.945   2.612  12.098  0.1296 -0.7768 -0.1118
  836MPD2    H212294   1.269   2.426  11.910  0.4815 -2.4177  1.4169
  836MPD2    H312295   1.178   2.592  12.077  0.2575 -0.7191 -0.0709
  836MPD2     N12296   0.756   2.482  11.982  0.0457 -0.2628 -0.2658
  836MPD2    H512297   0.744   2.559  12.047 -0.2876  0.8813 -1.6582
  836MPD2    N112298   1.141   2.288  11.733 -0.1274 -0.4106 -0.0364
  836MPD2    H712299   1.241   2.297  11.719 -0.2599 -1.3617 -1.5351
  837MPD2     C12300   3.822   2.376   9.865 -0.5466 -0.3169  0.0370
  837MPD2    C112301   3.889   2.365   9.744  0.4248  0.3221  0.5106
  837MPD2    C212302   3.919   2.481   9.666  0.4353 -0.1677  0.0009
  837MPD2    C312303   3.881   2.606   9.705 -0.4404  0.3707 -0.1233
  837MPD2    C412304   3.807   2.617   9.829  0.3102  1.0455  0.0504
  837MPD2    C512305   3.787   2.502   9.906 -0.3295  0.2569  0.7503
  837MPD2     H12306   3.982   2.455   9.581  0.6213 -0.9816  0.3838
  837MPD2    H112307   3.756   2.707   9.860 -0.3635  0.3488  0.9582
  837MPD2    H212308   3.786   2.296   9.929  1.3504 -0.6004  0.7360
  837MPD2    H312309   3.738   2.519  10.002 -0.1544 -1.3824  1.1397
  837MPD2     N12310   3.875   2.710   9.606  0.2017 -0.6543 -0.4731
  837MPD2    H512311   3.896   2.690   9.508 -0.1396  0.2647 -0.7390
  837MPD2    N112312   3.929   2.243   9.693 -1.1317  0.4728  0.3110
  837MPD2    H712313   3.985   2.242   9.608 -0.6821  1.8462  0.5882
  838MPD2     C12314   2.282   0.471  11.813  0.5420  0.4808 -0.0534
  838MPD2    C112315   2.383   0.429  11.905  0.1852  0.1777  0.6999
  838MPD2    C212316   2.349   0.327  11.987 -0.6092 -0.7266  0.4261
  838MPD2    C312317   2.232   0.260  11.975  0.6072 -0.2992 -0.6355
  838MPD2    C412318   2.139   0.288  11.880  0.3446 -0.0721 -0.2964
  838MPD2    C512319   2.164   0.396  11.801 -0.1296  0.8142 -0.0624
  838MPD2     H12320   2.423   0.306  12.064 -0.9539  0.1920  1.0027
  838MPD2    H112321   2.042   0.240  11.873  1.2820 -1.8775 -0.6446
  838MPD2    H212322   2.293   0.556  11.746  0.5959 -0.5896 -1.4011
  838MPD2    H312323   2.090   0.426  11.728 -0.8502  0.0538  0.3625
  838MPD2     N12324   2.211   0.160  12.071 -0.2307  0.0862 -0.0865
  838MPD2    H512325   2.273   0.160  12.151 -0.0480 -0.4699 -0.2281
  838MPD2    N112326   2.512   0.488  11.910 -0.0445  0.0260 -0.2237
  838MPD2    H712327   2.577   0.464  11.983  0.3073 -1.2358 -0.9513
  839MPD2     C12328   2.516   4.676  12.008  0.3258 -0.2561 -0.3518
  839MPD2    C112329   2.496   4.724  11.884 -0.7195 -0.7406  0.2032
  839MPD2    C212330   2.583   0.094  11.839 -0.8987 -0.4155  0.0404
  839MPD2    C312331   2.673   0.153  11.932  0.3258  0.3103 -0.2979
  839MPD2    C412332   2.668   0.118  12.061 -0.4736 -0.7069 -0.0814
  839MPD2    C512333   2.603   0.009  12.100  0.6714  0.1082  0.0409
  839MPD2     H12334   2.577   0.132  11.738 -0.4617  1.1284  0.5937
  839MPD2    H112335   2.731   0.164  12.136  0.8807 -0.3475 -1.4450
  839MPD2    H212336   2.461   4.591  12.047  2.5534 -1.5159  0.0542
  839MPD2    H312337   2.602   4.707  12.205  0.6357 -1.7312 -0.4505
  839MPD2     N12338   2.764   0.251  11.902 -0.6716  0.2003 -0.0021
  839MPD2    H512339   2.831   0.283  11.971 -0.8331  0.4272  0.0516
  839MPD2    N112340   2.397   4.666  11.801  0.4954 -0.1609 -0.0846
  839MPD2    H712341   2.400   4.706  11.708  0.2307  1.6437  0.6829
  840MPD2     C12342   2.970   2.612  10.096 -0.2522  0.2287 -0.4483
  840MPD2    C112343   2.920   2.576  10.218  0.3822 -0.0142 -0.1806
  840MPD2    C212344   2.956   2.652  10.332  0.1167  0.1584 -0.5659
  840MPD2    C312345   3.034   2.769  10.312  0.8588  0.3566  0.4922
  840MPD2    C412346   3.095   2.789  10.193  0.4634 -0.2424  0.2481
  840MPD2    C512347   3.064   2.711  10.083 -0.0799  0.1857 -0.5013
  840MPD2     H12348   2.923   2.627  10.433  2.8739 -1.4603 -0.0806
  840MPD2    H112349   3.175   2.862  10.184  1.3389 -0.8234  3.3570
  840MPD2    H212350   2.939   2.551  10.011 -0.5886 -1.2083  0.6962
  840MPD2    H312351   3.116   2.726   9.989  0.5284  0.7167 -0.0801
  840MPD2     N12352   3.095   2.852  10.414  0.5222  0.3177 -0.1677
  840MPD2    H512353   3.144   2.932  10.376  0.5710  0.2745 -0.1972
  840MPD2    N112354   2.824   2.471  10.209  0.3896 -0.1801  0.1832
  840MPD2    H712355   2.796   2.431  10.120  1.2845  0.1765 -0.2555
  841MPD2     C12356   2.116   2.292  14.394 -0.8318  0.4792 -0.9152
  841MPD2    C112357   2.084   2.270  14.519  0.8224 -0.0653 -0.5086
  841MPD2    C212358   2.122   2.358  14.613 -0.8301  0.4509  0.1073
  841MPD2    C312359   2.195   2.469  14.578 -0.6217  0.4343 -0.0562
  841MPD2    C412360   2.245   2.485  14.452 -0.0234 -0.1862 -0.8335
  841MPD2    C512361   2.193   2.397  14.357  0.0789 -0.3219 -1.0841
  841MPD2     H12362   2.087   2.348  14.716 -2.4302 -1.3934 -0.6071
  841MPD2    H112363   2.312   2.564  14.420 -2.2212  1.9879 -0.1614
  841MPD2    H212364   2.090   2.229  14.309  1.4219 -2.1046  0.3182
  841MPD2    H312365   2.224   2.417  14.255 -2.3174  3.7907 -0.9887
  841MPD2     N12366   2.235   2.544  14.698  0.1983 -0.6774  0.6319
  841MPD2    H512367   2.192   2.521  14.787 -1.8699 -0.9126 -0.4020
  841MPD2    N112368   2.020   2.146  14.559  0.3762 -0.4666  0.4390
  841MPD2    H712369   2.002   2.078  14.486  2.0362 -2.4342  1.8620
  842MPD2     C12370   3.205   4.039  16.823 -0.0537 -0.3767 -0.2621
  842MPD2    C112371   3.079   3.974  16.812  0.2232  0.1952  0.0391
  842MPD2    C212372   3.050   3.877  16.902  0.0406 -0.6623 -0.1501
  842MPD2    C312373   3.119   3.870  17.024  1.4515  0.0339 -0.7950
  842MPD2    C412374   3.233   3.938  17.038  0.2134 -0.0327 -0.0373
  842MPD2    C512375   3.280   4.015  16.935  0.0247  0.6217 -0.4319
  842MPD2     H12376   2.954   3.830  16.883 -2.3516  4.1906  0.1117
  842MPD2    H112377   3.291   3.924  17.129 -0.6548 -1.3164  0.3139
  842MPD2    H212378   3.239   4.116  16.755  0.5870 -0.4219  0.0163
  842MPD2    H312379   3.367   4.079  16.948  1.0557 -0.9765  0.5011
  842MPD2     N12380   3.063   3.807  17.131 -0.2641  0.1539  0.1336
  842MPD2    H512381   3.080   3.837  17.226  0.6188 -0.6309  0.2261
  842MPD2    N112382   2.999   4.006  16.700  0.0696  0.1993  0.2872
  842MPD2    H712383   3.039   4.074  16.635 -1.1644  0.0323 -0.6528
  843MPD2     C12384   0.445   3.536  17.683  0.6419 -0.2968  0.1614
  843MPD2    C112385   0.374   3.536   0.098  0.8575 -0.3206  0.4301
  843MPD2    C212386   0.422   3.615   0.201 -0.2204 -0.5854 -0.5477
  843MPD2    C312387   0.531   3.702   0.192 -0.6054 -0.6441  0.8015
  843MPD2    C412388   0.599   3.695   0.070  0.3620 -0.8346 -0.0225
  843MPD2    C512389   0.559   3.611  17.668 -0.1357  0.1011 -0.2040
  843MPD2     H12390   0.368   3.610   0.295  1.5757  0.6595  0.5693
  843MPD2    H112391   0.676   3.768   0.047 -1.7043  2.3066  3.0006
  843MPD2    H212392   0.406   3.478  17.600  1.9647  0.6919 -1.1657
  843MPD2    H312393   0.593   3.620  17.566  1.1217  0.0295  0.2058
  843MPD2     N12394   0.577   3.790   0.291  0.1065  0.0769  0.1228
  843MPD2    H512395   0.663   3.841   0.277 -2.0870  3.4322 -0.8247
  843MPD2    N112396   0.260   3.446   0.106  0.2310  0.2081 -0.2024
  843MPD2    H712397   0.250   3.382   0.028 -0.9660 -1.8675  1.6244
  844MPD2     C12398   3.004   3.001  16.580 -0.0975  0.2845  0.4182
  844MPD2    C112399   3.069   2.883  16.584  0.5639  0.7577  0.7710
  844MPD2    C212400   3.201   2.881  16.606 -0.1420 -0.1101  0.3345
  844MPD2    C312401   3.272   2.995  16.640 -0.4133  0.4525 -0.5963
  844MPD2    C412402   3.207   3.112  16.644  0.4158 -0.2068  0.3230
  844MPD2    C512403   3.076   3.115  16.601  0.2049 -0.7457 -0.1664
  844MPD2     H12404   3.253   2.786  16.600 -1.1690 -0.7938  2.1316
  844MPD2    H112405   3.260   3.202  16.675  0.6394 -0.6395  1.2141
  844MPD2    H212406   2.898   3.019  16.564 -0.3715 -0.6943  1.1494
  844MPD2    H312407   3.022   3.207  16.583  0.7874 -0.4616 -0.4362
  844MPD2     N12408   3.410   2.987  16.662  0.3492 -0.5711  0.0357
  844MPD2    H512409   3.445   2.893  16.646  1.8071 -0.0711  0.3705
  844MPD2    N112410   3.008   2.758  16.564 -0.1635 -0.0355  0.0601
  844MPD2    H712411   3.060   2.674  16.588 -1.6371 -1.9722 -3.5768
  845MPD2     C12412   4.211   3.609  16.592 -0.4294  0.3480 -1.1185
  845MPD2    C112413   4.078   3.635  16.613 -0.0515  0.1365  0.0176
  845MPD2    C212414   3.985   3.531  16.596  0.6391 -0.2276 -0.1378
  845MPD2    C312415   4.023   3.403  16.556  0.8944  1.1439 -0.4007
  845MPD2    C412416   4.154   3.384  16.520  0.0810 -0.1750 -0.2280
  845MPD2    C512417   4.240   3.487  16.544  0.3153  0.0569  0.1355
  845MPD2     H12418   3.881   3.545  16.623  0.6367 -3.2104  1.4074
  845MPD2    H112419   4.198   3.291  16.485 -1.1172 -1.9479  2.9716
  845MPD2    H212420   4.288   3.680  16.617 -1.1657  1.2274 -1.3610
  845MPD2    H312421   4.345   3.475  16.519  0.1163 -0.6760 -0.3343
  845MPD2     N12422   3.928   3.297  16.566  0.1868 -0.1313 -0.2443
  845MPD2    H512423   3.842   3.324  16.612  0.8615  0.2425  0.7967
  845MPD2    N112424   4.043   3.762  16.667 -0.5885  0.1293  0.0751
  845MPD2    H712425   4.117   3.826  16.695  1.8083 -1.7377 -2.0419
  846MPD2     C12426   0.824   4.653  13.608 -0.2798 -0.7563  0.1337
  846MPD2    C112427   0.696   4.698  13.594 -0.6879  0.3479  0.0663
  846MPD2    C212428   0.617   4.697  13.705  0.2097  0.5375 -0.1355
  846MPD2    C312429   0.673   4.663  13.832 -0.6754 -0.3180 -0.0438
  846MPD2    C412430   0.805   4.623  13.843  0.2440 -0.0635 -0.0620
  846MPD2    C512431   0.872   4.606  13.729  0.2293  0.4024 -0.1924
  846MPD2     H12432   0.511   4.719  13.698  0.4430  1.7305  0.1029
  846MPD2    H112433   0.854   4.603  13.937  0.2551 -1.5425 -0.3791
  846MPD2    H212434   0.892   4.634  13.526 -0.7512  1.9764 -0.8852
  846MPD2    H312435   0.972   4.565  13.738 -0.5830 -1.2134  1.4847
  846MPD2     N12436   0.583   4.687  13.935 -1.0143 -0.2637  0.4214
  846MPD2    H512437   0.488   4.701  13.903 -0.2157  1.0712 -1.3873
  846MPD2    N112438   0.649   0.023  13.472 -0.4102  0.9950  0.3406
  846MPD2    H712439   0.555   0.061  13.470 -0.7253  0.0094 -2.4881
  847MPD2     C12440   0.610   0.879  13.697  0.1527  0.5919  0.2922
  847MPD2    C112441   0.594   0.911  13.833  0.5894  0.1731  0.2548
  847MPD2    C212442   0.703   0.948  13.918  1.0085  0.0926 -0.1934
  847MPD2    C312443   0.833   0.939  13.863 -0.8662 -0.3871  0.1495
  847MPD2    C412444   0.845   0.911  13.726 -0.3539  0.3459 -0.1815
  847MPD2    C512445   0.737   0.881  13.644  0.2441 -0.1270 -0.5002
  847MPD2     H12446   0.685   0.988  14.017 -0.3803 -3.7617  1.1237
  847MPD2    H112447   0.941   0.900  13.677 -1.0946 -0.7912 -1.3857
  847MPD2    H212448   0.536   0.852  13.623  1.4480 -1.7547 -0.1453
  847MPD2    H312449   0.742   0.863  13.537  1.3164  0.9487 -0.6447
  847MPD2     N12450   0.945   0.957  13.947 -0.3738 -0.3693  0.1924
  847MPD2    H512451   0.911   0.973  14.042  0.5305 -1.2227  0.6605
  847MPD2    N112452   0.467   0.904  13.894 -0.1947  0.0849  0.3364
  847MPD2    H712453   0.474   0.927  13.993 -0.3681  0.8918  0.1588
  848MPD2     C12454   3.049   3.889  16.332  0.7311  1.1551 -0.0680
  848MPD2    C112455   3.174   3.861  16.383 -0.3877  0.1747 -0.1992
  848MPD2    C212456   3.282   3.921  16.321  0.4204  0.6473  0.3176
  848MPD2    C312457   3.260   4.009  16.214  0.4570 -0.1930 -0.3167
  848MPD2    C412458   3.143   4.026  16.156 -0.0331  1.2432  0.4739
  848MPD2    C512459   3.039   3.958  16.212  0.3772  0.3920  0.0261
  848MPD2     H12460   3.375   3.904  16.375  0.4901  0.5176  0.1548
  848MPD2    H112461   3.129   4.092  16.071  2.3848 -0.3927 -1.2035
  848MPD2    H212462   2.956   3.852  16.374  0.7623  1.1529 -0.0006
  848MPD2    H312463   2.943   3.979  16.167  0.2597  1.8012  0.9452
  848MPD2     N12464   3.367   4.086  16.163 -0.1659 -0.3538 -0.6606
  848MPD2    H512465   3.343   4.134  16.077  0.7365 -0.3141 -0.8912
  848MPD2    N112466   3.204   3.790  16.501  0.1114 -0.3076  0.3381
  848MPD2    H712467   3.301   3.796  16.530  0.7084  0.7611 -1.8455
  849MPD2     C12468   2.959   2.855  13.887 -0.6636  0.4040 -0.4348
  849MPD2    C112469   3.073   2.927  13.885  0.2436  1.0612 -0.0731
  849MPD2    C212470   3.078   3.043  13.960 -0.2395 -0.6515 -0.0853
  849MPD2    C312471   2.973   3.094  14.027 -0.5493 -0.2097 -0.0603
  849MPD2    C412472   2.861   3.013  14.045  0.4254  0.0482  0.7748
  849MPD2    C512473   2.858   2.896  13.975  0.1551  0.2656  0.0974
  849MPD2     H12474   3.167   3.104  13.955  0.0418 -0.9794  0.8965
  849MPD2    H112475   2.773   3.037  14.103  0.2883  0.8449  0.2484
  849MPD2    H212476   2.963   2.757  13.842 -3.7721 -0.2565  0.7604
  849MPD2    H312477   2.776   2.826  13.988  2.1143 -1.9272  0.7738
  849MPD2     N12478   2.981   3.226  14.082 -0.1242  0.7589 -0.2036
  849MPD2    H512479   3.071   3.270  14.075  0.3385  0.2796  2.7051
  849MPD2    N112480   3.180   2.889  13.798 -0.0274  0.8004  0.3956
  849MPD2    H712481   3.167   2.813  13.733  0.2073  1.2068 -0.1234
  850MPD2     C12482   0.285   2.347  14.884 -0.4869 -0.1783 -0.0089
  850MPD2    C112483   0.256   2.233  14.957  0.5128 -0.7414  0.3141
  850MPD2    C212484   0.363   2.145  14.966  0.2895  0.3819 -0.7444
  850MPD2    C312485   0.486   2.167  14.916 -0.1092 -0.0745  0.2014
  850MPD2    C412486   0.506   2.278  14.845 -0.6347 -0.3647 -0.1058
  850MPD2    C512487   0.405   2.363  14.826 -0.4650 -0.1141  0.1669
  850MPD2     H12488   0.345   2.060  15.030 -1.3937  0.9729 -0.4176
  850MPD2    H112489   0.603   2.292  14.799 -0.6056 -3.8108 -1.1040
  850MPD2    H212490   0.218   2.432  14.885  1.4558  1.3543  1.1107
  850MPD2    H312491   0.428   2.453  14.769 -0.9036  0.9940  1.7459
  850MPD2     N12492   0.591   2.077  14.945 -0.2971  0.3933 -0.5329
  850MPD2    H512493   0.683   2.107  14.914  0.7306 -2.2598 -0.0246
  850MPD2    N112494   0.140   2.206  15.019 -0.6864 -0.3305  0.7889
  850MPD2    H712495   0.131   2.123  15.077  1.6096 -0.0802  1.4864
  851MPD2     C12496   0.374   1.914  15.586 -0.0185 -0.4929 -0.7081
  851MPD2    C112497   0.314   1.902  15.460 -0.2749  0.5532  0.3566
  851MPD2    C212498   0.375   1.813  15.374 -0.7047 -0.3691  0.2371
  851MPD2    C312499   0.477   1.730  15.415  0.2226  0.7027 -0.4968
  851MPD2    C412500   0.525   1.738  15.544  0.1796 -0.4993 -0.6139
  851MPD2    C512501   0.471   1.829  15.623 -0.0603  0.4507 -0.1048
  851MPD2     H12502   0.346   1.806  15.270 -0.6478  0.6446  0.1575
  851MPD2    H112503   0.602   1.676  15.589 -1.1630 -2.3662 -0.9059
  851MPD2    H212504   0.338   1.985  15.659  0.8616 -0.4818 -0.2789
  851MPD2    H312505   0.514   1.847  15.721 -2.1053  0.4164  0.7945
  851MPD2     N12506   0.524   1.641  15.325  0.3426  0.2225  0.6332
  851MPD2    H512507   0.475   1.659  15.238  1.5034  0.6711  0.0717
  851MPD2    N112508   0.201   1.984  15.430  0.5643  0.4932  0.1900
  851MPD2    H712509   0.159   2.028  15.511 -0.3070 -0.2323  0.1402
  852MPD2     C12510   0.290   3.394  10.330 -0.2140  0.4201 -0.3669
  852MPD2    C112511   0.420   3.411  10.296  0.6829 -0.0681  0.1846
  852MPD2    C212512   0.483   3.521  10.342  0.2419  0.1798 -0.5970
  852MPD2    C312513   0.417   3.612  10.424  0.1502 -0.7691 -0.6703
  852MPD2    C412514   0.290   3.595  10.465 -0.4750  0.1373  0.1250
  852MPD2    C512515   0.224   3.487  10.410 -0.3489  0.0467 -0.1890
  852MPD2     H12516   0.579   3.545  10.297  0.8333 -1.3496 -0.1504
  852MPD2    H112517   0.240   3.653  10.542 -1.3100 -4.0286  2.7378
  852MPD2    H212518   0.225   3.313  10.300 -0.1410  0.2220  0.0178
  852MPD2    H312519   0.120   3.471  10.439 -0.1523 -1.1370 -0.1274
  852MPD2     N12520   0.489   3.728  10.447 -0.3640 -0.7600 -0.2006
  852MPD2    H512521   0.585   3.724  10.417 -0.6000  1.2669 -1.2133
  852MPD2    N112522   0.489   3.318  10.218  0.1881 -0.2424 -0.6487
  852MPD2    H712523   0.590   3.312  10.228  0.2510  0.2831 -0.9857
  853MPD2     C12524   2.632   3.648  12.567 -0.2503 -0.4773 -0.0045
  853MPD2    C112525   2.535   3.732  12.518 -0.0594 -0.0369  0.7145
  853MPD2    C212526   2.470   3.711  12.401  0.2640  0.1393  0.0297
  853MPD2    C312527   2.499   3.597  12.320  0.4004 -0.1760 -0.4349
  853MPD2    C412528   2.582   3.503  12.375  0.4741 -0.0140 -0.1807
  853MPD2    C512529   2.652   3.532  12.491  0.5776 -0.4488  0.9446
  853MPD2     H12530   2.402   3.785  12.360  1.2669  1.5619  0.9332
  853MPD2    H112531   2.597   3.412  12.318 -2.0791 -0.2506 -0.4772
  853MPD2    H212532   2.699   3.673  12.648  1.3334  0.5233 -1.6187
  853MPD2    H312533   2.736   3.470  12.520  1.3460  0.2132  0.1410
  853MPD2     N12534   2.443   3.568  12.194 -0.1539 -0.2657  0.1349
  853MPD2    H512535   2.473   3.479  12.156  2.3270  0.2039  1.0007
  853MPD2    N112536   2.516   3.852  12.590  0.3735 -0.0548 -1.0449
  853MPD2    H712537   2.576   3.876  12.669 -0.2321 -0.1515 -0.5503
  854MPD2     C12538   0.185   4.449  12.973  0.6712 -0.0451  0.2834
  854MPD2    C112539   0.065   4.383  12.995  0.3522 -0.4583 -0.3851
  854MPD2    C212540   0.068   4.273  13.082  0.2099 -0.1995  0.0420
  854MPD2    C312541   0.188   4.233  13.139 -0.2649  0.6300 -0.0256
  854MPD2    C412542   0.299   4.310  13.118 -0.2527 -0.6104  0.5219
  854MPD2    C512543   0.300   4.407  13.027  0.4954  0.6175 -0.5694
  854MPD2     H12544   4.705   4.213  13.104 -2.4200  3.9191  0.8135
  854MPD2    H112545   0.390   4.285  13.172  0.6081 -0.5777 -0.9090
  854MPD2    H212546   0.185   4.534  12.906  1.3418  0.8698  1.4421
  854MPD2    H312547   0.390   4.463  13.008  1.5633 -1.3115 -1.2178
  854MPD2     N12548   0.201   4.116  13.210 -0.0282  0.5586 -0.1018
  854MPD2    H512549   0.295   4.085  13.234  0.2275  0.5644 -1.0678
  854MPD2    N112550   4.677   4.425  12.917  0.4061  0.1326  0.0008
  854MPD2    H712551   4.689   4.508  12.861  0.4025 -1.2246 -2.0341
  855MPD2     C12552   4.158   3.580  13.378  0.4317  0.3968 -0.3202
  855MPD2    C112553   4.259   3.488  13.401 -0.2109  0.1894  0.1933
  855MPD2    C212554   4.390   3.526  13.394  0.2861  0.3377 -0.3921
  855MPD2    C312555   4.425   3.654  13.368 -0.5286 -0.4098 -0.2010
  855MPD2    C412556   4.323   3.748  13.350  0.4219  0.0194 -0.1887
  855MPD2    C512557   4.190   3.715  13.362 -0.3995  0.1433 -0.0592
  855MPD2     H12558   4.464   3.454  13.428 -0.2298 -0.3197 -0.6768
  855MPD2    H112559   4.342   3.852  13.327 -0.4396  0.2285  0.0483
  855MPD2    H212560   4.053   3.554  13.379  0.2752  0.9695 -1.1647
  855MPD2    H312561   4.115   3.792  13.348 -0.5717  0.3606  2.1411
  855MPD2     N12562   4.558   3.690  13.355  0.0922 -0.1417 -0.0732
  855MPD2    H512563   4.572   3.781  13.313 -1.8154  0.5762  0.8356
  855MPD2    N112564   4.237   3.348  13.415  0.3046 -0.0666 -0.1740
  855MPD2    H712565   4.317   3.291  13.440  1.0108  0.1405 -1.9386
  856MPD2     C12566   1.564   0.208  13.725 -0.6069 -0.6291  0.3195
  856MPD2    C112567   1.599   0.304  13.818 -0.0455 -0.0739  0.5766
  856MPD2    C212568   1.576   0.434  13.793 -0.2927  0.3021  0.8472
  856MPD2    C312569   1.522   0.480  13.677  0.3179 -0.0016 -0.2453
  856MPD2    C412570   1.495   0.384  13.580 -0.3472  0.5603 -0.0589
  856MPD2    C512571   1.515   0.254  13.602  0.1206  0.7124 -0.2654
  856MPD2     H12572   1.601   0.503  13.873 -1.0025  0.2424  1.1166
  856MPD2    H112573   1.457   0.420  13.486 -1.3243  0.5054  0.3145
  856MPD2    H212574   1.563   0.101  13.739 -0.3918 -0.8636 -1.4680
  856MPD2    H312575   1.486   0.179  13.529 -0.1984 -0.2220  0.8221
  856MPD2     N12576   1.489   0.614  13.647 -0.0271  0.3637 -0.4270
  856MPD2    H512577   1.450   0.625  13.554  1.4024  1.6587 -0.8523
  856MPD2    N112578   1.655   0.268  13.946  0.2679  0.4197  0.2734
  856MPD2    H712579   1.675   0.341  14.013  2.2342 -0.0617  0.2212
  857MPD2     C12580   3.124   2.105  12.825  0.3473 -0.0198  0.1712
  857MPD2    C112581   3.254   2.079  12.839 -0.1217 -0.3984  0.3517
  857MPD2    C212582   3.348   2.180  12.822 -0.4944 -0.4322  0.2501
  857MPD2    C312583   3.311   2.310  12.773  0.1188  0.0996 -0.3371
  857MPD2    C412584   3.177   2.330  12.754  0.1299  0.1917  0.4155
  857MPD2    C512585   3.083   2.229  12.786  0.3839 -0.5696 -0.3219
  857MPD2     H12586   3.451   2.168  12.853 -0.7677 -1.2883  0.8033
  857MPD2    H112587   3.138   2.426  12.726  0.8314  0.3737  0.0455
  857MPD2    H212588   3.046   2.031  12.839  1.7259 -0.8772  3.1367
  857MPD2    H312589   2.979   2.237  12.756  0.2920 -1.9490 -0.3335
  857MPD2     N12590   3.412   2.410  12.759 -0.6772 -0.1179  0.3349
  857MPD2    H512591   3.501   2.377  12.794 -1.5612 -1.1258  1.6154
  857MPD2    N112592   3.286   1.944  12.874  0.0454 -0.2042 -0.6436
  857MPD2    H712593   3.209   1.887  12.910  2.1940 -1.7258  1.4987
  858MPD2     C12594   3.460   0.602  16.789  0.1504  0.0674 -0.7414
  858MPD2    C112595   3.592   0.626  16.817  0.3133 -0.4989  0.7443
  858MPD2    C212596   3.634   0.728  16.895  0.7747 -0.5689 -0.0063
  858MPD2    C312597   3.536   0.813  16.947 -0.5929  0.2112 -0.5841
  858MPD2    C412598   3.401   0.798  16.915 -0.0304  0.4090 -0.6964
  858MPD2    C512599   3.367   0.687  16.842  0.0675 -0.4789 -0.5208
  858MPD2     H12600   3.738   0.757  16.906  1.4139 -2.3227 -1.4663
  858MPD2    H112601   3.325   0.871  16.941 -0.6994  0.2736 -2.2952
  858MPD2    H212602   3.443   0.525  16.714 -0.6799 -0.5460  0.0786
  858MPD2    H312603   3.263   0.673  16.818  0.2464  0.5817 -1.8927
  858MPD2     N12604   3.569   0.916  17.038 -0.3972  0.2441 -0.2835
  858MPD2    H512605   3.493   0.968  17.081 -0.2678 -1.0697  1.5530
  858MPD2    N112606   3.683   0.536  16.748 -0.2621  0.1639  0.5896
  858MPD2    H712607   3.644   0.455  16.701 -0.8056  0.6688  0.1802
  859MPD2     C12608   2.041   3.892  15.626  0.7167  0.2233  0.1421
  859MPD2    C112609   2.077   3.790  15.548  0.5694  0.2120  0.5309
  859MPD2    C212610   2.038   3.662  15.580  0.3463 -0.1206  0.2521
  859MPD2    C312611   1.952   3.642  15.691  0.5683 -0.3695 -0.5546
  859MPD2    C412612   1.900   3.752  15.756  0.5466 -0.2373 -0.0409
  859MPD2    C512613   1.956   3.871  15.728  0.0064 -0.5778 -0.3647
  859MPD2     H12614   2.056   3.577  15.514 -1.0969 -1.7248  1.9058
  859MPD2    H112615   1.832   3.745  15.841  0.0299 -0.7037 -0.4900
  859MPD2    H212616   2.063   3.994  15.598  0.0499 -0.0634 -1.4086
  859MPD2    H312617   1.917   3.957  15.782  0.2499 -1.7299  1.6262
  859MPD2     N12618   1.922   3.513  15.747 -0.3634  0.3401  0.9818
  859MPD2    H512619   1.872   3.515  15.835  1.7062  1.5243  2.1353
  859MPD2    N112620   2.145   3.812  15.428 -0.6572 -0.3409  0.0039
  859MPD2    H712621   2.194   3.901  15.430 -0.7414 -0.3254  1.2659
  860MPD2     C12622   0.002   3.388  11.684 -0.6256  0.5989  0.1322
  860MPD2    C112623   0.076   3.428  11.792  0.2791 -0.6381 -0.3538
  860MPD2    C212624   0.013   3.430  11.919 -0.7759 -0.9602 -0.1701
  860MPD2    C312625   4.603   3.398  11.931  0.4141 -0.2176 -0.2968
  860MPD2    C412626   4.529   3.374  11.816 -0.3006  1.1967  0.4098
  860MPD2    C512627   4.595   3.375  11.696 -0.2429  0.1772 -0.6839
  860MPD2     H12628   0.071   3.459  12.006  0.5399 -0.4300 -1.2185
  860MPD2    H112629   4.422   3.358  11.813 -0.0191 -0.4558 -1.0546
  860MPD2    H212630   0.043   3.379  11.584 -1.9477  0.7229 -0.4230
  860MPD2    H312631   4.536   3.356  11.607 -0.1959 -2.5381 -0.1248
  860MPD2     N12632   4.545   3.393  12.055 -0.1942 -0.3475 -0.3454
  860MPD2    H512633   4.610   3.391  12.133 -1.1122  0.3425  0.4434
  860MPD2    N112634   0.206   3.471  11.784  0.2637 -0.0823  0.2432
  860MPD2    H712635   0.253   3.515  11.863 -0.8867  2.1562 -0.3317
  861MPD2     C12636   3.215   1.645  10.945 -0.0972 -0.0756  0.5687
  861MPD2    C112637   3.255   1.762  11.002  0.1564  0.4715 -0.1325
  861MPD2    C212638   3.214   1.877  10.941  0.4937 -0.5363  0.5420
  861MPD2    C312639   3.126   1.880  10.831 -0.1852 -0.1679  0.5647
  861MPD2    C412640   3.083   1.761  10.779  0.9751 -0.2728  0.2411
  861MPD2    C512641   3.127   1.647  10.837  0.2207  0.7401 -0.5735
  861MPD2     H12642   3.253   1.969  10.981 -0.5320  0.3937 -0.5796
  861MPD2    H112643   3.009   1.755  10.701 -0.3944 -0.9538  1.5923
  861MPD2    H212644   3.248   1.549  10.982 -2.3195 -0.3007  1.9626
  861MPD2    H312645   3.100   1.556  10.785 -1.2562  1.2379 -0.6870
  861MPD2     N12646   3.077   2.010  10.780 -0.1994 -0.4182  0.1625
  861MPD2    H512647   3.004   2.002  10.710  0.4915  1.6614 -0.7925
  861MPD2    N112648   3.339   1.775  11.116  0.0908 -0.2922 -0.0509
  861MPD2    H712649   3.363   1.870  11.142 -0.0315 -0.7419  1.6821
  862MPD2     C12650   3.142   2.187  10.137 -0.3466  0.2634 -0.2678
  862MPD2    C112651   3.088   2.146  10.259 -0.0856 -0.7948  0.8871
  862MPD2    C212652   3.078   2.013  10.291  0.3638  1.0676 -0.5940
  862MPD2    C312653   3.115   1.916  10.195  0.6807  0.5186 -0.5026
  862MPD2    C412654   3.164   1.951  10.074 -0.2103 -0.2256  0.0068
  862MPD2    C512655   3.174   2.087  10.051  0.1093 -0.5399  0.2598
  862MPD2     H12656   3.047   1.997  10.394  2.5448 -0.6297 -0.1832
  862MPD2    H112657   3.180   1.872  10.001 -0.5174  2.8862 -3.4508
  862MPD2    H212658   3.158   2.293  10.119  1.9346  0.1641  1.3012
  862MPD2    H312659   3.207   2.121   9.954 -1.5005  1.4516  0.4037
  862MPD2     N12660   3.103   1.775  10.217 -0.2022  0.5778  0.1016
  862MPD2    H512661   3.130   1.705  10.148  0.4422  1.3924 -0.4712
  862MPD2    N112662   3.053   2.231  10.364  0.1316  0.4183 -0.1608
  862MPD2    H712663   3.004   2.189  10.442  1.1291  0.1370  0.3171
  863MPD2     C12664   2.044   4.542  16.530 -0.0343  0.1982 -0.2965
  863MPD2    C112665   2.048   4.661  16.596 -0.5420  0.2759  0.9087
  863MPD2    C212666   2.119   4.670  16.714 -0.3793  0.3273  0.0317
  863MPD2    C312667   2.194   4.568  16.759 -0.0753 -0.2555  0.1048
  863MPD2    C412668   2.188   4.449  16.700 -0.5037  0.8315 -0.5802
  863MPD2    C512669   2.113   4.442  16.587  0.1941 -0.4247 -0.4471
  863MPD2     H12670   2.128   0.038  16.769  0.7112 -0.1593  0.6647
  863MPD2    H112671   2.246   4.363  16.729  0.9955  2.2705  0.7114
  863MPD2    H212672   1.986   4.523  16.440  0.0190  1.2673 -0.5500
  863MPD2    H312673   2.115   4.357  16.519  1.1069 -0.7496 -0.0027
  863MPD2     N12674   2.267   4.572  16.878  0.3252 -0.2242  0.4268
  863MPD2    H512675   2.295   4.486  16.924  0.4790 -0.7009 -0.5578
  863MPD2    N112676   1.976   0.044  16.535  0.3528  0.1778  0.0014
  863MPD2    H712677   1.945   0.028  16.440  1.7078 -1.8122 -0.1277
  864MPD2     C12678   1.835   1.493  17.233 -0.1977 -0.0589 -0.5482
  864MPD2    C112679   1.951   1.432  17.188  0.3871  0.2448  0.6306
  864MPD2    C212680   2.042   1.514  17.120 -0.4845  0.3795  0.2856
  864MPD2    C312681   2.025   1.649  17.113  0.1810  0.1256  0.0369
  864MPD2    C412682   1.913   1.701  17.162  0.2835  0.2553 -0.6929
  864MPD2    C512683   1.811   1.628  17.227 -0.4588 -0.7794  0.6018
  864MPD2     H12684   2.127   1.460  17.081 -0.6048  0.0881  0.4222
  864MPD2    H112685   1.902   1.809  17.154  1.3618  0.4720  0.7279
  864MPD2    H212686   1.758   1.428  17.274  0.0746 -0.5129 -0.7572
  864MPD2    H312687   1.715   1.664  17.264  0.7412  1.0781  1.9046
  864MPD2     N12688   2.119   1.746  17.055  0.9456  0.3286 -1.1583
  864MPD2    H512689   2.081   1.840  17.052 -0.8545 -0.3456  0.6885
  864MPD2    N112690   1.977   1.297  17.222 -0.5596 -0.1526  0.2831
  864MPD2    H712691   1.902   1.250  17.271 -0.4253  0.8366  1.4203
  865MPD2     C12692   2.361   1.895  16.258 -0.3664 -0.3806  0.3981
  865MPD2    C112693   2.340   1.837  16.386 -0.4141 -0.5603 -0.3416
  865MPD2    C212694   2.276   1.906  16.493  0.3067 -0.3110  0.8502
  865MPD2    C312695   2.234   2.042  16.466 -0.3411 -0.6775 -0.2458
  865MPD2    C412696   2.259   2.098  16.337 -0.0786  0.5736  0.1986
  865MPD2    C512697   2.320   2.023  16.238  0.3977  0.1865 -0.2019
  865MPD2     H12698   2.257   1.859  16.589 -0.6980  1.2387  1.4156
  865MPD2    H112699   2.248   2.204  16.316 -0.0080  0.2049 -1.6591
  865MPD2    H212700   2.412   1.846  16.176  2.1169  1.0257  1.0841
  865MPD2    H312701   2.325   2.074  16.142 -1.3242  2.4527  0.8954
  865MPD2     N12702   2.187   2.127  16.568 -0.2404  0.3149  0.2474
  865MPD2    H512703   2.151   2.218  16.540 -0.8506  0.2836  0.9561
  865MPD2    N112704   2.424   1.726  16.390 -0.0263  0.5289 -0.4388
  865MPD2    H712705   2.474   1.681  16.314  0.6025 -2.4368  1.7249
  866MPD2     C12706   4.218   2.270  11.399 -0.1212 -0.2453 -0.0179
  866MPD2    C112707   4.204   2.229  11.269  0.3421 -0.2419 -0.0438
  866MPD2    C212708   4.087   2.257  11.213 -0.0364  0.1711  0.1891
  866MPD2    C312709   3.989   2.324  11.279  0.3427  0.1145  0.1331
  866MPD2    C412710   4.002   2.350  11.411  0.0081  0.0317 -0.2705
  866MPD2    C512711   4.119   2.323  11.476  0.3551 -0.1747  0.3496
  866MPD2     H12712   4.072   2.236  11.107 -1.7251 -0.3754  0.5376
  866MPD2    H112713   3.919   2.397  11.463 -0.6607 -0.4099 -0.9347
  866MPD2    H212714   4.308   2.234  11.446 -1.2574 -1.8997  0.8951
  866MPD2    H312715   4.127   2.353  11.580  1.0234 -0.7545  0.4603
  866MPD2     N12716   3.857   2.350  11.235 -0.0066 -0.0798 -0.5275
  866MPD2    H512717   3.790   2.389  11.300  0.6891  0.9349 -0.4104
  866MPD2    N112718   4.309   2.160  11.208  0.3734 -0.3779  0.5269
  866MPD2    H712719   4.396   2.162  11.261  2.2939  0.2411 -2.6393
  867MPD2     C12720   1.808   1.574  16.112  0.3387  0.0015 -0.8382
  867MPD2    C112721   1.765   1.502  16.219 -0.5913 -0.7995 -0.1801
  867MPD2    C212722   1.635   1.516  16.262 -0.0475  0.1317 -1.0132
  867MPD2    C312723   1.545   1.602  16.196 -0.1315 -0.0891 -0.2599
  867MPD2    C412724   1.590   1.677  16.094  0.0661  0.5725  0.1064
  867MPD2    C512725   1.722   1.660  16.049  0.1276  0.1425 -0.6631
  867MPD2     H12726   1.596   1.460  16.346  1.2571 -0.3174 -0.7090
  867MPD2    H112727   1.526   1.746  16.040  0.1223  1.5837  1.3393
  867MPD2    H212728   1.909   1.557  16.077 -0.0726 -0.0349 -1.9939
  867MPD2    H312729   1.760   1.722  15.968  0.9909 -0.0743 -0.4178
  867MPD2     N12730   1.410   1.617  16.248  0.8913  0.6682 -0.2333
  867MPD2    H512731   1.342   1.669  16.195  2.0462 -2.0799 -4.3736
  867MPD2    N112732   1.862   1.421  16.282 -0.8350 -0.0395 -0.2587
  867MPD2    H712733   1.953   1.421  16.239 -0.7867 -1.8070 -0.1590
  868MPD2     C12734   3.557   0.339  12.971 -0.0992  0.2561  0.1391
  868MPD2    C112735   3.615   0.312  13.101 -0.8760 -0.3590  0.1235
  868MPD2    C212736   3.533   0.312  13.211 -0.2923  0.0094 -0.9091
  868MPD2    C312737   3.398   0.344  13.203 -0.1523  0.2000 -0.0317
  868MPD2    C412738   3.347   0.388  13.079 -0.4492 -0.1787  0.1856
  868MPD2    C512739   3.426   0.377  12.966 -0.3505 -0.9531 -0.0782
  868MPD2     H12740   3.565   0.284  13.310 -2.6982  0.5869  0.0305
  868MPD2    H112741   3.244   0.419  13.066 -0.0469  1.3504  0.6347
  868MPD2    H212742   3.604   0.329  12.874  3.7357 -1.0723  2.1202
  868MPD2    H312743   3.375   0.400  12.873  0.2928 -1.8398 -0.6454
  868MPD2     N12744   3.329   0.356  13.318  0.1633 -0.3563 -1.0409
  868MPD2    H512745   3.381   0.328  13.401 -0.7114  0.3848 -0.2354
  868MPD2    N112746   3.753   0.271  13.104 -0.7891 -0.4730 -0.8414
  868MPD2    H712747   3.802   0.271  13.015 -0.2821 -0.5177 -0.5567
  869MPD2     C12748   4.145   3.252   1.756 -0.7849  0.0136  0.0203
  869MPD2    C112749   4.054   3.212   1.662  0.0890 -1.1601  1.3847
  869MPD2    C212750   4.073   3.255   1.527 -0.1019 -0.3877 -0.0132
  869MPD2    C312751   4.190   3.333   1.496 -0.6738 -0.0484 -0.3621
  869MPD2    C412752   4.280   3.367   1.596 -0.3530 -0.1030 -0.1470
  869MPD2    C512753   4.249   3.335   1.729 -0.3123  0.4418  0.0008
  869MPD2     H12754   3.997   3.253   1.449 -2.8710 -0.4814  2.6612
  869MPD2    H112755   4.366   3.432   1.585 -0.6166  0.2556 -0.0778
  869MPD2    H212756   4.128   3.218   1.858  0.9380 -0.2514  0.2288
  869MPD2    H312757   4.318   3.378   1.801  1.3460 -1.4406 -0.4611
  869MPD2     N12758   4.218   3.377   1.363 -0.8228  0.0689 -0.0374
  869MPD2    H512759   4.304   3.431   1.359 -1.1628  0.4387 -2.1461
  869MPD2    N112760   3.939   3.139   1.706 -0.0847 -0.1368  0.1127
  869MPD2    H712761   3.936   3.128   1.807  0.6533 -1.2581  0.0006
  870MPD2     C12762   3.317   2.223   1.387 -0.6198  0.4232  0.2202
  870MPD2    C112763   3.416   2.134   1.360  0.0281 -0.9027 -0.7839
  870MPD2    C212764   3.408   2.047   1.250 -0.5390 -0.2363 -0.1157
  870MPD2    C312765   3.295   2.053   1.171  1.0113 -0.5322  0.1850
  870MPD2    C412766   3.192   2.147   1.206 -0.0871 -0.2030  0.4452
  870MPD2    C512767   3.209   2.232   1.308 -0.6781 -0.0632 -0.3162
  870MPD2     H12768   3.485   1.977   1.220  0.9568  0.7478  1.4596
  870MPD2    H112769   3.099   2.171   1.155  0.4259  1.6095  0.3621
  870MPD2    H212770   3.321   2.307   1.455 -0.6146  0.8443 -0.2978
  870MPD2    H312771   3.138   2.312   1.322  0.9333  0.7898  3.0361
  870MPD2     N12772   3.296   1.974   1.060 -0.0181  0.0741 -0.3377
  870MPD2    H512773   3.361   1.903   1.028 -0.4865 -1.2862  1.7596
  870MPD2    N112774   3.523   2.127   1.450  0.4581 -0.7759  0.8115
  870MPD2    H712775   3.521   2.204   1.516 -0.7215  0.8705 -1.1420
  871MPD2     C12776   0.425   1.898  16.201  0.0813 -0.2969 -0.5733
  871MPD2    C112777   0.389   1.833  16.315 -1.0039 -0.9679 -0.9429
  871MPD2    C212778   0.412   1.702  16.324 -0.6615  0.2756  0.1241
  871MPD2    C312779   0.471   1.634  16.217  0.2834 -0.5911 -0.4792
  871MPD2    C412780   0.506   1.703  16.105  0.6581 -0.0607 -0.2544
  871MPD2    C512781   0.494   1.835  16.101  0.5545  0.1029  0.1497
  871MPD2     H12782   0.388   1.637  16.407 -0.6797  1.1207  0.7793
  871MPD2    H112783   0.548   1.649  16.020  0.9052 -0.7182  0.2865
  871MPD2    H212784   0.410   2.005  16.187  2.7480  0.3098  1.1244
  871MPD2    H312785   0.530   1.897  16.020  2.4325  1.6752  2.2128
  871MPD2     N12786   0.495   1.494  16.238 -0.5681  0.0560 -0.0265
  871MPD2    H512787   0.464   1.449  16.324  1.5991  0.5889  1.0565
  871MPD2    N112788   0.324   1.900  16.425  0.3383  0.6095 -0.1818
  871MPD2    H712789   0.309   2.000  16.415 -0.1972  0.3724 -1.7694
  872MPD2     C12790   1.341   3.888  13.711 -0.4679  0.1675  0.1861
  872MPD2    C112791   1.375   4.022  13.725 -0.3950  0.4266 -0.4308
  872MPD2    C212792   1.278   4.115  13.763  0.3306  1.2524  0.2620
  872MPD2    C312793   1.153   4.074  13.798 -0.5307 -0.3664  0.9170
  872MPD2    C412794   1.120   3.934  13.775 -0.0300  0.1683  1.1609
  872MPD2    C512795   1.214   3.843  13.739 -0.7668  0.4125  0.2943
  872MPD2     H12796   1.311   4.216  13.780 -0.6605  1.4161  1.2547
  872MPD2    H112797   1.026   3.892  13.810 -0.7018  0.3382 -0.4450
  872MPD2    H212798   1.412   3.812  13.683 -1.1605 -0.3972 -0.0246
  872MPD2    H312799   1.184   3.741  13.715  1.0448 -0.2036  0.6816
  872MPD2     N12800   1.062   4.161  13.859 -0.0432 -0.6873 -0.6421
  872MPD2    H512801   0.982   4.113  13.898 -1.1878  0.9361 -0.9900
  872MPD2    N112802   1.508   4.073  13.711 -0.3811 -0.1405 -0.1852
  872MPD2    H712803   1.528   4.172  13.700 -2.9880  0.2765 -1.0132
  873MPD2     C12804   3.193   3.891   0.475  0.0325 -0.2452  0.2013
  873MPD2    C112805   3.291   3.942   0.563 -0.2418 -0.5135 -0.5935
  873MPD2    C212806   3.425   3.936   0.524 -0.1218  0.3579 -0.8432
  873MPD2    C312807   3.458   3.878   0.409  0.5977 -0.6485  0.3632
  873MPD2    C412808   3.356   3.816   0.329  0.1114  0.0962  0.1389
  873MPD2    C512809   3.225   3.824   0.362  0.0183  0.3284 -0.1423
  873MPD2     H12810   3.506   3.978   0.584 -0.7603  2.5062 -1.4621
  873MPD2    H112811   3.376   3.748   0.247  0.2182  0.6235 -0.2742
  873MPD2    H212812   3.092   3.881   0.512  0.0238 -3.0916 -0.6232
  873MPD2    H312813   3.140   3.779   0.312 -0.5485  0.7366  0.4455
  873MPD2     N12814   3.592   3.857   0.366  0.7002 -0.7973  0.0933
  873MPD2    H512815   3.608   3.787   0.294  4.6772 -1.5902  1.7497
  873MPD2    N112816   3.237   4.000   0.680  0.0482  0.1643 -0.1867
  873MPD2    H712817   3.137   4.008   0.694  0.0098 -0.8388  0.1299
  874MPD2     C12818   2.870   4.395  15.989  0.6497 -0.3442  0.4031
  874MPD2    C112819   2.920   4.396  16.115  0.1496  0.1357  0.4242
  874MPD2    C212820   3.055   4.424  16.139  0.2297 -0.0241  0.2212
  874MPD2    C312821   3.137   4.451  16.032 -0.0910 -0.1645  0.5864
  874MPD2    C412822   3.084   4.453  15.901 -0.4632  0.1136 -0.1786
  874MPD2    C512823   2.950   4.417  15.884  0.3599 -0.7404  0.0356
  874MPD2     H12824   3.106   4.407  16.233 -0.6472 -0.3105  0.6536
  874MPD2    H112825   3.150   4.471  15.817  0.1435 -3.2653 -0.4272
  874MPD2    H212826   2.770   4.354  15.980  0.8140 -0.8587  0.8939
  874MPD2    H312827   2.899   4.396  15.791  1.9452  0.6060 -1.1466
  874MPD2     N12828   3.273   4.459  16.068  0.5791  0.3397  0.1156
  874MPD2    H512829   3.293   4.445  16.166 -1.9890  1.8085  0.8695
  874MPD2    N112830   2.832   4.337  16.217  0.0279 -0.1031 -0.0816
  874MPD2    H712831   2.752   4.293  16.173  0.4783 -2.3984  1.4066
  875MPD2     C12832   3.694   2.358  14.649 -0.1765 -1.0163  0.8610
  875MPD2    C112833   3.572   2.422  14.624  0.0714  0.4597 -0.6603
  875MPD2    C212834   3.530   2.503  14.729  0.2494  0.0398 -0.6135
  875MPD2    C312835   3.613   2.546  14.835  0.2856  0.0022 -0.7268
  875MPD2    C412836   3.737   2.494  14.836 -0.8619  0.6507  0.8728
  875MPD2    C512837   3.773   2.389  14.758  0.9939  0.7654 -0.2151
  875MPD2     H12838   3.429   2.543  14.727  0.0773 -0.3087  1.7155
  875MPD2    H112839   3.788   2.519  14.928  0.3497  3.6074 -0.5893
  875MPD2    H212840   3.725   2.272  14.590  2.5280 -0.3673  1.3079
  875MPD2    H312841   3.866   2.336  14.773 -1.6203 -3.4757  0.9344
  875MPD2     N12842   3.572   2.642  14.920 -0.2351 -0.0616 -0.2511
  875MPD2    H512843   3.643   2.693  14.972 -0.3593  1.3260 -1.4236
  875MPD2    N112844   3.493   2.396  14.511  0.5596 -0.4089  0.0698
  875MPD2    H712845   3.398   2.434  14.510 -0.0606 -2.0203 -1.4800
  876MPD2     C12846   2.733   3.776  16.149  0.2491  0.7730 -0.6718
  876MPD2    C112847   2.733   3.720  16.020  0.3133  0.0336 -0.0428
  876MPD2    C212848   2.687   3.585  16.007 -0.3539 -0.1786  0.6002
  876MPD2    C312849   2.641   3.515  16.118 -0.0819 -0.6801 -0.0919
  876MPD2    C412850   2.651   3.572  16.244 -0.4571  0.3734 -0.5314
  876MPD2    C512851   2.698   3.698  16.255 -0.5186  0.8223  0.0799
  876MPD2     H12852   2.678   3.537  15.910 -2.0538 -0.5966  0.9694
  876MPD2    H112853   2.608   3.517  16.327  0.8605  0.6692  0.3557
  876MPD2    H212854   2.764   3.878  16.170 -0.0284  1.1138 -1.9543
  876MPD2    H312855   2.702   3.751  16.350 -0.3297 -0.6493  0.8804
  876MPD2     N12856   2.596   3.382  16.093 -0.1610 -0.1349 -0.3155
  876MPD2    H512857   2.622   3.345  16.002  1.9905 -0.2882  0.3439
  876MPD2    N112858   2.757   3.790  15.903 -0.3021  0.2355 -0.1600
  876MPD2    H712859   2.753   3.739  15.815  1.5066  0.3177 -0.2874
  877MPD2     C12860   2.488   4.291  15.297  0.0710  0.3805 -0.1066
  877MPD2    C112861   2.623   4.281  15.293 -0.4041 -0.5235 -0.3265
  877MPD2    C212862   2.687   4.296  15.172 -0.1129  0.1538  0.0330
  877MPD2    C312863   2.608   4.331  15.064  0.1592 -0.4248  0.5247
  877MPD2    C412864   2.470   4.349  15.070 -0.2446 -0.1360 -0.1124
  877MPD2    C512865   2.412   4.323  15.190 -0.1315 -0.0086  0.1259
  877MPD2     H12866   2.795   4.284  15.180 -0.1380  1.4408  2.3406
  877MPD2    H112867   2.398   4.375  14.994 -0.0414 -0.0318 -0.2704
  877MPD2    H212868   2.435   4.272  15.390 -0.7990  0.6298 -0.5478
  877MPD2    H312869   2.303   4.321  15.190 -0.1239 -0.3949 -0.4416
  877MPD2     N12870   2.667   4.349  14.941  0.5245  0.1056 -0.2523
  877MPD2    H512871   2.608   4.348  14.858  1.4116 -1.2476 -0.8640
  877MPD2    N112872   2.708   4.236  15.402  0.0241  0.0605  1.1463
  877MPD2    H712873   2.790   4.190  15.366 -0.2373 -0.5844  1.3820
  878MPD2     C12874   3.285   2.993  12.814 -0.4414 -0.1748 -0.5195
  878MPD2    C112875   3.303   3.121  12.868  0.3220  0.4301  0.2721
  878MPD2    C212876   3.336   3.137  12.997 -0.4615 -0.0492  0.2421
  878MPD2    C312877   3.323   3.029  13.086 -0.1907 -0.2892  0.2450
  878MPD2    C412878   3.276   2.909  13.035  0.0176  0.6965 -0.2400
  878MPD2    C512879   3.262   2.891  12.899 -0.9481  0.9199 -0.5609
  878MPD2     H12880   3.351   3.234  13.043 -0.3182 -0.3797  0.8942
  878MPD2    H112881   3.262   2.812  13.081  0.3477  0.0792 -1.4342
  878MPD2    H212882   3.284   2.966  12.709  2.2381 -1.3386 -0.2418
  878MPD2    H312883   3.240   2.794  12.857 -3.1472  1.5752 -0.8937
  878MPD2     N12884   3.351   3.057  13.223  0.2133  1.0556 -0.0560
  878MPD2    H512885   3.387   3.150  13.239  0.0752  0.8200  1.5664
  878MPD2    N112886   3.283   3.236  12.777  0.3868 -0.4868 -0.6753
  878MPD2    H712887   3.259   3.223  12.679  1.3334 -0.0352 -0.9672
  879MPD2     C12888   3.048   0.130  17.198  0.5892 -0.5223  0.0985
  879MPD2    C112889   3.121   0.056  17.110 -0.1094  0.4945  0.7828
  879MPD2    C212890   3.068   0.029  16.985  0.1916 -0.8617  0.1882
  879MPD2    C312891   2.936   0.056  16.964  0.4959 -0.6071  0.4363
  879MPD2    C412892   2.862   0.131  17.053 -0.0380 -0.1168  0.2007
  879MPD2    C512893   2.924   0.171  17.165  0.8293  0.0336 -0.4134
  879MPD2     H12894   3.134   4.697  16.921 -0.5104  0.1125 -1.4121
  879MPD2    H112895   2.762   0.166  17.032 -0.3770 -0.8634  0.5990
  879MPD2    H212896   3.078   0.150  17.300 -1.6824  1.6065  0.3638
  879MPD2    H312897   2.856   0.215  17.238  2.6987  2.4956 -0.1499
  879MPD2     N12898   2.874   0.010  16.848  0.2396 -0.0234 -0.5160
  879MPD2    H512899   2.775   0.028  16.835  0.1791 -0.1379 -0.2049
  879MPD2    N112900   3.244   0.005  17.156 -0.1208 -0.8749  0.3096
  879MPD2    H712901   3.265   0.020  17.254 -2.2020 -1.3991  0.8323
  880MPD2     C12902   4.588   1.586  17.639  0.1911  0.5578 -0.0010
  880MPD2    C112903   4.549   1.562   0.066  1.0396  0.2105  0.5124
  880MPD2    C212904   4.628   1.488   0.149  0.1158 -0.0083  0.1596
  880MPD2    C312905   0.018   1.437   0.095 -0.1837  0.3591  0.4297
  880MPD2    C412906   0.055   1.464  17.671 -0.0738  0.7461  0.5970
  880MPD2    C512907   4.701   1.537  17.591 -0.4588  0.1402 -0.0243
  880MPD2     H12908   4.595   1.474   0.251 -0.8919  2.6892  0.2173
  880MPD2    H112909   0.149   1.429  17.629 -0.5714  0.5688 -0.3820
  880MPD2    H212910   4.535   1.648  17.568  1.7716  0.5839 -1.1668
  880MPD2    H312911   0.000   1.562  17.489  0.0999  2.4585  0.6898
  880MPD2     N12912   0.091   1.357   0.176 -0.3441  0.1037 -0.2125
  880MPD2    H512913   0.069   1.342   0.274 -1.3553 -3.3219 -0.9707
  880MPD2    N112914   4.445   1.643   0.117 -0.0008 -0.5309 -0.9375
  880MPD2    H712915   4.400   1.697   0.044 -0.5907  2.7211  1.8262
  881MPD2     C12916   4.007   2.500  17.599 -0.3224  0.1340  0.0887
  881MPD2    C112917   4.039   2.395  17.517  0.1475 -0.1388  0.0419
  881MPD2    C212918   4.068   2.272  17.577  0.4156  0.1183  0.0206
  881MPD2    C312919   4.054   2.249   0.010 -0.3180 -0.5747 -0.3938
  881MPD2    C412920   4.010   2.354   0.092  0.5306 -0.2152 -0.0455
  881MPD2    C512921   3.993   2.476   0.032  0.4512 -0.1148 -0.3699
  881MPD2     H12922   4.111   2.196  17.513  1.0704  0.2977  0.2520
  881MPD2    H112923   3.985   2.344   0.197  0.1591 -2.9736 -0.3940
  881MPD2    H212924   4.000   2.604  17.570  1.4978  0.1784 -0.1846
  881MPD2    H312925   3.955   2.553   0.098  1.9864 -0.4090  0.8539
  881MPD2     N12926   4.086   2.125   0.075 -0.0480 -0.9511 -0.3636
  881MPD2    H512927   4.070   2.134   0.175 -2.6275 -0.0838 -0.8583
  881MPD2    N112928   4.085   2.417  17.383  0.5673  0.0383  0.5787
  881MPD2    H712929   4.096   2.513  17.352  0.5927 -0.0555  0.3039
  882MPD2     C12930   2.857   3.969  14.269  0.0875 -0.5952 -0.7770
  882MPD2    C112931   2.761   4.048  14.316 -0.6984 -0.4763 -0.0095
  882MPD2    C212932   2.628   4.020  14.283  0.2017 -0.1780 -0.2304
  882MPD2    C312933   2.593   3.917  14.199 -0.8018  0.3989 -0.0816
  882MPD2    C412934   2.697   3.834  14.148  0.0533  0.4499  0.7858
  882MPD2    C512935   2.825   3.865  14.184 -0.4820 -0.6576 -0.9364
  882MPD2     H12936   2.548   4.078  14.328 -0.5449 -0.0086 -1.7908
  882MPD2    H112937   2.681   3.764  14.067 -1.2829 -0.4256  1.8239
  882MPD2    H212938   2.959   3.963  14.306  0.0954 -1.9198 -0.9945
  882MPD2    H312939   2.907   3.813  14.136 -0.1421 -0.1978 -0.8620
  882MPD2     N12940   2.459   3.883  14.152 -0.5702  0.1565  0.2682
  882MPD2    H512941   2.446   3.795  14.102 -0.3082  0.1669  0.1818
  882MPD2    N112942   2.799   4.154  14.404  0.2689 -0.3535 -0.5912
  882MPD2    H712943   2.895   4.156  14.436  0.9904 -2.2487 -2.6247
  883MPD2     C12944   4.435   4.283  16.078  0.3117  0.0388  0.8632
  883MPD2    C112945   4.539   4.262  15.997  0.0920  0.1504 -0.3992
  883MPD2    C212946   4.664   4.282  16.051  0.1219 -0.5294 -0.0105
  883MPD2    C312947   4.678   4.292  16.189 -0.0060 -0.2840  1.0311
  883MPD2    C412948   4.569   4.305  16.269  0.0583  0.2483  0.3584
  883MPD2    C512949   4.446   4.306  16.208 -0.2449 -0.5844  0.3790
  883MPD2     H12950   0.024   4.257  15.989 -0.0495  0.0132 -0.4618
  883MPD2    H112951   4.582   4.316  16.376  3.1409 -1.5709  0.1747
  883MPD2    H212952   4.339   4.279  16.027  2.3606 -1.0833 -2.9043
  883MPD2    H312953   4.352   4.315  16.261  0.6003 -1.2701  1.9700
  883MPD2     N12954   0.091   4.307  16.241  0.2762  0.4008 -0.5088
  883MPD2    H512955   0.160   4.320  16.167  0.9256  1.5007  0.2878
  883MPD2    N112956   4.531   4.231  15.857  0.1425 -0.2175 -0.6519
  883MPD2    H712957   4.618   4.228  15.806  2.9936 -0.0410  4.1429
  884MPD2     C12958   1.739   0.280  15.211  0.0948  0.2167 -0.8694
  884MPD2    C112959   1.696   0.253  15.082  0.0181  0.2758  0.1645
  884MPD2    C212960   1.579   0.307  15.039  0.2124 -0.1026  0.2051
  884MPD2    C312961   1.498   0.383  15.125  0.4991 -0.3521 -0.0328
  884MPD2    C412962   1.541   0.417  15.255 -0.3906  1.1094 -0.4831
  884MPD2    C512963   1.662   0.360  15.299  0.7314 -0.5262 -1.1005
  884MPD2     H12964   1.542   0.266  14.945  0.6914  0.5036 -0.2493
  884MPD2    H112965   1.483   0.475  15.326 -0.1287  0.3298  0.3605
  884MPD2    H212966   1.835   0.247  15.248 -0.3612  2.4051  2.2990
  884MPD2    H312967   1.698   0.373  15.400  0.8497 -0.2304 -1.1833
  884MPD2     N12968   1.384   0.428  15.063 -0.1956 -0.8949 -0.0790
  884MPD2    H512969   1.365   0.396  14.968 -0.1306  1.8375 -1.0216
  884MPD2    N112970   1.762   0.167  14.996  0.2465 -0.0066 -0.2987
  884MPD2    H712971   1.730   0.166  14.900 -0.8037 -1.0692  0.0592
  885MPD2     C12972   4.717   0.083   0.411 -0.1327  0.3595 -0.3494
  885MPD2    C112973   0.117   0.096   0.361  0.3155  0.0710  0.5909
  885MPD2    C212974   0.157   0.192   0.271  0.1188  0.5530  0.5484
  885MPD2    C312975   0.064   0.265   0.203  0.7090  0.1947  0.5909
  885MPD2    C412976   4.658   0.257   0.250  0.1423  0.0467  0.6579
  885MPD2    C512977   4.629   0.164   0.349  0.2015  0.0948 -0.1009
  885MPD2     H12978   0.263   0.199   0.250 -0.1902 -3.1346 -2.3217
  885MPD2    H112979   4.576   0.322   0.221 -0.8345 -1.5448 -0.0900
  885MPD2    H212980   4.682   0.010   0.483  0.6182 -0.9236 -1.2753
  885MPD2    H312981   4.522   0.161   0.369  0.2425 -0.9874 -0.0411
  885MPD2     N12982   0.112   0.348   0.091  0.5340  0.3921 -0.2077
  885MPD2    H512983   0.212   0.345   0.079  0.6659 -2.2882  1.3014
  885MPD2    N112984   0.218   0.032   0.438  0.2748 -0.1663  0.3870
  885MPD2    H712985   0.306   0.080   0.448 -1.3172  2.3280  2.4151
  886MPD2     C12986   1.078   4.105  15.139 -0.0598  1.0860  0.5164
  886MPD2    C112987   1.209   4.056  15.142 -0.3197 -0.3553 -0.2327
  886MPD2    C212988   1.273   4.032  15.021  0.2957 -0.4788  0.0189
  886MPD2    C312989   1.208   4.052  14.900 -0.5672  0.3929 -0.4702
  886MPD2    C412990   1.075   4.102  14.900  0.0042  0.1956  0.1109
  886MPD2    C512991   1.019   4.136  15.017 -0.2404 -0.0336 -0.0044
  886MPD2     H12992   1.374   3.991  15.028 -0.3255 -2.0724 -0.2821
  886MPD2    H112993   1.020   4.131  14.812  1.8842  0.9231 -0.8174
  886MPD2    H212994   1.024   4.139  15.227 -0.0314  0.4321  0.7861
  886MPD2    H312995   0.923   4.188  15.010  0.4596  1.3245  0.3564
  886MPD2     N12996   1.278   4.038  14.775  0.8225  0.3238  0.4094
  886MPD2    H512997   1.224   4.062  14.692 -0.0008 -3.3829 -0.1340
  886MPD2    N112998   1.280   4.024  15.262  0.4293 -0.1784 -0.2928
  886MPD2    H712999   1.378   3.996  15.264  0.2764 -0.4779  2.7564
  887MPD2     C13000   1.897   3.997  15.265  0.0921 -0.2613 -0.0554
  887MPD2    C113001   1.830   4.070  15.359  0.5210 -0.3002  0.3165
  887MPD2    C213002   1.861   4.204  15.372  0.1640 -0.1145 -0.1901
  887MPD2    C313003   1.955   4.261  15.281  0.5248  0.6074  0.1799
  887MPD2    C413004   2.022   4.185  15.187 -0.0694  0.5136 -0.5591
  887MPD2    C513005   1.987   4.053  15.181  0.0260 -0.4175  0.2422
  887MPD2     H13006   1.811   4.273  15.439 -0.7243 -0.9835  0.0244
  887MPD2    H113007   2.105   4.222  15.128 -2.3791  2.7777 -2.3853
  887MPD2    H213008   1.874   3.894  15.242  1.9445 -0.2208 -2.1464
  887MPD2    H313009   2.044   3.998  15.107  0.3241 -1.5133  1.2847
  887MPD2     N13010   1.983   4.403  15.306 -0.2813 -0.0308 -0.1416
  887MPD2    H513011   1.955   4.439  15.396  0.3732  2.1483 -0.8163
  887MPD2    N113012   1.729   4.019  15.436  0.5481 -0.1636  0.3158
  887MPD2    H713013   1.680   4.090  15.490 -1.7426 -0.9566 -0.7093
  888MPD2     C13014   3.779   3.607  14.708 -0.7114  0.0895  0.4830
  888MPD2    C113015   3.789   3.661  14.835  0.2052  0.3368  0.3498
  888MPD2    C213016   3.875   3.765  14.856 -0.2086  0.1537 -0.5611
  888MPD2    C313017   3.956   3.815  14.758 -0.0750 -0.4697  0.1143
  888MPD2    C413018   3.950   3.752  14.634  0.3540 -0.2055  0.2831
  888MPD2    C513019   3.855   3.654  14.606 -0.3367  0.0790  0.4181
  888MPD2     H13020   3.885   3.807  14.955 -2.2058 -0.1105 -0.2495
  888MPD2    H113021   4.022   3.778  14.557  0.1719  0.2554  0.2650
  888MPD2    H213022   3.729   3.512  14.691  0.2636  0.1528 -2.6583
  888MPD2    H313023   3.859   3.608  14.508 -0.5107  1.9148 -0.4559
  888MPD2     N13024   4.039   3.926  14.786  0.4793  0.1385  0.1238
  888MPD2    H513025   4.031   3.954  14.884  1.9245 -1.5062  0.7146
  888MPD2    N113026   3.705   3.622  14.940  0.2852  0.2771  0.1108
  888MPD2    H713027   3.717   3.657  15.035  0.3028  0.7880 -0.0772
  889MPD2     C13028   3.589   3.222  12.485  0.5092 -1.0879  0.1184
  889MPD2    C113029   3.606   3.206  12.624 -0.0067  0.0651 -0.5104
  889MPD2    C213030   3.641   3.319  12.694  0.1461  0.0513  1.4898
  889MPD2    C313031   3.615   3.450  12.654  0.3203 -0.2294  0.3131
  889MPD2    C413032   3.588   3.466  12.515  0.1054 -0.2341 -0.2316
  889MPD2    C513033   3.569   3.350  12.443 -0.2949 -0.5033 -0.1006
  889MPD2     H13034   3.676   3.296  12.794  0.9958  0.3726  1.2761
  889MPD2    H113035   3.582   3.564  12.469 -2.0433 -0.4823 -0.4859
  889MPD2    H213036   3.571   3.140  12.416  1.2966  0.8976 -2.4464
  889MPD2    H313037   3.557   3.355  12.336 -1.1944 -0.0545  0.0231
  889MPD2     N13038   3.630   3.559  12.748 -0.3172  0.2114  0.1849
  889MPD2    H513039   3.668   3.530  12.838  1.7688 -0.3608 -0.8954
  889MPD2    N113040   3.637   3.083  12.677  0.0573 -0.3565  0.2462
  889MPD2    H713041   3.657   3.084  12.776 -1.6009 -1.1009  0.5772
  890MPD2     C13042   3.196   0.044  14.611  0.2032 -0.5926  0.6313
  890MPD2    C113043   3.158   0.096  14.730 -0.1009  0.1338  0.3597
  890MPD2    C213044   3.160   0.016  14.848  0.2842 -0.1858  0.6625
  890MPD2    C313045   3.203   4.612  14.851  0.4570  0.6573  0.0841
  890MPD2    C413046   3.237   4.558  14.724  0.0689  0.2343 -0.2574
  890MPD2    C513047   3.230   4.638  14.608 -0.1767  0.5051 -0.1279
  890MPD2     H13048   3.121   0.065  14.937 -0.6205 -0.3507  0.3467
  890MPD2    H113049   3.270   4.456  14.708 -0.3292  0.0760 -0.0764
  890MPD2    H213050   3.198   0.095  14.516  0.6584 -0.9081  0.4712
  890MPD2    H313051   3.254   4.590  14.514 -0.0860 -0.9815  0.6551
  890MPD2     N13052   3.199   4.538  14.973  0.2619  0.6166  0.5516
  890MPD2    H513053   3.181   4.599  15.053 -3.0170  0.8247 -0.3227
  890MPD2    N113054   3.101   0.217  14.716 -0.5813  0.2602 -0.3147
  890MPD2    H713055   3.078   0.254  14.624  2.0730  1.5941 -0.4358
  891MPD2     C13056   0.058   3.396  16.682 -0.5360  0.1578  0.5302
  891MPD2    C113057   0.124   3.494  16.749 -0.1532  0.5826 -0.0507
  891MPD2    C213058   0.251   3.456  16.799  0.2127  0.2138  0.0476
  891MPD2    C313059   0.302   3.326  16.786 -0.5793 -0.1776 -0.2269
  891MPD2    C413060   0.219   3.233  16.724 -0.8779  0.9857  0.4415
  891MPD2    C513061   0.102   3.268  16.662 -0.3952 -0.1316 -0.3662
  891MPD2     H13062   0.323   3.527  16.838  0.2503  0.3479 -0.2716
  891MPD2    H113063   0.255   3.133  16.701  1.1418  1.7359  0.4115
  891MPD2    H213064   4.690   3.418  16.631 -0.2507  0.2211  0.0320
  891MPD2    H313065   0.050   3.205  16.591 -2.0336  1.6637 -0.7582
  891MPD2     N13066   0.422   3.287  16.852 -0.0299  0.7209  0.0300
  891MPD2    H513067   0.483   3.365  16.875  2.1830 -0.8661 -0.4906
  891MPD2    N113068   0.074   3.626  16.770  0.5711 -0.1580 -0.1080
  891MPD2    H713069   0.130   3.693  16.821 -1.1775  1.7211 -0.6882
  892MPD2     C13070   1.811   4.205  14.672  0.2546  0.5868  0.3500
  892MPD2    C113071   1.759   4.265  14.553 -0.0044  0.9540 -0.0753
  892MPD2    C213072   1.810   4.214  14.430 -0.1224 -0.4120  0.3589
  892MPD2    C313073   1.915   4.122  14.433  0.5747 -0.1207  0.1763
  892MPD2    C413074   1.981   4.088  14.552  0.1022  0.7115 -0.2974
  892MPD2    C513075   1.928   4.123  14.675 -0.8527 -0.6665 -0.1057
  892MPD2     H13076   1.762   4.247  14.338 -0.6159 -1.1516  0.3471
  892MPD2    H113077   2.069   4.024  14.555 -0.2108  0.3104  0.5552
  892MPD2    H213078   1.782   4.240  14.770 -1.7921 -0.7159  0.2117
  892MPD2    H313079   1.957   4.079  14.770 -0.3171 -0.8294 -0.3438
  892MPD2     N13080   1.967   4.057  14.312  0.4096  0.5222 -0.0723
  892MPD2    H513081   2.059   4.013  14.321  0.6590  1.2100  0.7892
  892MPD2    N113082   1.657   4.362  14.553 -0.5356 -0.2388  0.3033
  892MPD2    H713083   1.653   4.417  14.468 -0.2511 -0.4763  0.1351
  893MPD2     C13084   3.164   2.107   0.446  0.1796 -0.7422 -0.0934
  893MPD2    C113085   3.126   2.186   0.559  0.2332  0.0039  0.4935
  893MPD2    C213086   2.997   2.232   0.563  0.3921  0.4727 -0.3221
  893MPD2    C313087   2.902   2.189   0.474 -0.6499 -0.0180  0.5641
  893MPD2    C413088   2.947   2.111   0.361 -0.1982 -0.3299 -0.3931
  893MPD2    C513089   3.069   2.057   0.365 -0.0638 -0.8208 -0.3169
  893MPD2     H13090   2.962   2.311   0.628  2.2203  2.7025 -2.0620
  893MPD2    H113091   2.883   2.079   0.279 -0.9301  3.4581 -1.3146
  893MPD2    H213092   3.263   2.067   0.426  0.5883 -0.4450  1.3418
  893MPD2    H313093   3.101   1.993   0.284  0.4210 -0.5935 -0.3064
  893MPD2     N13094   2.771   2.238   0.468  0.4003  0.0759  0.1993
  893MPD2    H513095   2.714   2.206   0.390 -0.0929 -1.4637  1.1815
  893MPD2    N113096   3.230   2.225   0.640  0.1825  0.8492  0.2762
  893MPD2    H713097   3.321   2.208   0.598 -0.7216 -2.5468 -0.3092
  894MPD2     C13098   1.882   4.293   0.623 -0.4763 -0.3549 -0.7258
  894MPD2    C113099   1.861   4.420   0.676  0.2322  0.7814 -0.3681
  894MPD2    C213100   1.850   4.524   0.587 -0.1445 -0.2163 -0.4572
  894MPD2    C313101   1.873   4.517   0.451 -0.4362 -0.3204  0.0931
  894MPD2    C413102   1.906   4.393   0.399 -0.2709 -0.4051 -0.7608
  894MPD2    C513103   1.911   4.284   0.484 -0.8158  0.3062 -0.1978
  894MPD2     H13104   1.821   4.622   0.624 -1.3948  0.3071 -2.7836
  894MPD2    H113105   1.918   4.376   0.293 -0.8628 -0.6807 -0.7814
  894MPD2    H213106   1.906   4.208   0.685  1.4316  0.3165 -0.5640
  894MPD2    H313107   1.941   4.187   0.446 -1.8211 -0.0144 -0.1902
  894MPD2     N13108   1.857   4.637   0.380  0.0733 -0.1306  0.4590
  894MPD2    H513109   1.824   4.719   0.430 -0.8674  0.2863 -0.8436
  894MPD2    N113110   1.846   4.451   0.814  0.4616  0.4304 -0.0595
  894MPD2    H713111   1.836   4.548   0.839 -0.6441  1.0671 -3.0081
  895MPD2     C13112   1.544   3.560  13.463  0.5187 -0.2446 -0.6556
  895MPD2    C113113   1.469   3.477  13.382 -0.6674 -0.4882 -0.0407
  895MPD2    C213114   1.523   3.353  13.352  0.5258 -0.3474 -0.1104
  895MPD2    C313115   1.633   3.305  13.417 -0.0688  0.1406 -0.7322
  895MPD2    C413116   1.703   3.390  13.494  0.0152  0.0180 -1.0514
  895MPD2    C513117   1.661   3.521  13.511  0.2991  0.0406 -0.5813
  895MPD2     H13118   1.465   3.281  13.295  0.7421 -0.1671 -0.5509
  895MPD2    H113119   1.795   3.361  13.544  0.5055  0.8047 -1.4820
  895MPD2    H213120   1.512   3.660  13.490 -1.2691 -0.7272 -0.9809
  895MPD2    H313121   1.724   3.595  13.558  0.5253  0.1078 -0.9841
  895MPD2     N13122   1.672   3.171  13.393 -0.2656 -0.7400 -0.4251
  895MPD2    H513123   1.610   3.117  13.335 -0.5849  0.6261 -1.3579
  895MPD2    N113124   1.347   3.513  13.320  0.2351 -0.5936 -0.2092
  895MPD2    H713125   1.317   3.452  13.245 -0.0838  0.0114 -0.5759
  896MPD2     C13126   2.590   1.531   1.680  0.3638  0.3780 -0.2170
  896MPD2    C113127   2.618   1.453   1.570 -0.2216  0.2116 -0.1929
  896MPD2    C213128   2.518   1.383   1.513 -0.1588  0.5757 -0.7586
  896MPD2    C313129   2.389   1.394   1.565  0.2113 -0.2921  0.0262
  896MPD2    C413130   2.364   1.474   1.669  0.6638 -0.4935 -0.2081
  896MPD2    C513131   2.465   1.539   1.731 -0.8497  0.0352 -0.0893
  896MPD2     H13132   2.538   1.308   1.437  0.3858  0.4703 -0.5081
  896MPD2    H113133   2.264   1.506   1.696  1.8294  1.0689  2.3559
  896MPD2    H213134   2.671   1.583   1.729 -1.6197  1.7392  1.6585
  896MPD2    H313135   2.447   1.604   1.816 -2.5940 -0.8808  0.2418
  896MPD2     N13136   2.298   1.316   1.494  0.4294 -0.4343 -0.0108
  896MPD2    H513137   2.326   1.255   1.418  1.0459 -0.9391  0.6246
  896MPD2    N113138   2.753   1.445   1.535 -0.0191 -0.0674  0.1375
  896MPD2    H713139   2.819   1.500   1.589  0.0534  1.9932 -2.0562
  897MPD2     C13140   4.489   2.609  10.285  0.3023  1.2055  0.0566
  897MPD2    C113141   4.496   2.749  10.305 -0.0378 -0.4840  0.9022
  897MPD2    C213142   4.430   2.798  10.412  0.8796 -0.5558 -0.1908
  897MPD2    C313143   4.346   2.718  10.489  0.6160 -0.3222  0.1202
  897MPD2    C413144   4.341   2.578  10.464 -0.3174  0.1900 -0.2343
  897MPD2    C513145   4.409   2.525  10.359 -0.1168 -0.3613  0.8532
  897MPD2     H13146   4.432   2.903  10.440 -1.1823 -1.1531  2.2584
  897MPD2    H113147   4.281   2.511  10.525 -1.4211  0.5902 -0.8991
  897MPD2    H213148   4.544   2.565  10.202  0.8090  1.8810  0.0315
  897MPD2    H313149   4.399   2.423  10.322  1.5329 -0.5653  0.9734
  897MPD2     N13150   4.280   2.778  10.600  0.0270  0.3464  0.1574
  897MPD2    H513151   4.304   2.876  10.609 -2.6199  1.0287 -0.0583
  897MPD2    N113152   4.597   2.820  10.237 -0.4210 -0.0108  1.0573
  897MPD2    H713153   4.665   2.761  10.189  2.1630  0.7824  3.7379
  898MPD2     C13154   1.776   3.481   0.253  0.1154  0.3894 -0.1232
  898MPD2    C113155   1.846   3.545   0.148  0.5670  0.1261 -0.0704
  898MPD2    C213156   1.774   3.630   0.063 -0.6415  0.4740  0.2888
  898MPD2    C313157   1.645   3.662   0.073  0.1525 -0.3119 -0.6160
  898MPD2    C413158   1.578   3.600   0.175  0.3477 -0.1424 -0.4151
  898MPD2    C513159   1.648   3.521   0.270 -0.0517 -0.2060  0.4179
  898MPD2     H13160   1.823   3.676  17.681  0.7084  0.2512  0.9482
  898MPD2    H113161   1.480   3.628   0.210  0.0312 -2.5154  0.5519
  898MPD2    H213162   1.816   3.416   0.330 -0.7127  0.0965  0.0673
  898MPD2    H313163   1.581   3.494   0.351  1.2149 -0.6582  1.2975
  898MPD2     N13164   1.574   3.746  17.679 -0.1608 -0.1063  0.3119
  898MPD2    H513165   1.618   3.772  17.591  2.7207  1.7380  2.2993
  898MPD2    N113166   1.984   3.520   0.125 -0.0209  0.3379 -0.1965
  898MPD2    H713167   2.034   3.576   0.056  0.9538 -2.1679 -1.5091
  899MPD2     C13168   2.299   4.070  17.210 -0.4051 -0.3197  0.3423
  899MPD2    C113169   2.333   4.163  17.297  0.0356 -0.3391  0.5275
  899MPD2    C213170   2.340   4.125  17.431 -0.6921  0.6995  0.3296
  899MPD2    C313171   2.294   4.005  17.472  0.0881  0.0689  0.0767
  899MPD2    C413172   2.260   3.913  17.380 -0.5184  0.7076  0.3579
  899MPD2    C513173   2.266   3.945  17.247  0.0520 -0.1112  1.0159
  899MPD2     H13174   2.390   4.194  17.497  1.2558  0.2153 -0.6413
  899MPD2    H113175   2.218   3.817  17.407 -2.0946  1.3343  0.1905
  899MPD2    H213176   2.285   4.094  17.105 -1.6357  2.5842  1.1622
  899MPD2    H313177   2.229   3.874  17.174  1.4230  0.6955 -0.4609
  899MPD2     N13178   2.294   3.967  17.609 -0.0188 -0.3101 -0.2557
  899MPD2    H513179   2.296   3.868  17.631  0.2027 -0.1819  0.3063
  899MPD2    N113180   2.354   4.296  17.247  0.4411 -0.1233 -0.2235
  899MPD2    H713181   2.342   4.309  17.147 -3.3083 -0.0300  0.2046
  900MPD2     C13182   2.292   1.324  12.589  0.0457  0.4700 -0.4996
  900MPD2    C113183   2.227   1.199  12.580 -1.1295  0.3842  0.6080
  900MPD2    C213184   2.101   1.208  12.529  0.5551  0.0478 -0.5713
  900MPD2    C313185   2.042   1.324  12.482  0.0632 -0.4669 -0.2724
  900MPD2    C413186   2.104   1.445  12.495  0.0630  0.0978 -1.1279
  900MPD2    C513187   2.225   1.443  12.554  0.2998 -0.3170 -0.5184
  900MPD2     H13188   2.047   1.114  12.521  0.4316  0.3282 -3.0279
  900MPD2    H113189   2.059   1.537  12.458 -0.3995  0.1756 -0.3659
  900MPD2    H213190   2.390   1.343  12.632 -0.5890 -0.0290  1.1289
  900MPD2    H313191   2.259   1.544  12.573  1.6525 -0.9578  0.4657
  900MPD2     N13192   1.926   1.304  12.407 -0.1886  0.1395  0.0512
  900MPD2    H513193   1.879   1.215  12.416  1.1374 -0.6723 -0.9740
  900MPD2    N113194   2.290   1.079  12.625  0.1444 -0.6543 -0.0793
  900MPD2    H713195   2.381   1.097  12.666  0.3565  0.7620 -1.1755
  901MPD2     C13196   2.514   0.019  12.804  0.6348  0.6023 -0.3309
  901MPD2    C113197   2.633   0.098  12.799  1.0463 -0.3851  0.2582
  901MPD2    C213198   2.621   0.227  12.782  0.6308  1.2888  0.5464
  901MPD2    C313199   2.495   0.285  12.761  0.0991  0.1366  0.5634
  901MPD2    C413200   2.378   0.205  12.765  0.0291 -0.1707 -0.4368
  901MPD2    C513201   2.389   0.072  12.800 -0.0410 -0.3949 -0.1304
  901MPD2     H13202   2.711   0.287  12.770  1.1608  0.3298 -0.2667
  901MPD2    H113203   2.276   0.243  12.755  0.9396  1.7106 -2.6745
  901MPD2    H213204   2.516   4.636  12.815  1.5159  0.6564  0.0175
  901MPD2    H313205   2.307   0.003  12.815  1.9334 -3.2427 -2.3945
  901MPD2     N13206   2.496   0.423  12.731  0.4084 -0.3684 -0.2026
  901MPD2    H513207   2.584   0.473  12.723  0.4700 -0.5053 -0.3559
  901MPD2    N113208   2.759   0.033  12.796  0.0079  0.0134 -0.3831
  901MPD2    H713209   2.751   4.658  12.785  2.3641 -0.1936 -0.0036
  902MPD2     C13210   1.778   4.053  12.934  0.0678  0.3655  0.5326
  902MPD2    C113211   1.647   4.049  12.893  0.1494  0.5642  0.1954
  902MPD2    C213212   1.619   3.950  12.802 -0.2731  0.1815 -0.1790
  902MPD2    C313213   1.711   3.879  12.737  0.5836  0.3433  0.0086
  902MPD2    C413214   1.838   3.882  12.775 -0.2795 -1.1476  0.4136
  902MPD2    C513215   1.868   3.973  12.867  0.2456  0.3153 -0.3307
  902MPD2     H13216   1.514   3.932  12.783  0.6503 -4.0990 -1.3208
  902MPD2    H113217   1.917   3.823  12.730  0.4491  0.1405 -0.0061
  902MPD2    H213218   1.811   4.126  13.007  0.2133  0.0008  0.8321
  902MPD2    H313219   1.972   3.986  12.895 -0.3076  0.6332  1.5975
  902MPD2     N13220   1.674   3.793  12.631  0.3929  0.7215 -0.5934
  902MPD2    H513221   1.754   3.748  12.587  1.8639  1.1710  1.6131
  902MPD2    N113222   1.551   4.141  12.946  0.6923  0.0537 -0.3649
  902MPD2    H713223   1.596   4.200  13.016 -2.7718  2.2060  0.0439
  903MPD2     C13224   1.003   3.827  12.273 -0.2375  0.2438  0.3881
  903MPD2    C113225   1.060   3.712  12.226  0.1801 -0.1271  0.6902
  903MPD2    C213226   0.993   3.637  12.128 -0.1251  0.0887 -0.1896
  903MPD2    C313227   0.866   3.680  12.087  0.5343 -0.3958  0.3705
  903MPD2    C413228   0.806   3.792  12.148 -0.7222  0.6941  0.0952
  903MPD2    C513229   0.874   3.857  12.240  0.0260 -0.1700 -0.0350
  903MPD2     H13230   1.037   3.547  12.086 -0.3993 -0.2090  0.1499
  903MPD2    H113231   0.702   3.820  12.133 -1.1418 -0.0417  1.6726
  903MPD2    H213232   1.059   3.885  12.345  0.0838 -0.1608  0.4586
  903MPD2    H313233   0.820   3.939  12.287  1.8774  0.2057  1.4406
  903MPD2     N13234   0.792   3.600  12.001  0.3469 -0.1349  0.3958
  903MPD2    H513235   0.832   3.509  11.979 -0.8305  0.0266 -2.4527
  903MPD2    N113236   1.194   3.680  12.275 -0.0240  0.5720 -0.5685
  903MPD2    H713237   1.225   3.740  12.351  0.6618 -1.0365  0.4336
  904MPD2     C13238   0.899   2.953  13.447 -0.6674  0.1683 -0.2655
  904MPD2    C113239   0.886   3.068  13.522 -0.3217 -0.6779 -0.0380
  904MPD2    C213240   0.991   3.113  13.600  0.0193 -0.3256  0.0854
  904MPD2    C313241   1.118   3.056  13.591 -0.8038 -0.2727  0.2750
  904MPD2    C413242   1.131   2.942  13.510  0.2420  0.4166  0.5326
  904MPD2    C513243   1.020   2.889  13.444  0.3773 -0.0642 -0.6524
  904MPD2     H13244   0.981   3.206  13.656 -1.8965  0.6534 -1.8879
  904MPD2    H113245   1.224   2.886  13.510 -0.3130 -0.4820  1.8173
  904MPD2    H213246   0.817   2.914  13.387 -0.3557 -2.2821  0.9094
  904MPD2    H313247   1.029   2.792  13.397  0.6807  0.5214 -1.7997
  904MPD2     N13248   1.227   3.124  13.658 -0.5086 -0.4060 -0.0450
  904MPD2    H513249   1.198   3.203  13.714 -2.5255 -2.0880  1.2929
  904MPD2    N113250   0.776   3.166  13.501 -0.7306 -0.0911  0.1855
  904MPD2    H713251   0.773   3.244  13.566  2.1945 -0.2942  0.5586
  905MPD2     C13252   0.992   2.898  13.074  0.4175  0.2383 -0.3902
  905MPD2    C113253   1.059   3.007  13.117  0.1134 -0.8699 -0.4123
  905MPD2    C213254   1.195   2.997  13.138 -0.0372 -0.4493  0.0747
  905MPD2    C313255   1.263   2.879  13.120  0.1804  0.8970  0.2068
  905MPD2    C413256   1.190   2.766  13.076 -0.3078  0.8570 -0.0621
  905MPD2    C513257   1.059   2.777  13.052  0.2966  0.1692  0.4461
  905MPD2     H13258   1.249   3.079  13.184  0.4630  0.0168 -1.3528
  905MPD2    H113259   1.232   2.668  13.056 -0.7175  0.4546  1.0359
  905MPD2    H213260   0.885   2.890  13.056  0.8258  1.6832 -3.5716
  905MPD2    H313261   1.004   2.690  13.017  1.4971 -1.2519  2.1032
  905MPD2     N13262   1.393   2.844  13.172 -0.6864  0.5118  0.0256
  905MPD2    H513263   1.424   2.748  13.187 -0.0631  0.6557 -0.3657
  905MPD2    N113264   0.986   3.130  13.140  0.4832 -0.2969  0.6431
  905MPD2    H713265   0.885   3.130  13.152  0.0685  0.7859 -2.8668
  906MPD2     C13266   3.190   3.010  11.244  0.0964 -0.1244 -0.4047
  906MPD2    C113267   3.140   2.916  11.155  0.7677 -0.0091  0.2047
  906MPD2    C213268   3.091   2.796  11.203  0.4680  0.1846  0.1039
  906MPD2    C313269   3.091   2.769  11.339  0.1995  0.1795  0.1741
  906MPD2    C413270   3.142   2.858  11.425  0.5647 -0.1259 -0.4996
  906MPD2    C513271   3.189   2.981  11.382 -0.5459  0.9800 -1.0395
  906MPD2     H13272   3.044   2.728  11.133  0.5506  0.1717  0.0603
  906MPD2    H113273   3.143   2.831  11.530  3.4037  0.8965 -0.2450
  906MPD2    H213274   3.235   3.106  11.222  2.4173 -0.9098  0.8537
  906MPD2    H313275   3.221   3.059  11.451  0.3371  1.4247 -1.9405
  906MPD2     N13276   3.041   2.648  11.391  0.7790 -0.5432  0.4611
  906MPD2    H513277   3.008   2.643  11.487 -2.4586  1.4823 -0.5520
  906MPD2    N113278   3.136   2.935  11.019 -0.3579  0.3093 -0.3918
  906MPD2    H713279   3.094   2.863  10.961 -1.0243 -1.2787  2.0474
  907MPD2     C13280   1.800   2.911  15.466  0.1485 -0.0316  0.1738
  907MPD2    C113281   1.810   2.777  15.496 -0.1292  0.1781  0.0363
  907MPD2    C213282   1.801   2.742  15.632 -0.1546 -0.4154  0.7534
  907MPD2    C313283   1.763   2.834  15.726 -0.2853  0.0600 -0.0887
  907MPD2    C413284   1.742   2.965  15.692  0.2056 -0.5032 -0.2196
  907MPD2    C513285   1.747   3.004  15.559 -0.4380  0.4441 -0.5787
  907MPD2     H13286   1.824   2.639  15.657  1.1663  0.0578  1.4534
  907MPD2    H113287   1.727   3.041  15.767  3.2535 -1.0895  0.9973
  907MPD2    H213288   1.812   2.947  15.365  1.0315 -2.4706 -0.5854
  907MPD2    H313289   1.722   3.103  15.525 -2.6684  0.1587  0.1888
  907MPD2     N13290   1.752   2.809  15.864  1.3237 -0.1363  0.0635
  907MPD2    H513291   1.806   2.730  15.898 -0.1774 -0.4937  1.6197
  907MPD2    N113292   1.831   2.675  15.402 -0.2877  0.1821 -0.2472
  907MPD2    H713293   1.832   2.578  15.430  2.5507  0.4339  0.5103
  908MPD2     C13294   0.216   2.705   9.458 -0.3011  0.0631  0.2553
  908MPD2    C113295   0.112   2.643   9.530  0.1596  0.5695 -0.9000
  908MPD2    C213296   0.106   2.668   9.661  0.5758 -0.7229 -1.0130
  908MPD2    C313297   0.187   2.745   9.733 -0.3292  0.0471  0.0070
  908MPD2    C413298   0.301   2.797   9.661  0.1812 -0.4058  0.4394
  908MPD2    C513299   0.310   2.773   9.530  0.4324 -0.0112 -0.2708
  908MPD2     H13300   0.022   2.626   9.716  1.6303 -0.0887  1.0899
  908MPD2    H113301   0.372   2.865   9.708  0.6225  0.7569 -1.9031
  908MPD2    H213302   0.227   2.690   9.351  0.6103  1.5260  0.1432
  908MPD2    H313303   0.394   2.816   9.477 -0.6472 -1.1734 -2.8981
  908MPD2     N13304   0.167   2.771   9.872 -0.1421  0.0844  0.5886
  908MPD2    H513305   0.085   2.732   9.917 -1.0076  1.3070  0.0592
  908MPD2    N113306   0.021   2.548   9.474  0.3764 -0.0358  0.1435
  908MPD2    H713307   4.664   2.520   9.527  0.5242 -2.0423 -0.7006
  909MPD2     C13308   0.039   0.963  12.097  0.0581 -0.0846 -0.7477
  909MPD2    C113309   4.708   1.027  11.987  0.0357  0.5704 -0.1674
  909MPD2    C213310   4.580   1.085  12.001 -0.1502 -0.5820  0.2142
  909MPD2    C313311   4.517   1.092  12.118  0.1581  0.3399  0.4692
  909MPD2    C413312   4.571   1.018  12.223 -0.1047 -0.4212 -0.3634
  909MPD2    C513313   4.694   0.952  12.209 -0.0534 -0.2895  0.1613
  909MPD2     H13314   4.540   1.139  11.917 -0.3430 -3.4883 -1.5450
  909MPD2    H113315   4.522   1.006  12.319 -0.5804 -0.0028 -0.5536
  909MPD2    H213316   0.138   0.920  12.107 -0.5365 -1.0652  0.9367
  909MPD2    H313317   0.008   0.905  12.298  1.2295  1.7290  0.6736
  909MPD2     N13318   4.389   1.162  12.126  0.3437 -0.2254  0.8269
  909MPD2    H513319   4.359   1.211  12.042  1.6934  2.7787  2.1001
  909MPD2    N113320   0.056   1.042  11.863 -0.0408 -0.1393  0.1872
  909MPD2    H713321   4.721   1.077  11.789 -0.1805 -0.3060  0.2203
  910MPD2     C13322   0.691   3.161  15.894 -0.5954  0.0921 -0.7232
  910MPD2    C113323   0.774   3.066  15.834  0.3277  0.4826  0.2833
  910MPD2    C213324   0.752   3.036  15.701  0.3297  0.2385  0.1595
  910MPD2    C313325   0.660   3.108  15.623 -0.1277  0.0425 -0.1342
  910MPD2    C413326   0.583   3.201  15.685  0.7182 -0.2271 -0.5771
  910MPD2    C513327   0.599   3.227  15.818 -0.7582 -0.7053 -0.2913
  910MPD2     H13328   0.823   2.976  15.646 -1.3463 -1.9163  0.3718
  910MPD2    H113329   0.505   3.253  15.631  1.1105  1.8080  0.7816
  910MPD2    H213330   0.709   3.194  15.996  1.0929 -0.2858 -0.9031
  910MPD2    H313331   0.533   3.297  15.868 -0.4542 -1.1706  0.7741
  910MPD2     N13332   0.645   3.091  15.491 -0.4210 -0.1878  0.7338
  910MPD2    H513333   0.574   3.149  15.448  0.4224  0.3256  0.0357
  910MPD2    N113334   0.889   3.009  15.893 -0.4042  0.3118 -0.6514
  910MPD2    H713335   0.963   2.986  15.828 -0.8643 -0.4582 -0.8949
  911MPD2     C13336   3.563   3.071  16.275 -0.9735 -0.0947  0.2565
  911MPD2    C113337   3.567   3.209  16.276 -0.3283  0.0745 -0.5984
  911MPD2    C213338   3.450   3.284  16.289 -0.5683  0.5489  0.1224
  911MPD2    C313339   3.324   3.222  16.322 -0.3090  0.7278  0.1230
  911MPD2    C413340   3.323   3.085  16.324  0.1861  0.4053  0.3477
  911MPD2    C513341   3.440   3.010  16.301  0.0202 -0.0934  0.3497
  911MPD2     H13342   3.464   3.391  16.292  2.4020  0.1206  1.6221
  911MPD2    H113343   3.236   3.020  16.335  1.9250 -2.1419 -0.9621
  911MPD2    H213344   3.659   3.023  16.262  0.2432  1.8780  1.8063
  911MPD2    H313345   3.426   2.903  16.307  1.1226 -0.2593  0.0043
  911MPD2     N13346   3.202   3.294  16.339  0.1629 -0.1024 -0.1223
  911MPD2    H513347   3.123   3.234  16.318 -0.2275  0.2315  0.3963
  911MPD2    N113348   3.691   3.266  16.256 -0.4699 -0.4573  0.6946
  911MPD2    H713349   3.765   3.208  16.217  0.1613 -0.2912  1.6722
  912MPD2     C13350   2.861   2.981  15.831  0.0881  0.0927 -0.7029
  912MPD2    C113351   2.865   3.019  15.963 -0.0761 -0.4666 -0.2328
  912MPD2    C213352   2.859   2.916  16.057  0.1632  0.0178  0.1483
  912MPD2    C313353   2.853   2.786  16.026 -0.2657 -0.2809  0.1886
  912MPD2    C413354   2.841   2.751  15.895  0.0100 -0.1760 -0.3956
  912MPD2    C513355   2.836   2.847  15.803  0.0442  0.6725 -0.0427
  912MPD2     H13356   2.870   2.934  16.163  0.6115  1.2333 -0.1017
  912MPD2    H113357   2.833   2.650  15.856  0.8293 -0.1821 -0.5571
  912MPD2    H213358   2.862   3.061  15.758  0.4303  0.6814 -0.0469
  912MPD2    H313359   2.809   2.830  15.700  0.7164  0.0556 -0.1213
  912MPD2     N13360   2.851   2.696  16.135  0.4023  0.5306 -0.0141
  912MPD2    H513361   2.862   2.737  16.228 -2.5953  0.8971  0.1723
  912MPD2    N113362   2.890   3.154  15.997 -0.4595  0.1278 -0.2455
  912MPD2    H713363   2.888   3.228  15.927 -0.3163  0.1960 -0.1762
  913MPD2     C13364   4.044   4.318  11.215 -0.4715 -0.5148  0.9496
  913MPD2    C113365   4.148   4.411  11.204  0.6200  0.2628 -0.3848
  913MPD2    C213366   4.156   4.499  11.096  0.3649  0.8779  0.5617
  913MPD2    C313367   4.055   4.492  11.005 -0.0391  0.3822 -0.1391
  913MPD2    C413368   3.952   4.400  11.019 -0.2940 -0.5345  0.1477
  913MPD2    C513369   3.941   4.317  11.131 -1.1802 -0.2081 -0.0477
  913MPD2     H13370   4.231   4.578  11.097  0.3811  0.9037 -2.2030
  913MPD2    H113371   3.873   4.390  10.946 -0.9580 -2.7769  1.1759
  913MPD2    H213372   4.036   4.256  11.303  1.1455 -0.7082  0.9582
  913MPD2    H313373   3.849   4.261  11.147 -1.6617  0.6531  0.2163
  913MPD2     N13374   4.032   4.582  10.902  0.1252 -0.1950  0.1343
  913MPD2    H513375   3.974   4.551  10.825 -3.0071  1.0023  1.9763
  913MPD2    N113376   4.244   4.397  11.304  0.6122 -0.2248 -0.4598
  913MPD2    H713377   4.222   4.338  11.384  0.0437  1.4009  0.5737
  914MPD2     C13378   2.516   4.254  12.363 -0.2791  0.1707 -0.3556
  914MPD2    C113379   2.515   4.394  12.358 -0.5068  0.0803 -0.1050
  914MPD2    C213380   2.631   4.460  12.387 -0.0262  0.7414  0.0076
  914MPD2    C313381   2.740   4.390  12.429 -0.1614 -0.4929  0.4089
  914MPD2    C413382   2.740   4.251  12.429 -0.2490  0.2657  0.0754
  914MPD2    C513383   2.628   4.189  12.390  0.4028 -0.5655  0.2413
  914MPD2     H13384   2.643   4.567  12.374  0.6514  0.7055  0.3303
  914MPD2    H113385   2.824   4.188  12.457 -0.1483 -0.0046 -0.8315
  914MPD2    H213386   2.424   4.198  12.349  0.1587 -0.9781  1.3759
  914MPD2    H313387   2.633   4.082  12.379  0.0016 -0.3631 -1.9359
  914MPD2     N13388   2.844   4.468  12.477  0.2208  0.4590  0.6042
  914MPD2    H513389   2.835   4.568  12.460 -0.6547  0.3067  0.1337
  914MPD2    N113390   2.399   4.466  12.323 -0.1460 -0.2982  0.2593
  914MPD2    H713391   2.314   4.414  12.303 -0.3754  0.3294 -0.4027
  915MPD2     C13392   0.562   0.063  16.038 -0.1536 -0.1936 -0.4010
  915MPD2    C113393   0.486   0.161  15.973  0.1133  0.0960 -0.1119
  915MPD2    C213394   0.401   0.245  16.042  0.5175  0.4653  0.4086
  915MPD2    C313395   0.387   0.235  16.184 -0.0345 -0.8595 -0.0512
  915MPD2    C413396   0.473   0.149  16.248  0.6966 -0.1569  0.6039
  915MPD2    C513397   0.555   0.061  16.174  0.2978 -0.6794  0.1991
  915MPD2     H13398   0.336   0.315  15.992 -1.3602 -3.3336 -2.3825
  915MPD2    H113399   0.469   0.132  16.355 -2.8310 -0.8077  0.3639
  915MPD2    H213400   0.621   4.720  15.978 -0.5759 -0.9280  0.0136
  915MPD2    H313401   0.623   4.720  16.227  3.1302  2.5578  0.6123
  915MPD2     N13402   0.281   0.291  16.258 -0.4149 -0.3003  0.0981
  915MPD2    H513403   0.260   0.239  16.344  0.6791  1.6497  1.5412
  915MPD2    N113404   0.481   0.153  15.831 -0.3124  0.6772  0.1261
  915MPD2    H713405   0.507   0.060  15.800  0.8491  1.5798 -1.5696
  916MPD2     C13406   2.482   3.097  15.534  0.2177 -0.3971 -0.7786
  916MPD2    C113407   2.497   2.995  15.622 -0.0717  0.5294 -1.1424
  916MPD2    C213408   2.525   2.866  15.583 -0.1910 -0.4139 -0.3817
  916MPD2    C313409   2.540   2.836  15.451  0.2875  0.5955  0.1549
  916MPD2    C413410   2.529   2.941  15.367  0.0275  0.5275 -0.8000
  916MPD2    C513411   2.494   3.071  15.401  0.5959 -0.7528 -0.2781
  916MPD2     H13412   2.545   2.786  15.654 -0.4580  1.4777  1.8274
  916MPD2    H113413   2.565   2.930  15.265  0.1112  0.2327 -0.7371
  916MPD2    H213414   2.465   3.200  15.564  1.3726 -0.8780  1.5248
  916MPD2    H313415   2.487   3.147  15.324 -0.7816  1.1066  1.6922
  916MPD2     N13416   2.563   2.704  15.422  0.4154  0.0067  0.0701
  916MPD2    H513417   2.565   2.642  15.503 -0.4653  4.3741  3.4205
  916MPD2    N113418   2.476   3.034  15.758  0.4615 -0.1001  0.3204
  916MPD2    H713419   2.460   3.130  15.786  1.2610  0.8700 -2.5681
  917MPD2     C13420   4.050   0.845  11.453 -0.4411  1.0807  0.0833
  917MPD2    C113421   3.913   0.852  11.449  0.3227  0.4439 -0.4542
  917MPD2    C213422   3.850   0.964  11.388 -0.3597  0.2135 -1.0207
  917MPD2    C313423   3.933   1.068  11.344  0.8564  0.6617  0.4415
  917MPD2    C413424   4.073   1.058  11.337  0.3118 -0.5709 -0.4389
  917MPD2    C513425   4.126   0.948  11.397  0.5435 -0.3968 -0.4501
  917MPD2     H13426   3.742   0.975  11.390 -0.3715 -0.0817  0.1696
  917MPD2    H113427   4.141   1.132  11.298  1.0178 -2.0854 -2.0714
  917MPD2    H213428   4.103   0.755  11.481  0.4993  1.1168 -1.5730
  917MPD2    H313429   4.234   0.950  11.385  0.3462  1.3895 -1.9429
  917MPD2     N13430   3.874   1.189  11.313  0.6877  0.2889 -0.3559
  917MPD2    H513431   3.774   1.194  11.297  0.4727 -1.9741  0.2890
  917MPD2    N113432   3.840   0.755  11.527  1.0036 -0.6063  0.4093
  917MPD2    H713433   3.882   0.713  11.609  1.0059  1.0782  1.2615
  918MPD2     C13434   3.911   0.779  12.369  0.4747 -0.8994 -0.1372
  918MPD2    C113435   3.999   0.773  12.267 -0.2671  0.4866 -0.1345
  918MPD2    C213436   3.953   0.741  12.138 -0.3398  0.2753  0.2291
  918MPD2    C313437   3.820   0.710  12.114 -0.5717  0.0487 -0.0109
  918MPD2    C413438   3.738   0.711  12.223  0.5109 -0.1573 -0.3391
  918MPD2    C513439   3.782   0.743  12.344 -0.1967  0.1755  0.2605
  918MPD2     H13440   4.025   0.724  12.058  0.0574 -0.6866  0.7819
  918MPD2    H113441   3.632   0.694  12.210  0.6290 -1.6493  0.6321
  918MPD2    H213442   3.943   0.805  12.469 -1.1936  1.3977 -0.1914
  918MPD2    H313443   3.707   0.763  12.419 -1.5357 -0.8068 -0.8131
  918MPD2     N13444   3.778   0.669  11.988 -0.1649 -0.2440 -0.3387
  918MPD2    H513445   3.829   0.698  11.905  0.4449  1.3061  0.5986
  918MPD2    N113446   4.133   0.796  12.278 -0.3256  0.0064  0.1228
  918MPD2    H713447   4.193   0.788  12.197 -2.4698  0.1788 -1.4827
  919MPD2     C13448   4.029   4.519  11.559 -0.2640  0.0392  1.1349
  919MPD2    C113449   3.920   4.434  11.557 -0.4506  0.1052  0.1626
  919MPD2    C213450   3.792   4.483  11.516 -1.1329  0.3902  0.3995
  919MPD2    C313451   3.779   4.616  11.477  0.0343 -0.1069  1.1430
  919MPD2    C413452   3.894   4.695  11.472 -0.1753  0.1827 -0.4469
  919MPD2    C513453   4.017   4.646  11.507  0.2220 -0.0124  0.0129
  919MPD2     H13454   3.703   4.423  11.499 -0.5322 -0.7076  1.1146
  919MPD2    H113455   3.876   0.069  11.433  1.0485  0.0537 -1.3608
  919MPD2    H213456   4.125   4.474  11.580  1.0208  1.3540 -1.9082
  919MPD2    H313457   4.095   4.721  11.518 -0.1042  0.1551  1.2468
  919MPD2     N13458   3.653   4.670  11.426 -0.0147 -0.1295 -0.2487
  919MPD2    H513459   3.637   0.034  11.379 -1.4935 -0.2133  0.0922
  919MPD2    N113460   3.933   4.296  11.590  0.0507  0.4513 -0.4409
  919MPD2    H713461   3.844   4.247  11.594 -0.0967  0.6975 -0.6331
  920MPD2     C13462   3.341   0.286  10.598  0.3738 -0.6285  0.0421
  920MPD2    C113463   3.270   0.162  10.614 -0.0336  0.1511 -0.9403
  920MPD2    C213464   3.258   0.121  10.744 -1.2493 -0.0542  0.0151
  920MPD2    C313465   3.316   0.181  10.858 -0.0067  0.1964  0.0420
  920MPD2    C413466   3.387   0.297  10.834  0.2311  0.9646 -0.5874
  920MPD2    C513467   3.392   0.355  10.709  0.1856 -0.5341  0.0562
  920MPD2     H13468   3.193   0.034  10.754  0.2542 -1.2137 -0.2581
  920MPD2    H113469   3.434   0.355  10.912 -0.5009  1.5156 -0.5563
  920MPD2    H213470   3.351   0.327  10.498 -0.4609  2.7365  1.3263
  920MPD2    H313471   3.469   0.431  10.705 -1.0986  0.7312 -0.5808
  920MPD2     N13472   3.291   0.121  10.981 -0.0193  0.2150  0.8649
  920MPD2    H513473   3.245   0.031  10.973  1.0032 -0.1491 -0.8983
  920MPD2    N113474   3.212   0.086  10.508  0.2947  0.1863 -0.1893
  920MPD2    H713475   3.170   4.720  10.523  0.4925  0.2606  0.7762
  921MPD2     C13476   4.178   4.192  16.423  0.6783 -0.5065 -0.8067
  921MPD2    C113477   4.234   4.077  16.478 -0.3065  0.2758  0.8882
  921MPD2    C213478   4.184   3.954  16.435 -0.0754 -0.0495 -0.6713
  921MPD2    C313479   4.069   3.947  16.354  0.4825 -0.9589 -0.0861
  921MPD2    C413480   4.001   4.063  16.323  0.1943  0.0242  0.0406
  921MPD2    C513481   4.057   4.182  16.356  0.3092  0.8917  0.3582
  921MPD2     H13482   4.229   3.862  16.468  0.6855  0.8732  0.8446
  921MPD2    H113483   3.910   4.068  16.264 -1.6205  3.0899  3.0735
  921MPD2    H213484   4.207   4.292  16.453  1.8044 -0.5227 -1.8201
  921MPD2    H313485   4.008   4.275  16.333  1.9917  2.3228  2.5313
  921MPD2     N13486   4.015   3.821  16.318  0.5267  0.6276 -0.0748
  921MPD2    H513487   3.916   3.820  16.297  0.1896 -1.9777  1.6005
  921MPD2    N113488   4.345   4.082  16.559  0.2174 -0.1696 -0.0415
  921MPD2    H713489   4.401   4.167  16.562  2.1240 -1.4655  1.2092
  922MPD2     C13490   0.917   1.542  16.251  0.2487  0.5018  0.3406
  922MPD2    C113491   0.969   1.422  16.297 -0.1079 -0.1290 -0.6614
  922MPD2    C213492   0.907   1.371  16.412  0.0813 -0.4917  0.2206
  922MPD2    C313493   0.801   1.425  16.484 -0.1578  0.6479  1.3137
  922MPD2    C413494   0.760   1.552  16.437  0.1256  0.1508 -0.3699
  922MPD2    C513495   0.812   1.599  16.320 -0.5554  0.6240 -0.2675
  922MPD2     H13496   0.942   1.274  16.443 -0.2552 -0.3978  0.8951
  922MPD2    H113497   0.664   1.588  16.472  0.7836  0.7713  0.8329
  922MPD2    H213498   0.944   1.579  16.153 -0.8534  0.0530 -0.1318
  922MPD2    H313499   0.775   1.686  16.267 -1.3030  0.7487  0.4499
  922MPD2     N13500   0.749   1.367  16.598  0.4881  0.9174  0.7256
  922MPD2    H513501   0.687   1.424  16.654  1.3027  0.1321  2.4411
  922MPD2    N113502   1.069   1.346  16.226  0.0778 -0.6465  0.6258
  922MPD2    H713503   1.074   1.246  16.243  1.8953 -0.4329  1.3313
  923MPD2     C13504   2.357   3.090   9.051 -0.0379 -1.0430 -0.1735
  923MPD2    C113505   2.400   2.962   9.087  0.0936  1.2758  0.1531
  923MPD2    C213506   2.521   2.944   9.151 -0.3648  0.6208  0.0247
  923MPD2    C313507   2.600   3.053   9.179  0.2174  0.4889 -0.1168
  923MPD2    C413508   2.566   3.176   9.130  0.4385  0.0618 -0.5419
  923MPD2    C513509   2.444   3.202   9.078 -0.4899 -0.6326  0.4667
  923MPD2     H13510   2.559   2.854   9.198  0.2643 -0.3827 -2.3824
  923MPD2    H113511   2.626   3.265   9.145  0.5126  0.2968 -2.3370
  923MPD2    H213512   2.261   3.113   9.007  0.1774 -0.7045 -0.4658
  923MPD2    H313513   2.420   3.302   9.044 -1.0123 -0.3662  1.6182
  923MPD2     N13514   2.724   3.041   9.250  0.7652  0.2765  0.1563
  923MPD2    H513515   2.781   3.124   9.265  1.1717  0.8410 -4.4922
  923MPD2    N113516   2.306   2.860   9.077  0.5965  0.1734 -0.2126
  923MPD2    H713517   2.211   2.874   9.044 -0.1542 -2.1255  0.9807
  924MPD2     C13518   2.236   2.295  15.987 -1.2854  0.5225 -0.1941
  924MPD2    C113519   2.139   2.276  16.082  0.4520  0.3800  0.4238
  924MPD2    C213520   2.097   2.385  16.154  0.2532 -0.5273 -0.8351
  924MPD2    C313521   2.137   2.516  16.119  0.0480  0.0830 -0.0140
  924MPD2    C413522   2.235   2.530  16.014 -0.4785 -0.3603 -0.5508
  924MPD2    C513523   2.280   2.418  15.946  0.1796 -0.0711 -0.0858
  924MPD2     H13524   2.015   2.372  16.224  1.0963 -1.7315 -0.0627
  924MPD2    H113525   2.273   2.625  15.977  0.4857 -0.5780 -0.1299
  924MPD2    H213526   2.279   2.219  15.922  1.5030  2.6399 -0.8587
  924MPD2    H313527   2.354   2.417  15.866  0.2111 -0.2905 -0.0543
  924MPD2     N13528   2.062   2.634  16.157  0.6553  0.2172 -0.0373
  924MPD2    H513529   2.065   2.722  16.106  0.1453 -0.1846 -0.7518
  924MPD2    N113530   2.072   2.152  16.088  0.3496 -0.2145  0.6094
  924MPD2    H713531   2.085   2.080  16.018  2.0688  1.4300 -0.7564
  925MPD2     C13532   1.089   4.421  14.567  0.2711 -0.0791  0.5015
  925MPD2    C113533   0.968   4.475  14.546  0.3049  0.6998 -0.4910
  925MPD2    C213534   0.889   4.504  14.657 -0.0296 -0.4355  0.2537
  925MPD2    C313535   0.940   4.482  14.788 -0.0382 -0.3070 -0.0724
  925MPD2    C413536   1.062   4.427  14.803 -0.0945 -0.2868 -0.1786
  925MPD2    C513537   1.137   4.396  14.698  0.2242  0.5251  0.7696
  925MPD2     H13538   0.792   4.549  14.640  0.2856 -0.4115 -1.5606
  925MPD2    H113539   1.116   4.422  14.898  0.5992 -0.4449 -0.5804
  925MPD2    H213540   1.154   4.382  14.489 -1.1570 -2.1196  0.3155
  925MPD2    H313541   1.231   4.342  14.708 -1.3161 -2.0773  1.2317
  925MPD2     N13542   0.876   4.525  14.909  0.7588 -0.0582 -0.2096
  925MPD2    H513543   0.917   4.502  14.999 -2.0533  2.2274  1.6873
  925MPD2    N113544   0.915   4.475  14.422 -1.7735  0.2248 -0.6236
  925MPD2    H713545   0.815   4.465  14.408 -1.4895 -1.7010 -1.2568
  926MPD2     C13546   4.079   2.143  13.526 -0.5922 -0.5453 -0.2724
  926MPD2    C113547   3.987   2.192  13.436 -0.3345 -0.1976 -0.0170
  926MPD2    C213548   4.032   2.247  13.320  1.0125  0.8273 -0.2831
  926MPD2    C313549   4.162   2.234  13.285  0.2318 -0.6194  0.4547
  926MPD2    C413550   4.254   2.177  13.372 -0.0259 -0.2637 -0.0286
  926MPD2    C513551   4.214   2.133  13.497  0.9070 -0.4374  0.2547
  926MPD2     H13552   3.954   2.292  13.260  0.7800 -0.1652 -0.7268
  926MPD2    H113553   4.361   2.170  13.354  0.6604  2.6120  2.8008
  926MPD2    H213554   4.053   2.089  13.617  2.5293 -0.3766  0.7150
  926MPD2    H313555   4.286   2.091  13.565 -0.0028 -1.8379  0.3711
  926MPD2     N13556   4.214   2.293  13.170  0.1753 -0.1650  0.1351
  926MPD2    H513557   4.315   2.286  13.164  0.1770  0.1770 -0.1805
  926MPD2    N113558   3.846   2.215  13.474  0.1638  0.2214  0.5824
  926MPD2    H713559   3.789   2.256  13.401 -2.2846 -0.8972  1.8821
  927MPD2     C13560   4.438   0.742   0.389 -0.0153  0.0295  0.3045
  927MPD2    C113561   4.369   0.654   0.467  0.0448 -0.1879 -0.0502
  927MPD2    C213562   4.328   0.533   0.409  0.4664 -0.4801 -0.3573
  927MPD2    C313563   4.334   0.512   0.274 -0.6030 -0.3295 -0.9021
  927MPD2    C413564   4.406   0.601   0.203 -0.0499  0.2654 -0.1270
  927MPD2    C513565   4.461   0.710   0.258  0.8828  0.7492 -0.0600
  927MPD2     H13566   4.273   0.463   0.471  0.8932 -2.2108 -1.9098
  927MPD2    H113567   4.421   0.595   0.096  0.5549  1.5357 -0.1184
  927MPD2    H213568   4.469   0.839   0.424 -3.9823  0.7070  1.9967
  927MPD2    H313569   4.508   0.779   0.189  0.6725 -1.7687 -2.7250
  927MPD2     N13570   4.285   0.386   0.221 -0.4263 -0.3587 -0.1453
  927MPD2    H513571   4.243   0.311   0.275  0.7697 -0.9441 -0.0292
  927MPD2    N113572   4.349   0.700   0.602  0.0707 -0.2271  0.5380
  927MPD2    H713573   4.364   0.798   0.622  1.9744 -0.4285  0.1189
  928MPD2     C13574   2.595   2.804   0.949 -0.4508 -0.4569 -0.2682
  928MPD2    C113575   2.714   2.870   0.950 -0.2114  0.1832  0.5817
  928MPD2    C213576   2.766   2.913   0.833 -0.2249  0.4756 -0.4241
  928MPD2    C313577   2.711   2.883   0.709 -0.4117  0.4704 -0.2257
  928MPD2    C413578   2.586   2.821   0.712 -0.1969  0.2161 -1.4454
  928MPD2    C513579   2.530   2.783   0.833  0.4332  0.4934 -0.0104
  928MPD2     H13580   2.858   2.971   0.840  0.6962 -0.9025 -1.1437
  928MPD2    H113581   2.520   2.828   0.626 -1.6216  2.2744 -0.1832
  928MPD2    H213582   2.544   2.777   1.041 -0.5419  0.7122  0.0248
  928MPD2    H313583   2.429   2.743   0.835 -0.4180  2.6049 -0.3557
  928MPD2     N13584   2.756   2.934   0.582  0.4325 -0.3508  0.0948
  928MPD2    H513585   2.697   2.902   0.505  0.4402 -1.1005  0.3934
  928MPD2    N113586   2.760   2.913   1.076 -0.1995  0.7331 -0.2391
  928MPD2    H713587   2.695   2.896   1.152  0.7872  1.3289  0.7301
  929MPD2     C13588   2.549   2.640  10.419 -0.8916 -0.4746 -0.1098
  929MPD2    C113589   2.429   2.592  10.413 -0.0068 -0.0445 -0.2556
  929MPD2    C213590   2.342   2.635  10.316 -0.6630  0.6361 -0.3988
  929MPD2    C313591   2.382   2.726  10.226 -0.1965  0.8236  0.3824
  929MPD2    C413592   2.511   2.764  10.217 -0.1509 -0.8550 -0.2383
  929MPD2    C513593   2.595   2.719  10.318 -0.2382  0.0182  0.1262
  929MPD2     H13594   2.235   2.621  10.322 -0.2248 -2.2615  0.3371
  929MPD2    H113595   2.558   2.830  10.145  1.2200 -1.3268  0.2242
  929MPD2    H213596   2.623   2.610  10.492 -0.4331 -0.8823 -0.7402
  929MPD2    H313597   2.702   2.738  10.320 -0.2821  0.4679 -1.6533
  929MPD2     N13598   2.296   2.796  10.139  0.6484  0.4195  0.3601
  929MPD2    H513599   2.345   2.868  10.087 -0.6847 -1.3256 -3.3444
  929MPD2    N113600   2.399   2.510  10.524 -0.1793 -0.6144 -0.8632
  929MPD2    H713601   2.477   2.502  10.588 -0.5170  0.1800 -0.3467
  930MPD2     C13602   3.676   0.786  14.211  0.3024  0.5097 -0.4016
  930MPD2    C113603   3.798   0.736  14.159 -0.4380 -0.0680  0.0200
  930MPD2    C213604   3.795   0.642  14.059 -0.3390 -0.2725 -0.0007
  930MPD2    C313605   3.678   0.611  14.000  0.1514 -0.2133  0.0271
  930MPD2    C413606   3.557   0.655  14.052 -0.0754 -0.5005 -0.4341
  930MPD2    C513607   3.559   0.750  14.150  0.3555  0.3321  0.3153
  930MPD2     H13608   3.886   0.607  14.012 -0.6904  0.7607 -1.4486
  930MPD2    H113609   3.465   0.619  14.007 -0.6416 -1.2492  1.3348
  930MPD2    H213610   3.669   0.850  14.298 -0.1285 -0.7261  0.4769
  930MPD2    H313611   3.468   0.794  14.189  0.2043  0.9109 -0.7106
  930MPD2     N13612   3.669   0.548  13.876  0.6391  0.3553 -0.4187
  930MPD2    H513613   3.578   0.532  13.833 -0.6054  0.8582  2.0301
  930MPD2    N113614   3.920   0.778  14.218  0.7123 -0.4381  0.1549
  930MPD2    H713615   3.921   0.861  14.276  0.7470  0.0849 -0.5838
  931MPD2     C13616   3.956   0.448   1.391 -0.3400 -0.7480  0.2423
  931MPD2    C113617   4.064   0.412   1.308 -0.5377 -0.3091  0.2677
  931MPD2    C213618   4.139   0.299   1.347 -0.3287  0.0608  0.9527
  931MPD2    C313619   4.102   0.213   1.454 -0.2723 -0.2139 -0.2559
  931MPD2    C413620   3.992   0.259   1.525 -0.4569  0.2715  0.1467
  931MPD2    C513621   3.916   0.368   1.493  0.3701 -0.4707 -0.2901
  931MPD2     H13622   4.224   0.273   1.285 -2.4585 -1.6856 -1.2511
  931MPD2    H113623   3.941   0.197   1.598  0.4454 -0.6473  0.0048
  931MPD2    H213624   3.908   0.541   1.363 -1.8635 -1.4548  0.5433
  931MPD2    H313625   3.832   0.402   1.553 -0.5397 -1.1753 -1.1599
  931MPD2     N13626   4.153   0.083   1.483  0.1920 -0.0353 -0.0305
  931MPD2    H513627   4.107   0.021   1.549 -0.8720 -0.0855 -0.8261
  931MPD2    N113628   4.088   0.505   1.201 -0.1597 -0.4288  0.6212
  931MPD2    H713629   4.030   0.586   1.180  2.2157  1.7304  2.5430
  932MPD2     C13630   1.018   3.765  11.312  0.0317  0.2061  0.0125
  932MPD2    C113631   1.095   3.844  11.231 -0.1044  0.6837  0.1049
  932MPD2    C213632   1.219   3.799  11.182 -0.7948  0.1528  0.5604
  932MPD2    C313633   1.261   3.669  11.225  0.8429 -0.6445 -0.5879
  932MPD2    C413634   1.179   3.592  11.303 -0.2588  0.2045  0.2765
  932MPD2    C513635   1.057   3.634  11.335 -0.0905  0.4596  0.3492
  932MPD2     H13636   1.286   3.863  11.127  0.8139  1.1405  3.6703
  932MPD2    H113637   1.218   3.495  11.333  2.4653  0.4519 -2.4838
  932MPD2    H213638   0.923   3.791  11.356  0.4431  1.5228  0.1210
  932MPD2    H313639   0.998   3.569  11.398 -3.4983 -0.4997 -3.7541
  932MPD2     N13640   1.395   3.619  11.223  0.2332  0.2191 -0.1009
  932MPD2    H513641   1.416   3.532  11.271 -1.8391  0.1247  0.6594
  932MPD2    N113642   1.069   3.979  11.213 -0.1137 -0.0726 -0.3353
  932MPD2    H713643   1.129   4.032  11.152 -0.4655  0.2735 -0.3771
  933MPD2     C13644   2.681   3.087   1.887 -0.6241 -0.2269  0.3328
  933MPD2    C113645   2.692   3.139   1.759  0.5556 -0.3398  0.3875
  933MPD2    C213646   2.649   3.266   1.736 -0.1782  0.5716  0.3421
  933MPD2    C313647   2.600   3.346   1.840 -0.5017  0.4196  0.1454
  933MPD2    C413648   2.578   3.292   1.965  0.4758 -0.8222 -0.1931
  933MPD2    C513649   2.638   3.168   1.986  0.5240 -0.5937  0.3608
  933MPD2     H13650   2.674   3.317   1.643 -1.5376 -0.3001 -0.4900
  933MPD2    H113651   2.553   3.355   2.050 -1.2901  1.5617 -2.4870
  933MPD2    H213652   2.718   2.988   1.909  0.4096  0.3648  1.2204
  933MPD2    H313653   2.639   3.126   2.086 -3.8670 -0.8678  0.2905
  933MPD2     N13654   2.574   3.484   1.818  0.1032 -0.1529  0.3016
  933MPD2    H513655   2.605   3.518   1.727  1.2449 -0.7192  0.4825
  933MPD2    N113656   2.741   3.064   1.652 -0.6021  0.4510  0.0607
  933MPD2    H713657   2.782   2.974   1.674 -1.0587  0.1826 -0.1993
  934MPD2     C13658   1.904   1.012   1.675  0.0696  0.3989  0.2255
  934MPD2    C113659   1.994   0.915   1.709  0.2406 -0.2552  0.1336
  934MPD2    C213660   1.999   0.801   1.634 -0.6746  0.3494  0.8305
  934MPD2    C313661   1.919   0.786   1.518 -0.2657  0.1984 -0.2015
  934MPD2    C413662   1.817   0.881   1.501  0.3931 -0.2886  0.0927
  934MPD2    C513663   1.815   0.993   1.576 -0.1829 -0.3163 -0.0045
  934MPD2     H13664   2.083   0.739   1.664 -1.6474 -0.2035  2.4383
  934MPD2    H113665   1.736   0.863   1.432 -0.1651 -1.1674  0.9784
  934MPD2    H213666   1.905   1.106   1.730 -0.1709  0.3426  0.3228
  934MPD2    H313667   1.733   1.062   1.561  1.0807  0.9311 -1.1635
  934MPD2     N13668   1.929   0.671   1.434  0.1775  0.4695  0.0865
  934MPD2    H513669   1.986   0.592   1.461  0.2510  0.7281  0.6791
  934MPD2    N113670   2.102   0.941   1.798  0.5295  0.9595  0.1235
  934MPD2    H713671   2.164   0.864   1.822 -0.0487 -0.1134 -1.8520
  935MPD2     C13672   2.566   0.144   1.393  0.5240 -1.0340 -0.1731
  935MPD2    C113673   2.513   0.112   1.271 -0.1218  0.3307  0.1151
  935MPD2    C213674   2.382   0.150   1.253  0.0106 -0.0428 -0.6166
  935MPD2    C313675   2.315   0.220   1.349  0.1273  0.2424 -0.4858
  935MPD2    C413676   2.370   0.237   1.472 -0.2158 -0.2568 -0.0886
  935MPD2    C513677   2.503   0.201   1.490 -0.2550  0.2237  0.8038
  935MPD2     H13678   2.327   0.120   1.165  0.1568  0.2948 -0.8225
  935MPD2    H113679   2.318   0.289   1.552  1.4591  0.5298  0.4957
  935MPD2    H213680   2.671   0.119   1.407  0.6589 -0.5628 -0.3588
  935MPD2    H313681   2.556   0.228   1.581  0.7609  0.4789  0.1358
  935MPD2     N13682   2.182   0.275   1.334 -0.0431 -0.5082 -0.5920
  935MPD2    H513683   2.153   0.346   1.400  0.3775 -0.2140 -0.7208
  935MPD2    N113684   2.575   0.047   1.158  0.1750  0.3116 -0.6195
  935MPD2    H713685   2.511   0.018   1.084 -0.1231 -0.5954 -0.0077
  936MPD2     C13686   1.586   2.290  12.256 -0.3891  0.3215 -0.2385
  936MPD2    C113687   1.529   2.388  12.329  0.1603  0.5294  0.1278
  936MPD2    C213688   1.509   2.514  12.277  0.1241  0.1880 -0.4897
  936MPD2    C313689   1.543   2.548  12.148 -0.0164  0.1475  0.4757
  936MPD2    C413690   1.598   2.446  12.074 -0.7009  0.5339  0.1767
  936MPD2    C513691   1.624   2.321  12.128  0.2666  0.5740 -0.3876
  936MPD2     H13692   1.477   2.596  12.339 -0.6562 -0.6987  0.2749
  936MPD2    H113693   1.623   2.456  11.969 -1.4492  1.5436  0.1024
  936MPD2    H213694   1.602   2.189  12.292 -1.6829 -0.3606 -1.5611
  936MPD2    H313695   1.677   2.256  12.059  0.2915 -0.5589  0.6979
  936MPD2     N13696   1.524   2.675  12.098  0.1676  0.2214 -0.2538
  936MPD2    H513697   1.476   2.733  12.167 -0.9206  1.0456 -1.6836
  936MPD2    N113698   1.499   2.378  12.461  0.3010  0.3424 -0.6621
  936MPD2    H713699   1.456   2.462  12.500 -0.9900 -0.6246 -0.0300
  937MPD2     C13700   4.282   3.533  11.448 -0.6950  0.4594 -0.6341
  937MPD2    C113701   4.351   3.649  11.488  0.2265  0.2452  0.2125
  937MPD2    C213702   4.471   3.667  11.427  0.1903  0.2788 -0.9162
  937MPD2    C313703   4.534   3.572  11.348 -0.2554 -0.0580  0.6442
  937MPD2    C413704   4.476   3.448  11.335 -0.2050 -0.2536  0.2440
  937MPD2    C513705   4.352   3.429  11.386 -0.7672 -0.3288 -0.6069
  937MPD2     H13706   4.526   3.757  11.452 -0.2711  0.7608 -1.6490
  937MPD2    H113707   4.526   3.359  11.299 -1.7368 -0.0858 -2.2688
  937MPD2    H213708   4.179   3.515  11.474 -0.3932 -0.2702  0.0811
  937MPD2    H313709   4.303   3.333  11.374 -0.8437 -0.4802  0.8594
  937MPD2     N13710   4.671   3.593  11.304  0.4945  0.2322 -0.3932
  937MPD2    H513711   4.716   3.684  11.317  1.1456  0.0396 -1.3129
  937MPD2    N113712   4.273   3.765  11.537  0.0642 -0.0824 -0.1612
  937MPD2    H713713   4.330   3.849  11.544 -0.2792  0.0960  0.5374
  938MPD2     C13714   2.246   4.344   0.724 -0.1932  0.4096  0.3108
  938MPD2    C113715   2.225   4.441   0.814 -0.2324  0.3585  0.0347
  938MPD2    C213716   2.185   4.409   0.944 -0.6054  0.0717 -0.5585
  938MPD2    C313717   2.196   4.275   0.987 -0.5680 -0.2580 -0.6296
  938MPD2    C413718   2.221   4.176   0.897  0.1304  0.0862 -0.3944
  938MPD2    C513719   2.234   4.215   0.764  0.3746 -0.1337 -0.4909
  938MPD2     H13720   2.164   4.489   1.014  0.1551  0.3116 -0.5990
  938MPD2    H113721   2.223   4.071   0.923  1.1280 -0.0833 -1.1692
  938MPD2    H213722   2.288   4.368   0.627  0.2912 -0.6435  0.2638
  938MPD2    H313723   2.277   4.141   0.697  1.7593 -0.4777  0.7862
  938MPD2     N13724   2.181   4.228   1.118 -0.6514  0.0042  0.0231
  938MPD2    H513725   2.227   4.140   1.139  2.1573  1.8582  1.6350
  938MPD2    N113726   2.237   4.572   0.767 -0.1815 -0.1113 -0.2498
  938MPD2    H713727   2.234   4.591   0.667  1.9412  1.2670 -0.0557
  939MPD2     C13728   2.874   1.057   1.117  0.1605  0.4480  0.4524
  939MPD2    C113729   2.846   1.161   1.024  0.0761 -0.6211 -1.2371
  939MPD2    C213730   2.916   1.151   0.903 -0.0623 -1.3278 -0.0151
  939MPD2    C313731   3.010   1.053   0.881  0.2994 -0.0588  0.3354
  939MPD2    C413732   3.053   0.964   0.981  0.5723  0.4794  0.3063
  939MPD2    C513733   2.980   0.960   1.095 -0.0591  0.8858  0.1954
  939MPD2     H13734   2.897   1.219   0.821  0.5776  0.6454  1.4975
  939MPD2    H113735   3.133   0.893   0.961 -0.5782 -0.4785 -0.8549
  939MPD2    H213736   2.823   1.061   1.213  1.0383 -0.2785  0.9519
  939MPD2    H313737   2.987   0.881   1.169  0.9730  1.3207  0.5595
  939MPD2     N13738   3.082   1.071   0.763  0.2084 -0.5911  0.3793
  939MPD2    H513739   3.038   1.143   0.706  0.4928 -1.0227 -0.3776
  939MPD2    N113740   2.741   1.251   1.053  0.6403 -0.1610 -0.3634
  939MPD2    H713741   2.706   1.249   1.148  0.3577  1.9345 -0.4118
  940MPD2     C13742   2.312   2.397  13.186  0.6098 -1.1885 -0.6125
  940MPD2    C113743   2.261   2.269  13.197 -0.3030  0.1278  0.0928
  940MPD2    C213744   2.243   2.193  13.080  0.2704 -0.5782 -0.2868
  940MPD2    C313745   2.246   2.263  12.957  0.5226  0.1268  0.0172
  940MPD2    C413746   2.293   2.388  12.950  0.4455 -0.3281 -0.6094
  940MPD2    C513747   2.323   2.456  13.063 -0.7166 -0.0812  0.5892
  940MPD2     H13748   2.213   2.089  13.083 -0.4631 -0.2546  4.2204
  940MPD2    H113749   2.288   2.452  12.863 -2.0048 -1.9473 -1.6686
  940MPD2    H213750   2.332   2.459  13.273  0.0592 -0.1329 -1.2351
  940MPD2    H313751   2.357   2.559  13.054  1.0270 -0.7964 -1.0262
  940MPD2     N13752   2.212   2.203  12.831 -0.2732 -0.3310  0.1837
  940MPD2    H513753   2.242   2.244  12.744 -2.0785 -0.3805 -0.4616
  940MPD2    N113754   2.241   2.210  13.328  0.8916  0.3565  0.5225
  940MPD2    H713755   2.211   2.113  13.324  1.4656  0.2960 -2.1882
  941MPD2     C13756   1.561   1.436   9.370 -0.2925  0.1307 -0.4651
  941MPD2    C113757   1.617   1.403   9.487 -0.0712  0.1534 -0.4657
  941MPD2    C213758   1.541   1.348   9.586  0.4255  0.0274 -0.4212
  941MPD2    C313759   1.408   1.335   9.565  0.1062 -0.4544 -0.5556
  941MPD2    C413760   1.346   1.379   9.449 -0.7816  0.4785  0.2490
  941MPD2    C513761   1.430   1.424   9.353  0.4781  0.2006 -0.0634
  941MPD2     H13762   1.588   1.325   9.682 -0.1817  0.6190  0.0178
  941MPD2    H113763   1.239   1.375   9.434 -0.8970 -1.4781  1.6605
  941MPD2    H213764   1.619   1.472   9.285 -0.3102  0.5351 -0.3021
  941MPD2    H313765   1.391   1.453   9.255 -1.5127 -1.4667  0.2237
  941MPD2     N13766   1.324   1.276   9.661 -0.4053 -0.0042  0.3512
  941MPD2    H513767   1.223   1.284   9.650 -0.4972 -2.7013 -0.7827
  941MPD2    N113768   1.750   1.431   9.521  0.3803  0.0890  0.3655
  941MPD2    H713769   1.777   1.420   9.618  2.2954 -1.1505 -0.3080
  942MPD2     C13770   1.299   2.647   9.584 -0.5096 -0.1766  0.3769
  942MPD2    C113771   1.279   2.717   9.464  0.9880  0.6197  0.0776
  942MPD2    C213772   1.379   2.794   9.413  0.7698  0.2382  0.0015
  942MPD2    C313773   1.505   2.795   9.471 -0.2698  0.0328  0.0140
  942MPD2    C413774   1.522   2.732   9.592 -0.0672 -0.5032 -0.3039
  942MPD2    C513775   1.417   2.670   9.652 -0.0288  0.1637 -0.1530
  942MPD2     H13776   1.363   2.840   9.316 -1.2259 -0.4820 -0.0159
  942MPD2    H113777   1.617   2.732   9.643 -0.9377 -1.8949  1.3493
  942MPD2    H213778   1.219   2.592   9.633  0.5361 -0.6738  1.5051
  942MPD2    H313779   1.423   2.636   9.755 -0.4253 -1.5550 -0.6983
  942MPD2     N13780   1.614   2.869   9.422  0.4161 -0.3761 -1.1767
  942MPD2    H513781   1.696   2.872   9.482 -0.1848 -1.9706 -0.2830
  942MPD2    N113782   1.157   2.698   9.397 -0.9266 -0.2996  0.4264
  942MPD2    H713783   1.110   2.614   9.428 -0.7464 -1.2025 -1.7125
  943MPD2     C13784   0.003   1.305   9.762 -0.0240  0.4852 -0.2322
  943MPD2    C113785   0.023   1.236   9.879 -0.2551 -0.7447  0.8881
  943MPD2    C213786   0.110   1.283   9.974  0.3138  0.0760  0.4101
  943MPD2    C313787   0.178   1.404   9.959  0.7177 -0.6034  0.1409
  943MPD2    C413788   0.151   1.480   9.846  0.0551 -0.7317 -0.2061
  943MPD2    C513789   0.072   1.420   9.749  0.2803 -0.3945  0.3353
  943MPD2     H13790   0.128   1.233  10.068  0.2242  1.0212  0.9340
  943MPD2    H113791   0.194   1.576   9.823 -1.3112 -0.1303 -0.2691
  943MPD2    H213792   4.667   1.265   9.683 -1.2172  0.4563  0.7144
  943MPD2    H313793   0.046   1.479   9.661  1.0465  0.5042  0.7108
  943MPD2     N13794   0.272   1.456  10.053 -0.1748  0.4731  0.0114
  943MPD2    H513795   0.313   1.548  10.040  2.0253 -0.6116 -0.6499
  943MPD2    N113796   4.683   1.113   9.887 -0.3884 -0.2881  0.2782
  943MPD2    H713797   4.626   1.095   9.805  0.2633  2.4494 -0.7878
  944MPD2     C13798   0.642   0.904  11.155 -0.0839 -0.5029  0.1404
  944MPD2    C113799   0.571   0.795  11.190  0.7274  0.0286  0.0803
  944MPD2    C213800   0.528   0.776  11.329 -0.4588  0.0678 -0.0900
  944MPD2    C313801   0.568   0.870  11.418  0.1007  0.6173  0.2944
  944MPD2    C413802   0.639   0.982  11.382  0.4559 -0.4069 -0.4661
  944MPD2    C513803   0.666   1.000  11.253  0.5523  0.1232 -0.0970
  944MPD2     H13804   0.475   0.689  11.366  0.3606  0.2033  1.4421
  944MPD2    H113805   0.678   1.059  11.447 -1.0333  0.8496 -1.0472
  944MPD2    H213806   0.676   0.926  11.054  0.0736 -2.7080 -0.2965
  944MPD2    H313807   0.726   1.085  11.224  0.2431  0.0130 -1.0510
  944MPD2     N13808   0.554   0.826  11.555 -0.5092 -0.3804 -0.1136
  944MPD2    H513809   0.510   0.735  11.568 -2.0636  0.1751 -1.5151
  944MPD2    N113810   0.526   0.713  11.083 -1.1224  0.4712 -0.2085
  944MPD2    H713811   0.548   0.746  10.990 -0.5639 -2.2877 -1.0546
    1TCq1    O113812   3.338   1.056  14.261  0.0168  0.2128 -0.5838
    1TCq1    C113813   3.387   1.110  14.373  0.3332 -0.0191  0.3925
    1TCq1    O213814   3.504   1.099  14.410 -0.7103 -0.0454 -0.3341
    1TCq1    C213815   3.275   1.074  14.460  0.4246 -0.4562  0.0573
    1TCq1    C313816   3.297   0.964  14.549 -0.2996 -0.0934 -0.8072
    1TCq1    C413817   3.200   0.945  14.637  0.0235  0.5361  0.0751
    1TCq1    C513818   3.098   1.031  14.661 -0.5983 -0.0650 -0.0339
    1TCq1    C613819   3.080   1.135  14.574 -0.0404  0.0423 -0.2651
    1TCq1    C713820   3.174   1.164  14.482 -0.0759 -0.4558 -0.2698
    1TCq1    C813821   3.019   1.246  14.636 -0.2718  0.0029 -0.1279
    1TCq1    O413822   3.024   1.242  14.761 -0.1767 -0.1770 -0.3649
    1TCq1    C913823   3.223   0.831  14.718  0.3109 -0.3515 -0.0710
    1TCq1    O513824   3.166   0.817  14.834  0.3295  0.2883 -0.0151
    1TCq1    O613825   3.299   0.737  14.678 -0.2842 -0.6067 -0.2396
    1TCq1    H113826   3.241   1.067  14.250  0.1768  1.5443 -0.6820
    1TCq1    H213827   3.376   0.892  14.533 -0.7300 -0.6876 -0.2356
    1TCq1    H313828   3.025   1.009  14.737  0.3469 -3.1565 -0.0263
    1TCq1    H413829   3.156   1.248  14.417  1.5769 -0.1643 -0.3300
    2MPD2     C13830   2.866   1.734  14.656  0.0479  0.4880 -0.2335
    2MPD2    C113831   2.860   1.696  14.524  0.3483  0.1982  1.0970
    2MPD2    C213832   2.899   1.560  14.497  0.2402  0.1401 -0.4750
    2MPD2    C313833   2.935   1.470  14.592 -0.5418  0.6246  0.2739
    2MPD2    C413834   2.927   1.513  14.722  0.2472 -0.4155 -0.0203
    2MPD2    C513835   2.899   1.644  14.748 -0.1752 -0.0093  0.1185
    2MPD2     H13836   2.909   1.535  14.392  0.0714 -1.1443 -0.1905
    2MPD2    H113837   2.938   1.455  14.813  1.3234 -0.8291 -0.4127
    2MPD2    H213838   2.859   1.837  14.690 -0.9646  0.4959 -0.4749
    2MPD2    H313839   2.910   1.689  14.846  0.1369 -2.0628  1.0165
    2MPD2     N13840   2.967   1.338  14.551 -0.0020 -0.0209  0.5875
    2MPD2    H513841   2.972   1.311  14.453  0.8215  2.0460  0.0639
    2MPD2    N113842   2.834   1.795  14.426  0.2573  0.6326  0.4643
    2MPD2    H713843   2.826   1.891  14.458 -3.5482  0.6721 -0.6983
    3TMC2    C113844   2.799   1.901  14.218 -0.0749 -1.1238 -0.0367
    3TMC2    C213845   2.839   2.015  14.278 -0.5753 -0.3866  1.1221
    3TMC2    C313846   2.886   2.118  14.198 -0.4605  0.0659  0.1745
    3TMC2    C413847   2.772   1.897  14.084  0.6380  0.4730 -0.1162
    3TMC2    C513848   2.792   2.010  14.008 -0.1512  0.5683 -0.3336
    3TMC2    C613849   2.850   2.124  14.064  0.2186  0.1710 -0.1155
    3TMC2     C13850   2.816   1.775  14.294  0.5439  0.2406  0.4807
    3TMC2     O13851   2.795   1.669  14.239  0.8419  0.2697 -0.3469
    3TMC2     H13852   2.833   2.023  14.386 -0.8842  0.6179  1.0281
    3TMC2    H113853   2.752   1.800  14.038  1.7480  0.0624  0.2754
    3TMC2    H213854   2.866   2.215  14.006  0.5215 -0.0408 -0.3631
    3TMC2    C713855   2.739   2.008  13.867 -0.4915 -0.2253 -0.2159
    3TMC2    C813856   2.950   2.233  14.249  0.8593  1.1604  0.6396
    3TMC2    O113857   2.711   1.894  13.826  0.9579 -0.1840  0.6538
    3TMC2    O213858   2.938   2.348  14.208 -0.2882 -0.2692 -1.1896
    3TMC2    O513859   3.007   2.196  14.363 -0.3178  0.1047 -0.1872
    3TMC2    H513860   3.009   2.100  14.384 -2.9226 -0.0871 -0.7172
    4MPD2     C13861   2.019   3.272  13.287 -0.0517  1.3359 -0.4316
    4MPD2    C113862   2.041   3.188  13.184 -0.0815  0.0951 -0.2403
    4MPD2    C213863   2.145   3.097  13.177  0.4716  0.3754 -0.8280
    4MPD2    C313864   2.215   3.077  13.294  0.8007  0.6110  0.5657
    4MPD2    C413865   2.201   3.166  13.402 -0.8651  0.0350  0.7401
    4MPD2    C513866   2.106   3.269  13.395 -0.3091  0.6130 -0.3851
    4MPD2     H13867   2.161   3.036  13.089  0.4213 -0.0207 -0.5626
    4MPD2    H113868   2.257   3.158  13.495 -1.5768  3.5721  1.4754
    4MPD2    H213869   1.934   3.340  13.293 -0.9030  0.0133  2.7126
    4MPD2    H313870   2.087   3.331  13.481  0.8027 -2.7274  2.2816
    4MPD2     N13871   2.307   2.969  13.300  0.2283 -0.2688 -0.0055
    4MPD2    H513872   2.306   2.908  13.219 -1.5374 -2.1568  1.4413
    4MPD2    N113873   1.946   3.213  13.089 -0.1781 -0.0216 -0.4051
    4MPD2    H713874   1.880   3.288  13.110  0.4540  0.5159 -0.3387
    5TCq2    C113875   2.391   2.932  13.398 -0.3366  0.1549 -1.1009
    5TCq2    O213876   2.395   2.976  13.511  0.6910 -0.2092 -0.5454
    5TCq2    C213877   2.492   2.830  13.358  0.3053 -0.4061  0.0089
    5TCq2    C313878   2.514   2.788  13.227  0.0889 -0.2795 -0.2732
    5TCq2    C413879   2.625   2.710  13.196 -0.1216  0.1519 -0.1644
    5TCq2    C513880   2.695   2.648  13.293 -0.9685 -0.3477 -0.3319
    5TCq2    C613881   2.657   2.674  13.424  0.4864  0.3191 -0.5785
    5TCq2    C713882   2.558   2.762  13.457  0.2025 -0.1691  0.7080
    5TCq2    C813883   2.671   2.562  13.517 -0.7846 -0.6785 -0.1586
    5TCq2    O413884   2.689   2.573  13.636 -0.2263  0.3436  0.4694
    5TCq2    C913885   2.668   2.697  13.061  0.2116  0.2029 -0.2853
    5TCq2    O513886   2.774   2.628  13.048 -0.2540 -0.0729 -0.6948
    5TCq2    O613887   2.612   2.769  12.973 -0.2000  0.3687 -0.2976
    5TCq2    H213888   2.473   2.847  13.146 -2.0153 -2.4343 -0.7864
    5TCq2    H313889   2.772   2.573  13.278 -0.4196  0.0008  0.7221
    5TCq2    H413890   2.525   2.758  13.560 -1.5863 -0.6180  0.1224
    6MPD1     C13891   2.782   4.290  13.633 -0.2985 -0.1884 -0.0403
    6MPD1    C113892   2.669   4.368  13.651  0.0593 -0.8953 -0.9510
    6MPD1    C213893   2.547   4.311  13.607 -0.5002  0.2500 -0.5809
    6MPD1    C313894   2.549   4.194  13.527  0.3611  0.3110 -1.1763
    6MPD1    C413895   2.661   4.118  13.516  0.3597  0.6279 -0.1045
    6MPD1    C513896   2.775   4.167  13.572  0.0731  0.6426  0.0547
    6MPD1     H13897   2.457   4.370  13.621 -0.3069  0.7858 -1.5924
    6MPD1    H113898   2.662   4.032  13.450  1.4479  0.9666 -0.5302
    6MPD1    H213899   2.880   4.323  13.664 -0.7324  0.5827  0.5131
    6MPD1    H313900   2.866   4.110  13.564  0.9450  1.8458  1.3661
    6MPD1     N13901   2.433   4.134  13.467 -0.2555  0.5283 -0.5028
    6MPD1    H513902   2.448   4.049  13.412 -3.7906  0.0885 -0.7815
    6MPD1    N113903   2.676   4.483  13.729  0.0762 -0.9365 -0.2784
    6MPD1    H613904   2.770   4.523  13.735  0.2231 -1.4693  0.9167
    6MPD1    H713905   2.616   4.554  13.687 -2.1952 -1.8904  1.3548
    7MPD2     C13906   1.619   3.904  13.258  0.5250  0.1725 -0.6551
    7MPD2    C113907   1.732   3.826  13.268 -0.3941  0.5776 -0.2789
    7MPD2    C213908   1.721   3.703  13.196 -0.5388 -0.1228  1.0705
    7MPD2    C313909   1.609   3.670  13.113 -0.0267 -0.3986  0.1434
    7MPD2    C413910   1.511   3.766  13.097 -0.1273  0.1762  0.5644
    7MPD2    C513911   1.517   3.880  13.176  0.9277 -0.5479  0.0154
    7MPD2     H13912   1.816   3.651  13.199  1.0535  2.5216 -2.8271
    7MPD2    H113913   1.425   3.750  13.033 -1.0946  1.1781  1.6249
    7MPD2    H213914   1.615   3.995  13.317 -0.4474 -0.3979  0.1540
    7MPD2    H313915   1.438   3.953  13.164  0.7784 -0.7220 -0.0790
    7MPD2     N13916   1.600   3.555  13.030  0.5378  0.1569  0.3672
    7MPD2    H513917   1.523   3.545  12.964  0.9126  1.6057 -0.2983
    7MPD2    N113918   1.847   3.869  13.333 -1.0574 -0.5498  0.5216
    7MPD2    H713919   1.927   3.808  13.331  0.1890  1.0362  1.9413
    8TMC3    C113920   1.654   3.351  12.931 -0.3681 -0.0521  0.2644
    8TMC3    C213921   1.717   3.245  12.983  0.2084  0.6159  0.4426
    8TMC3    C313922   1.812   3.175  12.908 -0.3942  0.3182 -0.3119
    8TMC3    C413923   1.687   3.401  12.807  0.2458 -0.0252  0.7041
    8TMC3    C513924   1.774   3.329  12.730  0.1246 -0.3958 -0.3384
    8TMC3    C613925   1.828   3.215  12.775  0.3150 -0.1245 -0.6610
    8TMC3     C13926   1.679   3.450  13.031  0.2332  0.6008  0.5566
    8TMC3     O13927   1.786   3.430  13.091 -0.6661  0.2460  0.1961
    8TMC3     H13928   1.683   3.216  13.081 -2.0158 -0.7587 -0.7522
    8TMC3    H113929   1.662   3.505  12.790  0.9919 -0.5816 -3.7841
    8TMC3    H213930   1.913   3.171  12.723 -0.4720 -2.5255  0.0537
    8TMC3    C713931   1.880   3.418  12.680 -0.3771  0.1451 -0.4964
    8TMC3    C813932   1.939   3.158  12.967 -0.2596 -0.4208  0.0479
    8TMC3    O113933   1.925   3.392  12.571 -0.0183  0.2122  0.2038
    8TMC3    O213934   2.038   3.122  12.898 -0.1318  0.5156 -0.3089
    9TMC3    C113935   2.232   4.117  13.366  0.5086 -0.0059 -0.3752
    9TMC3    C213936   2.293   4.044  13.262 -0.2049 -0.1935 -0.5950
    9TMC3    C313937   2.212   3.955  13.189 -0.2204 -0.6062  0.6460
    9TMC3    C413938   2.105   4.095  13.409  0.4344  0.3927  0.9168
    9TMC3    C513939   2.034   3.998  13.347 -0.1740  0.5070 -0.6185
    9TMC3    C613940   2.081   3.939  13.230 -0.0604 -0.1030  0.0934
    9TMC3     C13941   2.311   4.188  13.464  0.8254  0.2614 -0.4088
    9TMC3     O13942   2.253   4.278  13.523  0.4818 -0.2891 -0.2375
    9TMC3     H13943   2.393   4.063  13.225 -0.9222  3.2719 -0.7188
    9TMC3    H113944   2.058   4.142  13.494 -0.2650  0.2632  0.6039
    9TMC3    H213945   2.012   3.891  13.161 -0.8784  0.4387  0.5326
    9TMC3    C713946   1.889   4.003  13.356  0.0758  0.5018 -0.0544
    9TMC3    C813947   2.268   3.891  13.070 -0.3170 -1.1471  0.5960
    9TMC3    O113948   1.829   4.108  13.334 -0.3715  0.1419  0.2322
    9TMC3    O213949   2.371   3.932  13.016  0.2039  0.3769  0.8285
   10MPD2     C13950   2.102   3.619  12.668 -0.2020  0.6273  0.9918
   10MPD2    C113951   2.038   3.580  12.783 -0.4706 -0.1200  0.2122
   10MPD2    C213952   2.074   3.628  12.904 -0.4463  0.7561  0.5663
   10MPD2    C313953   2.169   3.728  12.910  0.2893 -0.2084 -0.0785
   10MPD2    C413954   2.225   3.778  12.801 -0.9600  0.4953  0.5426
   10MPD2    C513955   2.202   3.717  12.682 -0.1860 -0.1043  0.3109
   10MPD2     H13956   2.036   3.598  13.001 -2.7291 -0.7316 -0.8048
   10MPD2    H113957   2.292   3.863  12.789  0.5488 -0.6867  0.5899
   10MPD2    H213958   2.070   3.591  12.568 -0.3762 -0.1207  1.2515
   10MPD2    H313959   2.242   3.756  12.589  0.1288  3.1443  1.8121
   10MPD2     N13960   2.190   3.779  13.037 -0.0016  0.7873  0.1949
   10MPD2    H513961   2.139   3.738  13.114  0.7176 -1.6627 -0.6440
   10MPD2    N113962   1.929   3.494  12.786 -0.9304  0.2793  0.1481
   10MPD2    H713963   1.891   3.474  12.878 -2.8939  0.1380 -0.6842
   11MPD2     C13964   2.619   2.057  13.588 -0.5512  0.1465  0.4927
   11MPD2    C113965   2.674   2.152  13.677  0.6340  0.2371  0.0997
   11MPD2    C213966   2.679   2.285  13.627 -0.0788 -0.2898  0.6201
   11MPD2    C313967   2.638   2.322  13.500 -0.6105  0.3128 -0.4821
   11MPD2    C413968   2.590   2.227  13.416  0.2576  0.2112 -0.4741
   11MPD2    C513969   2.577   2.098  13.460  0.1947  0.2561  0.1327
   11MPD2     H13970   2.736   2.352  13.690 -1.0777  2.0753 -0.9674
   11MPD2    H113971   2.565   2.250  13.313 -0.8856 -0.6075 -0.3829
   11MPD2    H213972   2.611   1.950  13.603  0.9167 -0.0137  0.2030
   11MPD2    H313973   2.549   2.027  13.384  0.3344 -0.3053  0.6093
   11MPD2     N13974   2.652   2.449  13.443 -0.1227 -0.4976 -0.4757
   11MPD2    H513975   2.626   2.462  13.346  0.9709 -1.9339 -0.9491
   11MPD2    N113976   2.723   2.128  13.810 -0.2059 -0.3680 -0.1618
   11MPD2    H713977   2.752   2.212  13.859 -1.5374  0.5814 -1.0113
    1MPD1     C13978   0.486   4.098  17.551 -0.0026 -0.0016  0.3556
    1MPD1    C113979   0.464   4.104  17.419  0.1250 -0.0952  0.8133
    1MPD1    C213980   0.532   4.017  17.331 -0.2757  0.0816  0.1374
    1MPD1    C313981   0.617   3.918  17.386 -0.5463  0.4416  0.0786
    1MPD1    C413982   0.635   3.912  17.527  0.7611 -0.0302  0.0896
    1MPD1    C513983   0.571   4.007  17.604 -0.2104  0.6385 -0.8322
    1MPD1     H13984   0.523   4.020  17.223 -1.9262 -0.3682  0.2608
    1MPD1    H113985   0.707   3.850  17.579  0.8032  0.4805  0.6404
    1MPD1    H213986   0.438   4.172  17.616 -0.5606  0.3916 -0.5024
    1MPD1    H313987   0.605   4.020   0.004  1.7736  0.7497 -1.5115
    1MPD1     N13988   0.693   3.821  17.311  0.0344  0.6726  0.5005
    1MPD1    H513989   0.754   3.752  17.352  0.8780  0.1236 -1.6751
    1MPD1    N113990   0.381   4.208  17.368  0.3417 -0.1390 -0.0613
    1MPD1    H613991   0.316   4.191  17.292  0.9519 -2.0913 -0.1362
    1MPD1    H713992   0.321   4.243  17.443  0.5352 -0.8422  0.4260
    2MPD1     C13993   1.448   3.413  17.412 -0.5302  0.4097 -0.1567
    2MPD1    C113994   1.348   3.473  17.485 -0.4791  0.3972 -0.0721
    2MPD1    C213995   1.246   3.545  17.417 -0.1474  0.1378  0.2229
    2MPD1    C313996   1.255   3.555  17.278  0.3654 -0.1954  0.0413
    2MPD1    C413997   1.366   3.504  17.212  0.4719  0.3015  0.0757
    2MPD1    C513998   1.461   3.435  17.279 -0.7138  0.0135 -0.6639
    2MPD1     H13999   1.162   3.591  17.467 -0.0986 -2.6936  2.9125
    2MPD1    H114000   1.383   3.517  17.106  2.4845  0.2011  0.4019
    2MPD1    H214001   1.531   3.367  17.465 -2.6749 -1.8257  1.2623
    2MPD1    H314002   1.548   3.398  17.226  0.0155  1.7081 -0.6661
    2MPD1     N14003   1.141   3.616  17.216 -0.6375  0.2306 -0.3546
    2MPD1    H514004   1.065   3.651  17.273 -1.1521 -0.8794 -0.3707
    2MPD1    N114005   1.336   3.438  17.622 -0.1464  0.2082  0.5906
    2MPD1    H614006   1.292   3.493  17.696 -2.3148  0.5115 -0.9447
    2MPD1    H714007   1.425   3.406  17.660 -0.4600 -1.5162 -0.1722
    3TMC3    C114008   0.984   3.650  17.046  0.1398  0.4117  0.0714
    3TMC3    C214009   0.936   3.568  16.947  0.6136  0.5732  0.2066
    3TMC3    C314010   0.807   3.582  16.921 -0.1493  0.5692 -0.5747
    3TMC3    C414011   0.903   3.726  17.132  0.1875 -0.0926  0.7575
    3TMC3    C514012   0.770   3.709  17.111  0.4326 -0.0691  0.2972
    3TMC3    C614013   0.717   3.635  17.009  0.1009 -0.1647  0.6452
    3TMC3     C14014   1.120   3.619  17.080 -0.9902  0.0371 -0.7868
    3TMC3     O14015   1.190   3.571  16.995 -0.7566 -0.3841  0.6233
    3TMC3     H14016   0.998   3.492  16.900 -1.1711 -0.5126 -0.3833
    3TMC3    H114017   0.934   3.787  17.216 -0.9243  0.2423  0.9221
    3TMC3    H214018   0.609   3.621  17.007  0.1410 -0.1718 -2.2230
    3TMC3    C714019   0.669   3.790  17.181 -0.6056  0.0698 -0.2913
    3TMC3    C814020   0.733   3.489  16.826  0.4880  0.8581  0.7888
    3TMC3    O114021   0.556   3.795  17.137  0.3021  0.0636  0.3897
    3TMC3    O214022   0.616   3.467  16.851  0.0311  0.2977 -0.5795
    4MPD1     C14023   0.690   3.328  16.338 -0.0078  0.4947 -0.4792
    4MPD1    C114024   0.823   3.332  16.373  0.3514  0.3303  0.7584
    4MPD1    C214025   0.853   3.369  16.499 -0.1829 -0.1189  0.4443
    4MPD1    C314026   0.758   3.404  16.590 -0.2286  0.2432 -0.0730
    4MPD1    C414027   0.622   3.396  16.563 -0.0230  0.5016 -0.1929
    4MPD1    C514028   0.593   3.359  16.429  0.2389 -0.0124  0.0590
    4MPD1     H14029   0.958   3.370  16.524 -1.0238  1.9992  3.7997
    4MPD1    H114030   0.550   3.410  16.642 -1.6633 -0.2399 -1.5637
    4MPD1    H214031   0.661   3.299  16.238  2.1967  0.3604 -1.0813
    4MPD1    H314032   0.492   3.339  16.394 -0.0782  0.1643  0.8792
    4MPD1     N14033   0.812   3.458  16.715 -0.8035 -0.0268  0.1930
    4MPD1    H514034   0.911   3.481  16.713 -0.7534 -0.1706  0.8819
    4MPD1    N114035   0.920   3.301  16.283 -0.3099  0.9322  0.1959
    4MPD1    H614036   0.881   3.240  16.211  1.5306 -0.2597  0.1894
    4MPD1    H714037   1.006   3.263  16.323 -0.7981  1.4387  1.7283
    1TCq1    O114038   1.148   3.361  12.425  0.1358  0.4920 -0.3965
    1TCq1    C114039   1.177   3.434  12.538 -0.7473 -1.1217 -0.0917
    1TCq1    O214040   1.287   3.455  12.590  0.1851 -0.4702 -0.0530
    1TCq1    C214041   1.059   3.518  12.550 -0.1714 -0.0205  0.4720
    1TCq1    C314042   1.082   3.646  12.587 -0.4255 -0.5837  0.4130
    1TCq1    C414043   0.972   3.728  12.606 -0.0474 -1.0576  0.0542
    1TCq1    C514044   0.854   3.693  12.551  0.1104  0.6368  0.0786
    1TCq1    C614045   0.829   3.560  12.516  0.5482 -0.3060 -0.8526
    1TCq1    C714046   0.930   3.469  12.520 -0.3274 -0.3330 -0.0247
    1TCq1    C814047   0.720   3.529  12.427  0.2313  0.0344 -0.7179
    1TCq1    O414048   0.730   3.421  12.368 -0.2734 -0.0598 -0.2350
    1TCq1    C914049   1.003   3.865  12.627 -0.2960  0.4928  0.0441
    1TCq1    O514050   1.120   3.909  12.625  0.2486 -0.4734 -0.0540
    1TCq1    O614051   0.904   3.942  12.643  0.1459 -0.0571 -0.0929
    1TCq1    H114052   1.058   3.366  12.387 -1.1851  0.0380  2.6286
    1TCq1    H214053   1.177   3.698  12.590  0.1393 -1.7181  1.9771
    1TCq1    H314054   0.779   3.770  12.537  0.9387  1.6677  1.3646
    1TCq1    H414055   0.909   3.364  12.509  0.5519 -0.6055  0.8941
    2MPD1     C14056   0.262   3.648  12.224  0.1074 -0.3062 -0.6852
    2MPD1    C114057   0.312   3.760  12.284 -0.3588  0.1585  0.0684
    2MPD1    C214058   0.428   3.739  12.363 -0.1868  0.0610 -0.2708
    2MPD1    C314059   0.508   3.628  12.350 -0.4214 -0.0098 -0.5481
    2MPD1    C414060   0.471   3.525  12.269  0.7913  0.1047 -0.3060
    2MPD1    C514061   0.343   3.532  12.212 -0.6601  0.1371 -0.5756
    2MPD1     H14062   0.476   3.816  12.424  2.1368 -0.7139 -1.1141
    2MPD1    H114063   0.534   3.437  12.260 -1.4214 -1.3487 -1.6779
    2MPD1    H214064   0.161   3.640  12.185 -1.0007  0.3038  2.0801
    2MPD1    H314065   0.309   3.447  12.154  4.1548 -1.5392 -0.8891
    2MPD1     N14066   0.626   3.630  12.429  0.4209 -0.2749 -0.9911
    2MPD1    H514067   0.622   3.692  12.509  0.6855 -1.1486 -0.2886
    2MPD1    N114068   0.238   3.874  12.303  0.7636 -0.0040  0.5265
    2MPD1    H614069   0.185   3.903  12.221  1.8949  0.8348  0.0898
    2MPD1    H714070   0.300   3.950  12.331 -0.2741  0.5646  1.2671
    1TCq1    O114071   0.413   0.659   0.781  0.2037 -0.4074  0.6552
    1TCq1    C114072   0.518   0.592   0.732  0.3802  1.0239  0.6212
    1TCq1    O214073   0.514   0.499   0.654 -0.5050 -0.1825 -0.0349
    1TCq1    C214074   0.631   0.627   0.805 -0.8722 -0.3724 -0.0686
    1TCq1    C314075   0.657   0.763   0.840  0.3213 -0.7074  0.0747
    1TCq1    C414076   0.773   0.795   0.910 -0.1260 -0.1284  0.3594
    1TCq1    C514077   0.858   0.698   0.934 -0.4430 -0.7676 -0.8887
    1TCq1    C614078   0.826   0.562   0.916  0.0025 -0.4559 -0.6005
    1TCq1    C714079   0.715   0.528   0.851 -0.2227  0.0331 -0.1058
    1TCq1    C814080   0.914   0.462   0.978 -0.1279  0.2373  0.0544
    1TCq1    O414081   0.909   0.349   0.930 -0.6767  0.1123  0.2153
    1TCq1    C914082   0.821   0.926   0.894 -0.0646  0.2772 -0.3942
    1TCq1    O514083   0.741   1.021   0.876 -0.2435  0.3714 -0.4712
    1TCq1    O614084   0.941   0.934   0.865 -0.6215  0.1392 -0.4244
    1TCq1    H114085   0.440   0.729   0.844 -0.1968 -0.9550  1.4384
    1TCq1    H214086   0.598   0.844   0.799 -0.5870 -0.4931  1.8085
    1TCq1    H314087   0.955   0.736   0.961 -0.3989 -0.5643 -1.3378
    1TCq1    H414088   0.675   0.427   0.847  0.1750 -0.2222  2.0748
    2MPD1     C14089   1.256   0.339   1.342  0.4390 -0.3114 -0.0952
    2MPD1    C114090   1.205   0.465   1.367 -0.3539  0.5599  0.6829
    2MPD1    C214091   1.108   0.513   1.288  0.4481  0.8124 -0.4035
    2MPD1    C314092   1.061   0.449   1.176 -0.0093 -0.4591 -0.2709
    2MPD1    C414093   1.104   0.319   1.156 -0.6190 -0.3281  0.1696
    2MPD1    C514094   1.206   0.270   1.235 -0.4424  0.3395  0.1749
    2MPD1     H14095   1.075   0.614   1.307 -0.1883  0.8205 -1.5885
    2MPD1    H114096   1.078   0.261   1.068  2.6597 -0.4356 -0.7373
    2MPD1    H214097   1.340   0.308   1.404  1.8754  0.6006 -1.5809
    2MPD1    H314098   1.263   0.184   1.201 -0.0821  1.0851 -1.1108
    2MPD1     N14099   0.970   0.517   1.094  0.1897 -0.2041  0.2329
    2MPD1    H514100   0.938   0.610   1.120 -1.7255 -0.7709 -0.0713
    2MPD1    N114101   1.252   0.527   1.490  0.1214 -0.0464 -0.3290
    2MPD1    H614102   1.242   0.629   1.494 -0.1529 -0.1240  0.8590
    2MPD1    H714103   1.350   0.505   1.505  0.3893 -0.0527 -2.0728
    1MPD1     C14104   2.489   2.809  12.134  0.1600  0.3591  0.2002
    1MPD1    C114105   2.470   2.904  12.235  0.8113 -0.0384  0.5881
    1MPD1    C214106   2.561   3.000  12.267 -0.3219  0.5169 -0.4028
    1MPD1    C314107   2.680   2.997  12.200  0.0487  0.0724 -0.2601
    1MPD1    C414108   2.709   2.891  12.112 -0.5811 -0.0300 -0.0548
    1MPD1    C514109   2.610   2.808  12.066 -0.0309  0.5727  0.2652
    1MPD1     H14110   2.547   3.078  12.341  1.9072 -1.4087  2.0358
    1MPD1    H114111   2.793   2.893  12.043  0.9493  0.5362  1.8381
    1MPD1    H214112   2.400   2.752  12.111 -0.4627  0.5269  2.1800
    1MPD1    H314113   2.627   2.743  11.981  2.7240  3.4603 -1.3933
    1MPD1     N14114   2.769   3.105  12.221 -0.3011 -0.0109  0.1342
    1MPD1    H514115   2.736   3.165  12.296 -0.5043  0.1580 -0.0887
    1MPD1    N114116   2.342   2.931  12.291  0.0235 -0.6021  0.3582
    1MPD1    H614117   2.289   2.845  12.277  0.0657 -0.2956 -1.6677
    1MPD1    H714118   2.297   3.006  12.239  1.0160 -0.2836 -0.0385
    2MPD1     C14119   2.491   3.954  11.649  0.1194 -0.0088 -0.0975
    2MPD1    C114120   2.472   3.964  11.515 -0.0778 -0.2260  0.4266
    2MPD1    C214121   2.536   3.872  11.439  0.2822  0.4160  0.0809
    2MPD1    C314122   2.613   3.770  11.492 -0.3014  0.3436  1.0027
    2MPD1    C414123   2.634   3.778  11.624 -0.7293 -0.0669 -0.0207
    2MPD1    C514124   2.576   3.862  11.708  0.2047  0.6337 -0.2657
    2MPD1     H14125   2.510   3.868  11.334 -0.7555 -1.7061  0.4195
    2MPD1    H114126   2.700   3.707  11.671 -0.7786 -0.5361 -0.6598
    2MPD1    H214127   2.428   4.021  11.706  1.0991  2.5825 -2.0918
    2MPD1    H314128   2.578   3.867  11.816  1.8594  0.2688 -0.2906
    2MPD1     N14129   2.695   3.684  11.410 -0.0866  1.1099 -0.1954
    2MPD1    H514130   2.777   3.642  11.455  0.1997  3.2408  1.3134
    2MPD1    N114131   2.373   4.048  11.456 -0.0961  0.7982 -0.4258
    2MPD1    H614132   2.388   4.058  11.356  0.5931 -1.5169 -0.5622
    2MPD1    H714133   2.368   4.141  11.496 -2.2908  1.7562 -3.0329
    3MPD1     C14134   2.720   3.037  10.538 -0.2002 -0.3601  0.6590
    3MPD1    C114135   2.834   3.112  10.533  0.4679 -0.5610 -0.4492
    3MPD1    C214136   2.879   3.182  10.640 -0.2515 -0.1597  0.0621
    3MPD1    C314137   2.808   3.168  10.763 -0.0226 -0.5464  0.4743
    3MPD1    C414138   2.719   3.059  10.778 -0.3588 -0.3416 -0.2642
    3MPD1    C514139   2.664   3.013  10.663  0.0872  0.1245 -0.8962
    3MPD1     H14140   2.946   3.266  10.622 -0.2411  0.1653  1.6461
    3MPD1    H114141   2.671   3.038  10.873 -1.6840 -0.1534 -0.8955
    3MPD1    H214142   2.689   2.989  10.446  1.2156 -3.1650  1.6237
    3MPD1    H314143   2.576   2.950  10.675 -0.7987  1.4317 -0.5163
    3MPD1     N14144   2.853   3.249  10.870 -0.0725 -0.1146  0.2923
    3MPD1    H514145   2.938   3.301  10.854  0.5224  0.0221  3.7804
    3MPD1    N114146   2.885   3.151  10.410 -0.0437 -0.0786 -0.3020
    3MPD1    H614147   2.869   3.080  10.338 -1.7128 -1.5239  1.4949
    3MPD1    H714148   2.986   3.163  10.417  0.1854 -0.1830 -3.3585
    4MPD2     C14149   2.992   3.766  11.974  0.0498 -0.3291 -0.1225
    4MPD2    C114150   3.091   3.694  12.041  0.2877 -0.5560 -0.4236
    4MPD2    C214151   3.224   3.721  12.001  0.2234  0.1029  0.2357
    4MPD2    C314152   3.263   3.800  11.896 -0.2142  0.3063  0.2476
    4MPD2    C414153   3.163   3.874  11.840  0.5050  0.1382  0.2658
    4MPD2    C514154   3.028   3.853  11.874  0.1642  0.9375  0.1133
    4MPD2     H14155   3.302   3.667  12.052  2.3220  2.9304  0.0247
    4MPD2    H114156   3.180   3.956  11.771 -1.6420 -0.0321 -0.4729
    4MPD2    H214157   2.886   3.749  11.987  0.2758 -0.9872  0.8038
    4MPD2    H314158   2.955   3.908  11.816 -0.0083  1.8175  1.1590
    4MPD2     N14159   3.394   3.811  11.842  0.2074 -0.8924 -0.0414
    4MPD2    H514160   3.393   3.868  11.758  0.8256  0.9934  1.2324
    4MPD2    N114161   3.074   3.606  12.147 -0.0167 -0.6188 -0.2266
    4MPD2    H714162   3.164   3.568  12.175  0.7665  2.6446  1.5734
    5TMC3    C114163   2.975   3.461  12.280 -0.0729  0.0785 -0.0340
    5TMC3    C214164   2.893   3.358  12.248 -0.3867  0.2766  0.2552
    5TMC3    C314165   2.955   3.237  12.230  0.5412 -0.2849  0.5721
    5TMC3    C414166   3.112   3.446  12.307 -0.7460  0.1823 -0.9235
    5TMC3    C514167   3.168   3.324  12.289  0.2410 -0.5553 -0.8264
    5TMC3    C614168   3.088   3.221  12.253 -0.8638 -0.3013  0.5370
    5TMC3     C14169   2.951   3.574  12.203 -0.4219 -0.8099 -0.5540
    5TMC3     O14170   2.838   3.594  12.160 -0.1544  0.2758  0.2180
    5TMC3     H14171   2.793   3.375  12.210 -0.8083 -2.5064  0.0846
    5TMC3    H114172   3.173   3.529  12.340  0.0489 -0.9376  0.4037
    5TMC3    H214173   3.120   3.118  12.250  2.4885  0.7391  0.1550
    5TMC3    C714174   3.279   3.332  12.204 -0.6790 -0.6104 -0.1776
    5TMC3    C814175   2.893   3.127  12.164  0.6131 -0.4289 -0.5814
    5TMC3    O114176   3.330   3.445  12.198  0.2379  0.1967 -0.4678
    5TMC3    O214177   2.956   3.059  12.084  0.7478  0.2558 -0.6108
    6TMC3    C114178   2.762   3.568  11.216  0.0875 -0.0168  0.4913
    6TMC3    C214179   2.723   3.468  11.123 -0.3583  1.0935  0.2044
    6TMC3    C314180   2.817   3.394  11.060 -0.2459 -0.7183  0.1200
    6TMC3    C414181   2.892   3.592  11.239 -0.0364 -1.0584 -0.4670
    6TMC3    C514182   2.982   3.512  11.177  0.3309 -0.0504 -0.2910
    6TMC3    C614183   2.951   3.423  11.079 -0.0387  0.4334  0.4447
    6TMC3     C14184   2.662   3.648  11.278 -0.4241  0.3335 -0.0777
    6TMC3     O14185   2.552   3.653  11.225  0.8603  0.3282  0.6633
    6TMC3     H14186   2.617   3.456  11.102 -0.0364 -0.1178 -0.7333
    6TMC3    H114187   2.923   3.673  11.304 -0.7670  1.4691 -3.2517
    6TMC3    H214188   3.024   3.364  11.025  0.0179  0.7354  0.1922
    6TMC3    C714189   3.120   3.519  11.226 -0.6305  0.1454  0.3323
    6TMC3    C814190   2.777   3.272  10.983 -1.5755  0.6880 -0.7457
    6TMC3    O114191   3.141   3.613  11.310  0.0667  0.2394 -0.1057
    6TMC3    O214192   2.670   3.224  11.007  0.0801  0.5644  0.3050
    7MPD2     C14193   3.654   3.182  11.896 -0.4885 -0.9986 -0.2082
    7MPD2    C114194   3.598   3.304  11.920 -0.2558 -0.5141 -0.3780
    7MPD2    C214195   3.482   3.317  11.996 -0.0223 -0.3596  0.3429
    7MPD2    C314196   3.424   3.204  12.050 -0.8753  0.0436 -0.1972
    7MPD2    C414197   3.477   3.082  12.020  0.1802  0.7768 -0.7053
    7MPD2    C514198   3.601   3.075  11.956 -0.1121  0.7974 -0.1065
    7MPD2     H14199   3.436   3.414  12.010 -1.6844 -1.0695 -0.2508
    7MPD2    H114200   3.444   2.989  12.066 -0.2478  2.1110  1.6751
    7MPD2    H214201   3.747   3.160  11.844 -0.8568 -1.0871 -0.8193
    7MPD2    H314202   3.647   2.977  11.944 -1.1489  0.2882  0.0087
    7MPD2     N14203   3.310   3.218  12.135  0.2950 -0.1061  0.1070
    7MPD2    H514204   3.256   3.136  12.162 -0.4457  0.4467  0.2835
    7MPD2    N114205   3.640   3.426  11.864  0.4987  0.4994  0.2777
    7MPD2    H714206   3.590   3.510  11.891  0.7864  0.7912 -0.1022
    8TMC3    C114207   3.766   3.577  11.741  0.0592 -0.2218  0.3686
    8TMC3    C214208   3.742   3.589  11.608 -0.7167 -0.3770  0.2389
    8TMC3    C314209   3.652   3.687  11.567 -0.8758 -0.6685  1.5235
    8TMC3    C414210   3.718   3.669  11.830 -0.2262  0.4265  0.4161
    8TMC3    C514211   3.624   3.762  11.793  0.2706  0.2150 -0.2734
    8TMC3    C614212   3.592   3.774  11.657 -0.1958  0.5591 -0.0096
    8TMC3     C14213   3.750   3.435  11.775  0.1798 -0.3316  0.1446
    8TMC3     O14214   3.802   3.347  11.711  0.0713  0.0566  0.0704
    8TMC3     H14215   3.809   3.537  11.541 -0.1249 -3.0958  2.9440
    8TMC3    H114216   3.734   3.650  11.936  0.3880 -0.9922  0.0720
    8TMC3    H214217   3.517   3.847  11.628 -0.6908  0.6824  1.5691
    8TMC3    C714218   3.510   3.750  11.881 -0.3595 -0.1867  0.1959
    8TMC3    C814219   3.570   3.653  11.458  0.4706  0.0779 -0.1570
    8TMC3    O114220   3.517   3.659  11.963 -0.1392 -0.0798  0.3761
    8TMC3    O214221   3.478   3.726  11.444 -0.3627  0.0359  0.3973
    9MPD2     C14222   3.604   3.363  11.239 -0.4715  0.0812 -0.2352
    9MPD2    C114223   3.543   3.460  11.304 -0.4002 -0.0693 -0.2800
    9MPD2    C214224   3.409   3.483  11.284  0.8381 -0.4664  0.5095
    9MPD2    C314225   3.343   3.410  11.189  0.5003 -0.3744  0.4812
    9MPD2    C414226   3.416   3.319  11.119 -0.1054 -0.5501  0.0246
    9MPD2    C514227   3.541   3.280  11.154 -0.6407  0.3196  0.9855
    9MPD2     H14228   3.353   3.542  11.356 -1.0602  0.0797 -1.4212
    9MPD2    H114229   3.362   3.252  11.053 -0.4772  1.3141 -1.5353
    9MPD2    H214230   3.709   3.341  11.254 -0.4276  0.3965 -0.0755
    9MPD2    H314231   3.590   3.198  11.102 -1.5074  0.1017  0.5112
    9MPD2     N14232   3.201   3.422  11.172  0.4350 -0.4292 -0.4089
    9MPD2    H514233   3.167   3.351  11.107  0.3032 -0.0590 -0.7433
    9MPD2    N114234   3.609   3.533  11.405 -0.4639 -0.2756 -0.6411
    9MPD2    H714235   3.696   3.491  11.438 -0.8037 -0.0938  0.4809
    1MPD1     C14236   2.728   2.671  16.783 -0.3155  0.2176  0.2196
    1MPD1    C114237   2.758   2.793  16.834  0.1213  0.0759 -0.6774
    1MPD1    C214238   2.857   2.792  16.926 -0.2074  0.1320 -0.4643
    1MPD1    C314239   2.931   2.677  16.955 -0.2420 -0.2184 -0.7640
    1MPD1    C414240   2.910   2.555  16.892 -0.2655 -0.6219  0.0769
    1MPD1    C514241   2.801   2.552  16.805  0.2891 -0.2149 -0.1321
    1MPD1     H14242   2.888   2.891  16.958 -2.8172  0.6137  0.5356
    1MPD1    H114243   2.972   2.468  16.909  1.9641  1.0688  0.5323
    1MPD1    H214244   2.647   2.659  16.711 -0.1857 -2.1273  0.4707
    1MPD1    H314245   2.794   2.465  16.741 -0.7395 -2.1113  2.5743
    1MPD1     N14246   3.033   2.679  17.058 -0.6308  0.3947  0.1586
    1MPD1    H514247   3.086   2.593  17.072  1.3587  1.7756  1.1704
    1MPD1    N114248   2.667   2.897  16.809  0.1496  0.5100 -0.5616
    1MPD1    H614249   2.702   2.990  16.829 -0.3177  1.0615 -2.3226
    1MPD1    H714250   2.633   2.912  16.714 -0.5430 -2.0697 -0.7136
    2MPD1     C14251   3.585   3.406  17.188 -0.6690  0.6520  0.0828
    2MPD1    C114252   3.457   3.413  17.231  0.1260 -0.2041  0.7899
    2MPD1    C214253   3.402   3.290  17.269  0.4927 -0.6797 -0.3977
    2MPD1    C314254   3.473   3.172  17.269  0.3053  0.9900 -0.8173
    2MPD1    C414255   3.608   3.183  17.249 -0.8876 -0.6060 -0.1129
    2MPD1    C514256   3.664   3.303  17.209  0.0895 -0.0182  0.1764
    2MPD1     H14257   3.297   3.282  17.292  0.8631 -0.3701  1.4219
    2MPD1    H114258   3.671   3.098  17.274 -0.1210  0.3992  1.3979
    2MPD1    H214259   3.627   3.502  17.159  0.4818 -0.0903 -0.6810
    2MPD1    H314260   3.769   3.302  17.185 -0.3404 -0.8954 -1.7006
    2MPD1     N14261   3.405   3.055  17.306 -0.4269 -0.4780 -0.6369
    2MPD1    H514262   3.305   3.060  17.323 -0.2593  2.2268 -0.4690
    2MPD1    N114263   3.385   3.524  17.194 -0.2002  0.1886  0.8226
    2MPD1    H614264   3.290   3.524  17.231 -1.5123 -1.0890 -2.4831
    2MPD1    H714265   3.429   3.614  17.208 -0.5488  0.4390  0.3062
    3TCq2    C114266   3.463   2.939  17.343 -0.0476 -0.2237  0.4601
    3TCq2    O214267   3.580   2.904  17.340  0.0680 -0.2715 -0.0911
    3TCq2    C214268   3.367   2.825  17.352 -0.1685  0.7580  0.8490
    3TCq2    C314269   3.419   2.698  17.337 -0.6209 -0.3105 -0.2366
    3TCq2    C414270   3.350   2.597  17.288  0.4189  0.2040  0.2601
    3TCq2    C514271   3.221   2.616  17.235  0.2427  0.1723  0.0006
    3TCq2    C614272   3.172   2.744  17.232 -0.6151  0.2470 -0.3187
    3TCq2    C714273   3.244   2.846  17.289 -0.0594  0.5565  0.7169
    3TCq2    C814274   3.067   2.783  17.141 -0.1469 -0.4127 -0.1667
    3TCq2    O414275   3.030   2.898  17.148  0.0868  0.0192 -0.2850
    3TCq2    C914276   3.415   2.472  17.277  0.6737  0.1360  0.5009
    3TCq2    O514277   3.490   2.443  17.372  0.5690  0.2540  0.1271
    3TCq2    O614278   3.361   2.390  17.195  0.0360  0.1152 -0.4381
    3TCq2    H214279   3.520   2.674  17.368 -0.6861 -0.1889  0.0713
    3TCq2    H314280   3.157   2.532  17.209  1.8355 -1.1549  0.3501
    3TCq2    H414281   3.203   2.946  17.298 -1.2620  0.1156 -0.0136
    1TCq1    O114282   0.452   1.159  12.708  0.0792  0.2700  0.6309
    1TCq1    C114283   0.560   1.206  12.635 -0.3995 -0.2757 -0.0255
    1TCq1    O214284   0.569   1.233  12.517 -0.5200  0.6105  0.1023
    1TCq1    C214285   0.654   1.263  12.728 -0.6420 -0.0660 -0.0533
    1TCq1    C314286   0.612   1.315  12.854 -0.4249 -0.5213  0.2529
    1TCq1    C414287   0.682   1.420  12.896  0.6231 -0.9394  0.1965
    1TCq1    C514288   0.797   1.459  12.838 -0.5872 -0.2002  0.7024
    1TCq1    C614289   0.848   1.399  12.731 -0.3567 -0.0488  0.1433
    1TCq1    C714290   0.770   1.308  12.671 -0.0249 -0.3405 -0.1477
    1TCq1    C814291   0.954   1.466  12.666 -0.6179 -0.0389 -0.2734
    1TCq1    O414292   0.960   1.470  12.544  0.2691  0.6821  0.0808
    1TCq1    C914293   0.634   1.496  13.008  0.3245 -0.6155  0.7133
    1TCq1    O514294   0.659   1.616  13.005  0.2791  0.7473  0.4535
    1TCq1    O614295   0.535   1.449  13.066  0.0171  0.2798 -0.0514
    1TCq1    H114296   0.473   1.123  12.797  0.6594  2.2577  1.2891
    1TCq1    H214297   0.520   1.293  12.906 -0.3606 -0.8449  0.2315
    1TCq1    H314298   0.860   1.536  12.881  1.1857 -0.1815 -1.9559
    1TCq1    H414299   0.810   1.259  12.583 -0.9958  1.2041 -1.4474
    2MPD2     C14300   1.149   1.693  12.629  0.2118  0.2498  0.5596
    2MPD2    C114301   1.136   1.626  12.748 -0.4983  0.3200  0.0516
    2MPD2    C214302   1.220   1.652  12.855  0.1357  0.1800  0.4928
    2MPD2    C314303   1.316   1.753  12.851 -0.0592 -0.6095 -0.3815
    2MPD2    C414304   1.319   1.829  12.733 -0.0842  0.5958  0.0415
    2MPD2    C514305   1.246   1.795  12.624 -1.0908 -0.3964 -0.4028
    2MPD2     H14306   1.217   1.591  12.945 -0.0261  0.0217  0.3792
    2MPD2    H114307   1.392   1.909  12.729  0.5415 -0.0486 -1.2752
    2MPD2    H214308   1.099   1.662  12.538  0.2778  2.7080 -0.3328
    2MPD2    H314309   1.245   1.838  12.524 -2.4319  1.7993  0.5614
    2MPD2     N14310   1.399   1.781  12.963 -0.6403 -0.0691 -0.1832
    2MPD2    H514311   1.402   1.715  13.040  0.2583 -1.4166 -1.3792
    2MPD2    N114312   1.041   1.519  12.762  0.0281 -0.4072  0.2673
    2MPD2    H714313   1.037   1.475  12.853 -2.3234  0.4910  0.5912
    3TCq1    O114314   1.823   2.116  13.395  0.3039 -0.7955 -0.4018
    3TCq1    C114315   1.773   2.114  13.265 -0.8225 -0.4048  0.2965
    3TCq1    O214316   1.796   2.196  13.181  0.0215  0.2308  0.3586
    3TCq1    C214317   1.693   1.994  13.248 -0.4773  0.4925  0.5457
    3TCq1    C314318   1.732   1.875  13.301  0.3847 -0.2723 -0.3674
    3TCq1    C414319   1.682   1.759  13.249  0.5098 -0.1738  0.0498
    3TCq1    C514320   1.605   1.765  13.136  0.0810  0.4932  0.4190
    3TCq1    C614321   1.568   1.879  13.087  0.2230 -0.2522  0.3239
    3TCq1    C714322   1.604   1.992  13.144  0.2871  0.1616 -0.2655
    3TCq1    C814323   1.478   1.892  12.978 -0.0281  0.3593  0.3234
    3TCq1    O414324   1.452   2.002  12.932 -0.1956 -0.5470  0.3391
    3TCq1    C914325   1.725   1.631  13.305 -0.1883  0.2048  0.0623
    3TCq1    O514326   1.749   1.623  13.426 -0.4088 -0.7030 -0.1180
    3TCq1    O614327   1.750   1.545  13.220 -0.1006  0.2094  0.3650
    3TCq1    H114328   1.778   2.051  13.454 -0.9400 -0.8259 -1.4029
    3TCq1    H214329   1.814   1.860  13.370  0.3851 -2.1780 -0.7678
    3TCq1    H314330   1.568   1.672  13.092  1.1907 -0.2591  1.0694
    3TCq1    H414331   1.575   2.089  13.105 -1.0195 -0.6479 -1.3023
    1MPD2     C14332   1.605   2.795  14.766 -0.1489  0.2562  0.4262
    1MPD2    C114333   1.533   2.681  14.781 -0.0688 -0.6119  0.5299
    1MPD2    C214334   1.517   2.623  14.911  0.4186 -0.1621 -0.6632
    1MPD2    C314335   1.546   2.699  15.022  0.3792 -0.2841 -0.4696
    1MPD2    C414336   1.624   2.813  15.008 -0.7010 -0.3112  0.4722
    1MPD2    C514337   1.656   2.849  14.880 -0.1281 -0.2911  0.8522
    1MPD2     H14338   1.467   2.528  14.926 -0.9937  0.5578 -0.8053
    1MPD2    H114339   1.661   2.873  15.091 -0.8914 -0.3644  0.5964
    1MPD2    H214340   1.613   2.830  14.664 -1.0863 -0.6551  0.0422
    1MPD2    H314341   1.723   2.933  14.873 -1.2037  0.4606 -0.5461
    1MPD2     N14342   1.487   2.664  15.146 -0.0934  0.1586  0.8705
    1MPD2    H514343   1.441   2.574  15.145 -2.6744  1.4657  1.1756
    1MPD2    N114344   1.481   2.627  14.665  0.7254  0.8106 -0.0037
    1MPD2    H714345   1.497   2.680  14.579  0.8082  1.5506  0.4745
    2TMC3    C114346   1.303   2.537  14.544 -0.1743  0.3881  0.5767
    2TMC3    C214347   1.216   2.436  14.562 -0.5110  0.3553  0.1809
    2TMC3    C314348   1.082   2.460  14.532 -0.0724  0.2404 -0.8256
    2TMC3    C414349   1.277   2.658  14.483  0.2260  0.1213 -0.2157
    2TMC3    C514350   1.146   2.671  14.446  0.2189 -0.6887 -0.4579
    2TMC3    C614351   1.049   2.578  14.471 -0.7325 -0.0612 -0.2606
    2TMC3     C14352   1.386   2.537  14.664 -0.0416  0.2995 -0.5455
    2TMC3     O14353   1.328   2.477  14.758 -0.4351  0.0967 -0.1835
    2TMC3     H14354   1.257   2.340  14.590  0.5999  0.0520 -2.5714
    2TMC3    H114355   1.350   2.736  14.467 -2.2275  2.4903  0.2242
    2TMC3    H214356   0.945   2.598  14.445  0.1968  0.4002 -3.6451
    2TMC3    C714357   1.116   2.803  14.393 -0.1603  0.1041 -0.4751
    2TMC3    C814358   0.984   2.418  14.630 -0.2272 -0.1915  0.0501
    2TMC3    O114359   1.191   2.855  14.314  0.1485  0.4822  0.1116
    2TMC3    O214360   0.865   2.429  14.604  0.1563  0.3025  0.0342
    3TCq1    O114361   0.250   2.980  14.826  0.0505  0.4844 -0.3122
    3TCq1    C114362   0.211   3.012  14.701 -0.0335  0.0779 -0.4084
    3TCq1    O214363   0.174   2.947  14.600 -0.2245  0.2527 -0.1265
    3TCq1    C214364   0.260   3.148  14.701  0.1578 -0.4276 -0.2186
    3TCq1    C314365   0.166   3.243  14.675 -0.6564 -0.1000  0.0009
    3TCq1    C414366   0.215   3.358  14.615 -0.1177 -0.3023 -0.0185
    3TCq1    C514367   0.345   3.378  14.581 -0.4238  0.4820  0.0201
    3TCq1    C614368   0.431   3.279  14.617 -0.1444 -0.3260  0.4778
    3TCq1    C714369   0.387   3.160  14.669 -0.5984 -0.3215 -0.7905
    3TCq1    C814370   0.552   3.270  14.533  0.2207  0.0878  0.1401
    3TCq1    O414371   0.553   3.356  14.447 -0.4417 -0.1945 -0.0174
    3TCq1    C914372   0.125   3.465  14.573 -0.7823  1.2023  0.4049
    3TCq1    O514373   0.179   3.580  14.539 -0.0392  0.2119  0.3035
    3TCq1    O614374   0.003   3.462  14.604  0.0327  0.0051 -0.3167
    3TCq1    H114375   0.261   3.059  14.884 -0.1905  0.3128 -0.0364
    3TCq1    H214376   0.061   3.233  14.702 -0.3512 -1.1433  0.8094
    3TCq1    H314377   0.373   3.468  14.527 -2.1076  0.0679 -1.5042
    3TCq1    H414378   0.447   3.070  14.672 -0.2122  0.0050  1.8132
    4MPD2     C14379   0.797   3.200  14.355 -0.8438 -0.3761 -0.7271
    4MPD2    C114380   0.750   3.125  14.460 -0.3277 -0.0237 -0.1478
    4MPD2    C214381   0.820   3.008  14.486 -0.3669 -0.4094 -0.3160
    4MPD2    C314382   0.930   2.967  14.406  0.0804  0.1804 -0.0818
    4MPD2    C414383   0.962   3.035  14.290 -0.2397  0.1643 -0.1612
    4MPD2    C514384   0.894   3.151  14.267 -0.0205 -0.0590 -0.1668
    4MPD2     H14385   0.801   2.951  14.577  4.4213  1.1282  1.6589
    4MPD2    H114386   1.032   3.005  14.212 -0.9473 -2.4639  0.2416
    4MPD2    H214387   0.751   3.295  14.331  1.5081  1.2507  1.0757
    4MPD2    H314388   0.931   3.209  14.184  0.4070 -2.0195 -1.3306
    4MPD2     N14389   1.002   2.851  14.445 -0.0754 -0.4693 -0.3100
    4MPD2    H514390   0.960   2.792  14.517 -1.6964  0.4291 -0.5115
    4MPD2    N114391   0.635   3.159  14.544  0.0177  0.2740  0.4457
    4MPD2    H714392   0.609   3.091  14.615 -0.4632 -1.4786 -1.4007
    5TMC2    C114393   1.290   2.465  15.370 -0.0871 -0.4298 -0.0055
    5TMC2    C214394   1.191   2.540  15.429 -0.4124 -0.2804  0.8472
    5TMC2    C314395   1.218   2.667  15.475  0.0975  0.4205  0.0257
    5TMC2    C414396   1.408   2.529  15.346 -0.2078 -0.0886 -0.8555
    5TMC2    C514397   1.421   2.664  15.374 -0.4123  0.4356  0.4961
    5TMC2    C614398   1.326   2.734  15.438 -0.4219 -0.0161 -0.1981
    5TMC2     C14399   1.252   2.420  15.239  0.2385  0.4878  0.0243
    5TMC2     O14400   1.331   2.420  15.146 -0.0389 -0.2522 -0.5935
    5TMC2     H14401   1.092   2.501  15.449 -0.8835 -0.5947 -2.1074
    5TMC2    H114402   1.491   2.477  15.298  0.1339  0.0043 -0.3658
    5TMC2    H214403   1.336   2.841  15.445  0.2312 -0.0242 -1.0444
    5TMC2    C714404   1.488   2.736  15.263  0.0677  0.0930 -0.1559
    5TMC2    C814405   1.101   2.740  15.507  0.0546 -0.7635  0.3060
    5TMC2    O114406   1.512   2.853  15.277 -0.6225  0.4735 -0.4347
    5TMC2    O214407   0.998   2.716  15.441 -0.2936  0.2871 -0.4159
    5TMC2    O514408   1.126   2.844  15.589  0.2291 -0.2381  0.1710
    5TMC2    H514409   1.207   2.830  15.644  0.8076  3.1885  0.1984
    6MPD2     C14410   0.858   2.402  14.903  0.2518  0.0948 -0.0332
    6MPD2    C114411   0.994   2.414  14.884  0.0606  1.1333  0.2806
    6MPD2    C214412   1.077   2.406  14.992 -0.5695  0.3824  0.4496
    6MPD2    C314413   1.034   2.380  15.120 -0.0436 -0.5374 -0.3659
    6MPD2    C414414   0.899   2.368  15.134 -0.4618 -1.0520  0.2570
    6MPD2    C514415   0.817   2.365  15.029 -0.2002  0.1439  0.3968
    6MPD2     H14416   1.178   2.439  14.969  1.3764 -4.8750  1.3981
    6MPD2    H114417   0.860   2.316  15.222 -1.7066 -2.0110 -0.8688
    6MPD2    H214418   0.783   2.407  14.825 -0.3313  0.7899  0.5765
    6MPD2    H314419   0.717   2.327  15.049 -0.3715 -1.7870 -4.0334
    6MPD2     N14420   1.117   2.393  15.235 -0.6629 -0.8214  1.1811
    6MPD2    H514421   1.068   2.382  15.324  0.5320 -0.8520  1.8369
    6MPD2    N114422   1.047   2.429  14.755 -0.7748 -0.7972  0.2367
    6MPD2    H714423   1.148   2.430  14.746 -0.7520  0.7733  0.7654
  945NH3     N114424   3.474   4.243  10.931 -0.3664  0.3202  0.4680
  945NH3     H214425   3.419   4.158  10.933 -1.8357  1.2617 -0.5176
  945NH3     H314426   3.566   4.216  10.964 -0.5861 -2.3601 -1.0920
  945NH3     H414427   3.492   4.258  10.832  2.1008  1.3475  1.0550
  946SOD     NA14428   3.305   0.681  14.919 -0.2260 -0.1428  0.9088
  947SOD     NA14429   3.067   2.120  14.844  0.4271 -0.1507  0.0193
  948SOD     NA14430   0.149   2.704  14.239 -0.3871 -0.2824 -0.1676
  949SOD     NA14431   1.003   1.331  12.207  0.1729 -0.2266  0.3312
  950SOD     NA14432   3.004   2.040  17.591 -0.1007  0.3497  0.1464
  951SOD     NA14433   1.694   0.820  12.362 -0.1866 -0.6568  0.5623
  952SOD     NA14434   3.909   1.646  11.762  0.0726  0.0589 -0.6723
  953SOD     NA14435   4.291   4.414   3.510 -0.1767 -0.4441 -0.2808
  954SOD     NA14436   2.752   1.660   0.490 -0.1374 -0.5864  0.1716
  955SOD     NA14437   1.394   3.703  14.900 -0.1316  0.0227  0.2444
  956SOD     NA14438   4.639   1.328   0.694  0.0029 -0.5178  0.4241
  957SOD     NA14439   1.114   0.368  13.366  0.2950  0.2257  0.1912
  958SOD     NA14440   0.082   1.168  15.310  0.0608 -0.1009 -0.1628
  959SOD     NA14441   2.036   4.085  11.050  0.2835  0.4822  0.1155
  960SOD     NA14442   1.936   1.690  11.120 -0.0651  0.4791  0.0507
  961SOD     NA14443   0.612   2.919   0.926 -0.2738 -0.9640  0.3778
  962SOD     NA14444   1.314   4.020  12.593 -0.0534  0.1225  0.6131
  963SOD     NA14445   0.456   2.400  10.695  0.1671 -0.5703 -0.0977
  964SOD     NA14446   1.260   2.459  11.212 -0.6979  0.1465 -0.0433
  965SOD     NA14447   0.898   1.080  10.404  0.1046 -0.2631  0.2238
  966SOD     NA14448   3.875   4.436   2.108  0.6671  0.4327 -0.2019
  967SOD     NA14449   2.806   0.599   1.410 -0.3196 -0.0527 -0.2378
  968SOD     NA14450   2.417   0.884   8.603 -0.0610  0.1023  0.0468
  969SOD     NA14451   1.778   0.845  12.021 -0.1251 -0.1189  0.8738
  970SOD     NA14452   2.222   3.660   5.051 -0.5142 -0.5119 -0.5868
  971SOD     NA14453   0.447   1.655  13.051 -0.3454 -0.2997 -0.4924
  972SOD     NA14454   2.246   3.859  11.413  0.0800 -0.6194  0.6966
  973SOD     NA14455   3.811   1.642   4.705 -0.0632 -0.0641  0.0910
  974SOD     NA14456   0.150   4.406  15.614 -0.0801 -0.0312  0.0233
  975SOD     NA14457   0.289   1.028  10.078  0.4748 -0.3651  0.4556
  976SOD     NA14458   1.949   1.507  13.305  0.0650  0.0083  0.2590
  977SOD     NA14459   3.111   0.494   8.351  0.2685  0.1442  0.2481
  978SOD     NA14460   3.069   1.433   0.048 -0.5489  0.2820  0.1479
  979SOD     NA14461   0.150   1.715  14.491  0.5942 -0.3362 -0.0883
  980SOD     NA14462   2.233   2.710  12.683  0.0643 -0.0256 -0.2689
  981SOD     NA14463   1.058   1.911  11.069  0.2518  0.1041  0.3528
  982SOD     NA14464   3.467   3.069   2.309 -0.1760  0.4408  0.0310
  983SOD     NA14465   2.574   2.089  14.667  0.7106  0.1950  0.4760
  984SOD     NA14466   0.788   0.275  10.477  0.3108  0.1732 -0.1153
  985SOD     NA14467   2.881   2.723   9.082  0.1993  0.7964  0.0366
  986SOD     NA14468   0.723   3.988   9.157 -0.0356 -0.4616 -0.3448
  987SOD     NA14469   1.798   3.301   2.118  0.0431 -0.0888 -0.5111
  988SOD     NA14470   4.345   2.447  10.826  0.0176  0.0031  0.1105
  989SOD     NA14471   3.241   2.362  16.744 -0.2857  0.6950 -0.1345
  990SOD     NA14472   0.405   2.136  10.416  0.9027  0.1324 -0.1321
  991SOD     NA14473   0.217   3.793  14.537 -0.1917 -0.2967  0.0319
  992SOD     NA14474   0.208   3.345  15.050 -0.1229 -0.0102  0.2545
  993SOD     NA14475   1.109   2.346  17.026  0.2126 -0.1591 -0.5127
  994SOD     NA14476   4.110   1.881  11.107  0.3602 -0.4335 -0.1481
  995SOD     NA14477   1.663   1.127  14.916  0.3679  0.1825  0.2577
  996SOD     NA14478   1.332   4.133   1.674 -0.3715  0.2140 -0.2030
  997SOD     NA14479   2.712   3.603   1.220  0.2465  0.0819 -0.2618
  998SOD     NA14480   1.152   3.061   1.468 -0.1239 -0.2304  0.2425
  999SOD     NA14481   3.999   1.329   7.411  0.2360 -0.0168  0.0932
 1000SOD     NA14482   4.537   1.569  10.688 -0.0481 -0.2977  0.1336
 1001SOD     NA14483   1.495   1.770  12.283  0.1755  0.2242  0.2041
 1002SOD     NA14484   2.538   4.475  14.349  0.0294  0.0692  0.0896
 1003SOD     NA14485   4.060   0.672   9.697  0.0258 -0.3496 -0.3805
 1004SOD     NA14486   3.792   2.337  13.079 -0.1514 -0.3005  0.1165
 1005SOD     NA14487   4.039   0.803  12.926  0.4739 -0.0888 -0.2003
 1006SOD     NA14488   3.732   0.183  10.215 -0.0164 -0.1135 -0.0655
 1007SOD     NA14489   2.931   0.428   3.103  0.3723  0.6815 -0.1733
 1008SOD     NA14490   2.254   3.431  16.340  0.4322  0.0702 -0.0855
 1009SOD     NA14491   1.609   4.438  17.250 -0.0140  0.1210 -0.1601
 1010SOD     NA14492   3.357   4.025  15.667 -0.2652 -0.5329 -0.2376
 1011SOD     NA14493   3.117   0.143   1.901 -0.1384 -0.0889 -0.2707
 1012SOL     OW14494   4.659   3.935   7.730 -0.2439  0.4501 -0.0171
 1012SOL    HW114495   4.706   3.936   7.813 -0.7997 -4.8131  0.3821
 1012SOL    HW214496   4.648   4.029   7.718  0.6696  0.5847  0.2039
 1013SOL     OW14497   1.410   3.289   4.068 -0.0033  0.1233  0.1217
 1013SOL    HW114498   1.318   3.268   4.083  0.1613  1.0547  2.4505
 1013SOL    HW214499   1.436   3.338   4.146 -2.2770 -1.3233  1.7825
 1014SOL     OW14500   1.911   3.895   8.100  0.0746 -0.4750  0.1087
 1014SOL    HW114501   1.992   3.923   8.057  1.1695  0.7396  2.9545
 1014SOL    HW214502   1.933   3.930   8.186  0.3895  0.8430 -0.5083
 1015SOL     OW14503   1.701   4.604   7.407 -0.2200  0.5335  0.2816
 1015SOL    HW114504   1.647   4.550   7.465  2.5411 -1.6323  0.8043
 1015SOL    HW214505   1.686   4.695   7.435  0.5768  1.1408 -1.2440
 1016SOL     OW14506   2.833   4.719  12.348 -0.4346  0.2229 -0.2431
 1016SOL    HW114507   2.874   4.678  12.272 -0.4852  2.0815 -1.2778
 1016SOL    HW214508   2.884   0.075  12.357  0.1147 -0.2426  0.8042
 1017SOL     OW14509   4.311   2.661   1.979 -0.4878 -0.1654 -0.3431
 1017SOL    HW114510   4.258   2.613   2.043 -0.4279  0.8711  0.4852
 1017SOL    HW214511   4.263   2.651   1.897 -1.1367 -1.6211  0.2164
 1018SOL     OW14512   1.587   4.670   5.653 -0.2350 -0.0200  0.2738
 1018SOL    HW114513   1.518   4.642   5.592  0.6874 -4.3059  1.1837
 1018SOL    HW214514   1.605   4.589   5.701  0.6845 -0.0795 -0.1575
 1019SOL     OW14515   1.392   1.148   0.231  0.2058 -0.3941  0.1333
 1019SOL    HW114516   1.412   1.194   0.150 -1.4336  0.0285 -0.0413
 1019SOL    HW214517   1.394   1.057   0.200 -0.6902 -0.2814 -0.2570
 1020SOL     OW14518   2.490   2.964   4.047  0.0639  0.3463  0.3446
 1020SOL    HW114519   2.575   2.935   4.081 -0.3306 -2.0282 -0.6471
 1020SOL    HW214520   2.470   2.889   3.991 -1.9945 -0.3896  2.0664
 1021SOL     OW14521   3.362   3.140  15.554 -0.1418  0.6653  0.5322
 1021SOL    HW114522   3.389   3.073  15.617 -1.3631  0.3271  0.6971
 1021SOL    HW214523   3.287   3.088  15.524 -0.2306  1.8334 -1.2960
 1022SOL     OW14524   3.765   2.861   1.240  0.2105  0.2731 -0.3738
 1022SOL    HW114525   3.808   2.920   1.178 -2.2210  1.0281 -1.3610
 1022SOL    HW214526   3.707   2.923   1.285 -0.3413 -1.3917  1.1937
 1023SOL     OW14527   1.305   2.604  12.561 -0.2636 -0.2957 -0.4110
 1023SOL    HW114528   1.298   2.679  12.621  0.2550 -0.5234 -0.0622
 1023SOL    HW214529   1.231   2.551  12.591  0.9414 -0.0003  3.1328
 1024SOL     OW14530   2.095   4.689   5.493 -0.2357  0.0014  0.8997
 1024SOL    HW114531   2.048   4.720   5.570  0.1999  0.6492  0.9069
 1024SOL    HW214532   2.064   4.599   5.493 -0.3425  0.0278 -0.3476
 1025SOL     OW14533   0.598   2.074   4.495  0.9137  0.4142 -0.1476
 1025SOL    HW114534   0.541   2.142   4.531 -0.3728 -0.6382 -0.1865
 1025SOL    HW214535   0.555   1.993   4.521 -1.1204  1.8837  1.0441
 1026SOL     OW14536   3.401   1.229   5.498 -0.0051 -0.4485 -0.2642
 1026SOL    HW114537   3.371   1.319   5.509 -0.5150 -0.6530 -0.0053
 1026SOL    HW214538   3.330   1.189   5.448 -1.7921  0.2951  1.7279
 1027SOL     OW14539   1.883   2.772   4.583  0.5073 -0.5912 -0.2959
 1027SOL    HW114540   1.969   2.729   4.592  1.1393  0.5762 -0.7827
 1027SOL    HW214541   1.843   2.725   4.656  1.2807 -1.4259 -0.3990
 1028SOL     OW14542   0.827   4.650   6.128 -0.0543 -0.6848 -0.5159
 1028SOL    HW114543   0.784   4.595   6.062  2.4071 -1.9186 -1.0696
 1028SOL    HW214544   0.747   4.673   6.175 -0.3544  0.2206 -1.4678
 1029SOL     OW14545   1.404   3.113  14.966  0.1249 -0.9139  1.1052
 1029SOL    HW114546   1.371   3.070  14.886  0.2449  1.2050 -0.0835
 1029SOL    HW214547   1.356   3.195  14.960  2.0596  0.1424  0.1169
 1030SOL     OW14548   0.838   1.481   0.750 -0.2299  0.2257  0.0471
 1030SOL    HW114549   0.896   1.456   0.678  1.2146 -1.8286  1.9332
 1030SOL    HW214550   0.837   1.394   0.790  2.9365 -0.4922 -1.4248
 1031SOL     OW14551   1.818   4.606  11.943 -0.3266 -0.2648  0.6061
 1031SOL    HW114552   1.848   4.543  12.008 -0.8297 -1.3239 -0.2028
 1031SOL    HW214553   1.901   4.654  11.938  0.9267 -2.4889  0.0602
 1032SOL     OW14554   3.956   0.951   3.377  0.3124 -0.2974 -0.3546
 1032SOL    HW114555   3.895   0.992   3.315 -0.0606  0.7402  0.7171
 1032SOL    HW214556   3.925   0.982   3.462 -0.3811  0.4709 -0.8864
 1033SOL     OW14557   1.455   2.745  11.511  0.0753 -0.1630 -0.0615
 1033SOL    HW114558   1.402   2.799  11.570  0.0319  0.0693 -0.3125
 1033SOL    HW214559   1.540   2.789  11.511  0.0858 -0.1858  2.1849
 1034SOL     OW14560   0.609   1.256   1.916  0.5668 -0.3709 -0.1769
 1034SOL    HW114561   0.612   1.341   1.960  1.2908  0.1930 -1.3055
 1034SOL    HW214562   0.631   1.197   1.988  0.9526  0.7478  0.6240
 1035SOL     OW14563   3.395   4.313  11.651 -0.0525 -0.1131 -0.0983
 1035SOL    HW114564   3.387   4.303  11.556  1.5290 -3.1743  0.0947
 1035SOL    HW214565   3.438   4.398  11.656  0.8672 -0.3933 -3.6561
 1036SOL     OW14566   4.659   3.997   5.727  0.5566  0.5290  0.3656
 1036SOL    HW114567   4.592   4.038   5.672  0.7551  0.0390 -0.2361
 1036SOL    HW214568   4.594   3.942   5.770  0.0986  2.2943  1.9607
 1037SOL     OW14569   1.209   2.723  12.288  0.6442 -0.0351  0.0147
 1037SOL    HW114570   1.200   2.686  12.376  1.0885 -0.4630 -0.1175
 1037SOL    HW214571   1.301   2.749  12.287  1.1889 -1.9057  0.5903
 1038SOL     OW14572   3.791   4.611   5.070 -0.7500  0.1182  0.2571
 1038SOL    HW114573   3.846   4.586   5.145  0.1415  2.7156  0.4736
 1038SOL    HW214574   3.727   4.540   5.070 -1.0840  0.4470 -2.9628
 1039SOL     OW14575   0.043   2.197   6.217 -0.2026 -0.5598 -0.4003
 1039SOL    HW114576   4.709   2.137   6.171  2.1731 -1.9682 -1.6323
 1039SOL    HW214577   0.098   2.134   6.264  2.1016  1.2564 -0.6388
 1040SOL     OW14578   3.133   3.746   5.872  0.0218  0.2751 -0.1935
 1040SOL    HW114579   3.102   3.733   5.962  2.3034 -1.4141  0.3372
 1040SOL    HW214580   3.114   3.839   5.863 -2.0663 -0.2180 -1.0669
 1041SOL     OW14581   0.201   0.400   1.650  0.3787  0.4787  0.8585
 1041SOL    HW114582   0.260   0.454   1.597 -0.9144  1.0525  0.0022
 1041SOL    HW214583   0.227   0.310   1.629  3.4506  1.2898  1.0690
 1042SOL     OW14584   3.511   2.445   2.612  0.3680  1.1955  0.5673
 1042SOL    HW114585   3.447   2.488   2.556  0.6243  0.8396  0.0071
 1042SOL    HW214586   3.464   2.372   2.651 -1.1193  1.8617  0.0064
 1043SOL     OW14587   0.156   0.285   9.963  0.2680 -0.1512  0.1194
 1043SOL    HW114588   0.179   0.244  10.046 -0.0531 -2.4128 -0.9325
 1043SOL    HW214589   0.158   0.215   9.898 -0.4221  1.4677 -1.6597
 1044SOL     OW14590   3.998   4.143   5.655  0.0077 -0.5955  0.2609
 1044SOL    HW114591   3.902   4.141   5.659  0.0288 -0.3837  0.8556
 1044SOL    HW214592   4.015   4.237   5.661 -0.8371 -0.6539  3.6510
 1045SOL     OW14593   0.554   2.747   8.430 -0.0486 -1.0506 -0.1876
 1045SOL    HW114594   0.641   2.716   8.454 -0.0554 -1.3640 -0.5752
 1045SOL    HW214595   0.582   2.837   8.412 -0.6184 -1.2646 -2.1960
 1046SOL     OW14596   2.710   1.883   4.907 -0.8764  0.0959  0.0634
 1046SOL    HW114597   2.637   1.824   4.927  1.5854 -3.2576 -0.7902
 1046SOL    HW214598   2.787   1.826   4.910 -1.1972 -0.3558 -0.3663
 1047SOL     OW14599   0.797   1.041  12.017 -0.0013  0.5425 -0.0728
 1047SOL    HW114600   0.735   1.108  12.046 -1.7674 -0.0129 -2.5980
 1047SOL    HW214601   0.876   1.095  12.005  0.9185 -0.7039  0.3124
 1048SOL     OW14602   3.467   3.597  10.166 -0.1607 -0.1380 -0.1631
 1048SOL    HW114603   3.493   3.512  10.204  0.1063 -0.0427 -0.1294
 1048SOL    HW214604   3.374   3.580  10.160 -0.1297 -0.6781  0.7638
 1049SOL     OW14605   2.544   0.405   3.770 -0.7829 -0.1994  0.5066
 1049SOL    HW114606   2.547   0.495   3.803  0.1495 -0.0443 -0.0177
 1049SOL    HW214607   2.617   0.353   3.803 -1.8280 -1.0865  1.4171
 1050SOL     OW14608   1.023   1.511   7.457  0.5790 -0.4551  0.5665
 1050SOL    HW114609   0.932   1.539   7.453  1.1834  1.3526 -0.8034
 1050SOL    HW214610   1.064   1.594   7.482 -1.5817  0.7368  0.1788
 1051SOL     OW14611   3.882   3.419   2.430 -0.5644 -0.4285 -0.0883
 1051SOL    HW114612   3.912   3.509   2.414 -1.9671  0.2264  0.9135
 1051SOL    HW214613   3.850   3.396   2.343  1.2931 -1.4665 -0.4886
 1052SOL     OW14614   1.532   3.352   1.907 -0.0397  0.2248 -0.1360
 1052SOL    HW114615   1.506   3.269   1.947 -1.6417  0.2946 -1.0394
 1052SOL    HW214616   1.445   3.393   1.906  0.6229  1.5882 -1.1999
 1053SOL     OW14617   3.662   0.041   4.875 -0.1158  0.2585 -0.7545
 1053SOL    HW114618   3.721   4.713   4.929 -2.6188 -2.2598 -0.5130
 1053SOL    HW214619   3.611   0.092   4.938  0.1307 -0.8435  0.3459
 1054SOL     OW14620   1.478   4.043   4.195 -0.2723 -0.0516 -0.5072
 1054SOL    HW114621   1.470   4.040   4.290 -1.0679 -2.6702 -0.6578
 1054SOL    HW214622   1.569   4.034   4.168 -0.8013 -0.3434 -2.2217
 1055SOL     OW14623   2.065   4.686  14.071  0.4646 -0.2958  0.3566
 1055SOL    HW114624   2.082   4.625  13.999 -0.6555  0.5879 -0.6625
 1055SOL    HW214625   2.088   4.631  14.146 -1.2082 -2.3050 -0.5949
 1056SOL     OW14626   3.149   0.536   2.718  0.3436 -0.1307  0.1376
 1056SOL    HW114627   3.073   0.571   2.673  1.1943 -0.2573 -1.4168
 1056SOL    HW214628   3.113   0.459   2.762  0.1872 -0.0135  0.2119
 1057SOL     OW14629   2.324   3.942   2.592 -0.2080 -0.3972  0.1321
 1057SOL    HW114630   2.230   3.958   2.589 -0.0305 -0.1047 -3.3750
 1057SOL    HW214631   2.338   3.919   2.501  0.3464 -0.7413  0.2992
 1058SOL     OW14632   1.639   0.842   3.571 -0.1705  0.2751 -0.5025
 1058SOL    HW114633   1.659   0.749   3.583 -1.8140  0.2349  1.9616
 1058SOL    HW214634   1.577   0.844   3.498 -0.4925  0.8890 -0.2154
 1059SOL     OW14635   3.001   1.781   5.712  0.4519  0.3594  0.5374
 1059SOL    HW114636   3.080   1.732   5.689  0.7899  0.3423  1.7021
 1059SOL    HW214637   2.939   1.709   5.722  2.0320 -1.3642 -2.1068
 1060SOL     OW14638   0.658   4.532   6.529 -0.0461 -0.2009 -0.5508
 1060SOL    HW114639   0.711   4.464   6.487  1.0583 -0.8009  1.7712
 1060SOL    HW214640   0.584   4.475   6.552 -0.1568 -0.7895 -2.3743
 1061SOL     OW14641   2.918   1.550   6.766 -0.0453  0.1120  0.2508
 1061SOL    HW114642   3.004   1.537   6.807 -0.2477  1.5535  1.1205
 1061SOL    HW214643   2.903   1.641   6.792 -1.5158 -0.3635  1.0549
 1062SOL     OW14644   2.464   2.711   7.229 -0.1358  0.6839 -0.3351
 1062SOL    HW114645   2.446   2.680   7.317  0.5098  0.4484 -0.2825
 1062SOL    HW214646   2.505   2.796   7.241 -2.5153  1.3331  3.0189
 1063SOL     OW14647   2.589   1.524   8.323 -0.4387 -0.7178 -0.1236
 1063SOL    HW114648   2.501   1.505   8.291 -0.5879 -0.2989  0.0403
 1063SOL    HW214649   2.578   1.618   8.335  0.7366 -0.6132  0.1141
 1064SOL     OW14650   1.411   1.912   5.832 -0.3370 -0.3494  0.1491
 1064SOL    HW114651   1.478   1.853   5.866  2.5954  2.1817 -1.2573
 1064SOL    HW214652   1.435   1.929   5.741  3.0913  1.0989  1.3299
 1065SOL     OW14653   3.278   2.604   6.673 -0.9159 -0.3090  0.2225
 1065SOL    HW114654   3.294   2.510   6.684 -0.7132 -0.2480  0.4436
 1065SOL    HW214655   3.217   2.614   6.747  0.1959 -0.4782  1.1578
 1066SOL     OW14656   4.468   1.005   3.904 -0.3541 -0.0546 -0.1246
 1066SOL    HW114657   4.389   0.952   3.912  1.4711 -2.7078  0.0354
 1066SOL    HW214658   4.541   0.959   3.945  1.2822  4.2871  1.9396
 1067SOL     OW14659   3.112   3.614   7.759  0.3367 -0.4172  0.0414
 1067SOL    HW114660   3.067   3.591   7.678  0.4049 -0.4592  0.0147
 1067SOL    HW214661   3.052   3.588   7.829 -0.6068  2.2828  0.2134
 1068SOL     OW14662   2.491   3.685  14.375  0.1098 -0.0485  0.5322
 1068SOL    HW114663   2.460   3.603  14.335 -0.4082 -0.1270  1.1081
 1068SOL    HW214664   2.519   3.736  14.299 -0.9631 -2.8047 -1.6944
 1069SOL     OW14665   1.009   2.725   5.562 -0.6131 -0.3886 -0.2116
 1069SOL    HW114666   1.095   2.767   5.562 -0.6941 -0.2263 -3.5463
 1069SOL    HW214667   0.992   2.703   5.654  1.5366  1.5925  0.6573
 1070SOL     OW14668   2.969   3.467   8.282  0.9054 -0.1490 -0.1878
 1070SOL    HW114669   2.884   3.494   8.317  1.0286  0.1038 -0.0873
 1070SOL    HW214670   3.028   3.516   8.339 -0.6699  0.3810  1.0030
 1071SOL     OW14671   3.237   4.612   2.759  0.8245  0.0144 -0.8012
 1071SOL    HW114672   3.319   4.637   2.715  0.5085  0.4939 -1.1158
 1071SOL    HW214673   3.200   4.554   2.692  0.4631 -1.0158  0.3002
 1072SOL     OW14674   4.545   0.091   6.837 -0.2649  0.2316 -0.5878
 1072SOL    HW114675   4.545   0.013   6.780 -0.8115 -1.3432  1.5820
 1072SOL    HW214676   4.530   0.159   6.771 -2.1147 -0.2025 -0.6223
 1073SOL     OW14677   3.696   2.973  10.428  0.2351 -0.1037  0.0652
 1073SOL    HW114678   3.768   3.007  10.481  0.3672 -1.8972  1.0507
 1073SOL    HW214679   3.612   2.993  10.470  1.0265  0.3367  1.4386
 1074SOL     OW14680   3.935   2.031  10.077  1.1168 -0.1543  0.0366
 1074SOL    HW114681   4.018   1.983  10.067  0.9592 -0.4420  0.1213
 1074SOL    HW214682   3.915   2.053   9.986 -0.2188 -0.8797  0.1713
 1075SOL     OW14683   4.486   0.020   3.878 -0.0858 -0.4995  0.1745
 1075SOL    HW114684   4.518   0.109   3.890  0.8699 -0.6971 -0.9046
 1075SOL    HW214685   4.496   4.707   3.966  0.8108  0.4206  0.4664
 1076SOL     OW14686   4.527   4.320   5.915  0.1081 -0.0262  0.4867
 1076SOL    HW114687   4.541   4.411   5.940 -0.1963  0.4250 -0.9854
 1076SOL    HW214688   4.588   4.281   5.977 -0.2948  0.6877  1.3312
 1077SOL     OW14689   0.027   3.803  11.041  0.6054  0.4555 -0.3412
 1077SOL    HW114690   0.107   3.854  11.056  1.1749 -1.0121  1.5981
 1077SOL    HW214691   0.048   3.780  10.951  2.1274  0.0355  0.1104
 1078SOL     OW14692   0.662   4.582   8.311 -0.2520  0.1624 -0.0245
 1078SOL    HW114693   0.684   4.497   8.348 -0.9602 -0.3532 -0.7949
 1078SOL    HW214694   0.583   4.559   8.263 -0.1056 -1.5370  0.5578
 1079SOL     OW14695   2.085   2.396   3.496 -0.0540 -0.2474  0.1472
 1079SOL    HW114696   2.035   2.326   3.452  1.3027  0.2150 -2.1043
 1079SOL    HW214697   2.175   2.375   3.473  0.1579 -0.5467  1.2592
 1080SOL     OW14698   1.702   2.860   7.455  0.1152 -1.1244 -0.1419
 1080SOL    HW114699   1.617   2.905   7.445  1.4844  1.8404  1.3453
 1080SOL    HW214700   1.684   2.783   7.401  0.4075 -2.3837  1.5639
 1081SOL     OW14701   1.022   3.039   0.624 -0.2080 -0.4955 -0.0767
 1081SOL    HW114702   1.008   2.964   0.567 -1.3862 -0.6600  0.4222
 1081SOL    HW214703   1.116   3.044   0.640  0.3384 -0.9806 -3.0596
 1082SOL     OW14704   0.559   4.704  11.001 -0.8315 -0.4549 -0.0003
 1082SOL    HW114705   0.597   0.066  10.987  1.8440 -1.3404  1.8033
 1082SOL    HW214706   0.545   4.700  11.096  1.0614  2.1609  0.4001
 1083SOL     OW14707   1.142   2.645   1.595  0.9020  0.7244  0.7136
 1083SOL    HW114708   1.187   2.622   1.676  0.1394  1.5387  1.3748
 1083SOL    HW214709   1.169   2.575   1.535  0.8629  2.1843 -0.9941
 1084SOL     OW14710   2.069   0.246   1.749 -0.9330 -0.2296 -0.0269
 1084SOL    HW114711   2.096   0.157   1.769 -2.2564 -0.0008  2.8193
 1084SOL    HW214712   1.983   0.233   1.707  0.9733  0.8883 -4.2901
 1085SOL     OW14713   0.933   3.091   5.775  0.0740  0.1837  0.2216
 1085SOL    HW114714   0.854   3.107   5.827  0.7083  0.8510  0.9804
 1085SOL    HW214715   0.972   3.023   5.831 -1.0481 -0.7768 -0.1748
 1086SOL     OW14716   3.211   1.043  15.647 -0.1242 -0.2746 -0.3291
 1086SOL    HW114717   3.264   0.967  15.623 -0.6867 -0.1086 -2.0744
 1086SOL    HW214718   3.282   1.094  15.686  1.9951 -1.7805 -2.1904
 1087SOL     OW14719   3.473   2.621   4.531 -0.0436 -0.6501  0.1813
 1087SOL    HW114720   3.409   2.606   4.461  0.3603  2.2614 -0.8237
 1087SOL    HW214721   3.557   2.634   4.488 -0.7074  4.3532  0.4232
 1088SOL     OW14722   0.222   1.278   6.706 -0.7080 -0.2340 -0.3513
 1088SOL    HW114723   0.147   1.304   6.760 -0.7699  1.0029 -1.0330
 1088SOL    HW214724   0.171   1.217   6.653 -0.5431 -0.7506  0.0842
 1089SOL     OW14725   4.141   1.466   5.275  0.2928 -0.3087  0.0280
 1089SOL    HW114726   4.146   1.540   5.336 -0.4927 -0.1292 -0.1258
 1089SOL    HW214727   4.050   1.484   5.249  0.6389  0.7793 -0.4167
 1090SOL     OW14728   3.084   1.362   2.870  0.3396 -0.2785 -0.5991
 1090SOL    HW114729   2.996   1.375   2.905  0.4545  1.0278 -0.8212
 1090SOL    HW214730   3.082   1.434   2.807 -1.3633 -1.0815 -1.4477
 1091SOL     OW14731   1.649   0.639  17.684 -0.2790  0.5681 -0.1713
 1091SOL    HW114732   1.644   0.551   0.020 -2.5322  1.4546  1.6116
 1091SOL    HW214733   1.739   0.631  17.652  0.0391 -0.2335  0.9036
 1092SOL     OW14734   3.501   1.177   3.924 -0.1530  0.0423  0.3155
 1092SOL    HW114735   3.537   1.213   3.843  1.4724 -0.8448  0.6430
 1092SOL    HW214736   3.425   1.232   3.941 -0.8368 -1.2230  1.3719
 1093SOL     OW14737   2.911   2.478   6.611  0.1600 -0.6355  0.1200
 1093SOL    HW114738   2.964   2.525   6.675 -1.1878 -0.6415  1.2525
 1093SOL    HW214739   2.822   2.496   6.642 -0.5165 -0.3178 -2.0130
 1094SOL     OW14740   2.305   2.489   7.127 -0.8096  0.7731 -0.0031
 1094SOL    HW114741   2.356   2.566   7.104 -0.2730  0.0764 -1.1378
 1094SOL    HW214742   2.258   2.525   7.202 -2.1025 -0.7721 -0.0631
 1095SOL     OW14743   4.222   1.984   2.033  0.2009  0.2412  0.5093
 1095SOL    HW114744   4.273   1.953   1.958 -1.8540 -1.4144 -0.1832
 1095SOL    HW214745   4.189   1.904   2.073  2.4638  0.0703  2.0749
 1096SOL     OW14746   2.165   4.091   6.989  0.0641 -0.0011  0.1722
 1096SOL    HW114747   2.126   4.153   7.051 -0.5007  1.5971 -1.7685
 1096SOL    HW214748   2.102   4.106   6.919 -1.5244  0.0096  1.6016
 1097SOL     OW14749   0.615   2.459  15.418 -0.8955  0.5802 -0.8463
 1097SOL    HW114750   0.579   2.541  15.385 -1.1276 -0.0576 -2.1958
 1097SOL    HW214751   0.563   2.391  15.374  2.2372 -1.7883 -0.8521
 1098SOL     OW14752   0.246   1.688   2.118 -0.9228 -0.0301  0.2510
 1098SOL    HW114753   0.277   1.644   2.039 -2.2086  0.6058 -0.6097
 1098SOL    HW214754   0.296   1.769   2.107  0.9005 -1.2117 -0.1403
 1099SOL     OW14755   2.828   1.814   9.600 -0.0417  0.3869  0.4929
 1099SOL    HW114756   2.892   1.749   9.569 -0.2658 -0.3647  1.5946
 1099SOL    HW214757   2.757   1.806   9.536  1.0152  0.3665 -0.6784
 1100SOL     OW14758   4.540   1.700   0.748 -0.5022 -0.2801  0.7762
 1100SOL    HW114759   4.582   1.657   0.822 -1.4986 -0.8790  0.9882
 1100SOL    HW214760   4.585   1.785   0.742  1.0371 -1.1628 -0.3472
 1101SOL     OW14761   1.366   1.812  11.222 -0.0300 -0.2838  0.3471
 1101SOL    HW114762   1.344   1.890  11.171 -1.6943 -0.7993  0.2738
 1101SOL    HW214763   1.286   1.759  11.220 -0.1514 -0.0098 -1.9707
 1102SOL     OW14764   1.690   2.717   5.456  0.5005 -0.7259  0.3195
 1102SOL    HW114765   1.778   2.680   5.451  1.0376  0.6969 -0.8649
 1102SOL    HW214766   1.649   2.630   5.462 -0.6693 -0.2276 -0.4532
 1103SOL     OW14767   0.067   1.002   6.002  0.1842  0.1050  0.4276
 1103SOL    HW114768   4.696   0.998   6.005  0.2915 -0.9891  2.3708
 1103SOL    HW214769   0.099   1.048   5.924 -2.4248 -1.0605 -1.3286
 1104SOL     OW14770   2.104   4.273   2.957 -0.0982  0.4270 -0.3855
 1104SOL    HW114771   2.009   4.280   2.941 -0.1796 -3.2039 -1.3973
 1104SOL    HW214772   2.105   4.178   2.950 -1.0069  0.4974 -1.5750
 1105SOL     OW14773   4.533   3.807   7.493  0.4362  0.0177 -0.0265
 1105SOL    HW114774   4.598   3.847   7.551  0.4448  1.2224 -0.8648
 1105SOL    HW214775   4.452   3.826   7.541  0.1471  1.6169 -1.1368
 1106SOL     OW14776   0.768   3.442   4.585 -0.2052 -0.4586  0.2021
 1106SOL    HW114777   0.723   3.512   4.538 -0.6312 -1.2950 -0.6471
 1106SOL    HW214778   0.795   3.497   4.658  2.7331 -0.7808 -0.6283
 1107SOL     OW14779   1.014   4.633  11.411 -0.1389  0.9881 -0.3283
 1107SOL    HW114780   0.953   4.602  11.344  0.6871 -3.5198  0.9434
 1107SOL    HW214781   0.945   4.651  11.475  0.8182 -0.8560  1.2283
 1108SOL     OW14782   3.980   2.021   1.464 -0.0467 -0.4361  0.0797
 1108SOL    HW114783   3.986   1.936   1.419  1.8535 -1.0133  1.4675
 1108SOL    HW214784   3.959   2.085   1.395  0.4720 -1.2102 -0.8021
 1109SOL     OW14785   4.720   4.248  14.817  0.5260  0.1017  0.0549
 1109SOL    HW114786   4.669   4.285  14.746  0.9593  3.0506  1.2913
 1109SOL    HW214787   4.713   4.326  14.871 -0.2184  1.1976 -1.6388
 1110SOL     OW14788   3.516   1.321   4.727  0.0274  0.0551 -0.1057
 1110SOL    HW114789   3.506   1.261   4.801  0.5211  1.1134  0.8245
 1110SOL    HW214790   3.567   1.269   4.665  1.9546  2.1928 -0.3603
 1111SOL     OW14791   0.472   1.932   0.374  0.4812  0.1524  0.0509
 1111SOL    HW114792   0.561   1.967   0.380  0.4131 -0.1474  3.2320
 1111SOL    HW214793   0.475   1.853   0.427  1.0881 -0.3585 -0.7515
 1112SOL     OW14794   4.189   1.645   1.256 -0.1121 -0.6331  0.1520
 1112SOL    HW114795   4.160   1.554   1.247  3.3355 -1.6699 -0.1892
 1112SOL    HW214796   4.272   1.635   1.210 -1.2254 -0.9288 -1.7557
 1113SOL     OW14797   2.003   0.223   6.279 -0.1284 -0.2501  0.3112
 1113SOL    HW114798   2.025   0.307   6.239 -1.0100 -0.6542 -1.0218
 1113SOL    HW214799   1.929   0.191   6.228  1.1195 -0.1603 -1.5429
 1114SOL     OW14800   3.256   2.321   5.377 -0.6409  0.0419 -0.1158
 1114SOL    HW114801   3.314   2.245   5.377 -1.4792 -0.5949 -0.0035
 1114SOL    HW214802   3.251   2.335   5.472 -3.0521  0.6054 -0.3383
 1115SOL     OW14803   0.283   2.720   5.497 -0.0479 -0.6935  0.3902
 1115SOL    HW114804   0.220   2.648   5.488  0.0241 -0.5900 -0.8295
 1115SOL    HW214805   0.331   2.704   5.578  2.1643  1.8317 -0.4379
 1116SOL     OW14806   1.123   0.918   5.318 -0.7616 -0.1100 -0.2310
 1116SOL    HW114807   1.061   0.924   5.246 -0.9556 -2.3247 -0.2354
 1116SOL    HW214808   1.172   0.999   5.301  1.5347 -1.0615  1.7772
 1117SOL     OW14809   2.949   1.338   9.197  0.3983  0.1937 -0.1103
 1117SOL    HW114810   2.915   1.254   9.229  0.6906  0.1901  0.1976
 1117SOL    HW214811   2.948   1.324   9.102 -1.9696  0.3392 -0.1147
 1118SOL     OW14812   2.498   3.540   9.015  0.2589  0.0568 -0.2024
 1118SOL    HW114813   2.461   3.566   9.100  2.6160  1.4050  0.4177
 1118SOL    HW214814   2.569   3.605   9.012 -1.0947  1.5837  1.1781
 1119SOL     OW14815   0.350   3.220   3.897 -0.3955  0.3502 -0.3534
 1119SOL    HW114816   0.354   3.198   3.804 -0.3898  1.3887 -0.5973
 1119SOL    HW214817   0.263   3.184   3.915  0.0374 -0.3420  0.3585
 1120SOL     OW14818   3.082   2.250   3.447 -0.2235  0.1876 -0.1101
 1120SOL    HW114819   3.047   2.297   3.371  1.1278  0.1460 -0.7702
 1120SOL    HW214820   3.127   2.318   3.498 -0.2292 -1.9169  2.6982
 1121SOL     OW14821   3.407   4.192   7.692  0.2893  0.0347  0.4741
 1121SOL    HW114822   3.488   4.238   7.714 -0.2223  1.3264 -0.3341
 1121SOL    HW214823   3.436   4.104   7.716 -2.2388 -0.1735  2.8724
 1122SOL     OW14824   0.686   2.734  12.170  0.4207  0.4323  0.3017
 1122SOL    HW114825   0.739   2.813  12.168 -0.1255  0.7196 -1.9763
 1122SOL    HW214826   0.605   2.777  12.142  0.0240  1.9768  3.8319
 1123SOL     OW14827   2.430   1.814   8.207 -0.9376 -0.1945 -0.5533
 1123SOL    HW114828   2.374   1.870   8.260 -0.9484 -1.1824  0.4852
 1123SOL    HW214829   2.388   1.824   8.121  1.4671 -1.0025 -1.8194
 1124SOL     OW14830   0.047   3.866  10.389 -0.4891  0.3632 -0.0279
 1124SOL    HW114831   0.138   3.895  10.401 -0.8920  2.2139 -1.4316
 1124SOL    HW214832   0.013   3.954  10.371  1.8275  1.3123  0.2584
 1125SOL     OW14833   3.374   2.355  11.617 -0.4484 -0.2850  0.5956
 1125SOL    HW114834   3.383   2.366  11.522 -2.2762  0.8229  0.5512
 1125SOL    HW214835   3.369   2.260  11.618  2.7269 -0.4830  0.0996
 1126SOL     OW14836   4.072   0.441  15.979 -0.3100  0.2030 -0.2234
 1126SOL    HW114837   4.148   0.494  15.954 -0.3245 -0.7245 -2.2279
 1126SOL    HW214838   4.005   0.505  16.001 -0.6806 -0.5814  0.9471
 1127SOL     OW14839   1.020   4.372   6.878  0.1087 -0.2881  0.0542
 1127SOL    HW114840   1.018   4.400   6.970 -0.8313  1.7486 -0.5735
 1127SOL    HW214841   1.021   4.460   6.840 -0.6546 -0.6588 -0.8397
 1128SOL     OW14842   0.157   0.713   8.308 -0.2671 -0.2811 -0.1960
 1128SOL    HW114843   0.137   0.700   8.400 -0.0047  1.6471  0.1392
 1128SOL    HW214844   0.226   0.647   8.299 -0.6202 -0.8182  1.0296
 1129SOL     OW14845   2.416   2.537   5.033 -0.4034  0.5619  0.1302
 1129SOL    HW114846   2.448   2.583   4.956  3.7911 -2.3881  0.1025
 1129SOL    HW214847   2.407   2.609   5.096 -0.3303 -1.1097  2.0549
 1130SOL     OW14848   2.902   3.775   8.169 -0.1350 -0.3714 -0.2085
 1130SOL    HW114849   2.973   3.791   8.231  0.1573  0.5572 -0.7835
 1130SOL    HW214850   2.852   3.856   8.174 -0.0091 -0.4355  1.9617
 1131SOL     OW14851   2.631   1.954   3.617  0.2304 -0.3001 -0.5173
 1131SOL    HW114852   2.720   1.947   3.582  0.7503 -1.2080  0.9946
 1131SOL    HW214853   2.647   1.928   3.707 -0.1899  3.3074  0.6012
 1132SOL     OW14854   3.865   1.987   3.519 -0.0420 -0.3486  0.5880
 1132SOL    HW114855   3.792   2.040   3.552  1.1352  1.0656  0.9654
 1132SOL    HW214856   3.907   1.968   3.603 -1.4121 -0.2700  1.2862
 1133SOL     OW14857   0.738   4.218   0.104  0.2321  0.7806  0.4562
 1133SOL    HW114858   0.645   4.240   0.099  0.1147  0.7106  2.4657
 1133SOL    HW214859   0.747   4.265   0.021  0.3290  2.5700  1.4874
 1134SOL     OW14860   3.315   0.561   1.048  0.2602  0.5661  0.6402
 1134SOL    HW114861   3.296   0.617   0.973  2.2207 -1.3820 -1.3406
 1134SOL    HW214862   3.239   0.588   1.098 -0.3474 -2.0174  1.1189
 1135SOL     OW14863   2.622   2.261  14.809 -0.0558  0.5370 -0.5095
 1135SOL    HW114864   2.681   2.281  14.882 -0.2753 -1.6773  0.2889
 1135SOL    HW214865   2.610   2.346  14.768 -1.5534  0.6248  0.0964
 1136SOL     OW14866   1.801   4.002  12.239  0.2088 -0.3917  0.5483
 1136SOL    HW114867   1.798   4.090  12.277 -0.6392 -0.6073  0.9763
 1136SOL    HW214868   1.710   3.981  12.220 -0.1492  1.1759  0.5522
 1137SOL     OW14869   3.948   0.769   3.074 -0.0043  0.0063 -0.1369
 1137SOL    HW114870   4.024   0.729   3.031 -0.0988  2.4343 -2.6006
 1137SOL    HW214871   3.980   0.859   3.071  1.1298 -0.4009 -0.2818
 1138SOL     OW14872   1.249   3.122   0.352  0.1684  0.1492  0.3407
 1138SOL    HW114873   1.204   3.203   0.331 -0.9069 -0.0010  2.1310
 1138SOL    HW214874   1.195   3.057   0.306 -1.7190  1.2484  1.0326
 1139SOL     OW14875   0.017   2.458  17.322  0.4802 -0.5008  0.1160
 1139SOL    HW114876   0.043   2.436  17.412 -1.8559 -0.0250  0.9003
 1139SOL    HW214877   0.055   2.383  17.277  1.6257  0.9033 -1.2727
 1140SOL     OW14878   3.503   1.424  17.595  0.6818  0.7770  0.2171
 1140SOL    HW114879   3.435   1.373  17.639 -0.3394  1.0851 -0.9929
 1140SOL    HW214880   3.515   1.492  17.661 -3.6010  0.3030  1.4919
 1141SOL     OW14881   2.959   2.162   8.193 -0.5492 -0.1244 -0.4837
 1141SOL    HW114882   3.013   2.086   8.215 -1.2617  0.2057  2.4565
 1141SOL    HW214883   2.877   2.119   8.168 -0.2777 -1.4439  0.8773
 1142SOL     OW14884   0.728   4.696   9.665 -0.4343 -0.1909  0.4645
 1142SOL    HW114885   0.712   0.057   9.703  1.0201  0.3082 -0.0601
 1142SOL    HW214886   0.765   4.716   9.579 -0.1063 -1.2719  0.3572
 1143SOL     OW14887   1.208   1.381   3.562  0.3687 -0.3552  0.6949
 1143SOL    HW114888   1.130   1.326   3.568  0.0593  0.0242  0.1941
 1143SOL    HW214889   1.199   1.419   3.475 -1.8015 -1.5353  0.4046
 1144SOL     OW14890   0.172   2.090   2.147 -0.2044  0.2961  0.4880
 1144SOL    HW114891   0.087   2.134   2.143  1.3351  3.0821 -1.7371
 1144SOL    HW214892   0.215   2.121   2.227  2.1454 -1.0690 -0.2391
 1145SOL     OW14893   3.431   4.001   3.106  0.2203  0.1692 -0.2129
 1145SOL    HW114894   3.339   3.976   3.113  0.0752  0.4852 -0.9725
 1145SOL    HW214895   3.479   3.920   3.094 -1.1423 -0.6764  0.0980
 1146SOL     OW14896   0.381   3.909   7.499  0.0986 -0.1632  0.3973
 1146SOL    HW114897   0.406   3.866   7.416  0.4156  0.2019  0.3065
 1146SOL    HW214898   0.467   3.928   7.537 -0.2553  1.7352  0.2029
 1147SOL     OW14899   2.959   2.965   5.637 -0.8598 -0.1538  0.3534
 1147SOL    HW114900   2.937   3.040   5.691  0.2883  1.0505 -0.8436
 1147SOL    HW214901   2.940   2.894   5.698 -2.2892 -1.4527 -1.5942
 1148SOL     OW14902   4.158   3.050   6.823  0.2477 -0.1775 -0.2980
 1148SOL    HW114903   4.204   3.107   6.762  0.2090 -0.5105 -0.6390
 1148SOL    HW214904   4.064   3.063   6.807  0.2396 -0.3482 -0.3889
 1149SOL     OW14905   1.780   1.309   0.673 -0.0149 -0.0423  0.1724
 1149SOL    HW114906   1.725   1.231   0.684 -0.1568  0.1818  1.0011
 1149SOL    HW214907   1.859   1.268   0.638 -1.7435 -1.7572 -1.7627
 1150SOL     OW14908   2.514   4.135  14.740 -0.0393 -0.0286  0.3224
 1150SOL    HW114909   2.451   4.078  14.696 -1.2928 -0.1505  2.2892
 1150SOL    HW214910   2.587   4.102  14.688 -1.6087 -1.1231 -1.1840
 1151SOL     OW14911   1.925   2.881   7.770  0.0881 -0.6655  0.3643
 1151SOL    HW114912   1.878   2.942   7.827 -0.0497  0.6677 -1.1600
 1151SOL    HW214913   1.852   2.824   7.744  1.9608 -2.8161 -0.1680
 1152SOL     OW14914   1.029   0.226   9.281  0.6287 -0.5590  0.1139
 1152SOL    HW114915   1.114   0.255   9.315  1.3613 -2.2086 -0.2840
 1152SOL    HW214916   0.963   0.288   9.311  1.1461 -0.5719  1.2582
 1153SOL     OW14917   4.359   3.190   6.059 -0.0703 -0.1960 -0.6431
 1153SOL    HW114918   4.434   3.149   6.015  0.1659 -0.5433  0.0960
 1153SOL    HW214919   4.390   3.280   6.051  2.1964 -0.7122  2.5524
 1154SOL     OW14920   3.252   0.690   0.823  0.4687  0.1067  0.1998
 1154SOL    HW114921   3.270   0.782   0.805 -0.6675  0.1913 -0.4885
 1154SOL    HW214922   3.278   0.652   0.739 -1.8711 -0.5725 -0.2144
 1155SOL     OW14923   1.523   1.109  10.142 -0.4722 -0.6091 -0.1338
 1155SOL    HW114924   1.505   1.202  10.154  0.0230 -0.5348  0.0106
 1155SOL    HW214925   1.610   1.102  10.104 -0.1575 -1.8903  0.8226
 1156SOL     OW14926   0.863   4.080  16.001 -0.3345  0.1321  0.6851
 1156SOL    HW114927   0.784   4.049  15.957  0.7981 -0.6065 -0.8346
 1156SOL    HW214928   0.920   4.005  16.015  0.2037  0.5946  0.9605
 1157SOL     OW14929   3.559   4.373   4.036  0.2107 -0.1004  0.1945
 1157SOL    HW114930   3.515   4.314   4.098 -0.4361 -0.6646 -0.8039
 1157SOL    HW214931   3.568   4.450   4.092  1.4740 -1.0770  1.3410
 1158SOL     OW14932   2.634   3.644   2.341  0.4571 -0.4113 -0.1727
 1158SOL    HW114933   2.558   3.624   2.287  0.1537 -3.0044  1.1669
 1158SOL    HW214934   2.588   3.671   2.420  1.6939 -1.2323  0.8305
 1159SOL     OW14935   1.503   3.219   8.685  0.5915 -0.3886  0.1892
 1159SOL    HW114936   1.466   3.307   8.680  2.4322  0.5610  3.1993
 1159SOL    HW214937   1.596   3.238   8.679  1.0962 -2.4662  1.6373
 1160SOL     OW14938   0.706   2.613  17.563  0.0572  0.0594 -0.0107
 1160SOL    HW114939   0.676   2.616  17.654 -0.9502  0.4846 -0.3612
 1160SOL    HW214940   0.765   2.689  17.563 -0.3956  0.4106  3.9247
 1161SOL     OW14941   3.853   3.910   4.339 -0.2098  0.2344  0.0771
 1161SOL    HW114942   3.878   3.835   4.392  1.9467  0.2746 -0.8897
 1161SOL    HW214943   3.828   3.971   4.409  0.8643  1.8690 -0.9644
 1162SOL     OW14944   0.193   2.938   4.357  0.4658 -0.2468  0.7676
 1162SOL    HW114945   0.173   2.854   4.315  0.5073  0.6213 -1.0099
 1162SOL    HW214946   0.156   2.938   4.445  1.2835  0.8519  1.1146
 1163SOL     OW14947   2.578   1.766   0.608  0.2511 -0.4141 -0.2712
 1163SOL    HW114948   2.544   1.844   0.652  0.3488  0.4932 -1.8072
 1163SOL    HW214949   2.517   1.696   0.629 -2.3792  1.2443 -2.3295
 1164SOL     OW14950   3.676   0.052   1.788  0.2240  0.0189  0.0927
 1164SOL    HW114951   3.737   0.125   1.794  0.5729 -0.3538  1.2106
 1164SOL    HW214952   3.607   0.095   1.838  0.6485  1.4742 -0.5670
 1165SOL     OW14953   1.665   0.195   7.066  0.4417 -0.2184  0.0885
 1165SOL    HW114954   1.710   0.111   7.057 -0.6890 -0.9202  1.0313
 1165SOL    HW214955   1.591   0.176   7.123 -0.3935 -2.0696 -1.6608
 1166SOL     OW14956   3.626   1.192   4.501  0.0041 -0.2287 -0.5147
 1166SOL    HW114957   3.712   1.202   4.459  0.8988 -3.5677  0.4661
 1166SOL    HW214958   3.576   1.229   4.429  0.4064  0.7972 -0.2605
 1167SOL     OW14959   4.486   3.045   6.926  0.2008  0.4798 -0.1664
 1167SOL    HW114960   4.393   3.031   6.944  0.9987 -1.3862  2.4060
 1167SOL    HW214961   4.497   3.140   6.930 -0.7289  0.5831 -0.0595
 1168SOL     OW14962   2.573   4.094   8.454  0.0183 -0.9121 -0.3427
 1168SOL    HW114963   2.518   4.168   8.430  0.0999 -1.3228 -1.7886
 1168SOL    HW214964   2.645   4.103   8.392 -1.3707  1.4030 -1.6179
 1169SOL     OW14965   3.518   1.840  12.177  0.5384  0.5979  0.3506
 1169SOL    HW114966   3.477   1.910  12.229 -2.4918 -1.4543  0.7635
 1169SOL    HW214967   3.509   1.768  12.239 -1.2437  2.2464  2.0180
 1170SOL     OW14968   3.678   1.903   5.588 -0.0820  0.0286  0.1649
 1170SOL    HW114969   3.656   1.922   5.496 -0.0908 -1.5086 -0.1396
 1170SOL    HW214970   3.649   1.980   5.637 -1.7952 -0.5686  0.1045
 1171SOL     OW14971   4.370   2.314  15.130 -0.0233  0.5738  0.0409
 1171SOL    HW114972   4.353   2.238  15.074 -1.1383  1.1519 -0.3952
 1171SOL    HW214973   4.378   2.384  15.066 -1.0961  0.9594  0.3392
 1172SOL     OW14974   1.339   4.437  16.959 -0.1644  0.2902  0.1518
 1172SOL    HW114975   1.426   4.463  16.987  0.6698 -0.2987 -1.8770
 1172SOL    HW214976   1.355   4.345  16.980  2.2275  1.5877  3.9417
 1173SOL     OW14977   4.508   0.088   8.538 -0.2980  0.3312 -0.0258
 1173SOL    HW114978   4.491   0.013   8.595  0.9464  0.3908  0.4418
 1173SOL    HW214979   4.439   0.151   8.555 -0.0809  0.7265 -0.6342
 1174SOL     OW14980   2.978   2.719   2.940  0.2119 -0.2087  0.2954
 1174SOL    HW114981   2.942   2.754   2.859  1.4431  0.0439 -0.1545
 1174SOL    HW214982   3.011   2.634   2.912 -2.2901 -0.9234 -0.4262
 1175SOL     OW14983   2.058   2.024   5.005  0.1328 -0.2132  0.0823
 1175SOL    HW114984   2.063   1.935   5.039  0.7354 -0.3032 -0.2331
 1175SOL    HW214985   2.146   2.039   4.969 -0.7121  0.9950 -1.4667
 1176SOL     OW14986   3.937   1.648   2.744  0.1657 -0.2204 -0.2741
 1176SOL    HW114987   3.953   1.712   2.675 -0.3308 -0.4066 -0.5645
 1176SOL    HW214988   3.897   1.583   2.686 -0.5835  1.6454 -1.8557
 1177SOL     OW14989   2.655   3.617   6.900  0.1430  0.1967  0.5163
 1177SOL    HW114990   2.680   3.670   6.825  0.1581  0.2918  0.5897
 1177SOL    HW214991   2.574   3.665   6.914  0.3826  0.5098  0.8306
 1178SOL     OW14992   0.778   0.042   8.649 -0.2257 -0.2798  0.7516
 1178SOL    HW114993   0.776   0.130   8.687  0.0558  1.1629 -2.4839
 1178SOL    HW214994   0.697   0.005   8.684 -0.6762  0.0633  0.0675
 1179SOL     OW14995   3.380   0.453   1.944  0.1256  0.5243  0.6851
 1179SOL    HW114996   3.361   0.524   2.005 -0.2762 -0.7449  2.0381
 1179SOL    HW214997   3.443   0.497   1.888 -0.4807  0.6154  0.0683
 1180SOL     OW14998   3.455   2.818   7.480 -0.0115  0.4532 -0.6697
 1180SOL    HW114999   3.394   2.762   7.528 -1.3886  2.7460  0.2150
 1180SOL    HW215000   3.545   2.798   7.507  0.9767  1.9731 -2.8668
 1181SOL     OW15001   0.072   4.196   7.997  0.5548  0.1064  0.4676
 1181SOL    HW115002   0.026   4.112   8.000  1.7402 -0.5323  1.0725
 1181SOL    HW215003   0.138   4.175   7.931  0.3648 -2.4571  1.0795
 1182SOL     OW15004   3.607   1.146  11.294  0.0596  0.4735 -0.0159
 1182SOL    HW115005   3.545   1.190  11.236 -0.2814  2.6125  1.9820
 1182SOL    HW215006   3.548   1.075  11.320 -0.2517  0.5605 -0.4837
 1183SOL     OW15007   2.361   3.965   5.890 -0.1404 -0.1922 -0.3867
 1183SOL    HW115008   2.438   3.950   5.836 -1.0463 -0.8998 -1.4711
 1183SOL    HW215009   2.336   3.873   5.899  1.2756 -0.4322  1.0857
 1184SOL     OW15010   0.612   3.365   6.122  0.2025  0.6413 -0.5394
 1184SOL    HW115011   0.653   3.380   6.207 -0.8753 -0.6570  0.1957
 1184SOL    HW215012   0.563   3.444   6.097 -0.9365  0.0808 -0.0473
 1185SOL     OW15013   0.415   2.316   1.619  0.1471 -0.8382 -0.4748
 1185SOL    HW115014   0.498   2.339   1.662 -0.8477 -0.8523  1.4475
 1185SOL    HW215015   0.383   2.398   1.581  1.4902 -0.3245 -0.4963
 1186SOL     OW15016   1.766   4.526   6.118 -0.4829  0.0499  0.2976
 1186SOL    HW115017   1.764   4.618   6.143  2.1579  0.0841  0.3738
 1186SOL    HW215018   1.848   4.492   6.156 -0.3896 -0.4190 -0.3091
 1187SOL     OW15019   0.851   3.179  13.936  0.5260  0.1275 -0.3482
 1187SOL    HW115020   0.789   3.187  14.009  1.6007 -0.6435  0.6455
 1187SOL    HW215021   0.853   3.085  13.921 -2.1566  0.2823 -1.7814
 1188SOL     OW15022   4.565   4.076   9.818 -0.4709  0.6367 -0.7115
 1188SOL    HW115023   4.642   4.131   9.801  0.4316  0.6186  3.2915
 1188SOL    HW215024   4.594   4.002   9.764  1.2401  0.9617 -0.2558
 1189SOL     OW15025   3.928   3.204   4.882 -0.0707 -0.5919 -0.1398
 1189SOL    HW115026   3.860   3.252   4.833  0.5104 -0.7417 -1.0928
 1189SOL    HW215027   3.917   3.250   4.965  2.6977  0.4986 -0.3868
 1190SOL     OW15028   1.157   0.808   7.249  0.1237  0.6750  0.0352
 1190SOL    HW115029   1.182   0.892   7.289  3.0740 -0.0472 -0.3397
 1190SOL    HW215030   1.219   0.797   7.177  0.9307  0.2991  0.7796
 1191SOL     OW15031   0.980   2.046   3.642 -0.5699  0.0356  0.0597
 1191SOL    HW115032   0.967   1.996   3.562 -2.6172 -2.8059  2.1292
 1191SOL    HW215033   1.063   2.015   3.677  1.0128  1.7475 -2.2597
 1192SOL     OW15034   1.319   0.939   0.565 -0.1378  0.4634 -0.4912
 1192SOL    HW115035   1.271   0.955   0.484 -1.2452 -0.7693 -0.0810
 1192SOL    HW215036   1.283   1.010   0.618 -0.0521  0.0747  0.0831
 1193SOL     OW15037   0.063   2.162   7.465 -0.5057  0.1307  0.2843
 1193SOL    HW115038   0.105   2.231   7.415 -2.6858  1.8418  0.8198
 1193SOL    HW215039   0.010   2.215   7.525 -2.1526  0.6522 -1.6298
 1194SOL     OW15040   4.658   1.832  11.445 -0.2638 -0.0696  0.3357
 1194SOL    HW115041   4.606   1.751  11.447 -0.4123 -0.0372 -2.8662
 1194SOL    HW215042   4.612   1.883  11.511 -0.8141 -0.1171 -0.0049
 1195SOL     OW15043   1.908   3.956   0.888  0.1682 -0.5331  0.1954
 1195SOL    HW115044   1.854   4.034   0.875  2.2930  0.7280 -1.1207
 1195SOL    HW215045   1.954   3.964   0.804  2.0823  2.5878  1.5143
 1196SOL     OW15046   0.091   2.051   8.062 -0.4773 -0.1602  0.1346
 1196SOL    HW115047   0.171   2.084   8.103  0.3515  0.8876 -2.2985
 1196SOL    HW215048   0.030   2.063   8.135 -0.9936  1.8708 -0.6137
 1197SOL     OW15049   4.545   2.913  13.511  0.0968 -0.7509  0.8480
 1197SOL    HW115050   4.586   2.845  13.564  2.7919  0.6042  0.5158
 1197SOL    HW215051   4.528   2.860  13.434  0.4131  1.5973 -0.8371
 1198SOL     OW15052   0.294   1.035   2.463  0.4573 -0.1009  0.5861
 1198SOL    HW115053   0.233   1.108   2.448  2.8143  1.4514 -1.3721
 1198SOL    HW215054   0.242   0.972   2.512 -2.9224  1.0406 -1.5135
 1199SOL     OW15055   0.254   1.511  14.468  0.2576 -0.2161 -0.0011
 1199SOL    HW115056   0.302   1.480  14.545 -1.8417  0.2425  1.5001
 1199SOL    HW215057   0.266   1.442  14.403 -0.7101  0.1438 -0.5620
 1200SOL     OW15058   1.182   4.677   6.620  0.2942  0.0624  0.6468
 1200SOL    HW115059   1.222   0.020   6.566  2.0351 -1.1288  0.4270
 1200SOL    HW215060   1.204   4.714   6.705 -0.7046  1.0602  0.4806
 1201SOL     OW15061   0.490   4.678   4.296 -0.1687 -0.3134  0.0572
 1201SOL    HW115062   0.404   4.675   4.255  0.0194 -0.1585 -0.3501
 1201SOL    HW215063   0.460   4.675   4.387  2.2105 -0.0237  0.8430
 1202SOL     OW15064   2.509   0.089  14.530  0.4279 -0.7943 -0.7830
 1202SOL    HW115065   2.527   0.006  14.487 -1.5528 -2.1796  1.0962
 1202SOL    HW215066   2.563   0.076  14.608 -1.2887  0.3956  0.6127
 1203SOL     OW15067   4.349   2.762   7.338  0.3504  0.1185  0.1487
 1203SOL    HW115068   4.371   2.688   7.395  0.5094 -0.1078 -0.2136
 1203SOL    HW215069   4.434   2.798   7.316  0.4177  0.4173  0.8793
 1204SOL     OW15070   3.228   1.737   2.838 -0.1224  0.0059  0.3295
 1204SOL    HW115071   3.283   1.800   2.790 -0.2022  0.4400  0.8058
 1204SOL    HW215072   3.204   1.672   2.772  2.1311  1.7864 -2.2419
 1205SOL     OW15073   3.056   3.211  17.413 -0.0949  0.5037 -0.3324
 1205SOL    HW115074   3.108   3.223  17.492 -0.5929  1.5332 -0.1592
 1205SOL    HW215075   3.035   3.118  17.425 -0.0516  0.6800  1.0825
 1206SOL     OW15076   2.156   1.128  10.722  0.1967 -0.8717 -0.0275
 1206SOL    HW115077   2.159   1.193  10.651  0.5166  0.4687  1.2008
 1206SOL    HW215078   2.192   1.183  10.791 -1.3850  0.2294 -0.0635
 1207SOL     OW15079   3.867   2.265   2.221 -0.3260  0.1885 -0.3437
 1207SOL    HW115080   3.913   2.182   2.219  1.1154  1.0312 -2.5336
 1207SOL    HW215081   3.820   2.269   2.137 -0.7851  4.1773  0.0851
 1208SOL     OW15082   1.738   4.047   4.074  0.5072 -0.5899 -0.2754
 1208SOL    HW115083   1.742   3.973   4.014  1.4155  0.9492 -2.1185
 1208SOL    HW215084   1.768   4.114   4.012  2.9751 -2.9155 -1.5898
 1209SOL     OW15085   0.583   2.913   0.060  0.0562  0.5191  0.1619
 1209SOL    HW115086   0.598   3.006   0.042 -1.8180  1.0390  1.2863
 1209SOL    HW215087   0.662   2.883   0.014 -0.2047 -0.4654  0.3591
 1210SOL     OW15088   2.704   4.038   5.250 -0.2732  0.2562  0.0045
 1210SOL    HW115089   2.775   3.988   5.290 -0.4877 -0.4892 -0.5418
 1210SOL    HW215090   2.703   3.997   5.163 -0.3413 -2.4767  1.2781
 1211SOL     OW15091   2.304   1.358  14.667 -0.1846 -0.0632 -0.0316
 1211SOL    HW115092   2.272   1.448  14.666  1.9080  0.6493 -1.4431
 1211SOL    HW215093   2.256   1.333  14.588  0.9646 -1.5231 -0.2712
 1212SOL     OW15094   0.884   2.324   2.389 -0.2175  0.0031 -0.2108
 1212SOL    HW115095   0.855   2.282   2.308 -1.0470 -0.5426  0.3642
 1212SOL    HW215096   0.908   2.246   2.440 -3.0599  0.0448  1.2140
 1213SOL     OW15097   3.465   0.263   2.224 -0.0775  0.0184  0.1889
 1213SOL    HW115098   3.466   0.338   2.284 -0.5202  0.4667 -0.3560
 1213SOL    HW215099   3.444   0.190   2.281 -0.4759  0.1932  0.2697
 1214SOL     OW15100   0.899   2.243   6.020 -0.0630  1.0709 -0.1859
 1214SOL    HW115101   0.925   2.176   5.957 -1.7022 -0.5230  0.7992
 1214SOL    HW215102   0.880   2.186   6.095  0.5763  1.9367  0.6343
 1215SOL     OW15103   0.514   0.228   4.424 -0.1746  0.3464 -0.1743
 1215SOL    HW115104   0.489   0.310   4.381 -2.6922 -1.8571 -2.7894
 1215SOL    HW215105   0.525   0.172   4.347 -3.3321  0.3326 -0.6080
 1216SOL     OW15106   4.149   2.195   0.334 -0.8893  0.0963  0.1293
 1216SOL    HW115107   4.146   2.212   0.428  0.7088 -1.1775  0.4039
 1216SOL    HW215108   4.234   2.223   0.301  0.4419 -2.9954  0.9760
 1217SOL     OW15109   4.057   2.937   5.183  0.4127  0.2346 -0.2600
 1217SOL    HW115110   3.966   2.968   5.183  0.4394  0.3357 -1.2835
 1217SOL    HW215111   4.059   2.895   5.269 -0.8001 -1.9682 -1.3068
 1218SOL     OW15112   1.863   4.630   3.436  0.1328  0.0100 -0.0513
 1218SOL    HW115113   1.813   4.711   3.444 -0.9048 -0.3274 -3.0673
 1218SOL    HW215114   1.916   4.635   3.515  0.5454  3.2687 -0.5469
 1219SOL     OW15115   0.646   1.082   6.080  0.7208 -0.2068 -0.3055
 1219SOL    HW115116   0.655   1.032   5.999 -0.2157  1.0053 -1.1556
 1219SOL    HW215117   0.732   1.123   6.079  0.0103  1.2432 -1.6386
 1220SOL     OW15118   2.882   3.493   6.461 -0.6104  0.3139  0.0555
 1220SOL    HW115119   2.869   3.464   6.551  2.5046  0.6785  0.6120
 1220SOL    HW215120   2.951   3.559   6.467  0.4585 -0.7968 -0.1708
 1221SOL     OW15121   0.641   0.709   8.988  0.3830 -0.3498  0.5906
 1221SOL    HW115122   0.714   0.655   8.959  1.5412  2.1021 -1.0318
 1221SOL    HW215123   0.662   0.723   9.080 -0.4546  2.0491  0.4190
 1222SOL     OW15124   1.657   1.436  15.144 -0.0767  0.2932 -0.1153
 1222SOL    HW115125   1.593   1.406  15.079 -0.0013 -1.7694  0.7565
 1222SOL    HW215126   1.734   1.396  15.105  0.6056  2.8016 -1.3293
 1223SOL     OW15127   1.386   4.296   4.066 -0.3074 -0.1247 -0.4026
 1223SOL    HW115128   1.446   4.361   4.103  0.9401 -0.1920 -2.2821
 1223SOL    HW215129   1.428   4.220   4.106 -0.3893 -0.6726 -1.3634
 1224SOL     OW15130   2.175   1.760   1.764 -0.2686  0.4274  0.3915
 1224SOL    HW115131   2.188   1.702   1.839  3.2158 -2.9475 -2.8207
 1224SOL    HW215132   2.120   1.832   1.796  1.2756  2.3525 -1.2974
 1225SOL     OW15133   0.132   0.905   7.808 -0.4071  0.6903  0.8470
 1225SOL    HW115134   0.125   0.848   7.885 -3.3188  1.7184  1.3219
 1225SOL    HW215135   0.116   0.989   7.852  1.0567  1.6711 -0.4802
 1226SOL     OW15136   4.232   2.776   4.036  0.0543 -0.3397  0.5163
 1226SOL    HW115137   4.316   2.758   3.993  0.2140 -1.4406  1.2728
 1226SOL    HW215138   4.200   2.854   3.991 -0.0577  0.3572  1.8215
 1227SOL     OW15139   2.652   2.493   7.171  0.4664 -0.1211 -0.0913
 1227SOL    HW115140   2.572   2.506   7.221  0.6163  1.2614 -0.1997
 1227SOL    HW215141   2.707   2.567   7.198  0.0256  0.2280 -0.1514
 1228SOL     OW15142   2.967   3.031   7.993  0.1412 -0.3342 -0.0444
 1228SOL    HW115143   2.947   3.110   8.043  0.3366  0.3068 -0.9635
 1228SOL    HW215144   2.900   2.975   8.031 -0.2088 -1.3094 -2.0883
 1229SOL     OW15145   0.578   1.892   6.472 -0.1317 -0.2344  0.3142
 1229SOL    HW115146   0.511   1.934   6.418  0.2307 -0.4821 -0.3218
 1229SOL    HW215147   0.514   1.847   6.528 -1.6103 -0.6481 -1.6926
 1230SOL     OW15148   2.781   4.317   5.272 -0.0608 -0.0407  0.0038
 1230SOL    HW115149   2.785   4.233   5.318  0.3562  1.1233  2.1204
 1230SOL    HW215150   2.864   4.361   5.293  0.0171  0.4537 -1.3413
 1231SOL     OW15151   3.594   3.616  15.624  0.1157  0.6031 -0.1613
 1231SOL    HW115152   3.673   3.563  15.614 -0.9841 -0.7481 -1.6658
 1231SOL    HW215153   3.523   3.552  15.630  0.1666  0.5420 -0.2063
 1232SOL     OW15154   0.531   0.501   3.746 -0.1371 -0.2592 -0.0451
 1232SOL    HW115155   0.605   0.558   3.729 -1.0522  0.5307 -1.4207
 1232SOL    HW215156   0.548   0.438   3.676 -0.0781 -1.4785  1.0716
 1233SOL     OW15157   1.671   0.982   9.807 -0.3749 -0.3362 -0.0724
 1233SOL    HW115158   1.706   1.009   9.892 -0.2847 -0.8065  0.0409
 1233SOL    HW215159   1.601   1.047   9.803 -1.1473 -1.1222  0.6322
 1234SOL     OW15160   2.565   1.528   3.179  0.7933 -0.5835  0.2182
 1234SOL    HW115161   2.491   1.587   3.187  0.8689 -0.7894  2.4091
 1234SOL    HW215162   2.525   1.471   3.113 -1.5634  1.1504  0.1561
 1235SOL     OW15163   2.275   2.014  11.999 -0.0105 -0.3028 -0.3506
 1235SOL    HW115164   2.240   1.925  12.006 -0.2686 -0.1971 -0.3048
 1235SOL    HW215165   2.212   2.051  11.938 -1.1419 -0.6275  0.6086
 1236SOL     OW15166   0.774   1.711   2.093  0.0428 -0.5345  0.0584
 1236SOL    HW115167   0.728   1.785   2.133  0.5544 -0.3147  0.2377
 1236SOL    HW215168   0.863   1.747   2.093  0.8423 -2.4885  0.4431
 1237SOL     OW15169   3.661   0.816   5.148  0.2405  0.2568 -0.1322
 1237SOL    HW115170   3.716   0.892   5.167 -0.2349  0.6478 -0.3267
 1237SOL    HW215171   3.721   0.764   5.094  0.5889  0.3227  0.1909
 1238SOL     OW15172   4.429   0.658   8.972 -0.4846  0.5981 -0.4398
 1238SOL    HW115173   4.397   0.657   9.062  1.5023  0.8812  0.2881
 1238SOL    HW215174   4.522   0.669   8.991 -0.7759  1.4025  0.4672
 1239SOL     OW15175   3.205   4.300   4.981 -0.0352 -0.5990 -0.3243
 1239SOL    HW115176   3.119   4.263   5.001 -0.0617  0.4351  1.4380
 1239SOL    HW215177   3.181   4.373   4.923 -3.6342 -0.1353  1.7659
 1240SOL     OW15178   2.254   2.081   1.817  0.5990 -0.4529 -0.2187
 1240SOL    HW115179   2.286   2.161   1.775 -2.0070 -0.1321 -1.6053
 1240SOL    HW215180   2.333   2.035   1.845  0.0695 -1.5334 -0.5073
 1241SOL     OW15181   0.435   3.935   9.925  0.5909  0.0652  0.0848
 1241SOL    HW115182   0.463   3.887  10.003 -0.1079 -0.6696 -0.1176
 1241SOL    HW215183   0.369   3.873   9.894  0.6617  0.0694 -0.0768
 1242SOL     OW15184   2.437   0.785   5.842 -0.6735  0.0571  0.0274
 1242SOL    HW115185   2.451   0.767   5.935 -2.5217 -0.5812  0.1821
 1242SOL    HW215186   2.466   0.707   5.794  1.2614  0.2376  0.8862
 1243SOL     OW15187   4.348   0.176   5.207 -0.5156 -0.1857  0.0110
 1243SOL    HW115188   4.312   0.097   5.168 -1.1922 -0.0762  0.4292
 1243SOL    HW215189   4.366   0.223   5.125  0.9150 -0.6606  0.0424
 1244SOL     OW15190   2.262   2.384   6.406  0.0252  0.1919  0.0690
 1244SOL    HW115191   2.216   2.467   6.415 -1.8313 -0.9689  1.2973
 1244SOL    HW215192   2.262   2.357   6.498 -0.7647 -0.7443 -0.2040
 1245SOL     OW15193   3.390   2.005  13.214  0.1394 -0.1335 -0.2666
 1245SOL    HW115194   3.390   2.076  13.150  0.0769  0.5398  0.4810
 1245SOL    HW215195   3.484   2.001  13.235 -0.7965 -0.7225  3.7259
 1246SOL     OW15196   2.177   2.318   8.148  0.5690 -0.4116 -0.3275
 1246SOL    HW115197   2.242   2.296   8.215  0.7635 -0.9263 -0.6885
 1246SOL    HW215198   2.097   2.307   8.198  0.9187 -0.9177  0.1249
 1247SOL     OW15199   4.001   1.022  12.937 -0.1815 -0.4426 -0.1456
 1247SOL    HW115200   3.926   1.072  12.970  0.0157  0.2518 -0.7497
 1247SOL    HW215201   4.059   1.095  12.917 -0.7862 -0.0193 -0.3436
 1248SOL     OW15202   0.511   2.645   9.049 -0.4336  0.3959 -0.3108
 1248SOL    HW115203   0.525   2.633   8.955 -2.6130 -0.7428 -0.4910
 1248SOL    HW215204   0.421   2.615   9.057 -0.6537  1.7368  2.2867
 1249SOL     OW15205   3.233   4.523   8.741  0.2548 -0.6795  0.1018
 1249SOL    HW115206   3.310   4.468   8.749  2.0745  2.0281  1.1977
 1249SOL    HW215207   3.175   4.477   8.801  0.5356  1.1229  1.7399
 1250SOL     OW15208   0.919   0.015   6.747 -0.3883 -0.4667 -0.1131
 1250SOL    HW115209   0.997   4.712   6.699  2.0092  1.0674  2.8299
 1250SOL    HW215210   0.953   0.072   6.816 -2.0694 -1.4168  1.4947
 1251SOL     OW15211   4.230   1.273   3.471  0.1365  0.0266 -0.3094
 1251SOL    HW115212   4.221   1.369   3.469  1.9729  0.1887 -0.8929
 1251SOL    HW215213   4.186   1.258   3.555  0.4076  0.4513 -0.0941
 1252SOL     OW15214   2.684   1.801   8.288  0.1700 -0.1637  0.5969
 1252SOL    HW115215   2.596   1.824   8.258 -0.5563 -1.5619  1.7236
 1252SOL    HW215216   2.731   1.778   8.208 -1.8644  0.4655 -0.7921
 1253SOL     OW15217   3.330   3.589   4.644 -0.3417  0.3205  0.2140
 1253SOL    HW115218   3.341   3.683   4.629  0.7818 -0.0748 -1.3840
 1253SOL    HW215219   3.319   3.555   4.555  1.4484  0.4313 -0.0485
 1254SOL     OW15220   0.103   1.551  16.429  0.0528  0.4572  0.2045
 1254SOL    HW115221   0.052   1.613  16.377  0.5257  0.2097 -0.5492
 1254SOL    HW215222   0.169   1.613  16.459 -0.4893  0.7237  0.8530
 1255SOL     OW15223   1.881   1.847   1.928 -0.1776  0.2515  0.3792
 1255SOL    HW115224   1.873   1.894   2.011 -0.7494  1.2747 -0.2585
 1255SOL    HW215225   1.879   1.919   1.865 -2.3857  2.5209  3.0402
 1256SOL     OW15226   1.568   4.444  15.795  0.5369  0.1855  0.3495
 1256SOL    HW115227   1.517   4.364  15.804  0.5369  0.3230  1.5206
 1256SOL    HW215228   1.523   4.501  15.857  1.4043  3.1949 -1.7161
 1257SOL     OW15229   4.717   1.513   6.941 -0.2218  0.1324  0.0883
 1257SOL    HW115230   0.064   1.550   6.992  2.0102 -0.6901 -2.4788
 1257SOL    HW215231   4.675   1.474   7.018 -0.4715 -0.5397 -0.3886
 1258SOL     OW15232   4.221   1.509   1.563  0.0118  0.4688  0.4006
 1258SOL    HW115233   4.283   1.498   1.635 -0.5840  0.7372  0.9551
 1258SOL    HW215234   4.273   1.547   1.493 -0.8132 -1.3165 -1.1714
 1259SOL     OW15235   1.839   4.259   2.414 -0.0911 -0.5069  0.0707
 1259SOL    HW115236   1.775   4.327   2.435  1.0520  0.7807 -0.6547
 1259SOL    HW215237   1.808   4.182   2.463 -0.3031 -0.1927  0.4365
 1260SOL     OW15238   3.899   4.085   6.941  0.0306  0.2031  0.5790
 1260SOL    HW115239   3.957   4.025   6.987  0.2756 -1.1344 -1.4825
 1260SOL    HW215240   3.926   4.067   6.851  0.7444 -0.0113  0.8374
 1261SOL     OW15241   1.393   3.047  14.247  0.0543  0.8471  0.2230
 1261SOL    HW115242   1.451   2.971  14.244 -0.9767  0.1347 -1.6668
 1261SOL    HW215243   1.307   3.007  14.259  0.2906 -0.3479 -2.1398
 1262SOL     OW15244   0.771   2.032   6.556 -0.3390  0.2968 -0.0319
 1262SOL    HW115245   0.701   1.968   6.543  0.2535 -0.1580 -1.0215
 1262SOL    HW215246   0.844   1.988   6.512 -1.0057 -0.7297 -0.1233
 1263SOL     OW15247   0.502   2.775  14.530 -0.3003 -0.1239 -0.5274
 1263SOL    HW115248   0.469   2.775  14.620 -2.2939 -2.1162 -1.2522
 1263SOL    HW215249   0.558   2.698  14.524  1.3166  0.9362  0.9870
 1264SOL     OW15250   0.783   1.629   0.158 -0.3189 -0.2649  0.1877
 1264SOL    HW115251   0.759   1.571   0.086  0.1703  0.1629 -0.3121
 1264SOL    HW215252   0.794   1.715   0.119  1.1662  0.0928  1.3703
 1265SOL     OW15253   2.154   1.226   3.390  0.2748  0.1067 -0.1024
 1265SOL    HW115254   2.113   1.139   3.387 -0.6293  0.4349  2.8662
 1265SOL    HW215255   2.084   1.279   3.427  0.6667  0.6711 -0.1799
 1266SOL     OW15256   3.244   2.508   8.879 -0.1316  0.0178  0.0315
 1266SOL    HW115257   3.294   2.532   8.802 -0.3979  0.9200  0.1429
 1266SOL    HW215258   3.213   2.419   8.861  0.2594  0.5953 -3.3765
 1267SOL     OW15259   1.678   0.338   2.910 -0.0873  0.1159 -0.2561
 1267SOL    HW115260   1.583   0.351   2.911 -0.2544 -1.0107 -0.9961
 1267SOL    HW215261   1.701   0.354   2.819 -0.2927  0.9602 -0.1571
 1268SOL     OW15262   2.473   0.655   6.135  0.2000 -0.0379 -0.0426
 1268SOL    HW115263   2.485   0.687   6.224 -1.8944 -0.3854  0.3664
 1268SOL    HW215264   2.442   0.565   6.150  3.3251 -1.2857 -1.0203
 1269SOL     OW15265   1.856   3.599   4.496 -0.2369 -0.6281  0.5293
 1269SOL    HW115266   1.905   3.682   4.493  1.4151 -1.6623 -0.6474
 1269SOL    HW215267   1.927   3.543   4.466  0.0925 -0.3833  0.8461
 1270SOL     OW15268   2.137   2.068  11.698  0.0257  0.4661  0.5299
 1270SOL    HW115269   2.225   2.030  11.698  0.0708  0.5796 -2.0693
 1270SOL    HW215270   2.097   1.998  11.646  1.5382 -0.0902  0.1043
 1271SOL     OW15271   0.101   1.339   5.217  0.1192 -0.3362  0.2122
 1271SOL    HW115272   0.166   1.300   5.158 -0.9639 -0.2361 -1.0363
 1271SOL    HW215273   0.148   1.418   5.241  1.9535 -0.9554 -1.3590
 1272SOL     OW15274   3.270   1.933   1.941 -0.0956  0.3935  0.0374
 1272SOL    HW115275   3.335   1.913   1.875 -0.2423 -0.3839  0.1267
 1272SOL    HW215276   3.311   1.989   2.007 -0.7028 -1.4924  2.0354
 1273SOL     OW15277   1.764   1.364   8.403 -0.1794  0.0281 -0.2187
 1273SOL    HW115278   1.815   1.388   8.481 -0.5922 -1.3388  0.4648
 1273SOL    HW215279   1.681   1.409   8.416  0.8529  1.7627  0.5114
 1274SOL     OW15280   0.088   3.239  10.922  0.3958  0.0686 -0.7229
 1274SOL    HW115281   0.064   3.155  10.882  0.1186  0.3554 -1.1574
 1274SOL    HW215282   0.082   3.227  11.016 -0.3090 -2.4196 -1.0860
 1275SOL     OW15283   0.942   2.414   8.411 -0.2520 -0.6905 -0.2254
 1275SOL    HW115284   0.902   2.390   8.495 -0.9362 -0.4265 -0.4772
 1275SOL    HW215285   0.992   2.334   8.398  1.2126  0.1580  0.1388
 1276SOL     OW15286   1.071   2.438  16.146  0.0936 -0.1688 -0.4875
 1276SOL    HW115287   1.085   2.471  16.234 -1.0986 -2.2574  0.4916
 1276SOL    HW215288   1.123   2.358  16.156 -1.1904 -0.7632  1.3858
 1277SOL     OW15289   1.439   1.490   8.056  0.1640 -0.6396 -0.1415
 1277SOL    HW115290   1.371   1.473   8.122 -0.1649  0.4134 -0.2027
 1277SOL    HW215291   1.455   1.578   8.089  1.0355 -0.3728 -1.3040
 1278SOL     OW15292   4.332   4.098   2.681 -0.2088 -0.1427 -0.1191
 1278SOL    HW115293   4.292   4.182   2.705  2.4229  1.3775 -1.1111
 1278SOL    HW215294   4.322   4.106   2.586 -2.0306  1.7967  0.2211
 1279SOL     OW15295   3.854   3.191   6.071 -0.4122 -0.4956 -0.4412
 1279SOL    HW115296   3.790   3.251   6.109  1.3757  1.7885 -1.0437
 1279SOL    HW215297   3.893   3.155   6.151 -0.4888 -0.2986 -0.3149
 1280SOL     OW15298   0.446   2.070   6.667 -0.2929  0.0549  0.2852
 1280SOL    HW115299   0.497   1.992   6.692  1.5310  0.8227 -1.0163
 1280SOL    HW215300   0.449   2.057   6.572 -0.7099  2.4951 -0.0606
 1281SOL     OW15301   4.583   3.006  16.529 -0.5884  0.0120  0.2817
 1281SOL    HW115302   4.674   2.977  16.531 -1.1817 -1.8700  0.7969
 1281SOL    HW215303   4.572   2.998  16.623  1.0376  0.5909  0.5258
 1282SOL     OW15304   2.993   1.401   5.386  0.5540 -0.0010 -0.3331
 1282SOL    HW115305   2.914   1.453   5.374  0.9507  0.3170 -1.6683
 1282SOL    HW215306   2.964   1.343   5.456  1.1308 -0.9951 -0.8983
 1283SOL     OW15307   0.951   1.867  16.119 -0.0297  0.1815 -0.1712
 1283SOL    HW115308   0.893   1.878  16.044 -2.3463 -0.7548  1.4540
 1283SOL    HW215309   0.933   1.949  16.165 -1.6607 -0.5950  0.5832
 1284SOL     OW15310   1.007   0.875   1.906  0.4610  0.0712  0.2693
 1284SOL    HW115311   1.002   0.964   1.871 -1.3197 -0.2089 -0.1864
 1284SOL    HW215312   1.031   0.897   1.997 -1.1825  1.6290  0.3192
 1285SOL     OW15313   3.201   3.300   6.593  0.1968 -0.2852  0.3656
 1285SOL    HW115314   3.231   3.230   6.535  3.3255  0.6641  0.8644
 1285SOL    HW215315   3.127   3.244   6.619  0.1503 -0.9592 -1.2023
 1286SOL     OW15316   0.194   1.452   1.680  0.0475 -0.4696 -0.2112
 1286SOL    HW115317   0.216   1.529   1.626 -0.4302 -0.5128 -0.4703
 1286SOL    HW215318   0.112   1.481   1.720  0.3882 -0.6401  0.5953
 1287SOL     OW15319   0.361   0.614   9.180 -0.1316  0.3093  0.5875
 1287SOL    HW115320   0.393   0.703   9.198  1.3863 -0.3301  1.0199
 1287SOL    HW215321   0.284   0.604   9.236  1.0297 -1.4469  1.8866
 1288SOL     OW15322   2.734   3.645   5.075  0.2304  0.1498  0.3180
 1288SOL    HW115323   2.776   3.606   4.999 -0.1594 -0.3462  0.3555
 1288SOL    HW215324   2.771   3.733   5.077  1.1558 -0.2095 -0.9550
 1289SOL     OW15325   4.065   4.544   6.761  0.1806 -0.4438 -0.1132
 1289SOL    HW115326   3.982   4.510   6.793 -0.5570 -0.3435 -1.9200
 1289SOL    HW215327   4.109   4.464   6.734 -2.3275 -1.6390 -0.6421
 1290SOL     OW15328   3.819   3.224   7.267  0.0748 -0.2105  0.5620
 1290SOL    HW115329   3.766   3.189   7.339 -0.4602 -0.3460  0.1067
 1290SOL    HW215330   3.831   3.312   7.300  1.6090  0.1040 -0.8581
 1291SOL     OW15331   2.324   0.686   5.533  0.1685  0.3688 -0.0954
 1291SOL    HW115332   2.270   0.616   5.568  1.9380 -0.7589  0.3623
 1291SOL    HW215333   2.328   0.738   5.613 -1.0531 -1.6307  1.2513
 1292SOL     OW15334   4.666   3.280   3.528  0.3987  0.0232  0.1246
 1292SOL    HW115335   4.575   3.251   3.521  1.4194 -2.3139 -3.3026
 1292SOL    HW215336   4.683   3.311   3.440  1.3935 -0.9362 -0.0269
 1293SOL     OW15337   0.622   0.208  15.203  0.3213  0.2853  0.0658
 1293SOL    HW115338   0.537   0.199  15.161 -0.6706 -1.0715  2.3754
 1293SOL    HW215339   0.666   0.268  15.143 -1.5644  1.7388  0.1365
 1294SOL     OW15340   4.719   3.170   2.599 -0.4209  0.0439 -0.1733
 1294SOL    HW115341   4.713   3.177   2.504 -0.6951  2.3110  0.0055
 1294SOL    HW215342   0.087   3.170   2.620 -0.5485  1.1685  0.4203
 1295SOL     OW15343   3.309   4.305   9.125  1.1308 -0.5635 -0.0195
 1295SOL    HW115344   3.384   4.325   9.181  0.6038  2.1902 -0.2563
 1295SOL    HW215345   3.355   4.252   9.060 -3.3310 -1.2403 -2.5672
 1296SOL     OW15346   0.811   2.387   4.021 -0.2189 -0.1725 -0.2316
 1296SOL    HW115347   0.770   2.341   3.948 -0.3069 -2.1499  1.0654
 1296SOL    HW215348   0.737   2.423   4.069  1.1750  0.7215  1.2889
 1297SOL     OW15349   0.391   4.099   1.476  0.1307 -0.3055  0.0533
 1297SOL    HW115350   0.399   4.194   1.476  0.2645 -0.3185 -1.5088
 1297SOL    HW215351   0.299   4.077   1.494  0.1091  0.4304  0.8264
 1298SOL     OW15352   2.358   3.997   6.736  0.9271  0.1931 -0.1878
 1298SOL    HW115353   2.372   4.088   6.707 -0.6139 -0.5322 -3.2211
 1298SOL    HW215354   2.399   3.997   6.822 -1.5024  0.6593  0.9661
 1299SOL     OW15355   4.045   4.220   4.240 -0.2809 -0.3768 -0.4162
 1299SOL    HW115356   4.068   4.250   4.152  0.8126 -0.0495 -0.0273
 1299SOL    HW215357   4.077   4.130   4.239 -1.1619 -0.7068  1.6208
 1300SOL     OW15358   4.454   2.801  12.042  0.0862  0.1395 -0.3491
 1300SOL    HW115359   4.470   2.769  12.130  2.1590 -1.2070 -1.2097
 1300SOL    HW215360   4.528   2.756  12.000 -1.0400 -1.1426 -0.9975
 1301SOL     OW15361   0.359   2.461   3.164  0.2994  0.0462 -0.2615
 1301SOL    HW115362   0.323   2.452   3.252 -1.8481 -1.6257 -1.3162
 1301SOL    HW215363   0.450   2.465   3.194 -0.2363 -1.5138  1.6088
 1302SOL     OW15364   2.965   3.595   5.547 -0.7192  0.4091 -0.0425
 1302SOL    HW115365   2.992   3.686   5.557 -0.4724  0.2836  0.3853
 1302SOL    HW215366   3.035   3.561   5.491 -1.5522  1.6306 -1.8425
 1303SOL     OW15367   0.972   0.796   2.558 -0.2774 -0.1684 -0.3760
 1303SOL    HW115368   0.967   0.701   2.569 -0.3640 -0.0422  0.7050
 1303SOL    HW215369   1.059   0.806   2.521 -0.1817  1.9908  0.4214
 1304SOL     OW15370   0.681   0.967   1.167  0.0647  0.4687 -0.2787
 1304SOL    HW115371   0.652   1.027   1.099  1.9434 -0.8035 -2.1784
 1304SOL    HW215372   0.617   0.971   1.238  0.9710  0.6300  0.5328
 1305SOL     OW15373   4.169   4.335   2.763 -0.1246 -0.7965  0.5434
 1305SOL    HW115374   4.084   4.309   2.797 -0.7335 -0.8859 -1.0796
 1305SOL    HW215375   4.189   4.418   2.807 -0.0598 -1.1001  1.0949
 1306SOL     OW15376   3.363   2.784  14.631 -0.1821 -0.8270  0.0944
 1306SOL    HW115377   3.360   2.869  14.676  0.5529 -0.0532 -1.3013
 1306SOL    HW215378   3.439   2.797  14.573  0.9141  0.0407  1.7154
 1307SOL     OW15379   0.015   4.211   8.283 -0.2543  0.3309 -0.6133
 1307SOL    HW115380   4.655   4.170   8.271 -0.9728  1.3511  0.9603
 1307SOL    HW215381   0.046   4.231   8.194 -0.4127 -2.3753 -1.2655
 1308SOL     OW15382   0.814   3.360   1.666  0.4630  0.1985 -0.5589
 1308SOL    HW115383   0.872   3.432   1.693 -1.3988  1.4171  0.1801
 1308SOL    HW215384   0.746   3.421   1.638 -1.3513 -1.5025  0.1957
 1309SOL     OW15385   3.146   3.052   6.049  0.2718 -0.0275  0.1808
 1309SOL    HW115386   3.126   2.962   6.076  0.0743  0.1449  0.5962
 1309SOL    HW215387   3.165   3.042   5.955  0.7622 -0.5408  0.3365
 1310SOL     OW15388   2.435   3.741   0.419  0.0026 -0.1148  0.0877
 1310SOL    HW115389   2.529   3.750   0.404 -0.2841  0.0995 -1.5427
 1310SOL    HW215390   2.433   3.692   0.502  1.6797 -0.9067 -0.3397
 1311SOL     OW15391   2.523   2.858   1.258  0.5932 -0.2225 -0.4369
 1311SOL    HW115392   2.467   2.912   1.202 -0.7236 -0.9704  0.1718
 1311SOL    HW215393   2.485   2.860   1.345 -1.5337  0.0628 -1.3877
 1312SOL     OW15394   0.704   3.931   2.424  0.2111 -0.5830 -0.1938
 1312SOL    HW115395   0.626   3.878   2.441 -0.0095 -0.3805 -0.5788
 1312SOL    HW215396   0.715   3.916   2.330  1.4737 -0.6100 -0.0473
 1313SOL     OW15397   1.576   3.869   7.412  0.3760 -0.0487 -0.3071
 1313SOL    HW115398   1.593   3.957   7.445 -1.5885  0.7541 -1.4152
 1313SOL    HW215399   1.490   3.872   7.370  0.1967 -1.6846 -0.0583
 1314SOL     OW15400   1.294   0.229  12.576 -0.4699  0.0445 -0.1157
 1314SOL    HW115401   1.245   0.188  12.647 -1.3226 -0.5362 -1.0223
 1314SOL    HW215402   1.373   0.257  12.621 -0.2906 -0.6931  0.0261
 1315SOL     OW15403   3.043   3.809   9.570  0.0249  0.2215  0.4127
 1315SOL    HW115404   3.117   3.784   9.625 -2.4780 -1.5189  3.0224
 1315SOL    HW215405   3.009   3.724   9.542  2.0904 -0.2508 -0.6271
 1316SOL     OW15406   2.741   3.419   4.730 -0.1233 -0.4629 -0.1395
 1316SOL    HW115407   2.822   3.395   4.775  0.4394 -0.9245 -1.3951
 1316SOL    HW215408   2.787   3.438   4.648 -2.2393 -1.6846 -1.5987
 1317SOL     OW15409   0.424   0.668   5.629 -0.4330  0.1039  0.3622
 1317SOL    HW115410   0.492   0.608   5.599 -0.6106  0.0624  0.0394
 1317SOL    HW215411   0.465   0.754   5.634 -1.2759  0.4832  0.7529
 1318SOL     OW15412   4.702   0.317  10.218  0.0974 -0.2485 -0.0666
 1318SOL    HW115413   0.015   0.399  10.251 -1.1026 -0.8309  2.7737
 1318SOL    HW215414   0.055   0.262  10.208 -0.8867 -2.3806  4.0376
 1319SOL     OW15415   4.211   3.202   5.648 -0.2446 -0.6899 -1.0787
 1319SOL    HW115416   4.147   3.134   5.668 -0.1451 -0.3943  0.2734
 1319SOL    HW215417   4.166   3.284   5.629 -0.3565 -0.3944  0.4547
 1320SOL     OW15418   0.561   1.524   2.080  0.0642  0.5468  0.1460
 1320SOL    HW115419   0.636   1.583   2.088 -0.9420  2.2252 -2.7560
 1320SOL    HW215420   0.497   1.568   2.025  2.7794  2.3130 -1.6255
 1321SOL     OW15421   2.736   1.684   4.562  0.0034  0.0417  0.1121
 1321SOL    HW115422   2.654   1.704   4.607 -0.3480  3.0609 -1.8282
 1321SOL    HW215423   2.692   1.656   4.482  1.0083 -2.6130  0.4780
 1322SOL     OW15424   3.138   2.386   2.415 -0.3072  0.0191 -0.3419
 1322SOL    HW115425   3.109   2.459   2.470  1.3474  2.1512 -2.3198
 1322SOL    HW215426   3.068   2.323   2.433 -0.7178 -0.1360 -2.5160
 1323SOL     OW15427   0.199   4.250  14.458  0.2295 -0.0825  0.7005
 1323SOL    HW115428   0.258   4.195  14.406 -2.0689 -0.3992 -1.5840
 1323SOL    HW215429   0.242   4.249  14.543 -0.0743  2.9372  0.8836
 1324SOL     OW15430   4.509   1.850   6.361  0.5636  0.4542 -0.0010
 1324SOL    HW115431   4.570   1.823   6.430 -1.1467 -0.3297  1.1973
 1324SOL    HW215432   4.428   1.800   6.376  1.1843 -0.9330 -1.2378
 1325SOL     OW15433   1.692   3.137  10.040 -0.4125  0.4568 -0.2980
 1325SOL    HW115434   1.773   3.139   9.989 -0.3726  0.6159 -0.2287
 1325SOL    HW215435   1.629   3.090   9.985  0.2459  0.0907 -0.7256
 1326SOL     OW15436   1.593   1.783   1.976 -0.2332  0.2203 -0.8253
 1326SOL    HW115437   1.684   1.754   1.980 -0.2780  0.1536 -0.2600
 1326SOL    HW215438   1.600   1.871   1.940 -1.7271  0.4555 -0.5693
 1327SOL     OW15439   2.237   3.737   2.182 -0.2286  0.7119 -0.4730
 1327SOL    HW115440   2.256   3.779   2.097  0.1083 -0.9408 -1.2200
 1327SOL    HW215441   2.142   3.727   2.181 -0.2475  0.8727  1.3561
 1328SOL     OW15442   2.207   3.557   6.954 -0.0474  0.2469  0.8375
 1328SOL    HW115443   2.238   3.593   6.871 -1.1460 -0.6084  0.0553
 1328SOL    HW215444   2.181   3.639   6.996 -3.0780  0.3457 -1.1937
 1329SOL     OW15445   1.003   3.513  10.215  0.1672  0.6371 -0.2539
 1329SOL    HW115446   1.089   3.539  10.248  0.4106 -0.3407 -0.1332
 1329SOL    HW215447   0.996   3.565  10.134 -1.8858 -1.6380 -1.5436
 1330SOL     OW15448   1.912   2.079  10.337 -0.2431 -0.2404  0.2369
 1330SOL    HW115449   1.834   2.070  10.391  0.0072  0.7201  0.7591
 1330SOL    HW215450   1.915   2.175  10.331  3.8171 -0.5278 -2.2448
 1331SOL     OW15451   3.507   1.208   4.991  0.0961  0.2688  0.5292
 1331SOL    HW115452   3.414   1.215   4.971  0.0220 -2.1548  0.0296
 1331SOL    HW215453   3.504   1.150   5.067  2.5745  0.0299  0.4458
 1332SOL     OW15454   3.607   2.844   5.158 -0.1024  0.0180 -0.0810
 1332SOL    HW115455   3.519   2.852   5.121 -0.3427 -3.9908 -0.2819
 1332SOL    HW215456   3.633   2.761   5.120 -0.2299  0.5694 -1.3632
 1333SOL     OW15457   2.969   2.630  14.456  0.1769 -0.0206 -0.3761
 1333SOL    HW115458   2.939   2.678  14.533  0.7594  1.3905 -1.0278
 1333SOL    HW215459   3.044   2.578  14.483  0.6363  0.5323 -0.5676
 1334SOL     OW15460   3.546   0.347   8.540 -0.2608  0.2994  0.2182
 1334SOL    HW115461   3.535   0.276   8.603 -0.0167  0.5423  0.5358
 1334SOL    HW215462   3.527   0.300   8.459 -0.6382 -0.8175  0.9561
 1335SOL     OW15463   0.580   2.141  17.487  0.8227 -0.4780  0.0826
 1335SOL    HW115464   0.548   2.128  17.576  0.3213  0.7409  0.0796
 1335SOL    HW215465   0.586   2.049  17.461 -0.7648 -0.0858 -1.7042
 1336SOL     OW15466   4.207   1.325  15.490 -0.1095  0.8872 -0.4626
 1336SOL    HW115467   4.302   1.337  15.485 -0.3195  2.0719 -1.3820
 1336SOL    HW215468   4.197   1.305  15.397  0.9712 -3.6116  0.3718
 1337SOL     OW15469   0.535   0.848   8.517  0.1012 -0.5378 -0.5074
 1337SOL    HW115470   0.503   0.828   8.604  0.4380  0.9706 -0.0385
 1337SOL    HW215471   0.465   0.903   8.481  0.7597  1.2149  0.9011
 1338SOL     OW15472   0.125   2.452   8.156 -0.5232  0.9679 -0.1511
 1338SOL    HW115473   0.210   2.421   8.127 -1.3820  0.4541 -2.1301
 1338SOL    HW215474   0.143   2.470   8.248 -0.3982  0.3468 -0.0583
 1339SOL     OW15475   2.388   4.399   6.716  0.2913 -0.0139 -0.7675
 1339SOL    HW115476   2.296   4.413   6.694 -0.0947  1.1002  1.4704
 1339SOL    HW215477   2.434   4.466   6.665 -1.1277  2.4479  1.1575
 1340SOL     OW15478   3.946   0.642   8.507 -0.2478 -0.1181 -0.4479
 1340SOL    HW115479   4.032   0.644   8.548 -0.3315 -0.6638 -0.2341
 1340SOL    HW215480   3.940   0.719   8.451  0.8952 -0.8072 -1.5336
 1341SOL     OW15481   4.470   3.362   8.411 -0.1841  0.3011 -0.3754
 1341SOL    HW115482   4.493   3.407   8.492 -0.4468  0.6920 -0.5168
 1341SOL    HW215483   4.456   3.279   8.457  0.8066  0.5505  0.3759
 1342SOL     OW15484   4.550   2.594  10.785 -0.0883 -0.0246  0.0095
 1342SOL    HW115485   4.569   2.684  10.759 -0.0443  0.2502  1.0007
 1342SOL    HW215486   4.636   2.559  10.806 -0.5986 -1.2215  0.1381
 1343SOL     OW15487   3.045   2.230   7.474 -0.5761  0.2258  0.1269
 1343SOL    HW115488   2.950   2.239   7.468 -0.5360  1.5866  1.5802
 1343SOL    HW215489   3.065   2.316   7.512  0.1705 -1.5020  3.7159
 1344SOL     OW15490   1.728   2.065   5.597 -0.1695  0.0311 -0.0017
 1344SOL    HW115491   1.727   1.989   5.655  1.0498  0.2768  0.3427
 1344SOL    HW215492   1.724   2.135   5.662  1.7459 -0.0882  0.2379
 1345SOL     OW15493   0.468   2.613   6.480 -0.0363 -0.1129 -0.2187
 1345SOL    HW115494   0.487   2.568   6.562  1.0928 -0.4242 -0.6395
 1345SOL    HW215495   0.538   2.677   6.487  0.0453 -0.2731  0.4519
 1346SOL     OW15496   4.105   2.555   3.749 -0.0969 -0.3087 -0.3389
 1346SOL    HW115497   4.102   2.467   3.712  0.3238 -1.7605  3.0019
 1346SOL    HW215498   4.180   2.535   3.806  1.2072  0.8306 -1.6547
 1347SOL     OW15499   3.943   3.695   9.269  0.1570  0.1274 -0.1846
 1347SOL    HW115500   3.941   3.729   9.179 -0.1289 -1.2025 -0.6683
 1347SOL    HW215501   3.852   3.713   9.289  0.6380  1.6671  0.6458
 1348SOL     OW15502   4.078   1.851   2.845  0.0582 -0.2660 -0.2932
 1348SOL    HW115503   4.129   1.826   2.923 -1.3487  1.2673  1.1092
 1348SOL    HW215504   4.023   1.776   2.821  2.1717 -2.5042  1.7961
 1349SOL     OW15505   2.845   0.802   2.430 -0.3032 -0.3675 -0.2605
 1349SOL    HW115506   2.873   0.824   2.341  1.7034 -1.2051  0.1672
 1349SOL    HW215507   2.754   0.782   2.406 -1.4792 -0.4707  4.1998
 1350SOL     OW15508   2.611   2.427   2.131 -0.0727  0.0125  0.0443
 1350SOL    HW115509   2.585   2.481   2.206 -0.2747 -1.3599  0.9769
 1350SOL    HW215510   2.572   2.343   2.155 -1.3793  0.7634  0.5814
 1351SOL     OW15511   4.126   0.347   7.885  0.9490 -0.2218  0.1274
 1351SOL    HW115512   4.115   0.440   7.904 -0.3897 -0.4196  0.3798
 1351SOL    HW215513   4.181   0.348   7.807  0.7436  0.6210 -0.0113
 1352SOL     OW15514   0.930   1.340   2.582  0.1747  0.4375 -0.0118
 1352SOL    HW115515   0.897   1.308   2.666 -2.7316 -0.1135 -1.3631
 1352SOL    HW215516   0.875   1.417   2.568 -1.7424 -1.3354 -2.0642
 1353SOL     OW15517   2.145   2.007  10.175  0.1066 -0.0228  0.1630
 1353SOL    HW115518   2.160   2.099  10.194  1.6015 -0.1100 -0.5865
 1353SOL    HW215519   2.067   1.990  10.227  0.5352  0.8281  1.0727
 1354SOL     OW15520   4.476   3.983   9.473 -0.7159 -0.0461 -0.1860
 1354SOL    HW115521   4.406   3.984   9.538 -0.3765 -0.7402  0.1926
 1354SOL    HW215522   4.511   4.071   9.470 -1.4783  0.4014  4.2594
 1355SOL     OW15523   2.747   1.648   3.018  0.0951  0.0046 -0.3130
 1355SOL    HW115524   2.777   1.724   3.068 -0.7952 -0.2984  0.6790
 1355SOL    HW215525   2.717   1.598   3.094 -3.1080  2.1707 -0.1497
 1356SOL     OW15526   2.873   1.953  16.175  0.1837  0.2186 -0.3922
 1356SOL    HW115527   2.854   1.874  16.225 -0.1651 -1.3822 -3.0653
 1356SOL    HW215528   2.957   1.933  16.134 -0.1410 -1.8213 -0.0810
 1357SOL     OW15529   0.114   1.465   9.198  0.1890 -0.4189 -0.2020
 1357SOL    HW115530   0.147   1.390   9.149 -0.2753 -0.9929  0.3688
 1357SOL    HW215531   0.043   1.481   9.135 -0.9060 -1.4118  0.7869
 1358SOL     OW15532   2.534   2.004   0.707  0.0260  0.1134 -0.0148
 1358SOL    HW115533   2.474   2.060   0.757 -1.2078 -1.6889  0.5028
 1358SOL    HW215534   2.626   2.025   0.721 -0.0141 -1.1336  2.0425
 1359SOL     OW15535   1.498   4.263   9.215 -0.5000 -0.0850  0.0799
 1359SOL    HW115536   1.488   4.248   9.309  0.1074 -0.2213  0.1241
 1359SOL    HW215537   1.573   4.322   9.215 -0.4618 -0.1320  0.4784
 1360SOL     OW15538   0.015   3.923   2.020 -0.6413  0.3820 -0.2859
 1360SOL    HW115539   0.093   3.904   2.072 -1.1446 -0.7274  0.0625
 1360SOL    HW215540   0.014   3.848   1.960 -0.5968 -1.2129  1.6988
 1361SOL     OW15541   4.291   1.221   5.343  0.1541 -0.3546  0.2537
 1361SOL    HW115542   4.257   1.304   5.311 -2.2590 -1.2936  0.4128
 1361SOL    HW215543   4.293   1.163   5.267  0.5154  1.0587 -0.8059
 1362SOL     OW15544   3.313   0.301   6.409  0.1409  0.1083  0.1498
 1362SOL    HW115545   3.263   0.268   6.483  0.0333  0.2559  0.1407
 1362SOL    HW215546   3.284   0.391   6.420  1.3123  0.5316 -0.1868
 1363SOL     OW15547   3.657   3.894   8.461  0.4988  0.5860  0.2352
 1363SOL    HW115548   3.641   3.976   8.507  0.9060  1.0140 -0.3888
 1363SOL    HW215549   3.753   3.893   8.464  0.4108 -0.2532  2.9382
 1364SOL     OW15550   0.195   3.463   3.734  0.8488  0.4542  0.5696
 1364SOL    HW115551   0.109   3.431   3.706  0.2296  2.0660  0.6358
 1364SOL    HW215552   0.248   3.387   3.710 -0.6009  0.1750 -1.7763
 1365SOL     OW15553   4.302   3.729   8.891 -0.3562  0.8463  0.0541
 1365SOL    HW115554   4.254   3.737   8.973 -0.3443  0.3585  0.1117
 1365SOL    HW215555   4.306   3.822   8.868 -0.5713  1.0149  0.7032
 1366SOL     OW15556   0.982   0.022   7.929  0.4165 -0.4446 -0.3465
 1366SOL    HW115557   1.003   0.025   7.835  2.0989 -2.3312 -0.0254
 1366SOL    HW215558   0.974   0.117   7.931 -0.6303 -0.5463  0.1709
 1367SOL     OW15559   0.652   1.329   7.853 -0.1388 -0.4795  0.3703
 1367SOL    HW115560   0.597   1.256   7.883  1.1269 -1.1832  0.9623
 1367SOL    HW215561   0.730   1.277   7.835 -0.0764 -1.2504  2.8892
 1368SOL     OW15562   2.834   0.885   6.890  0.4025  0.2681 -0.2141
 1368SOL    HW115563   2.867   0.813   6.836 -1.5052 -0.7984  0.0698
 1368SOL    HW215564   2.873   0.953   6.835  2.4940  0.6885  1.7946
 1369SOL     OW15565   1.199   2.158   3.049  0.1014 -0.2571 -0.3075
 1369SOL    HW115566   1.246   2.083   3.012 -2.0560 -2.9097  2.3172
 1369SOL    HW215567   1.253   2.186   3.123 -1.0612  0.5049  0.2467
 1370SOL     OW15568   2.037   4.433   2.357  0.2476  0.0067 -0.6019
 1370SOL    HW115569   1.995   4.516   2.380 -0.8135 -0.6964 -0.0512
 1370SOL    HW215570   1.967   4.368   2.357  2.9564 -2.9228  0.2231
 1371SOL     OW15571   0.163   3.495  13.678  0.0386  0.6365 -0.6313
 1371SOL    HW115572   0.141   3.587  13.694 -2.4455 -0.4013  1.9841
 1371SOL    HW215573   0.245   3.478  13.725 -0.4221  2.3412  0.8067
 1372SOL     OW15574   3.520   1.728   8.754  0.0016 -0.1817 -0.7051
 1372SOL    HW115575   3.576   1.759   8.683  2.0351 -0.6862  0.6628
 1372SOL    HW215576   3.511   1.633   8.747  1.6380 -0.2994 -1.0586
 1373SOL     OW15577   1.968   3.260   5.996  0.8467  0.1472  0.1240
 1373SOL    HW115578   2.062   3.255   6.014  1.1685  0.6674 -1.4049
 1373SOL    HW215579   1.930   3.273   6.083  0.1400  0.7228 -0.2654
 1374SOL     OW15580   3.719   3.812   9.467  0.1596  0.4049  0.1696
 1374SOL    HW115581   3.759   3.769   9.543  0.4048 -2.3018 -1.4835
 1374SOL    HW215582   3.657   3.870   9.511  0.8097 -0.2467  1.9959
 1375SOL     OW15583   4.277   1.397   2.777  0.1546  0.5084 -0.6430
 1375SOL    HW115584   4.187   1.397   2.746 -0.0681 -0.0890 -0.0053
 1375SOL    HW215585   4.258   1.397   2.871 -0.0341  1.0194 -0.6833
 1376SOL     OW15586   2.719   2.577   2.354 -0.2172 -0.1219  0.1741
 1376SOL    HW115587   2.762   2.595   2.271  0.4444 -0.1974  0.5032
 1376SOL    HW215588   2.631   2.614   2.348 -0.0379  0.1601 -0.6614
 1377SOL     OW15589   1.560   2.700   1.155 -0.4947 -0.0798 -0.3816
 1377SOL    HW115590   1.506   2.631   1.116 -0.0567 -0.5532 -0.1621
 1377SOL    HW215591   1.581   2.758   1.081  0.0100  0.2034 -0.0153
 1378SOL     OW15592   2.095   0.261   3.776 -0.1326 -0.1348  0.2892
 1378SOL    HW115593   2.155   0.314   3.828 -0.5204 -0.2193  0.8164
 1378SOL    HW215594   2.081   0.182   3.829  3.2468 -1.2147 -0.4237
 1379SOL     OW15595   1.899   0.700   2.748 -0.1899  0.2909 -0.0926
 1379SOL    HW115596   1.876   0.685   2.657 -3.2723  0.1477  0.7290
 1379SOL    HW215597   1.832   0.755   2.788  0.9696  0.8537  1.1187
 1380SOL     OW15598   3.166   2.664   5.753 -0.3562 -0.3317 -0.1757
 1380SOL    HW115599   3.262   2.660   5.755 -0.3772 -0.5230  0.3913
 1380SOL    HW215600   3.134   2.626   5.672  1.4022  1.2556 -1.6156
 1381SOL     OW15601   4.356   3.736   9.392  0.1556 -0.7266 -0.5100
 1381SOL    HW115602   4.281   3.739   9.451  0.8496  3.8026  0.1378
 1381SOL    HW215603   4.412   3.807   9.424 -2.2341  0.7251  0.4100
 1382SOL     OW15604   3.616   4.590   0.313 -0.2492  0.8552  0.5423
 1382SOL    HW115605   3.668   4.540   0.250 -0.8691  0.1259  0.6041
 1382SOL    HW215606   3.530   4.548   0.309  0.0349  0.6571 -3.0198
 1383SOL     OW15607   0.626   2.970   3.400  0.0954  0.0806 -0.0759
 1383SOL    HW115608   0.659   2.880   3.397 -0.7740 -0.1658 -2.0543
 1383SOL    HW215609   0.692   3.021   3.447  1.3129 -2.5900  1.0633
 1384SOL     OW15610   0.138   4.409   7.564 -0.0128 -0.2940 -0.1599
 1384SOL    HW115611   0.217   4.376   7.520 -1.1003 -1.5707 -1.1531
 1384SOL    HW215612   0.080   4.335   7.581  1.4590 -1.0186  1.6812
 1385SOL     OW15613   1.268   2.387   9.337  0.2163 -0.2966  0.3102
 1385SOL    HW115614   1.329   2.325   9.298 -0.7197 -1.8933  1.3861
 1385SOL    HW215615   1.327   2.461   9.351 -1.2997  1.0778 -0.5404
 1386SOL     OW15616   0.541   4.123   9.783  0.6304  0.1050 -0.6179
 1386SOL    HW115617   0.611   4.156   9.841  1.3243 -0.1378 -1.3179
 1386SOL    HW215618   0.502   4.048   9.827  0.0416  0.6642 -0.1716
 1387SOL     OW15619   3.513   0.938   5.685  0.9315  0.5537  1.1085
 1387SOL    HW115620   3.479   1.026   5.674 -1.3510 -0.2862  1.3094
 1387SOL    HW215621   3.488   0.903   5.600 -1.3065  0.1137  1.9429
 1388SOL     OW15622   4.499   3.043   2.428 -0.0488  0.0541  0.2672
 1388SOL    HW115623   4.542   2.998   2.500  0.6909 -0.4319 -0.4826
 1388SOL    HW215624   4.468   2.973   2.370  0.6712 -0.4280  0.4734
 1389SOL     OW15625   1.404   1.648   4.569  0.1351 -0.7516 -0.0597
 1389SOL    HW115626   1.330   1.663   4.510  0.3973  0.0044 -0.2033
 1389SOL    HW215627   1.439   1.737   4.564 -0.2848 -0.4579  2.2252
 1390SOL     OW15628   3.705   3.049   2.368 -0.6948  0.0284 -0.4177
 1390SOL    HW115629   3.722   3.112   2.298 -3.4702  1.2429 -0.0114
 1390SOL    HW215630   3.783   3.061   2.421 -1.2248  0.2313  0.3203
 1391SOL     OW15631   4.093   3.922   2.478  0.0306  0.1543  0.3966
 1391SOL    HW115632   4.073   3.957   2.391 -1.3075 -0.8504  0.2886
 1391SOL    HW215633   4.025   3.965   2.530 -0.6627  0.3688 -0.6945
 1392SOL     OW15634   0.399   4.632   4.867 -0.8366  0.3559 -0.2483
 1392SOL    HW115635   0.401   4.725   4.891 -0.4158  0.7157 -1.6759
 1392SOL    HW215636   0.492   4.611   4.880 -1.4403 -0.8830  2.0349
 1393SOL     OW15637   2.956   1.582   1.126  0.3093 -0.3291  0.3793
 1393SOL    HW115638   2.929   1.637   1.053  1.1278  0.0392  0.3576
 1393SOL    HW215639   2.895   1.617   1.191 -2.7247 -0.2275 -2.5029
 1394SOL     OW15640   4.207   2.984   8.141 -0.1168 -0.5873 -0.2250
 1394SOL    HW115641   4.224   2.891   8.158  1.0969 -0.6069 -1.5680
 1394SOL    HW215642   4.145   3.007   8.210 -0.5400 -1.0240 -0.4552
 1395SOL     OW15643   0.183   0.312   8.223 -0.3495 -0.3761  0.2331
 1395SOL    HW115644   0.218   0.394   8.258 -1.6374 -0.5703  1.9869
 1395SOL    HW215645   0.218   0.315   8.134  1.2488  2.0397  0.9314
 1396SOL     OW15646   2.278   1.696   6.983 -0.7189 -0.3821  0.1276
 1396SOL    HW115647   2.294   1.705   7.076  0.0859  3.0507 -0.3427
 1396SOL    HW215648   2.313   1.607   6.980  0.2543  0.0422 -1.1112
 1397SOL     OW15649   4.421   3.185   9.232 -0.5530 -0.2057  0.0524
 1397SOL    HW115650   4.384   3.270   9.208  3.8316  1.7681  0.3332
 1397SOL    HW215651   4.429   3.201   9.326  0.5215  0.1778 -0.0970
 1398SOL     OW15652   1.767   0.875   6.677  0.2646 -0.1863 -0.1582
 1398SOL    HW115653   1.757   0.898   6.584 -0.0683  0.0665 -0.0606
 1398SOL    HW215654   1.852   0.832   6.676  0.5100  0.3099 -2.4469
 1399SOL     OW15655   3.263   1.181   2.809 -0.3068  0.5383  0.0571
 1399SOL    HW115656   3.207   1.109   2.837  1.1871 -0.1336  1.3231
 1399SOL    HW215657   3.205   1.257   2.815  2.2370  2.4017  1.0230
 1400SOL     OW15658   3.645   1.751  16.953  0.7185  0.1069 -0.2514
 1400SOL    HW115659   3.636   1.847  16.952 -2.0601 -0.1693  0.5323
 1400SOL    HW215660   3.715   1.737  16.889 -0.4347 -0.6298 -1.3577
 1401SOL     OW15661   3.073   1.893   8.236 -0.3528  0.8747  0.1305
 1401SOL    HW115662   3.104   1.878   8.326 -2.6583  0.2524  0.8110
 1401SOL    HW215663   3.016   1.817   8.228 -1.1313  1.2828  1.7758
 1402SOL     OW15664   2.450   4.214   6.389  0.4616 -0.4823 -0.1280
 1402SOL    HW115665   2.488   4.148   6.332  2.6171 -0.5982  1.4698
 1402SOL    HW215666   2.528   4.244   6.436 -1.0420  1.0552  1.3965
 1403SOL     OW15667   0.828   3.096   3.513  0.4686 -0.9281 -0.1814
 1403SOL    HW115668   0.859   3.135   3.595 -0.7415  0.5553 -0.4203
 1403SOL    HW215669   0.888   3.023   3.502  1.2296 -0.1300 -1.3512
 1404SOL     OW15670   3.946   3.730   2.712 -0.0418  0.1561  0.7222
 1404SOL    HW115671   3.962   3.668   2.783  1.8600 -0.0797  0.0963
 1404SOL    HW215672   3.987   3.806   2.753  1.7518 -1.8404  2.6508
 1405SOL     OW15673   2.935   4.178   2.649 -0.3334  0.4257 -0.0773
 1405SOL    HW115674   2.869   4.225   2.597 -0.0691  1.4307  0.4853
 1405SOL    HW215675   2.897   4.181   2.737 -1.2071 -1.8208 -0.3904
 1406SOL     OW15676   3.519   4.603   4.213 -0.2592 -0.0044 -0.0937
 1406SOL    HW115677   3.566   4.630   4.134 -2.0104  1.5906 -0.5919
 1406SOL    HW215678   3.429   4.628   4.191 -0.8117 -2.7869 -1.0776
 1407SOL     OW15679   4.475   1.568   2.671  0.5424 -0.7562 -0.1343
 1407SOL    HW115680   4.404   1.515   2.705  1.6143 -1.5292  0.8769
 1407SOL    HW215681   4.422   1.643   2.643  0.7174  0.1094  1.8801
 1408SOL     OW15682   0.718   2.830   9.482  0.0337 -0.2345 -0.2017
 1408SOL    HW115683   0.668   2.798   9.407 -1.5341  2.5685 -0.3667
 1408SOL    HW215684   0.727   2.746   9.526 -2.8523 -0.8780 -0.7933
 1409SOL     OW15685   2.450   2.602   2.322  0.0802 -0.1654  0.3683
 1409SOL    HW115686   2.399   2.673   2.282  2.2063 -0.5304 -3.0173
 1409SOL    HW215687   2.450   2.628   2.414  3.4896  3.6663 -0.6924
 1410SOL     OW15688   0.785   2.687   2.146 -0.3285 -0.0916 -0.5197
 1410SOL    HW115689   0.851   2.652   2.086  0.6625 -1.0231  1.1329
 1410SOL    HW215690   0.709   2.634   2.125  0.8255 -1.5270 -1.1232
 1411SOL     OW15691   0.304   0.379   6.036 -0.4229  0.2831 -0.1178
 1411SOL    HW115692   0.321   0.449   5.973  1.1520 -0.9714 -1.0854
 1411SOL    HW215693   0.392   0.370   6.070 -0.7424  0.4503  0.7626
 1412SOL     OW15694   0.792   2.305   7.858  0.1822  0.1280  0.2720
 1412SOL    HW115695   0.851   2.336   7.927  0.0388 -1.4760  1.1200
 1412SOL    HW215696   0.809   2.371   7.791 -2.1548 -1.3577 -1.7961
 1413SOL     OW15697   3.576   1.260   2.176 -0.0749  0.4994  0.4049
 1413SOL    HW115698   3.511   1.195   2.202 -0.1898  1.1384  1.7370
 1413SOL    HW215699   3.525   1.302   2.107 -0.8400 -2.3773 -0.7812
 1414SOL     OW15700   4.203   1.492   9.650 -0.0878 -0.5500  0.2573
 1414SOL    HW115701   4.150   1.465   9.574  1.9851  1.0717 -1.7458
 1414SOL    HW215702   4.134   1.494   9.717  0.6828  4.4403  0.9319
 1415SOL     OW15703   1.108   2.918   4.867  0.1469 -0.3586  0.2796
 1415SOL    HW115704   1.188   2.891   4.911  0.9509  2.7188  0.6948
 1415SOL    HW215705   1.056   2.945   4.943  0.6446  0.9037  0.1717
 1416SOL     OW15706   0.830   2.524   1.136 -0.3111 -0.0910 -0.0810
 1416SOL    HW115707   0.736   2.534   1.152 -0.2308  1.6004 -0.7248
 1416SOL    HW215708   0.837   2.510   1.042 -0.7841 -0.0704 -0.1171
 1417SOL     OW15709   2.937   3.680   2.102  0.3638  0.1892 -0.4019
 1417SOL    HW115710   3.000   3.671   2.173 -1.8575 -0.1461  1.5601
 1417SOL    HW215711   2.946   3.773   2.082 -2.5781  0.6575  0.3148
 1418SOL     OW15712   0.499   3.486   2.505 -0.2020 -0.4662 -0.3467
 1418SOL    HW115713   0.561   3.420   2.534  0.1836 -1.2090 -2.9103
 1418SOL    HW215714   0.541   3.522   2.427 -0.3411  1.5998  0.5198
 1419SOL     OW15715   0.201   1.264   7.954 -0.1106  0.4052 -0.4298
 1419SOL    HW115716   0.226   1.248   7.863 -2.2002 -1.9970 -0.5813
 1419SOL    HW215717   0.286   1.236   7.988 -1.3092 -1.6446  0.8144
 1420SOL     OW15718   0.552   1.892   8.158  0.0105  0.0135  0.1715
 1420SOL    HW115719   0.526   1.984   8.165 -0.3803 -0.0537 -0.3470
 1420SOL    HW215720   0.625   1.881   8.219 -1.2462 -1.0719  1.4634
 1421SOL     OW15721   1.611   1.329  17.099  0.4918  0.8827 -0.2885
 1421SOL    HW115722   1.539   1.391  17.107 -1.9506 -1.9525 -0.4242
 1421SOL    HW215723   1.584   1.269  17.168  1.0851  0.5649 -0.3270
 1422SOL     OW15724   0.258   0.279   5.391  0.1638 -0.0752 -0.5401
 1422SOL    HW115725   0.343   0.321   5.380  0.1273 -0.1924 -1.2726
 1422SOL    HW215726   0.193   0.348   5.390  0.0102 -0.2211 -0.6296
 1423SOL     OW15727   3.623   3.312  13.087  0.5151 -0.3173  0.3192
 1423SOL    HW115728   3.530   3.319  13.111  0.5982 -0.2117  0.6108
 1423SOL    HW215729   3.668   3.307  13.171  0.7010 -0.1618  0.2303
 1424SOL     OW15730   1.216   3.947  13.055 -0.2021  0.4617 -0.0051
 1424SOL    HW115731   1.212   3.909  13.143 -2.0266  0.1376 -0.2286
 1424SOL    HW215732   1.194   4.036  13.083  1.3447  0.6141  0.7486
 1425SOL     OW15733   4.174   2.240   9.124  0.4744  0.3296 -0.1224
 1425SOL    HW115734   4.140   2.293   9.196  2.0932  1.0187  0.1183
 1425SOL    HW215735   4.112   2.271   9.057  0.9749 -0.6498 -1.0364
 1426SOL     OW15736   2.104   2.582   6.459 -0.8505 -0.2035 -0.3576
 1426SOL    HW115737   2.046   2.541   6.395  1.8134 -2.1709 -1.5181
 1426SOL    HW215738   2.104   2.674   6.433 -2.8132  0.2894  1.4498
 1427SOL     OW15739   0.400   0.193   2.521 -0.0783  0.8566  0.2597
 1427SOL    HW115740   0.372   0.259   2.584 -0.7728  0.9664 -0.1675
 1427SOL    HW215741   0.495   0.205   2.513  0.1152 -1.2640 -0.5730
 1428SOL     OW15742   0.547   1.262   5.876 -0.1177 -0.0440 -0.4968
 1428SOL    HW115743   0.575   1.327   5.940  1.8184 -0.9067 -0.4441
 1428SOL    HW215744   0.626   1.223   5.838  0.7213  0.4318  0.7889
 1429SOL     OW15745   0.367   1.195   3.800  0.4672 -0.0345 -0.3100
 1429SOL    HW115746   0.344   1.107   3.770  0.5287 -0.6403  1.4212
 1429SOL    HW215747   0.424   1.161   3.869 -0.1257 -2.6233 -1.1056
 1430SOL     OW15748   1.485   3.484   3.743  0.2020  0.3317  0.4181
 1430SOL    HW115749   1.446   3.397   3.735  0.3133  0.3735 -0.5472
 1430SOL    HW215750   1.410   3.544   3.736 -1.3806 -1.5013  1.6492
 1431SOL     OW15751   3.861   1.977   2.906 -0.5379 -0.2113  1.1589
 1431SOL    HW115752   3.946   1.951   2.871 -1.2134 -2.4969  1.2135
 1431SOL    HW215753   3.884   2.060   2.946 -0.2123  1.5596 -2.7199
 1432SOL     OW15754   1.197   3.513   4.008 -0.0036 -0.0896 -0.1373
 1432SOL    HW115755   1.248   3.525   4.088  0.5942  0.7937 -0.6489
 1432SOL    HW215756   1.125   3.454   4.028 -0.7757  1.6143  2.0651
 1433SOL     OW15757   0.905   0.938   0.103 -0.4599  0.3398 -0.2280
 1433SOL    HW115758   0.885   0.920   0.195  3.7199  0.5267  0.7562
 1433SOL    HW215759   0.945   0.857   0.072 -0.2298 -0.2860  1.7233
 1434SOL     OW15760   3.512   2.556  16.951  0.0028 -0.3677 -0.3853
 1434SOL    HW115761   3.592   2.504  16.940 -0.2590 -0.6852 -0.7916
 1434SOL    HW215762   3.547   2.645  16.949  0.2889 -0.3898  2.7758
 1435SOL     OW15763   0.184   4.435   1.103 -0.4699  0.1282  0.3547
 1435SOL    HW115764   0.096   4.406   1.080 -1.6510  3.2176  0.9039
 1435SOL    HW215765   0.162   4.526   1.125  0.9907  0.3738  0.7992
 1436SOL     OW15766   4.294   2.434   5.162 -0.1185 -0.4149  0.2683
 1436SOL    HW115767   4.225   2.443   5.097  1.2660  0.7926 -1.0134
 1436SOL    HW215768   4.237   2.453   5.237  1.4855  1.6227  0.9664
 1437SOL     OW15769   1.074   3.174  15.685  0.3434  0.5537 -0.0873
 1437SOL    HW115770   1.044   3.142  15.599 -1.9292 -0.7312  1.1906
 1437SOL    HW215771   1.166   3.200  15.684  0.3240  0.6521  2.4803
 1438SOL     OW15772   3.370   4.562   9.306 -0.6603  0.5422  0.0348
 1438SOL    HW115773   3.431   4.608   9.364 -0.5724  1.1333 -0.5204
 1438SOL    HW215774   3.349   4.486   9.361  0.3249 -0.5713 -1.1331
 1439SOL     OW15775   2.901   2.974  14.968  0.4388 -0.3470  0.5100
 1439SOL    HW115776   2.972   2.999  14.908  0.8700  1.8260  1.9209
 1439SOL    HW215777   2.843   3.050  14.972  0.0102 -0.6612  0.2835
 1440SOL     OW15778   3.420   0.887   5.915  0.2075  0.0831  0.3231
 1440SOL    HW115779   3.357   0.836   5.864 -0.4100  1.3044 -0.1307
 1440SOL    HW215780   3.470   0.920   5.841 -1.0494  2.4540  0.5565
 1441SOL     OW15781   0.370   3.209   6.959 -0.1220 -0.1607 -0.4975
 1441SOL    HW115782   0.376   3.132   6.903 -0.8318 -1.1631  0.7970
 1441SOL    HW215783   0.285   3.194   7.000  1.1106  1.1506  2.5796
 1442SOL     OW15784   1.724   0.128   5.068  0.0561 -0.3182 -0.1398
 1442SOL    HW115785   1.652   0.090   5.017 -0.2275  1.0443 -0.7653
 1442SOL    HW215786   1.755   0.049   5.114 -0.7651 -0.6514 -0.1576
 1443SOL     OW15787   0.029   2.787  14.443  0.1039 -0.3168 -0.1957
 1443SOL    HW115788   4.719   2.756  14.526 -2.6158 -0.1434 -1.2619
 1443SOL    HW215789   0.060   2.872  14.474 -0.9067  0.0113 -0.0857
 1444SOL     OW15790   3.588   0.530   4.219  0.1336 -0.1004  0.3192
 1444SOL    HW115791   3.631   0.610   4.249 -0.5898  1.0999 -1.7903
 1444SOL    HW215792   3.523   0.569   4.160 -0.1671 -0.7507  0.2270
 1445SOL     OW15793   0.770   4.632   7.757  0.1526 -0.5102  0.2321
 1445SOL    HW115794   0.802   4.665   7.841 -0.6716  0.4132  0.1890
 1445SOL    HW215795   0.855   4.621   7.714  0.3971  0.4724  0.4520
 1446SOL     OW15796   4.226   0.924  16.417 -0.3949  0.4918  0.1866
 1446SOL    HW115797   4.212   0.900  16.508  1.3352 -0.7652  0.1280
 1446SOL    HW215798   4.304   0.978  16.430  0.2596 -0.1043 -1.2618
 1447SOL     OW15799   1.628   1.272  14.220  0.1398 -0.1252 -0.3051
 1447SOL    HW115800   1.662   1.221  14.147  0.7988 -0.3561  0.1637
 1447SOL    HW215801   1.710   1.304  14.258  0.2261 -0.2117 -0.4188
 1448SOL     OW15802   1.697   2.744   7.754 -0.1167 -0.0999 -0.2276
 1448SOL    HW115803   1.679   2.667   7.808  2.0091 -0.5195 -0.0828
 1448SOL    HW215804   1.641   2.723   7.680 -1.7720 -2.5548  1.7334
 1449SOL     OW15805   1.224   0.865   2.400 -0.3190  0.3602  0.1020
 1449SOL    HW115806   1.296   0.837   2.343 -0.2722  0.7463 -0.0277
 1449SOL    HW215807   1.260   0.948   2.432 -0.5425  0.3002  0.5074
 1450SOL     OW15808   2.685   1.771   5.484 -0.5186 -0.0280 -0.0194
 1450SOL    HW115809   2.614   1.757   5.546  0.1790 -1.2187  0.5130
 1450SOL    HW215810   2.763   1.744   5.532 -0.2614  3.4491  1.5110
 1451SOL     OW15811   3.501   3.686  16.257  0.6901 -0.4034 -0.2787
 1451SOL    HW115812   3.427   3.636  16.291  0.5840  1.0696  1.6087
 1451SOL    HW215813   3.567   3.627  16.293 -0.4244 -0.6596  1.3163
 1452SOL     OW15814   0.224   0.922   9.683  0.4471 -0.0123 -0.3704
 1452SOL    HW115815   0.165   0.973   9.628 -1.6964 -0.8022  1.1863
 1452SOL    HW215816   0.193   0.832   9.689 -0.3576  0.3967  1.7275
 1453SOL     OW15817   0.884   3.659   7.768  0.4347  0.3788  0.5297
 1453SOL    HW115818   0.891   3.595   7.698 -0.0507  0.9432 -0.0425
 1453SOL    HW215819   0.835   3.619   7.840  0.4908 -1.0027 -0.2059
 1454SOL     OW15820   1.670   2.946   1.005 -0.0380  1.0041 -0.1495
 1454SOL    HW115821   1.632   3.028   1.035  0.4832  0.9074  0.7815
 1454SOL    HW215822   1.762   2.952   1.033  0.5094  1.6116 -2.0696
 1455SOL     OW15823   4.721   3.727   6.506 -0.4653  0.5294  0.2476
 1455SOL    HW115824   0.085   3.762   6.500 -0.0555 -0.3762  0.9610
 1455SOL    HW215825   4.709   3.694   6.595 -1.1548 -0.2405 -0.1336
 1456SOL     OW15826   2.163   0.522   3.389  0.4321  0.9393  0.3146
 1456SOL    HW115827   2.244   0.501   3.344  0.9110  0.7068  1.2964
 1456SOL    HW215828   2.125   0.580   3.323 -0.4341  0.6003  0.5085
 1457SOL     OW15829   0.432   3.587   8.615 -0.5494 -0.1513  0.0861
 1457SOL    HW115830   0.370   3.553   8.679 -1.1999  1.0191  0.0801
 1457SOL    HW215831   0.517   3.569   8.655 -0.4151 -0.3982 -0.3097
 1458SOL     OW15832   4.521   4.496  17.596  0.0815 -0.3645  0.4070
 1458SOL    HW115833   4.600   4.488  17.650  0.7453  0.5523 -0.4386
 1458SOL    HW215834   4.561   4.513  17.511  3.1147  0.7231  2.0787
 1459SOL     OW15835   3.756   1.290   3.259  0.2061 -0.4215 -0.7803
 1459SOL    HW115836   3.783   1.273   3.349 -1.2738  2.9933  0.3023
 1459SOL    HW215837   3.745   1.199   3.229  0.7117 -0.1980 -1.6675
 1460SOL     OW15838   4.025   0.395  12.100 -0.0630  0.7137 -0.7807
 1460SOL    HW115839   4.016   0.305  12.071 -2.5960 -0.1847  2.7731
 1460SOL    HW215840   3.938   0.411  12.137  0.7795  0.8890  1.1540
 1461SOL     OW15841   1.136   3.054   1.235 -0.2940  0.0069 -0.3691
 1461SOL    HW115842   1.097   3.020   1.155  0.8129 -3.3339  0.4944
 1461SOL    HW215843   1.229   3.032   1.230 -0.7186 -1.8427 -0.1541
 1462SOL     OW15844   1.630   4.030  17.116  0.1853  0.2394  0.5980
 1462SOL    HW115845   1.655   4.039  17.208 -1.6754  0.5118  1.0785
 1462SOL    HW215846   1.573   3.953  17.124  0.7289 -0.2356 -0.2414
 1463SOL     OW15847   2.198   2.766  17.040 -0.1048  0.1070 -0.3987
 1463SOL    HW115848   2.167   2.701  16.977  0.2107 -1.9848  1.6003
 1463SOL    HW215849   2.288   2.779  17.008 -0.0862  0.2223 -0.2987
 1464SOL     OW15850   3.768   3.760   0.081  0.4348  0.0567 -0.2179
 1464SOL    HW115851   3.814   3.826   0.029  2.3366 -0.2665  1.0103
 1464SOL    HW215852   3.827   3.686   0.063 -0.3848 -0.7990  0.6013
 1465SOL     OW15853   2.456   0.954   8.361 -0.5082  0.3176  0.4009
 1465SOL    HW115854   2.541   0.910   8.359 -0.5222  0.2185  2.0320
 1465SOL    HW215855   2.407   0.931   8.282 -1.4027  2.0700  0.4463
 1466SOL     OW15856   0.985   2.407   1.863 -0.0518 -0.6667 -0.6072
 1466SOL    HW115857   0.991   2.502   1.871  0.2089 -0.7836  0.4795
 1466SOL    HW215858   1.074   2.395   1.831  0.2072 -1.2601  0.3491
 1467SOL     OW15859   1.733   3.476   5.175 -0.0345 -0.4095 -0.1400
 1467SOL    HW115860   1.789   3.510   5.106  1.5831  1.7241  2.2012
 1467SOL    HW215861   1.707   3.393   5.134  0.3924 -0.0294 -1.1794
 1468SOL     OW15862   3.513   4.636   6.719 -0.1679 -0.0348  0.0636
 1468SOL    HW115863   3.567   4.575   6.770  0.0579  0.5056  0.4705
 1468SOL    HW215864   3.430   4.590   6.706 -0.0728  0.1073 -1.0082
 1469SOL     OW15865   2.057   1.573   8.347  0.0721  0.6864  0.8232
 1469SOL    HW115866   2.112   1.636   8.300 -0.5576 -1.2439 -2.5056
 1469SOL    HW215867   2.099   1.488   8.333 -0.4789  0.9650 -2.4748
 1470SOL     OW15868   3.373   1.426   0.231  0.0764 -0.5359 -0.0938
 1470SOL    HW115869   3.288   1.383   0.228 -0.4240  0.4091  0.8067
 1470SOL    HW215870   3.386   1.437   0.325  3.3285 -0.5309 -0.5476
 1471SOL     OW15871   2.513   2.914   8.762  0.4629  0.4084  0.0458
 1471SOL    HW115872   2.533   2.975   8.691  2.4671 -0.6526 -0.3014
 1471SOL    HW215873   2.511   2.969   8.840  2.7770  0.0837  0.3360
 1472SOL     OW15874   1.726   2.093   7.253  0.3280  0.0643 -0.7454
 1472SOL    HW115875   1.703   2.177   7.292 -0.4499 -0.6403  0.3225
 1472SOL    HW215876   1.791   2.058   7.314 -0.6412 -0.6755 -0.1316
 1473SOL     OW15877   0.541   2.009   2.836 -0.0826 -0.2100 -0.1170
 1473SOL    HW115878   0.467   2.004   2.896  0.2860 -0.0956  0.3502
 1473SOL    HW215879   0.578   2.094   2.861  0.2452 -0.6593  0.9044
 1474SOL     OW15880   3.301   0.448   8.782  0.7096  0.9717 -0.3503
 1474SOL    HW115881   3.356   0.371   8.770 -2.4106 -1.8552  3.2865
 1474SOL    HW215882   3.363   0.511   8.747  0.3892  0.9389 -0.9981
 1475SOL     OW15883   0.980   2.502   9.531 -0.8872  0.1636 -0.3096
 1475SOL    HW115884   0.894   2.542   9.548 -1.1183 -0.0597 -0.9754
 1475SOL    HW215885   0.957   2.423   9.482 -0.9890  1.2178 -1.9319
 1476SOL     OW15886   2.317   2.535   4.554 -0.1098 -0.1307  0.1843
 1476SOL    HW115887   2.318   2.520   4.459  0.6679  1.5362 -0.0847
 1476SOL    HW215888   2.297   2.629   4.546  1.0903  0.0938 -0.2254
 1477SOL     OW15889   4.110   2.369   9.344  0.4191 -0.3868  0.0184
 1477SOL    HW115890   4.169   2.440   9.319  1.7539 -1.5237 -0.0502
 1477SOL    HW215891   4.165   2.343   9.418  1.9334 -0.1697 -1.0454
 1478SOL     OW15892   2.293   1.654  14.387  0.3721  0.3401 -0.0220
 1478SOL    HW115893   2.257   1.635  14.474  0.4682 -1.5899 -0.3934
 1478SOL    HW215894   2.381   1.616  14.387  0.4988  0.6309 -1.1831
 1479SOL     OW15895   2.162   3.279   6.845 -0.0265  0.2271  0.2584
 1479SOL    HW115896   2.225   3.225   6.892  0.1184 -0.7106 -1.0199
 1479SOL    HW215897   2.179   3.372   6.859 -0.6972  0.4008 -0.0598
 1480SOL     OW15898   3.014   2.543   0.983 -0.3748 -0.2173 -0.2199
 1480SOL    HW115899   3.040   2.467   0.930 -0.9653  0.4521 -1.4749
 1480SOL    HW215900   2.923   2.546   0.952 -0.3339 -0.2853 -0.3468
 1481SOL     OW15901   2.764   2.840   7.641 -0.3223  0.1414  0.1291
 1481SOL    HW115902   2.827   2.879   7.701  0.4524  1.1294 -1.3438
 1481SOL    HW215903   2.824   2.828   7.567  1.7904  3.5101  1.3433
 1482SOL     OW15904   3.410   2.580   5.070  0.1651 -0.7652  0.3463
 1482SOL    HW115905   3.358   2.647   5.025 -0.6301 -0.9441  1.0007
 1482SOL    HW215906   3.487   2.596   5.015  0.6317 -1.2683  0.8580
 1483SOL     OW15907   4.176   2.437   2.494  0.1586  0.2237  0.2587
 1483SOL    HW115908   4.178   2.453   2.589 -1.3112  0.1818  0.2870
 1483SOL    HW215909   4.088   2.407   2.477  0.6459  0.6802 -3.0446
 1484SOL     OW15910   1.459   2.777   8.369  0.5644  0.0903  0.4964
 1484SOL    HW115911   1.513   2.855   8.357 -2.4810  2.0311 -0.4697
 1484SOL    HW215912   1.403   2.807   8.441 -2.0092  1.4569 -2.0893
 1485SOL     OW15913   2.014   3.481   2.631  0.1062  0.2115  0.4308
 1485SOL    HW115914   1.937   3.451   2.680 -0.7317  0.5785 -0.6329
 1485SOL    HW215915   2.066   3.423   2.687  2.6162  0.4654 -1.6470
 1486SOL     OW15916   2.258   3.334   1.221 -0.8220  0.2276  0.0941
 1486SOL    HW115917   2.321   3.323   1.292  1.4454 -0.2162 -1.9690
 1486SOL    HW215918   2.184   3.287   1.259  0.2792 -0.8597  0.8807
 1487SOL     OW15919   3.684   0.205  12.678  0.1462 -0.1090  0.2967
 1487SOL    HW115920   3.595   0.172  12.671  0.0148  0.2853  0.1345
 1487SOL    HW215921   3.688   0.296  12.647  0.2156  0.2949  1.4710
 1488SOL     OW15922   2.484   1.983   7.918  0.4164 -0.1405  0.2269
 1488SOL    HW115923   2.436   1.906   7.887 -0.0930  0.9357 -1.6992
 1488SOL    HW215924   2.410   2.043   7.911 -0.3424 -1.1768 -0.6066
 1489SOL     OW15925   4.708   1.188   7.644  0.3339 -0.1143  0.0179
 1489SOL    HW115926   0.064   1.218   7.604 -0.3793 -1.0596 -2.1276
 1489SOL    HW215927   4.679   1.264   7.694  0.5754  1.4378 -2.2145
 1490SOL     OW15928   1.351   2.436   4.465 -0.0781  0.0183 -0.3103
 1490SOL    HW115929   1.432   2.470   4.427  1.0696 -2.2800  0.0766
 1490SOL    HW215930   1.289   2.508   4.459  1.7138  1.6435  0.7474
 1491SOL     OW15931   4.542   0.614   3.785 -0.3672  0.2625 -0.1906
 1491SOL    HW115932   4.594   0.620   3.705 -1.9341  0.4101 -1.2041
 1491SOL    HW215933   4.502   0.528   3.777 -0.7011  0.3198  0.8573
 1492SOL     OW15934   1.191   2.109   4.587  0.0854  0.1853  0.2701
 1492SOL    HW115935   1.217   2.137   4.674  2.0807 -0.2773 -0.1666
 1492SOL    HW215936   1.108   2.064   4.606 -0.2756  0.9710  0.5346
 1493SOL     OW15937   2.445   1.089   6.671  0.2112  0.2890  0.6143
 1493SOL    HW115938   2.529   1.120   6.637  1.1469 -1.0681  1.6840
 1493SOL    HW215939   2.461   0.994   6.670  1.5067  0.4945  1.6750
 1494SOL     OW15940   2.870   0.403   6.153 -0.4162 -0.8971  0.2429
 1494SOL    HW115941   2.926   0.334   6.117  1.1074 -0.4025  1.6225
 1494SOL    HW215942   2.865   0.457   6.075 -1.1546 -3.0489 -1.1919
 1495SOL     OW15943   0.458   1.471   7.210 -0.1141 -0.1241  0.4600
 1495SOL    HW115944   0.432   1.388   7.249 -2.4403  0.4729  0.1910
 1495SOL    HW215945   0.379   1.522   7.224 -1.2921 -1.5212 -1.0438
 1496SOL     OW15946   3.907   1.849   7.750  0.3664  0.3755  0.2638
 1496SOL    HW115947   3.870   1.850   7.839 -2.3352 -1.1525 -0.8351
 1496SOL    HW215948   3.833   1.823   7.695  1.4145 -2.2578  0.1031
 1497SOL     OW15949   2.474   4.008   5.550 -0.4505 -0.0695 -0.3613
 1497SOL    HW115950   2.521   3.969   5.623 -0.7782  2.0915  1.0041
 1497SOL    HW215951   2.500   4.101   5.553  0.6784 -0.3232 -2.2743
 1498SOL     OW15952   3.430   3.525   5.104  0.1943 -0.1280 -0.0031
 1498SOL    HW115953   3.339   3.496   5.108  0.0625  0.1440 -1.0866
 1498SOL    HW215954   3.406   3.614   5.082 -1.3531  0.1923  3.0654
 1499SOL     OW15955   3.585   4.656   2.249 -0.0351 -0.1504  0.0930
 1499SOL    HW115956   3.555   4.658   2.158 -0.4627 -0.3859  0.2272
 1499SOL    HW215957   3.507   4.688   2.293  0.8093  1.4978  0.3789
 1500SOL     OW15958   0.539   2.469  14.218 -0.3269 -0.2312  0.0556
 1500SOL    HW115959   0.528   2.515  14.301  0.6186  0.6486 -0.3071
 1500SOL    HW215960   0.599   2.400  14.248  2.4673  1.6038 -1.3225
 1501SOL     OW15961   4.301   2.175  11.810 -0.0500 -0.3468  0.0860
 1501SOL    HW115962   4.325   2.092  11.770  0.4569 -0.1405 -0.0384
 1501SOL    HW215963   4.381   2.219  11.839 -0.6154  0.7177  0.0485
 1502SOL     OW15964   2.721   0.557   1.619 -0.0118  0.0377 -0.2724
 1502SOL    HW115965   2.693   0.505   1.695 -0.0957  0.2128 -0.1832
 1502SOL    HW215966   2.766   0.625   1.670 -1.3645  0.6981  0.0260
 1503SOL     OW15967   1.171   2.862   7.853 -0.1507  0.5996  0.1931
 1503SOL    HW115968   1.105   2.868   7.783  0.0077  2.1566  0.1705
 1503SOL    HW215969   1.139   2.929   7.913 -3.0388 -0.6494  0.0574
 1504SOL     OW15970   4.082   2.786   4.960  0.0288  0.6639  0.1580
 1504SOL    HW115971   4.094   2.839   5.039  0.1130  0.5655  0.2101
 1504SOL    HW215972   4.168   2.799   4.920 -0.7283  0.4666 -1.5497
 1505SOL     OW15973   2.727   0.877   5.435  0.0908 -0.1803  0.4686
 1505SOL    HW115974   2.662   0.947   5.430  1.1239  0.7097 -0.4677
 1505SOL    HW215975   2.755   0.866   5.344  1.3777  1.6583  0.6594
 1506SOL     OW15976   0.983   3.399   4.426 -0.0647 -0.8822 -0.7208
 1506SOL    HW115977   1.016   3.439   4.507  1.6238 -1.1635 -1.2654
 1506SOL    HW215978   0.890   3.380   4.438 -0.4452  1.6420  0.4708
 1507SOL     OW15979   3.715   1.176   8.588  0.3836 -0.2789 -0.0221
 1507SOL    HW115980   3.654   1.187   8.661 -0.3456 -0.2693 -0.6343
 1507SOL    HW215981   3.792   1.166   8.645  0.3498 -1.0010 -0.0998
 1508SOL     OW15982   2.305   3.642  11.332 -0.1615 -0.0052 -0.0369
 1508SOL    HW115983   2.390   3.643  11.288 -0.7378 -3.4423 -1.1803
 1508SOL    HW215984   2.281   3.551  11.316  2.7178 -0.7937  0.0166
 1509SOL     OW15985   4.578   4.586   6.017 -0.2861  0.3993  0.3419
 1509SOL    HW115986   4.559   4.674   5.982 -0.1983  0.3779  0.2397
 1509SOL    HW215987   4.656   4.605   6.069 -0.2250 -0.6926  0.6411
 1510SOL     OW15988   2.284   2.345   6.667 -0.7058 -0.3204  0.0359
 1510SOL    HW115989   2.301   2.435   6.693  1.0492 -0.1451 -1.7032
 1510SOL    HW215990   2.245   2.303   6.743  0.2275  0.8496  1.1650
 1511SOL     OW15991   2.279   3.933   7.553  0.1365 -0.2118  0.2127
 1511SOL    HW115992   2.260   3.891   7.636  1.6341 -0.3537  0.4874
 1511SOL    HW215993   2.298   4.020   7.586  1.9932 -0.1415 -1.0067
 1512SOL     OW15994   4.410   2.221   2.562 -0.1255  0.0593  0.2624
 1512SOL    HW115995   4.331   2.273   2.551 -1.3130 -1.1160  3.1750
 1512SOL    HW215996   4.376   2.160   2.627  1.4304  0.4645  1.4653
 1513SOL     OW15997   3.879   0.597   9.829 -0.5343  0.6093  0.3360
 1513SOL    HW115998   3.784   0.589   9.822 -0.5973  1.9618 -0.5120
 1513SOL    HW215999   3.888   0.609   9.923 -1.1924 -0.9703  0.5870
 1514SOL     OW16000   4.287   1.651   7.510 -0.3101 -0.6409  0.7116
 1514SOL    HW116001   4.296   1.640   7.605  1.8596 -1.9448  0.3655
 1514SOL    HW216002   4.192   1.654   7.499 -0.0544 -2.4157 -2.2379
 1515SOL     OW16003   0.281   0.490   2.438  0.3652  0.0229  0.3287
 1515SOL    HW116004   0.348   0.500   2.505 -0.5545  0.6574  1.1429
 1515SOL    HW216005   0.312   0.418   2.383  0.5611  1.0578 -0.9066
 1516SOL     OW16006   0.037   3.793   3.025 -0.1877 -0.2824  0.1961
 1516SOL    HW116007   0.091   3.738   2.968 -0.5757 -1.7633  1.2617
 1516SOL    HW216008   0.100   3.804   3.095  1.5050 -0.3684 -1.3077
 1517SOL     OW16009   1.848   3.230  14.918 -0.2366  0.4238 -0.2348
 1517SOL    HW116010   1.897   3.150  14.935 -3.6076 -1.6677 -0.5109
 1517SOL    HW216011   1.792   3.224  14.995 -0.1161 -1.0050 -0.2703
 1518SOL     OW16012   4.259   0.494   2.512 -0.0147  0.5070 -0.0886
 1518SOL    HW116013   4.297   0.451   2.436 -2.1951  1.1583 -1.5726
 1518SOL    HW216014   4.301   0.580   2.505  0.5252  0.3315  1.0413
 1519SOL     OW16015   0.033   1.034   4.026 -0.0595 -0.3084  0.0792
 1519SOL    HW116016   4.707   1.052   4.104  0.0077 -0.6885  0.2099
 1519SOL    HW216017   0.028   0.940   4.010 -2.0787  0.1263 -1.8108
 1520SOL     OW16018   4.359   1.936   1.530  0.3644 -0.4607  0.4305
 1520SOL    HW116019   4.399   1.889   1.457 -0.3415 -0.7692  0.2396
 1520SOL    HW216020   4.385   1.883   1.605  2.0508 -0.1863  0.0428
 1521SOL     OW16021   1.815   1.265   2.524 -0.0223 -0.0447  0.2497
 1521SOL    HW116022   1.861   1.341   2.488 -2.3430  0.7372 -1.0644
 1521SOL    HW216023   1.742   1.273   2.463 -0.3553 -1.0621  0.5235
 1522SOL     OW16024   2.106   1.068  15.378 -0.7389 -0.6901  0.0372
 1522SOL    HW116025   2.106   0.972  15.371  1.6677 -0.4328 -3.5697
 1522SOL    HW216026   2.096   1.089  15.285 -1.4388 -0.7331  0.0961
 1523SOL     OW16027   3.732   3.736  11.125 -0.1501 -0.4443 -0.2127
 1523SOL    HW116028   3.771   3.700  11.205  3.1130  0.5432 -1.3724
 1523SOL    HW216029   3.811   3.741  11.072 -1.2696  2.1861 -1.6325
 1524SOL     OW16030   1.090   0.509   3.907 -0.2702 -0.2130 -0.4891
 1524SOL    HW116031   1.014   0.461   3.873  0.8614 -1.8315 -0.7606
 1524SOL    HW216032   1.165   0.450   3.895  1.5627  1.9495  0.4093
 1525SOL     OW16033   2.741   2.707  10.717 -0.1793 -0.4378 -0.1361
 1525SOL    HW116034   2.775   2.698  10.806  1.4042  0.2185 -0.6667
 1525SOL    HW216035   2.818   2.750  10.679 -0.5826  2.1691  1.9469
 1526SOL     OW16036   0.622   3.151   8.137  0.0499  0.0889  0.4378
 1526SOL    HW116037   0.573   3.178   8.215 -3.1623  0.1971 -1.6550
 1526SOL    HW216038   0.609   3.222   8.075  0.7549 -1.0184 -0.9873
 1527SOL     OW16039   0.296   0.180   9.013  0.0270  0.3166  0.1237
 1527SOL    HW116040   0.213   0.223   9.029 -0.9679 -0.9361 -1.7462
 1527SOL    HW216041   0.279   0.086   9.020  1.3499 -0.0087 -0.8349
 1528SOL     OW16042   2.981   0.374   0.211  0.7810 -0.3198 -0.0369
 1528SOL    HW116043   2.920   0.321   0.262 -0.6177  1.3412  0.0089
 1528SOL    HW216044   2.988   0.451   0.268  1.5456  0.4857 -1.2080
 1529SOL     OW16045   3.517   2.287  13.101  0.5139 -0.3688  0.3295
 1529SOL    HW116046   3.473   2.308  13.183  0.8858  0.6860  0.2511
 1529SOL    HW216047   3.589   2.237  13.138 -0.9470 -1.5931  1.5382
 1530SOL     OW16048   4.372   1.565   6.955 -0.4504 -0.0171 -0.4485
 1530SOL    HW116049   4.429   1.599   7.024 -0.8316  0.3157 -0.2964
 1530SOL    HW216050   4.345   1.475   6.976  0.3240 -0.1369  0.0559
 1531SOL     OW16051   1.892   1.173  13.862 -0.0105 -0.0309  0.1646
 1531SOL    HW116052   1.895   1.249  13.919  0.1253  0.2108 -0.1637
 1531SOL    HW216053   1.984   1.147  13.857  0.5540  1.8126  1.0513
 1532SOL     OW16054   0.496   1.244  17.523 -0.1155 -0.3639 -0.9436
 1532SOL    HW116055   0.559   1.176  17.546  1.7387  1.7973  0.4576
 1532SOL    HW216056   0.419   1.216  17.571  0.7495  0.2580  0.8270
 1533SOL     OW16057   4.131   3.226   5.384  0.7061 -0.4369  0.0577
 1533SOL    HW116058   4.041   3.214   5.413 -0.0986 -0.5346 -2.4464
 1533SOL    HW216059   4.176   3.149   5.417  1.0751 -1.0003 -1.7334
 1534SOL     OW16060   3.219   4.244   1.865 -0.2698  0.0919  0.2319
 1534SOL    HW116061   3.264   4.238   1.949  0.0774 -1.0844 -0.0415
 1534SOL    HW216062   3.214   4.152   1.841  3.3478 -0.0328  0.0568
 1535SOL     OW16063   1.385   0.826   1.782  0.3086  0.5084  0.0656
 1535SOL    HW116064   1.342   0.829   1.697  0.6637  3.3470 -0.0073
 1535SOL    HW216065   1.323   0.768   1.825 -0.7524  0.8569 -0.9953
 1536SOL     OW16066   1.293   4.303   5.924 -0.2441  0.1584  0.5983
 1536SOL    HW116067   1.357   4.247   5.880  0.5770  1.0362  0.6795
 1536SOL    HW216068   1.336   4.388   5.928 -0.7601  0.4166  0.7515
 1537SOL     OW16069   4.131   4.154   6.282  0.2022 -0.4670 -0.7452
 1537SOL    HW116070   4.146   4.166   6.188 -0.0836 -0.3613 -0.7780
 1537SOL    HW216071   4.088   4.069   6.275 -0.9177 -0.0402  0.9568
 1538SOL     OW16072   1.619   1.755  17.513 -0.3914 -0.2395 -0.0168
 1538SOL    HW116073   1.666   1.804  17.445  1.0796  1.0122  1.8832
 1538SOL    HW216074   1.692   1.754  17.575 -1.7106 -1.9488  1.4930
 1539SOL     OW16075   2.533   4.227  16.063 -0.6004 -0.1985  0.1760
 1539SOL    HW116076   2.586   4.167  16.011  0.5421  1.3199 -0.3961
 1539SOL    HW216077   2.446   4.205  16.028  0.3872 -1.2393 -1.6139
 1540SOL     OW16078   4.085   4.014   7.920 -0.0087  0.0684 -0.1557
 1540SOL    HW116079   4.000   4.000   7.878 -1.4631 -0.5958  2.9739
 1540SOL    HW216080   4.104   3.941   7.979  2.0356  1.5857  1.0761
 1541SOL     OW16081   2.925   4.701   2.498 -0.3777 -0.1500 -0.3989
 1541SOL    HW116082   2.844   4.687   2.548  0.6040 -1.8895  0.6790
 1541SOL    HW216083   2.890   4.723   2.411 -0.1100 -0.9075 -0.7002
 1542SOL     OW16084   3.203   1.728   4.351 -0.3028  0.1006  0.5187
 1542SOL    HW116085   3.122   1.701   4.394  0.1046 -1.6650  0.1968
 1542SOL    HW216086   3.169   1.801   4.300 -0.0773  0.7281  1.2600
 1543SOL     OW16087   3.272   1.756   3.312  0.1700  0.3686  0.2189
 1543SOL    HW116088   3.310   1.843   3.299  0.1384  0.2958 -0.3957
 1543SOL    HW216089   3.326   1.713   3.246  0.1945 -0.0224  0.4967
 1544SOL     OW16090   0.758   1.533   4.961 -0.3095 -0.1985  0.0341
 1544SOL    HW116091   0.727   1.562   5.047  1.3442  0.2802  0.4551
 1544SOL    HW216092   0.688   1.550   4.898 -0.1504 -0.1812 -0.1371
 1545SOL     OW16093   2.535   2.781   1.599  0.5976 -0.6175 -0.3572
 1545SOL    HW116094   2.522   2.772   1.694  0.5013  0.8780 -0.2204
 1545SOL    HW216095   2.622   2.751   1.575  0.4461  2.4892 -4.6852
 1546SOL     OW16096   1.025   0.366   2.133  0.4103 -0.9477 -0.5488
 1546SOL    HW116097   0.934   0.396   2.130  0.7530 -0.0419 -1.6241
 1546SOL    HW216098   1.076   0.429   2.184  0.9961 -3.3647  1.8729
 1547SOL     OW16099   3.111   2.799   2.073 -0.6130  0.1011 -0.3509
 1547SOL    HW116100   3.204   2.781   2.079 -0.8827 -0.5449  1.6309
 1547SOL    HW216101   3.078   2.746   2.000  0.5914  0.1200 -0.9122
 1548SOL     OW16102   1.860   3.040  11.678 -0.3439  0.4344 -0.0112
 1548SOL    HW116103   1.861   3.048  11.773 -4.3119 -1.8894  0.2222
 1548SOL    HW216104   1.952   3.045  11.654 -0.7184  2.1296 -1.1171
 1549SOL     OW16105   4.274   3.717   3.086 -0.0231  0.4330  0.2100
 1549SOL    HW116106   4.212   3.735   3.156 -0.2047 -0.4911  0.2884
 1549SOL    HW216107   4.330   3.654   3.133  0.0888 -0.4627 -1.1082
 1550SOL     OW16108   4.147   3.406   6.282  0.4293  0.1028  0.4267
 1550SOL    HW116109   4.181   3.320   6.306 -1.3806 -0.3318  1.4039
 1550SOL    HW216110   4.052   3.401   6.296  0.6631 -1.9426  1.2698
 1551SOL     OW16111   0.275   3.079   6.113 -0.4945  0.1445 -0.1652
 1551SOL    HW116112   0.233   3.164   6.109  0.1185  0.4676  0.2286
 1551SOL    HW216113   0.358   3.092   6.159 -0.6402 -0.7444  0.3618
 1552SOL     OW16114   3.284   0.171  13.776 -0.1626 -0.3031  1.0876
 1552SOL    HW116115   3.336   0.251  13.768 -0.2884 -0.4216 -1.1753
 1552SOL    HW216116   3.215   0.176  13.710  0.8603 -0.9063 -0.0334
 1553SOL     OW16117   1.578   4.333   4.359 -0.3423  0.0665 -0.3292
 1553SOL    HW116118   1.510   4.280   4.318 -1.0525  2.5855 -2.4060
 1553SOL    HW216119   1.547   4.327   4.450  0.6136 -0.9079 -0.0608
 1554SOL     OW16120   0.197   3.180  11.396 -0.0513 -0.8114  0.3475
 1554SOL    HW116121   0.208   3.252  11.458  0.4463 -0.3549 -0.2717
 1554SOL    HW216122   0.116   3.143  11.431 -1.9069  0.6188 -2.4448
 1555SOL     OW16123   0.994   4.252   4.829  0.3440 -0.0826  0.0723
 1555SOL    HW116124   1.051   4.325   4.853  0.4625 -0.0154 -0.4063
 1555SOL    HW216125   1.050   4.207   4.766 -0.0941 -0.6394  0.0800
 1556SOL     OW16126   2.945   1.428  11.147 -0.2175  0.0689  0.1065
 1556SOL    HW116127   2.871   1.378  11.115 -0.6279  0.9621 -0.3530
 1556SOL    HW216128   3.008   1.390  11.086  0.8482  2.1473 -0.1041
 1557SOL     OW16129   2.415   3.015  10.019  0.3445  0.3255  0.8300
 1557SOL    HW116130   2.433   3.068  10.097  4.6431 -2.3035  1.6590
 1557SOL    HW216131   2.493   3.031   9.966 -0.2518 -0.5376 -0.3146
 1558SOL     OW16132   2.463   2.522  16.279  0.0186 -0.0057  0.5560
 1558SOL    HW116133   2.390   2.582  16.296 -0.0081  0.3475 -0.8391
 1558SOL    HW216134   2.492   2.567  16.200 -0.3113  0.5004  0.7233
 1559SOL     OW16135   4.210   0.799   1.886  0.0684 -0.1464  0.1585
 1559SOL    HW116136   4.173   0.886   1.876  0.3466 -0.1208 -0.6036
 1559SOL    HW216137   4.148   0.748   1.834  1.7759 -0.9980 -1.0438
 1560SOL     OW16138   2.436   1.105   8.640 -0.3765 -0.2861  0.3831
 1560SOL    HW116139   2.385   1.137   8.715  0.4339 -0.3389  0.9507
 1560SOL    HW216140   2.479   1.189   8.623 -0.6871  0.2456  2.2598
 1561SOL     OW16141   4.381   3.664   4.911 -0.0238  0.5740  0.0855
 1561SOL    HW116142   4.367   3.570   4.902 -1.6995  0.6011  2.4174
 1561SOL    HW216143   4.321   3.697   4.845 -1.6976 -0.5993  1.0330
 1562SOL     OW16144   3.507   1.080   5.235  0.4210  0.2568 -0.2251
 1562SOL    HW116145   3.477   0.990   5.252 -1.7487  0.6128 -2.1005
 1562SOL    HW216146   3.469   1.116   5.315  2.5730  0.1754  0.8429
 1563SOL     OW16147   3.528   1.540   8.247  0.6239 -0.4842  0.7375
 1563SOL    HW116148   3.487   1.568   8.165  3.1900  0.5815 -0.1777
 1563SOL    HW216149   3.513   1.445   8.244 -3.5217  0.1937 -0.7242
 1564SOL     OW16150   0.480   2.966   2.482  0.5214  0.5351  0.1337
 1564SOL    HW116151   0.409   2.993   2.424  0.7715  0.9073  0.0022
 1564SOL    HW216152   0.466   2.871   2.479 -0.7119  0.6146  3.2372
 1565SOL     OW16153   3.823   0.650  10.121 -0.5340  0.0728  0.5028
 1565SOL    HW116154   3.783   0.696  10.195 -0.5706  1.3724 -0.3073
 1565SOL    HW216155   3.918   0.644  10.134 -0.3835  0.0551 -0.6042
 1566SOL     OW16156   3.968   2.968  11.720  0.6357 -0.0640 -0.1574
 1566SOL    HW116157   4.010   3.031  11.778 -2.1958  2.9763 -1.4123
 1566SOL    HW216158   4.043   2.942  11.666 -0.3619 -0.5994 -1.2753
 1567SOL     OW16159   0.858   1.873   9.777 -0.1724 -0.2221 -0.7241
 1567SOL    HW116160   0.812   1.955   9.764  0.1842  0.3823  1.7021
 1567SOL    HW216161   0.809   1.836   9.851  3.3897 -0.0321  1.7378
 1568SOL     OW16162   1.280   2.563   0.086 -0.2186 -0.5644  0.1098
 1568SOL    HW116163   1.362   2.514   0.080  0.5824  0.7850  0.2378
 1568SOL    HW216164   1.281   2.615   0.006 -0.9064  1.8321  1.6670
 1569SOL     OW16165   1.463   0.566   3.440  0.3865 -0.2179 -0.3573
 1569SOL    HW116166   1.440   0.657   3.424 -1.3767 -0.7954 -1.1766
 1569SOL    HW216167   1.462   0.541   3.347 -0.7250  1.0553 -0.6867
 1570SOL     OW16168   4.703   1.709   7.265  0.0364 -0.3970 -0.3007
 1570SOL    HW116169   0.003   1.766   7.338  0.2179  2.0534 -2.2425
 1570SOL    HW216170   4.691   1.770   7.191  0.9525  2.1768  1.6772
 1571SOL     OW16171   3.366   2.610  16.055 -0.5457  0.4629  0.2957
 1571SOL    HW116172   3.321   2.692  16.075  0.3252  1.3803 -1.5118
 1571SOL    HW216173   3.306   2.574  15.990  0.8810  1.0255 -1.3701
 1572SOL     OW16174   4.304   1.284   6.975 -0.1825  0.2120 -0.5348
 1572SOL    HW116175   4.217   1.323   6.966 -1.6743 -3.1428 -0.7266
 1572SOL    HW216176   4.297   1.199   7.018  0.5442  0.9064  0.9814
 1573SOL     OW16177   0.306   1.605   8.551 -0.5994  0.1854 -0.0752
 1573SOL    HW116178   0.256   1.687   8.556 -1.6115 -0.3518 -1.3675
 1573SOL    HW216179   0.381   1.646   8.508 -1.0049  0.3476 -0.6324
 1574SOL     OW16180   0.604   1.860  11.167  0.1570  0.1004 -0.0617
 1574SOL    HW116181   0.593   1.935  11.226  0.5524 -0.1568  0.3282
 1574SOL    HW216182   0.563   1.894  11.087  0.5548 -1.3994 -0.9068
 1575SOL     OW16183   0.803   2.702   3.175  0.0219 -0.0827 -0.3198
 1575SOL    HW116184   0.769   2.696   3.086 -0.0728 -0.8521 -0.2322
 1575SOL    HW216185   0.857   2.780   3.162 -0.3031 -0.1004 -1.7326
 1576SOL     OW16186   0.015   4.617   7.153 -0.1618 -0.1492 -0.0877
 1576SOL    HW116187   0.049   4.690   7.204 -0.4006  0.4138 -0.7321
 1576SOL    HW216188   0.091   4.563   7.130  0.0263 -0.0160  0.2231
 1577SOL     OW16189   3.166   3.355   2.417 -0.1230 -0.6910  0.2846
 1577SOL    HW116190   3.246   3.316   2.382 -0.8395 -0.9724 -1.0862
 1577SOL    HW216191   3.174   3.335   2.510  0.6738 -0.4860  0.2568
 1578SOL     OW16192   1.317   3.531   9.402  0.1983 -0.6573 -0.3148
 1578SOL    HW116193   1.337   3.438   9.409 -1.1041 -0.8516  0.7292
 1578SOL    HW216194   1.247   3.535   9.336  1.0728 -0.1947 -1.2083
 1579SOL     OW16195   1.897   1.296  10.677 -0.0588 -0.0372 -0.2905
 1579SOL    HW116196   1.858   1.217  10.639  0.9068  0.0322 -1.3881
 1579SOL    HW216197   1.903   1.357  10.604 -1.2133  0.9168  0.4003
 1580SOL     OW16198   0.393   3.833  14.671 -0.2607  0.1450  0.4907
 1580SOL    HW116199   0.380   3.894  14.744  1.7333  0.0786  0.9066
 1580SOL    HW216200   0.453   3.770  14.711 -1.0615 -1.2492 -0.5222
 1581SOL     OW16201   3.343   3.249   8.322 -0.2056 -0.0870 -0.2414
 1581SOL    HW116202   3.430   3.274   8.354 -2.1191  4.6010  1.3809
 1581SOL    HW216203   3.313   3.189   8.391 -3.0045  0.3740 -1.0589
 1582SOL     OW16204   4.114   2.439   4.943 -0.3410  0.0519 -0.3592
 1582SOL    HW116205   4.165   2.409   4.868  1.9897 -0.5197  1.4203
 1582SOL    HW216206   4.062   2.504   4.897  0.5065 -0.9516 -2.7069
 1583SOL     OW16207   0.929   0.214  11.910  0.6284  0.1638  0.1520
 1583SOL    HW116208   0.886   0.139  11.871 -0.5933  1.2055 -0.5093
 1583SOL    HW216209   0.956   0.184  11.996 -0.7306 -3.3392 -0.6723
 1584SOL     OW16210   3.812   1.722   7.036  0.5301  0.1042  0.5008
 1584SOL    HW116211   3.799   1.673   7.118 -2.9708 -1.1123 -0.7608
 1584SOL    HW216212   3.752   1.796   7.045  0.6338  0.3257 -0.6511
 1585SOL     OW16213   1.666   0.571   7.748  0.2451 -0.0482  0.3394
 1585SOL    HW116214   1.746   0.554   7.798  2.8906 -1.4299 -4.3548
 1585SOL    HW216215   1.606   0.574   7.822 -0.1961  2.7272 -0.1196
 1586SOL     OW16216   1.866   1.304   9.150  0.4784  0.0730  0.0003
 1586SOL    HW116217   1.807   1.373   9.182  1.0515  0.1628  0.8627
 1586SOL    HW216218   1.804   1.233   9.132 -1.7478  2.0116 -0.0270
 1587SOL     OW16219   1.120   2.312   2.802 -0.4154 -0.1441 -0.7291
 1587SOL    HW116220   1.191   2.315   2.866  0.5474  0.1225 -1.8160
 1587SOL    HW216221   1.125   2.218   2.784 -1.1306 -0.4807  0.7764
 1588SOL     OW16222   0.185   0.599  11.370 -0.2410  0.1295 -0.2007
 1588SOL    HW116223   0.242   0.566  11.300 -0.8492 -0.6843 -0.3188
 1588SOL    HW216224   0.135   0.667  11.325 -2.9398 -0.4826  1.8798
 1589SOL     OW16225   2.480   4.114   0.485  0.7596 -0.3362  0.5156
 1589SOL    HW116226   2.538   4.048   0.448  1.4562  0.9070 -0.6348
 1589SOL    HW216227   2.484   4.082   0.575 -2.4687  0.6867  1.0307
 1590SOL     OW16228   3.800   3.482   4.543 -0.0010 -0.0902 -0.1155
 1590SOL    HW116229   3.760   3.550   4.489 -0.7452 -0.5755 -0.1812
 1590SOL    HW216230   3.890   3.480   4.510  1.3365  0.7839  3.4607
 1591SOL     OW16231   3.173   1.193   5.704  0.8809 -0.8187 -0.8064
 1591SOL    HW116232   3.088   1.177   5.662 -0.3286  0.5383  1.1699
 1591SOL    HW216233   3.208   1.104   5.711  2.9601  0.3796  3.6533
 1592SOL     OW16234   1.674   0.050   6.429  0.1901 -0.6036  0.7209
 1592SOL    HW116235   1.600   0.001   6.394  0.2119 -0.2465  0.1724
 1592SOL    HW216236   1.687   0.121   6.365 -0.2104  0.2568  1.5914
 1593SOL     OW16237   2.030   1.031   8.066 -0.1791  0.3655 -0.5976
 1593SOL    HW116238   1.966   1.065   8.004 -0.3938  0.6423 -0.2306
 1593SOL    HW216239   1.988   1.062   8.147 -0.7834  1.3233 -1.2882
 1594SOL     OW16240   1.391   2.658   8.652  0.7140  0.4206 -0.1441
 1594SOL    HW116241   1.334   2.596   8.605 -0.9280  1.1395  0.8896
 1594SOL    HW216242   1.362   2.641   8.742  0.1382 -0.6216 -0.5157
 1595SOL     OW16243   1.497   4.286   1.610  0.1900 -0.2850  0.4722
 1595SOL    HW116244   1.583   4.266   1.572  0.3860 -1.5705  1.6066
 1595SOL    HW216245   1.481   4.373   1.573 -1.2794 -1.8562 -2.5794
 1596SOL     OW16246   1.034   1.600   6.570 -0.2049  0.2199 -0.9319
 1596SOL    HW116247   1.082   1.683   6.570  0.1130  0.0319 -0.2451
 1596SOL    HW216248   1.025   1.585   6.664  1.0345  1.8861 -0.5613
 1597SOL     OW16249   0.402   3.235   7.872 -0.0874  0.5800  0.1307
 1597SOL    HW116250   0.439   3.207   7.955 -1.2677  0.1890  0.5301
 1597SOL    HW216251   0.313   3.198   7.878  0.6078 -0.8431  1.5442
 1598SOL     OW16252   2.959   0.447  13.022  0.9757 -0.1542  0.5381
 1598SOL    HW116253   3.042   0.436  13.068  0.6354 -2.1327  0.7209
 1598SOL    HW216254   2.909   0.366  13.039 -0.5599  0.8911  0.9961
 1599SOL     OW16255   0.040   1.878  14.894 -0.0749  0.2293  0.2718
 1599SOL    HW116256   0.007   1.836  14.974 -2.0950 -0.9098 -1.1425
 1599SOL    HW216257   0.131   1.847  14.895 -0.3920 -0.6923  1.0345
 1600SOL     OW16258   0.109   3.831   8.558  0.7410  0.9973 -0.0943
 1600SOL    HW116259   0.106   3.881   8.639 -3.6695  0.8310 -0.1752
 1600SOL    HW216260   0.198   3.850   8.529  0.3233 -2.0766 -3.3930
 1601SOL     OW16261   1.195   1.512   3.258 -0.0251  0.6570  0.0313
 1601SOL    HW116262   1.239   1.596   3.246  0.3562  0.4620  0.0979
 1601SOL    HW216263   1.118   1.533   3.204  0.1205 -1.8797 -1.1490
 1602SOL     OW16264   0.113   4.370   9.076  0.5594 -0.3755  0.4686
 1602SOL    HW116265   0.125   4.425   9.153 -0.2833  2.6250 -1.5621
 1602SOL    HW216266   0.067   4.298   9.120 -0.8181  0.5976  0.6278
 1603SOL     OW16267   2.878   3.860  11.017 -0.0266 -0.0218  0.8002
 1603SOL    HW116268   2.872   3.938  11.072 -0.4451  0.6271 -0.1576
 1603SOL    HW216269   2.952   3.825  11.066 -0.4796 -0.6330  1.0497
 1604SOL     OW16270   0.966   1.307   8.564 -0.0114 -0.3553  0.0414
 1604SOL    HW116271   0.879   1.333   8.595  1.3715  2.0808  1.8699
 1604SOL    HW216272   1.019   1.300   8.643 -1.6319  0.7188  1.2030
 1605SOL     OW16273   1.266   4.173   2.213 -0.1662  0.2343 -0.1717
 1605SOL    HW116274   1.242   4.181   2.305 -1.0819  0.6441 -0.4454
 1605SOL    HW216275   1.345   4.225   2.213  1.2761 -1.9474 -1.3550
 1606SOL     OW16276   3.471   3.522   5.404 -0.0373 -0.9452  0.6598
 1606SOL    HW116277   3.545   3.579   5.423  0.4902 -0.7052 -2.1332
 1606SOL    HW216278   3.493   3.505   5.313  0.2893  0.9167  0.4027
 1607SOL     OW16279   2.164   3.391  14.675 -0.6706 -0.1496 -0.6393
 1607SOL    HW116280   2.100   3.328  14.643 -0.7726  0.1006 -0.9247
 1607SOL    HW216281   2.165   3.461  14.610  0.0255 -0.1992 -0.6790
 1608SOL     OW16282   1.339   0.647  10.921  0.1902 -0.3535  0.1528
 1608SOL    HW116283   1.325   0.676  11.012  2.6314  0.6544  0.2067
 1608SOL    HW216284   1.288   0.706  10.866  0.5723 -0.7250 -0.5952
 1609SOL     OW16285   0.152   2.087  11.760 -0.0736 -0.4177  1.2186
 1609SOL    HW116286   0.218   2.056  11.822  0.8654 -0.7181  0.0929
 1609SOL    HW216287   0.151   2.179  11.786  0.2519 -0.5157  1.5787
 1610SOL     OW16288   0.847   0.777   5.087 -0.1058  0.3013 -0.0432
 1610SOL    HW116289   0.919   0.735   5.134  0.1266  2.2161  1.3129
 1610SOL    HW216290   0.897   0.842   5.038 -2.8560  0.0521 -3.1305
 1611SOL     OW16291   1.753   4.154   7.491 -0.1458 -0.0900 -0.1217
 1611SOL    HW116292   1.789   4.209   7.560  0.6109  1.9722 -2.1374
 1611SOL    HW216293   1.670   4.133   7.534 -0.1174  3.5160  1.6510
 1612SOL     OW16294   4.150   4.664   4.775 -0.4207  0.0000  0.1822
 1612SOL    HW116295   4.147   4.574   4.806 -0.9175  0.1577  0.5793
 1612SOL    HW216296   4.072   4.671   4.719 -2.0744  0.9426  2.6103
 1613SOL     OW16297   1.936   3.542   2.933  0.2535 -0.5181  0.7801
 1613SOL    HW116298   1.897   3.455   2.941  2.6672 -1.5806  0.9917
 1613SOL    HW216299   2.014   3.541   2.989  1.5804 -0.8717 -1.0816
 1614SOL     OW16300   2.750   3.411   3.899 -0.0072  0.1864  0.4899
 1614SOL    HW116301   2.696   3.336   3.924 -0.6432 -0.0997 -1.7597
 1614SOL    HW216302   2.735   3.408   3.805 -1.3413 -1.0461  0.7390
 1615SOL     OW16303   0.741   3.607  16.186 -0.7127 -0.0425  0.1293
 1615SOL    HW116304   0.688   3.683  16.211 -0.4291 -0.0280  0.6869
 1615SOL    HW216305   0.723   3.535  16.247  0.2629  0.9683  1.6009
 1616SOL     OW16306   0.852   3.094   6.491  0.2448  0.0581 -0.5886
 1616SOL    HW116307   0.762   3.122   6.502  0.2354  0.2485 -1.1325
 1616SOL    HW216308   0.891   3.115   6.576 -0.4623  0.0372 -0.2581
 1617SOL     OW16309   1.253   0.832   1.518 -0.5695  0.0880  0.6396
 1617SOL    HW116310   1.262   0.884   1.439  1.6684 -0.9141  0.2285
 1617SOL    HW216311   1.159   0.840   1.531 -0.6728 -0.6946  0.4138
 1618SOL     OW16312   0.226   3.413   4.404 -0.4035  0.3164  0.3369
 1618SOL    HW116313   0.218   3.327   4.361 -0.7851  0.0076  1.0219
 1618SOL    HW216314   0.212   3.475   4.333  0.2368 -1.8118 -1.6576
 1619SOL     OW16315   3.871   3.122  11.256  0.5412 -0.0635 -0.0777
 1619SOL    HW116316   3.903   3.032  11.258 -0.2134 -0.3480 -0.6734
 1619SOL    HW216317   3.786   3.099  11.216 -0.6196  0.7854  1.8969
 1620SOL     OW16318   0.779   2.342  16.862 -0.0149 -0.0351  0.1485
 1620SOL    HW116319   0.770   2.406  16.932 -1.6846  0.3263 -0.4047
 1620SOL    HW216320   0.862   2.295  16.873 -0.8441 -0.9492  2.3698
 1621SOL     OW16321   1.811   4.085   6.133  0.3988  0.3278 -0.2594
 1621SOL    HW116322   1.821   4.020   6.203 -3.2315 -2.1450 -2.0162
 1621SOL    HW216323   1.898   4.082   6.094  0.8564 -1.3304  0.8665
 1622SOL     OW16324   4.116   2.594  16.532  0.1950 -0.2710 -0.4671
 1622SOL    HW116325   4.052   2.646  16.581  0.3074  1.7011 -2.3669
 1622SOL    HW216326   4.166   2.570  16.609  1.2652  1.5848 -0.5794
 1623SOL     OW16327   3.131   1.555  13.283 -0.4369 -0.2400  0.4146
 1623SOL    HW116328   3.190   1.629  13.295 -0.2689 -0.1711 -0.8351
 1623SOL    HW216329   3.054   1.582  13.233 -1.8078 -0.9364  2.1524
 1624SOL     OW16330   1.454   3.298   5.913 -0.1898 -0.7124 -0.2034
 1624SOL    HW116331   1.505   3.374   5.887 -0.5134 -0.7316 -0.9244
 1624SOL    HW216332   1.415   3.265   5.831 -1.1697  1.6143 -0.6844
 1625SOL     OW16333   0.883   4.424   9.115 -0.3426  0.3629  0.8100
 1625SOL    HW116334   0.971   4.457   9.099  0.1064 -0.7798  0.8972
 1625SOL    HW216335   0.837   4.491   9.167 -1.9020 -0.7742  0.8978
 1626SOL     OW16336   3.177   4.350   0.622 -0.6079  0.2021 -0.5694
 1626SOL    HW116337   3.098   4.320   0.578 -1.1764 -1.4239  1.5202
 1626SOL    HW216338   3.142   4.420   0.677 -0.8414 -0.0290 -0.4227
 1627SOL     OW16339   0.087   2.877  12.658  0.1529  0.4563  0.4731
 1627SOL    HW116340   0.169   2.851  12.700 -0.1544 -0.5747  0.4243
 1627SOL    HW216341   0.088   2.973  12.661  2.6313  0.3952  1.5474
 1628SOL     OW16342   4.704   2.363   8.625  0.7879 -0.2164  0.0037
 1628SOL    HW116343   4.719   2.430   8.692  0.0992 -0.7108  0.6428
 1628SOL    HW216344   4.631   2.318   8.668  0.0836 -0.1650 -1.1488
 1629SOL     OW16345   2.695   4.190   4.309 -0.0573  0.7232 -0.0488
 1629SOL    HW116346   2.752   4.126   4.352 -0.2285  1.5814  1.4288
 1629SOL    HW216347   2.725   4.277   4.333  1.6143  0.6028 -1.6648
 1630SOL     OW16348   2.790   0.965   5.872 -0.1676  0.3276 -0.6212
 1630SOL    HW116349   2.779   0.880   5.914  0.4188  0.5263 -0.0669
 1630SOL    HW216350   2.831   0.934   5.791 -0.1649 -0.0244 -0.4831
 1631SOL     OW16351   4.567   4.091   1.429 -0.6727 -0.8738  0.2536
 1631SOL    HW116352   4.574   3.997   1.443  0.6858 -0.7518  0.4316
 1631SOL    HW216353   4.476   4.091   1.401 -0.7827  0.1194  0.6203
 1632SOL     OW16354   2.210   3.700  16.995 -0.8299 -0.0792 -0.0852
 1632SOL    HW116355   2.154   3.777  17.008 -0.3066  0.2051  0.4870
 1632SOL    HW216356   2.158   3.649  16.933 -0.5259 -2.2523  1.4261
 1633SOL     OW16357   1.471   2.000   1.450  0.5955 -0.1805 -0.6012
 1633SOL    HW116358   1.436   1.969   1.367 -1.2216 -1.7935  0.7607
 1633SOL    HW216359   1.444   1.923   1.501  0.1029 -1.4755 -2.8472
 1634SOL     OW16360   0.865   2.990   5.263 -0.0377  0.1898  0.8337
 1634SOL    HW116361   0.941   2.940   5.233 -1.0934 -2.7842  3.0351
 1634SOL    HW216362   0.865   2.972   5.357 -1.0270 -0.1405  0.7713
 1635SOL     OW16363   1.664   3.237  11.748 -0.3791 -0.1639 -0.0775
 1635SOL    HW116364   1.739   3.177  11.753  0.8822  1.5756  1.8882
 1635SOL    HW216365   1.710   3.321  11.738 -1.7751  0.5015 -0.8344
 1636SOL     OW16366   2.301   1.211   5.172  0.0855 -0.1588  0.3512
 1636SOL    HW116367   2.281   1.220   5.079  1.5013  0.6948  0.1379
 1636SOL    HW216368   2.213   1.179   5.195  0.6499 -1.7280  0.3107
 1637SOL     OW16369   0.172   3.956   9.721  0.1849 -0.7507  0.0410
 1637SOL    HW116370   0.086   3.924   9.693 -1.0390 -0.2562  3.2736
 1637SOL    HW216371   0.196   3.877   9.769  0.7467 -1.2417 -1.0571
 1638SOL     OW16372   1.754   1.740   7.708 -0.2809 -0.3026 -0.1952
 1638SOL    HW116373   1.837   1.760   7.666 -0.2183  1.0275  0.5513
 1638SOL    HW216374   1.793   1.690   7.780 -1.5760 -0.0127  0.7033
 1639SOL     OW16375   1.350   0.316   2.058  0.2179 -0.1130 -0.4850
 1639SOL    HW116376   1.297   0.312   1.979 -1.2365 -1.5959  0.5738
 1639SOL    HW216377   1.417   0.380   2.034 -0.8297  0.6809 -1.2949
 1640SOL     OW16378   3.506   4.277   4.393  0.6583 -0.0113  0.3024
 1640SOL    HW116379   3.557   4.358   4.398  0.9467 -0.2846  1.7736
 1640SOL    HW216380   3.530   4.236   4.310  0.9658  1.1875 -0.2114
 1641SOL     OW16381   1.234   4.012  13.434  0.0753 -0.2876 -0.2158
 1641SOL    HW116382   1.270   3.943  13.490 -0.4232  1.9313  2.8810
 1641SOL    HW216383   1.147   4.020  13.473 -0.2810 -1.2026 -0.8541
 1642SOL     OW16384   2.560   4.302   7.351  0.4313 -0.1238  0.2393
 1642SOL    HW116385   2.516   4.287   7.267 -1.2388  0.2997  1.0339
 1642SOL    HW216386   2.583   4.214   7.380 -1.8020 -1.1016 -0.9486
 1643SOL     OW16387   2.152   2.350   2.382  0.2141  0.2014 -0.8683
 1643SOL    HW116388   2.203   2.398   2.317  0.2096  1.5932  0.1557
 1643SOL    HW216389   2.144   2.262   2.345 -1.6304  0.0440 -0.0932
 1644SOL     OW16390   1.752   4.398   7.640 -0.0083 -0.5400 -0.3726
 1644SOL    HW116391   1.667   4.389   7.682 -0.3406 -0.6948 -1.0882
 1644SOL    HW216392   1.794   4.457   7.703 -1.5110  0.7383 -0.5629
 1645SOL     OW16393   0.977   3.807   8.782  0.0510  0.1565  0.0329
 1645SOL    HW116394   0.917   3.881   8.793 -1.7754 -1.2966 -0.1227
 1645SOL    HW216395   0.935   3.792   8.697  1.0293  4.4026 -1.2000
 1646SOL     OW16396   4.251   1.154   6.087 -0.1948 -0.0644 -0.6172
 1646SOL    HW116397   4.167   1.109   6.077 -1.7437  1.8556  3.8415
 1646SOL    HW216398   4.280   1.121   6.173  1.4088  4.7723  0.6836
 1647SOL     OW16399   1.142   2.304   0.114 -0.6049 -0.3613  0.3491
 1647SOL    HW116400   1.215   2.263   0.068  0.0238  1.1773 -0.0292
 1647SOL    HW216401   1.159   2.396   0.095  2.7645 -0.8226  1.1114
 1648SOL     OW16402   4.006   2.454   1.013  0.1240  0.1474  0.0542
 1648SOL    HW116403   3.941   2.428   0.948  1.2757 -0.1727 -0.9740
 1648SOL    HW216404   3.959   2.514   1.070  0.4837  1.8914 -1.4670
 1649SOL     OW16405   3.181   2.707   7.728 -0.7415 -0.1792  0.2186
 1649SOL    HW116406   3.128   2.641   7.683 -1.3825 -0.5415  1.4942
 1649SOL    HW216407   3.206   2.660   7.808  1.9861  0.7326 -0.1143
 1650SOL     OW16408   1.978   1.383  13.109  0.4691  0.9635 -0.3117
 1650SOL    HW116409   2.005   1.300  13.070 -1.8092  0.5470 -1.0023
 1650SOL    HW216410   1.971   1.436  13.029 -2.0808 -1.1576 -1.5022
 1651SOL     OW16411   1.723   1.961  13.624  0.2842 -0.5198 -0.0526
 1651SOL    HW116412   1.666   1.886  13.610  0.2261 -0.5495  0.3456
 1651SOL    HW216413   1.802   1.910  13.641 -1.1301 -3.2414 -1.7433
 1652SOL     OW16414   4.687   4.182   9.178 -0.0172 -0.4587  0.0041
 1652SOL    HW116415   4.680   4.096   9.221 -0.6722 -0.5164 -0.2112
 1652SOL    HW216416   4.636   4.142   9.107 -0.9677 -0.6882  0.8159
 1653SOL     OW16417   0.782   1.313   0.338 -0.0083 -0.1258  0.8178
 1653SOL    HW116418   0.741   1.278   0.258 -0.1860 -1.5662  1.5454
 1653SOL    HW216419   0.850   1.253   0.368  0.9263  0.4341 -0.2068
 1654SOL     OW16420   0.161   4.264  17.574 -0.3457  0.8646 -0.4916
 1654SOL    HW116421   0.161   4.169  17.560 -3.1327  1.1366 -2.5059
 1654SOL    HW216422   0.208   4.265  17.658 -2.2590 -0.3212  0.6053
 1655SOL     OW16423   1.408   1.595  10.059 -0.1657 -0.4441 -0.0769
 1655SOL    HW116424   1.419   1.689  10.065  1.5836 -0.5947 -1.0090
 1655SOL    HW216425   1.318   1.588  10.093 -0.6727 -0.3936 -1.3936
 1656SOL     OW16426   3.958   2.213  15.894 -0.2770 -0.3292 -0.3773
 1656SOL    HW116427   3.899   2.259  15.953  0.6816  2.4675 -1.6083
 1656SOL    HW216428   3.887   2.174  15.843 -0.8546  0.8669 -0.4655
 1657SOL     OW16429   1.511   2.773   0.331  0.0058 -0.2454 -0.7871
 1657SOL    HW116430   1.524   2.761   0.426  2.0425  2.4811 -0.7427
 1657SOL    HW216431   1.560   2.854   0.319  1.0839 -1.1352 -2.4067
 1658SOL     OW16432   1.087   3.598   6.382  0.0108  0.2086  0.1385
 1658SOL    HW116433   1.096   3.538   6.308 -4.4409 -1.9578  1.3117
 1658SOL    HW216434   1.086   3.525   6.445  0.0081 -0.9650 -1.2357
 1659SOL     OW16435   3.778   2.492   2.554 -0.6940  0.0699  0.1641
 1659SOL    HW116436   3.778   2.571   2.500 -0.1709  0.1309  0.2526
 1659SOL    HW216437   3.686   2.495   2.580 -1.2314  1.7760 -1.9325
 1660SOL     OW16438   3.830   1.423   8.440  0.5575 -0.0569 -0.6487
 1660SOL    HW116439   3.810   1.357   8.506  1.7048 -0.6610 -0.9057
 1660SOL    HW216440   3.828   1.369   8.361  0.2690 -0.7830 -0.1413
 1661SOL     OW16441   4.486   2.033   4.842 -0.0460 -0.2904 -0.2809
 1661SOL    HW116442   4.397   2.011   4.868 -0.8047  1.3580 -1.4324
 1661SOL    HW216443   4.526   2.044   4.928 -1.8982  0.8673  0.4143
 1662SOL     OW16444   1.140   3.104   1.683  0.2754  0.1501  0.2825
 1662SOL    HW116445   1.203   3.095   1.755  1.3885  0.0712 -0.6980
 1662SOL    HW216446   1.057   3.074   1.718  0.6599  1.8464  2.6725
 1663SOL     OW16447   2.667   4.358   6.520  0.2915 -0.6809 -0.1518
 1663SOL    HW116448   2.746   4.310   6.543 -0.6522 -2.3827 -0.4874
 1663SOL    HW216449   2.701   4.446   6.504  0.5671 -0.4025  2.0291
 1664SOL     OW16450   2.238   1.760  14.033  0.7990  0.1175 -0.7702
 1664SOL    HW116451   2.319   1.722  14.067  0.0684  1.0219  2.0390
 1664SOL    HW216452   2.204   1.679  13.996 -0.9200 -0.0871  1.2184
 1665SOL     OW16453   3.919   2.943   4.763  0.0880 -0.1335  0.0438
 1665SOL    HW116454   3.915   2.869   4.823  0.7617  0.0703  0.3390
 1665SOL    HW216455   3.905   3.018   4.821  1.6374 -0.7804  1.2789
 1666SOL     OW16456   2.754   4.057  10.707 -0.7927  0.1639  1.1859
 1666SOL    HW116457   2.805   4.127  10.748  1.7199 -1.2865  0.5154
 1666SOL    HW216458   2.740   4.091  10.618 -2.0259 -0.5697  1.0953
 1667SOL     OW16459   4.315   3.618  11.028 -0.4497  0.4033 -0.4105
 1667SOL    HW116460   4.350   3.705  11.044  0.1704 -0.3583  2.3327
 1667SOL    HW216461   4.399   3.579  11.003 -0.7165  0.2511 -1.0924
 1668SOL     OW16462   4.183   0.370   6.652  0.0400 -0.2262 -0.1743
 1668SOL    HW116463   4.166   0.281   6.683 -0.6575  1.0011  3.0237
 1668SOL    HW216464   4.278   0.360   6.662 -0.0176 -0.5784  0.0209
 1669SOL     OW16465   0.453   1.213   4.477 -0.2533  0.0824 -0.1352
 1669SOL    HW116466   0.454   1.300   4.518  2.6631  0.3059 -0.6606
 1669SOL    HW216467   0.380   1.229   4.418 -0.5105 -0.8348 -0.0591
 1670SOL     OW16468   3.050   1.185   4.533  0.0780 -0.0328  0.0490
 1670SOL    HW116469   2.982   1.209   4.596  0.4358 -2.4443  1.3801
 1670SOL    HW216470   3.052   1.265   4.482 -0.6518 -1.3191 -2.0051
 1671SOL     OW16471   0.756   1.472   6.385 -0.2575  0.1231 -0.5292
 1671SOL    HW116472   0.709   1.534   6.329  0.6026 -0.8011 -2.2784
 1671SOL    HW216473   0.836   1.479   6.334  0.1081  2.0992  0.3119
 1672SOL     OW16474   3.731   0.491  15.736 -0.0012  0.4688 -0.1304
 1672SOL    HW116475   3.785   0.564  15.707  1.1198 -1.5885 -3.2583
 1672SOL    HW216476   3.655   0.508  15.681 -1.2744 -3.3956  0.4738
 1673SOL     OW16477   2.451   2.555  17.140 -0.2720  0.4652  0.5123
 1673SOL    HW116478   2.437   2.635  17.091  1.8910  0.4075 -0.2089
 1673SOL    HW216479   2.404   2.487  17.091 -1.7426  0.8300  1.4283
 1674SOL     OW16480   4.361   2.211   6.296  0.5576  0.0908  0.5788
 1674SOL    HW116481   4.398   2.123   6.292 -1.6233 -0.6660 -2.9759
 1674SOL    HW216482   4.438   2.268   6.298 -0.7723  1.8334  2.1223
 1675SOL     OW16483   2.839   1.954   4.640 -0.6187 -0.1481  0.1699
 1675SOL    HW116484   2.746   1.965   4.621 -0.1062  0.2904 -2.1313
 1675SOL    HW216485   2.854   1.872   4.686 -1.6138 -0.0295  0.6827
 1676SOL     OW16486   0.803   3.135   1.863  0.1113 -0.2093  0.4163
 1676SOL    HW116487   0.707   3.138   1.866  0.0659 -0.3977 -0.6723
 1676SOL    HW216488   0.809   3.187   1.782  0.1054 -1.0582 -0.1243
 1677SOL     OW16489   3.446   3.397   1.160 -0.3419 -0.4583  0.1429
 1677SOL    HW116490   3.495   3.332   1.210 -0.9682 -0.5239  0.6691
 1677SOL    HW216491   3.467   3.380   1.068 -2.3305  0.7327 -0.5217
 1678SOL     OW16492   1.952   2.489   6.237  0.2329  0.0686  0.1770
 1678SOL    HW116493   2.002   2.514   6.159  2.4355 -0.1122  1.5152
 1678SOL    HW216494   1.867   2.525   6.213 -0.4994 -2.0221 -0.3551
 1679SOL     OW16495   0.666   2.258   2.926  0.2874  0.4499  0.0241
 1679SOL    HW116496   0.716   2.198   2.980 -0.5132  1.0562  1.4356
 1679SOL    HW216497   0.729   2.329   2.916 -1.9455  2.3222 -0.8773
 1680SOL     OW16498   0.300   0.052  12.913 -0.6756  0.1777  0.4708
 1680SOL    HW116499   0.322   4.706  12.854  0.1022  0.9958 -0.2148
 1680SOL    HW216500   0.259   0.111  12.850 -0.8264  1.2178  1.5480
 1681SOL     OW16501   4.693   2.180  14.087  0.2913  0.1002  0.1313
 1681SOL    HW116502   4.701   2.200  13.994 -2.9006  0.9777  0.0164
 1681SOL    HW216503   4.622   2.116  14.087  0.6255 -0.2779  2.0447
 1682SOL     OW16504   2.267   0.291  16.706 -0.2212  0.2767 -0.8273
 1682SOL    HW116505   2.297   0.226  16.770 -0.3705 -0.7771 -1.8430
 1682SOL    HW216506   2.345   0.346  16.715 -1.0407  1.3234 -0.1348
 1683SOL     OW16507   1.698   3.821  17.433  0.1090  0.2845  0.7525
 1683SOL    HW116508   1.680   3.778  17.349 -0.9460  3.4721 -0.6543
 1683SOL    HW216509   1.666   3.906  17.401  2.9205  0.4347 -1.7087
 1684SOL     OW16510   2.660   3.600   8.368  0.3132  0.2555 -0.2981
 1684SOL    HW116511   2.614   3.682   8.352 -1.5658 -1.2516 -2.6590
 1684SOL    HW216512   2.648   3.570   8.278 -0.9050  1.0600 -0.3994
 1685SOL     OW16513   2.745   3.582  11.881  0.0373 -0.5894 -0.5585
 1685SOL    HW116514   2.739   3.609  11.972  0.2056 -1.2750 -0.3470
 1685SOL    HW216515   2.812   3.514  11.883 -0.4612 -1.1196 -1.6386
 1686SOL     OW16516   4.176   1.065   1.775 -0.1983  0.0412  0.2518
 1686SOL    HW116517   4.184   1.090   1.683 -0.8706  0.8723  0.4259
 1686SOL    HW216518   4.084   1.089   1.787  0.7183  2.6223  2.2155
 1687SOL     OW16519   2.549   2.486   7.465 -0.1394  0.4897  0.5768
 1687SOL    HW116520   2.626   2.507   7.518  0.1337 -0.1954  0.4511
 1687SOL    HW216521   2.518   2.403   7.500 -0.9081  0.8456  0.7408
 1688SOL     OW16522   2.013   4.250   5.821 -0.2227 -0.0460 -0.5878
 1688SOL    HW116523   1.948   4.229   5.754 -0.5972  0.9828 -0.5475
 1688SOL    HW216524   2.002   4.345   5.814  1.0853  0.1828  0.5528
 1689SOL     OW16525   3.799   1.090   5.751 -0.3751 -0.1396  0.1454
 1689SOL    HW116526   3.858   1.147   5.702 -1.5878  1.9267  1.0605
 1689SOL    HW216527   3.768   1.034   5.681  0.2571  1.3502 -1.3248
 1690SOL     OW16528   0.037   0.930   6.694 -0.3238  0.8561  0.3185
 1690SOL    HW116529   4.709   0.984   6.636 -2.8617 -1.3151  0.6036
 1690SOL    HW216530   0.004   0.841   6.679  1.2010  0.4150 -0.4038
 1691SOL     OW16531   1.219   2.578   0.766 -0.1651  0.0798 -0.5360
 1691SOL    HW116532   1.198   2.611   0.678  0.2609  1.1695 -0.2255
 1691SOL    HW216533   1.130   2.573   0.799  0.0769 -1.8053 -0.1712
 1692SOL     OW16534   3.261   0.382  15.238  0.1953  0.0744  0.1886
 1692SOL    HW116535   3.357   0.385  15.233  0.2041  1.9291  1.4472
 1692SOL    HW216536   3.227   0.385  15.328 -0.1205  1.1299  0.0350
 1693SOL     OW16537   4.477   2.652  11.126  0.2523 -0.4043  0.1120
 1693SOL    HW116538   4.510   2.662  11.215  0.8177  0.5453 -0.2099
 1693SOL    HW216539   4.503   2.727  11.073 -1.5039  0.6484  0.7207
 1694SOL     OW16540   3.367   1.575  16.559  0.2113 -0.4670 -0.4342
 1694SOL    HW116541   3.376   1.585  16.465  0.2411  2.2369 -0.1387
 1694SOL    HW216542   3.441   1.626  16.591 -1.9173  1.9667  0.6777
 1695SOL     OW16543   0.373   4.017  15.428 -0.0777 -0.3819  0.2103
 1695SOL    HW116544   0.409   3.973  15.351 -1.8903 -1.5796  0.0487
 1695SOL    HW216545   0.280   4.014  15.405  0.5283 -3.2406 -1.8340
 1696SOL     OW16546   0.745   4.168  13.337 -0.6010 -0.4524  0.0422
 1696SOL    HW116547   0.716   4.146  13.249 -1.4345 -1.3450  0.5381
 1696SOL    HW216548   0.750   4.263  13.333 -3.1254 -0.3378 -0.6252
 1697SOL     OW16549   0.589   2.495  14.555  0.1889 -0.0673  0.5519
 1697SOL    HW116550   0.588   2.400  14.548  1.6777  0.0114 -1.0418
 1697SOL    HW216551   0.667   2.506  14.610 -0.8671 -0.3401  2.0798
 1698SOL     OW16552   3.475   4.668   2.634 -0.1927  0.0185 -0.4968
 1698SOL    HW116553   3.513   4.705   2.713 -0.3654  2.1162 -1.3866
 1698SOL    HW216554   3.553   4.669   2.578 -0.5224 -0.8960 -0.9774
 1699SOL     OW16555   1.724   2.557  10.430  0.0065  0.0505  0.2059
 1699SOL    HW116556   1.809   2.601  10.419 -0.4559  1.0725  0.7607
 1699SOL    HW216557   1.691   2.565  10.341 -0.4509  2.5956  0.6035
 1700SOL     OW16558   1.227   4.524   8.435  0.3023 -0.9370  0.2095
 1700SOL    HW116559   1.229   4.583   8.511 -1.7818 -1.5988  0.7714
 1700SOL    HW216560   1.201   4.586   8.368 -1.5444 -2.5737 -0.5845
 1701SOL     OW16561   1.490   2.643  10.567 -0.1604 -0.0991 -0.3659
 1701SOL    HW116562   1.565   2.638  10.507  0.1218  0.1112 -0.0302
 1701SOL    HW216563   1.535   2.669  10.647  0.2579  0.5380 -0.8052
 1702SOL     OW16564   0.025   3.751   3.620 -0.5386 -0.3384 -0.4217
 1702SOL    HW116565   0.120   3.742   3.625 -0.4705 -0.1497 -1.4107
 1702SOL    HW216566   0.016   3.843   3.643  0.2851 -0.1118 -1.0195
 1703SOL     OW16567   1.721   0.588  11.453  0.2721 -0.0564  0.5196
 1703SOL    HW116568   1.726   0.672  11.498  2.6400  0.8290 -1.3985
 1703SOL    HW216569   1.811   0.556  11.454 -1.1468 -3.9653  0.7026
 1704SOL     OW16570   0.783   0.437  15.551 -0.0132  0.1887 -0.1107
 1704SOL    HW116571   0.794   0.496  15.626  1.9368  0.1002 -0.3435
 1704SOL    HW216572   0.868   0.452  15.510 -1.0677  2.2862 -1.5985
 1705SOL     OW16573   3.256   0.516   5.211 -0.5286  0.5812 -0.2280
 1705SOL    HW116574   3.162   0.532   5.210 -0.7725 -0.8479  1.2482
 1705SOL    HW216575   3.287   0.603   5.188 -0.7812  0.0498 -2.5891
 1706SOL     OW16576   0.009   3.302  13.560  0.4353 -0.0301  0.6827
 1706SOL    HW116577   4.710   3.365  13.492  1.2082  1.3937  1.7363
 1706SOL    HW216578   0.077   3.355  13.600 -0.8689 -0.4944  3.5018
 1707SOL     OW16579   3.101   2.682  13.397  0.0892 -0.1517 -0.3023
 1707SOL    HW116580   3.067   2.639  13.318 -1.2216 -1.2880  0.8532
 1707SOL    HW216581   3.160   2.744  13.356 -1.3329  0.1273 -1.9505
 1708SOL     OW16582   0.530   1.525   8.180 -0.6685 -0.2614 -0.3567
 1708SOL    HW116583   0.540   1.497   8.089 -1.8469 -0.5368 -0.4021
 1708SOL    HW216584   0.586   1.461   8.223  0.2713  1.0567  0.3756
 1709SOL     OW16585   1.538   3.370   6.368 -0.3165  0.0649  0.1925
 1709SOL    HW116586   1.507   3.283   6.341 -0.7731  0.4960 -0.6502
 1709SOL    HW216587   1.599   3.344   6.437 -0.5673  2.6148  1.3800
 1710SOL     OW16588   4.048   3.141   3.756  0.4793  0.1406  0.4511
 1710SOL    HW116589   4.005   3.157   3.672  1.6755 -0.0154 -0.2050
 1710SOL    HW216590   4.069   3.231   3.784  0.3449  0.4198 -0.3325
 1711SOL     OW16591   3.992   4.519  10.441  0.1230  0.3363 -0.0999
 1711SOL    HW116592   4.047   4.595  10.461 -2.2827  2.0415  0.0683
 1711SOL    HW216593   4.037   4.480  10.366 -0.9619 -0.8440 -0.1398
 1712SOL     OW16594   4.000   1.227   6.431  0.1986 -0.2669 -0.1730
 1712SOL    HW116595   4.073   1.198   6.486  0.6842  1.5960  0.1683
 1712SOL    HW216596   3.972   1.142   6.398  0.6249 -0.3647 -0.2876
 1713SOL     OW16597   0.580   0.044   0.032  0.4454  0.5855 -0.3771
 1713SOL    HW116598   0.515   4.717  17.686  1.0172 -0.6340  0.1568
 1713SOL    HW216599   0.664   0.002   0.012  1.8393  2.6873  1.1687
 1714SOL     OW16600   1.635   1.756   7.182 -0.2225 -0.0869  0.0186
 1714SOL    HW116601   1.695   1.781   7.253  2.2401  2.2142 -2.9028
 1714SOL    HW216602   1.677   1.810   7.116 -1.7684 -0.6695 -1.4393
 1715SOL     OW16603   4.446   0.280   8.911 -0.3594 -0.0180 -0.8287
 1715SOL    HW116604   4.397   0.199   8.924  2.9009 -1.5401  1.7216
 1715SOL    HW216605   4.534   0.253   8.883 -0.3873 -1.5632  0.5954
 1716SOL     OW16606   4.127   1.707  15.597  0.0713 -0.0365 -0.3419
 1716SOL    HW116607   4.089   1.786  15.558 -2.8345 -1.8541 -1.2356
 1716SOL    HW216608   4.209   1.703  15.549  0.0782 -0.5414 -0.2785
 1717SOL     OW16609   2.497   4.662  13.568 -0.0763 -0.4740  0.2360
 1717SOL    HW116610   2.424   4.614  13.608  0.0719 -0.1182  0.9395
 1717SOL    HW216611   2.490   4.624  13.481  0.0060 -0.1250  0.0795
 1718SOL     OW16612   0.755   4.575  11.482 -0.6260 -0.5781  0.1273
 1718SOL    HW116613   0.714   4.554  11.398 -2.0541  4.5384 -0.4987
 1718SOL    HW216614   0.711   4.508  11.533 -0.6523 -1.0130 -0.4652
 1719SOL     OW16615   1.688   3.682   8.934  0.7330  0.8715 -0.2076
 1719SOL    HW116616   1.607   3.640   8.959  3.0258 -2.4644  1.5789
 1719SOL    HW216617   1.757   3.642   8.986 -0.5661 -2.2266 -0.9202
 1720SOL     OW16618   2.766   1.572   4.004  0.0017 -0.0282  0.0753
 1720SOL    HW116619   2.788   1.641   3.941 -1.1990  1.0663  0.8426
 1720SOL    HW216620   2.688   1.539   3.961  1.7667 -1.6145 -1.8517
 1721SOL     OW16621   3.506   0.016   8.514 -0.6443 -0.3864 -0.3260
 1721SOL    HW116622   3.495   0.003   8.608 -1.0785 -1.4271 -0.5244
 1721SOL    HW216623   3.581   4.684   8.501 -0.5521 -0.5993  1.1813
 1722SOL     OW16624   0.181   3.183   8.765  0.5101 -0.2975  0.5375
 1722SOL    HW116625   0.257   3.132   8.740 -0.2511 -1.7099  1.1261
 1722SOL    HW216626   0.152   3.130   8.839  1.4151  1.0667  1.8719
 1723SOL     OW16627   1.568   3.742   7.076 -0.1467 -0.6057 -0.2775
 1723SOL    HW116628   1.558   3.829   7.114 -1.4651 -1.3874  1.1702
 1723SOL    HW216629   1.662   3.731   7.091 -0.1751 -0.7392 -0.1963
 1724SOL     OW16630   4.365   1.972   4.080 -0.7325 -0.1706 -0.3819
 1724SOL    HW116631   4.282   1.978   4.032 -0.4240  0.0632 -0.8807
 1724SOL    HW216632   4.372   1.888   4.125 -0.7647 -0.0264 -0.1047
 1725SOL     OW16633   0.154   2.021   6.445 -0.5988 -0.1471  0.1204
 1725SOL    HW116634   0.113   2.069   6.517 -0.5793  1.0474 -0.6683
 1725SOL    HW216635   0.112   1.935   6.452 -2.1005  0.6294  0.8463
 1726SOL     OW16636   1.071   4.434   2.775 -0.0933  0.2674  0.2080
 1726SOL    HW116637   1.096   4.394   2.692 -0.2650 -0.3757  0.4696
 1726SOL    HW216638   1.028   4.359   2.817 -4.7230  2.3936 -0.6770
 1727SOL     OW16639   0.940   4.077   5.044  0.2962 -1.3586 -0.4215
 1727SOL    HW116640   0.966   4.116   4.960  0.1833  0.8357  0.5690
 1727SOL    HW216641   0.866   4.134   5.065  0.5902 -1.4199  0.7726
 1728SOL     OW16642   0.010   3.394   5.733  0.3366 -0.7604  0.3567
 1728SOL    HW116643   0.106   3.397   5.738  0.3059  0.4391  0.2548
 1728SOL    HW216644   4.704   3.468   5.785  1.1066 -0.5972  0.5935
 1729SOL     OW16645   0.655   1.890   2.238 -0.3049 -0.5687  0.7392
 1729SOL    HW116646   0.729   1.900   2.297 -0.3334 -0.0129  0.6859
 1729SOL    HW216647   0.643   1.981   2.209  0.9932 -1.3885 -2.3771
 1730SOL     OW16648   0.431   4.407   1.459  0.2049  0.1405 -0.4198
 1730SOL    HW116649   0.377   4.395   1.537 -0.1114  0.6980 -0.5517
 1730SOL    HW216650   0.399   4.490   1.422 -1.8456  0.5808  2.3449
 1731SOL     OW16651   2.801   3.197   7.324 -0.6761  0.1793  0.2277
 1731SOL    HW116652   2.760   3.166   7.243  1.2834  0.5045 -0.8950
 1731SOL    HW216653   2.806   3.292   7.313  1.6299 -0.0646 -0.9484
 1732SOL     OW16654   0.606   2.504  11.353 -0.2895 -0.1256 -0.3980
 1732SOL    HW116655   0.604   2.451  11.433 -1.0720  0.3335 -0.1066
 1732SOL    HW216656   0.516   2.537  11.348 -0.2462  0.3257  1.6430
 1733SOL     OW16657   0.283   3.504   2.850  0.3202  0.3885  0.0378
 1733SOL    HW116658   0.254   3.433   2.907  1.2829 -0.8415 -0.9882
 1733SOL    HW216659   0.356   3.550   2.892  1.3182 -0.8188 -0.3692
 1734SOL     OW16660   0.650   1.125   6.939 -0.5095 -0.4675 -0.2458
 1734SOL    HW116661   0.725   1.147   6.884  0.1274 -0.8916  0.4590
 1734SOL    HW216662   0.613   1.068   6.872 -2.4052  0.8315 -0.3112
 1735SOL     OW16663   0.375   0.570  11.573 -0.4886  0.0379  0.7806
 1735SOL    HW116664   0.371   0.476  11.590 -0.1466 -0.1175 -0.0310
 1735SOL    HW216665   0.300   0.570  11.514  0.4900  0.4641 -0.4429
 1736SOL     OW16666   3.562   0.722  14.629 -0.4014 -0.1941  0.1638
 1736SOL    HW116667   3.471   0.751  14.628 -0.6110 -0.7730  2.6206
 1736SOL    HW216668   3.572   0.678  14.544 -0.3957 -0.6152  0.3831
 1737SOL     OW16669   4.688   2.944   7.912 -0.2921  0.0679 -0.5842
 1737SOL    HW116670   4.611   2.931   7.857  0.3972 -0.9497 -1.3044
 1737SOL    HW216671   4.687   2.864   7.966 -1.9169  0.5124  0.0376
 1738SOL     OW16672   1.417   0.336   6.679  0.1820 -0.7042  0.2110
 1738SOL    HW116673   1.462   0.252   6.691 -0.2411 -0.5105  3.2191
 1738SOL    HW216674   1.351   0.312   6.614  2.1846  0.4014 -2.2357
 1739SOL     OW16675   3.226   4.495   5.520 -0.2282  0.0867  0.0119
 1739SOL    HW116676   3.223   4.591   5.526  0.5215  0.0868  0.3612
 1739SOL    HW216677   3.201   4.475   5.610 -0.3737 -0.1548 -0.0833
 1740SOL     OW16678   3.763   0.960   9.966 -0.1080  0.3585  0.2612
 1740SOL    HW116679   3.731   1.042  10.004 -0.4740 -0.3077  1.3930
 1740SOL    HW216680   3.700   0.898  10.003  0.3855 -0.8224 -0.8979
 1741SOL     OW16681   3.716   3.886   4.966 -0.3537  0.0056 -0.6261
 1741SOL    HW116682   3.684   3.835   4.892 -0.1849  0.1100 -0.7696
 1741SOL    HW216683   3.810   3.880   4.948  0.1178  1.3531  1.4162
 1742SOL     OW16684   2.434   4.492  14.569  0.0168  0.4467 -0.1383
 1742SOL    HW116685   2.352   4.443  14.569  1.0786 -1.3450 -1.2347
 1742SOL    HW216686   2.432   4.555  14.641  1.3762 -0.3053  0.5597
 1743SOL     OW16687   1.175   1.071   6.505  0.1829 -0.0652 -0.3595
 1743SOL    HW116688   1.266   1.047   6.489 -0.3111 -0.8412 -2.0332
 1743SOL    HW216689   1.185   1.164   6.482 -1.5853  0.3641  0.5560
 1744SOL     OW16690   3.370   2.215   6.404 -0.2967 -0.1869 -0.0477
 1744SOL    HW116691   3.380   2.275   6.330 -1.2384 -0.2213 -0.2092
 1744SOL    HW216692   3.277   2.197   6.389  0.0846 -1.9069 -0.3291
 1745SOL     OW16693   4.406   4.348   8.145 -1.0043  0.4570  0.4474
 1745SOL    HW116694   4.419   4.255   8.160 -0.9683  0.2356 -0.9507
 1745SOL    HW216695   4.490   4.387   8.170 -0.8407  0.9873 -0.9162
 1746SOL     OW16696   1.338   3.875   7.290  0.6276 -0.2258 -0.1454
 1746SOL    HW116697   1.283   3.920   7.225  0.1126  0.4754  0.7749
 1746SOL    HW216698   1.285   3.800   7.314 -0.6078  0.7589  0.2045
 1747SOL     OW16699   3.784   4.297  10.029  0.1853 -0.0946 -0.3671
 1747SOL    HW116700   3.788   4.368  10.093 -0.6176 -1.8441  1.6025
 1747SOL    HW216701   3.876   4.283  10.006  0.5132  2.5923 -0.7712
 1748SOL     OW16702   4.155   0.411   7.047 -0.0632  0.2492  0.1316
 1748SOL    HW116703   4.113   0.449   7.124 -1.6154  0.5934 -0.8829
 1748SOL    HW216704   4.076   0.365   7.017 -1.6993  2.6060  0.8086
 1749SOL     OW16705   2.616   1.218   9.275  0.5575  0.0397  0.1920
 1749SOL    HW116706   2.673   1.226   9.352 -0.3784 -0.1213  0.9067
 1749SOL    HW216707   2.542   1.270   9.305 -0.5429 -1.0618 -0.6484
 1750SOL     OW16708   1.300   3.548   4.270  0.0380 -0.6025 -0.2515
 1750SOL    HW116709   1.342   3.601   4.337  0.5622  0.2853 -1.2797
 1750SOL    HW216710   1.215   3.592   4.267 -0.4259 -1.5097 -0.5823
 1751SOL     OW16711   1.098   4.196   6.659 -0.0712 -0.0430  0.7199
 1751SOL    HW116712   1.158   4.258   6.618 -0.7366 -0.3671 -0.7440
 1751SOL    HW216713   1.093   4.243   6.742  1.3376  1.1777  0.1240
 1752SOL     OW16714   3.139   0.009  15.226  0.5757 -0.1227 -0.2753
 1752SOL    HW116715   3.232   4.714  15.225  0.8289  1.1308 -0.7709
 1752SOL    HW216716   3.128   0.036  15.317 -1.0506 -0.0226 -0.4955
 1753SOL     OW16717   0.620   0.106   8.448 -0.1823  0.1922  0.0674
 1753SOL    HW116718   0.672   0.111   8.528  0.0563  2.4978 -0.2282
 1753SOL    HW216719   0.636   0.018   8.416 -0.1145  0.7662 -1.4473
 1754SOL     OW16720   0.432   3.806   6.014  0.2221  0.3014 -0.9932
 1754SOL    HW116721   0.410   3.882   5.960  0.7470  0.5445 -0.8684
 1754SOL    HW216722   0.528   3.814   6.020  0.1397 -0.2284  1.3122
 1755SOL     OW16723   3.040   2.956   5.046  0.2822 -0.1273  0.0171
 1755SOL    HW116724   3.005   3.012   5.115  1.9278 -0.1921  0.9176
 1755SOL    HW216725   3.039   3.012   4.969  0.6658  1.0242  0.8620
 1756SOL     OW16726   4.649   1.589   4.270 -0.2615 -0.1944  0.0474
 1756SOL    HW116727   4.655   1.506   4.222 -0.7202  0.9892 -2.0575
 1756SOL    HW216728   4.568   1.577   4.318 -0.3888  0.9663  0.1202
 1757SOL     OW16729   1.676   2.778   1.387  0.1030 -0.1480  0.5147
 1757SOL    HW116730   1.768   2.777   1.363  0.0973  1.9256  0.4543
 1757SOL    HW216731   1.635   2.763   1.301  1.2846  2.5656 -0.5083
 1758SOL     OW16732   3.539   0.834  16.497  0.1631  0.4342  0.4574
 1758SOL    HW116733   3.623   0.871  16.525  1.0956 -0.4868 -1.1236
 1758SOL    HW216734   3.491   0.910  16.465 -0.4699 -0.4329 -0.6288
 1759SOL     OW16735   2.254   0.235   7.751 -0.1223 -0.1118 -0.4835
 1759SOL    HW116736   2.244   0.147   7.787 -2.4973 -0.0086 -0.8819
 1759SOL    HW216737   2.262   0.291   7.828 -2.2251 -1.6398  0.8544
 1760SOL     OW16738   3.986   0.730   5.793  0.0798 -0.1253  0.2718
 1760SOL    HW116739   3.898   0.766   5.780  0.7786  0.8384 -1.6877
 1760SOL    HW216740   3.975   0.645   5.750 -0.8736 -0.4195  1.0783
 1761SOL     OW16741   4.323   1.026   3.059  0.1960 -0.5780  0.4230
 1761SOL    HW116742   4.321   0.955   2.995  0.0860  1.0889 -1.4286
 1761SOL    HW216743   4.383   1.088   3.018  1.5304 -2.1033  0.0695
 1762SOL     OW16744   1.541   1.569  10.464 -0.0330  0.0307  0.0392
 1762SOL    HW116745   1.579   1.564  10.552 -1.2948 -0.8234  0.5427
 1762SOL    HW216746   1.611   1.537  10.408 -0.3774 -1.3455  0.3920
 1763SOL     OW16747   4.035   3.746   3.286  0.0277  0.1810 -0.0927
 1763SOL    HW116748   3.969   3.717   3.349  0.5125 -0.7555 -0.0119
 1763SOL    HW216749   4.063   3.830   3.323  0.9492  0.4427 -1.3868
 1764SOL     OW16750   0.785   2.201   2.172 -0.4024 -0.0736  0.3581
 1764SOL    HW116751   0.698   2.182   2.137 -1.0176  1.8594  0.8569
 1764SOL    HW216752   0.835   2.168   2.097  0.5338  0.4373  0.7596
 1765SOL     OW16753   2.045   2.316  11.863 -0.3060  0.0146 -0.1852
 1765SOL    HW116754   2.088   2.340  11.780 -0.3585  2.0441  0.3674
 1765SOL    HW216755   1.986   2.255  11.818 -2.4839  1.3346  0.8840
 1766SOL     OW16756   0.687   2.218   3.311 -0.2890  0.2945  0.2226
 1766SOL    HW116757   0.778   2.238   3.329 -0.1854  0.1663 -0.1611
 1766SOL    HW216758   0.662   2.306   3.285 -1.5390 -0.8735 -2.5820
 1767SOL     OW16759   0.756   3.285   1.019 -0.3570 -0.0058 -0.1862
 1767SOL    HW116760   0.767   3.380   1.018 -1.2502  0.0942 -0.4972
 1767SOL    HW216761   0.810   3.264   0.943 -0.0183  0.3002 -0.0302
 1768SOL     OW16762   4.174   0.345  11.158  0.5445 -0.1784  0.7682
 1768SOL    HW116763   4.234   0.307  11.222  2.3482 -0.4703 -1.1243
 1768SOL    HW216764   4.218   0.409  11.103  1.7338 -0.5744  1.2730
 1769SOL     OW16765   3.993   2.382   5.652  0.1672 -0.1683 -0.4663
 1769SOL    HW116766   4.000   2.373   5.747  2.0688 -0.2541 -0.6237
 1769SOL    HW216767   4.019   2.472   5.635  0.6502  0.2353  2.5741
 1770SOL     OW16768   3.730   4.273   0.433 -0.1916  0.4054 -0.0416
 1770SOL    HW116769   3.715   4.186   0.470 -0.3443 -0.5017 -2.2373
 1770SOL    HW216770   3.642   4.307   0.450 -0.0063  1.3244 -0.9392
 1771SOL     OW16771   1.039   2.728  14.088  0.0125 -0.1393  0.1062
 1771SOL    HW116772   1.107   2.782  14.129 -0.3800 -0.3858  1.0887
 1771SOL    HW216773   1.081   2.642  14.077  0.2500 -0.0754  0.4984
 1772SOL     OW16774   4.695   3.649  14.207  0.0102  0.6135 -0.3073
 1772SOL    HW116775   4.686   3.586  14.136  0.5232 -0.4750  0.5799
 1772SOL    HW216776   4.691   3.729  14.155  0.4572  0.0168 -1.2447
 1773SOL     OW16777   0.885   2.936  11.216 -0.6487  0.0155 -0.6305
 1773SOL    HW116778   0.969   2.921  11.172  0.2871  1.9340  0.5270
 1773SOL    HW216779   0.867   3.029  11.199  1.7691  0.1217 -2.6762
 1774SOL     OW16780   0.753   3.575   7.459  0.3192 -0.1338  0.1409
 1774SOL    HW116781   0.767   3.521   7.382  1.7957  0.8453 -0.2897
 1774SOL    HW216782   0.811   3.651   7.448  0.0334  0.3796  2.1110
 1775SOL     OW16783   4.149   1.971   2.373  0.3052  0.2125 -0.9522
 1775SOL    HW116784   4.223   1.974   2.312 -0.5187 -0.4007 -1.9696
 1775SOL    HW216785   4.183   2.020   2.448 -1.2153  0.3583 -0.3585
 1776SOL     OW16786   3.258   0.204   2.590  0.3418  0.2947  0.0252
 1776SOL    HW116787   3.277   0.138   2.524 -3.0417 -1.7153  1.0862
 1776SOL    HW216788   3.317   0.268   2.549  2.4077 -2.0963 -0.6821
 1777SOL     OW16789   3.083   3.457  17.254 -0.1770  0.4169  0.5303
 1777SOL    HW116790   3.102   3.441  17.161 -3.1697 -0.6565  0.0881
 1777SOL    HW216791   3.057   3.370  17.285  1.4825  0.0278  0.7939
 1778SOL     OW16792   3.572   4.497   9.038  0.5585  0.2383  0.4999
 1778SOL    HW116793   3.630   4.509   9.113 -0.1963 -2.9584  1.5680
 1778SOL    HW216794   3.503   4.563   9.050  1.7991  1.7023 -0.3682
 1779SOL     OW16795   4.700   0.781   3.963 -0.1066 -0.2197 -0.5925
 1779SOL    HW116796   0.037   0.715   3.994  1.6645  1.0351 -1.4314
 1779SOL    HW216797   4.646   0.733   3.900  1.9056 -4.0890  0.6560
 1780SOL     OW16798   3.453   3.715   4.267 -0.2809 -0.2134  0.2739
 1780SOL    HW116799   3.392   3.764   4.321 -0.9849 -1.2286  0.4039
 1780SOL    HW216800   3.396   3.638   4.259  0.0363 -0.5481  1.2037
 1781SOL     OW16801   0.190   3.668  13.956  0.4231 -0.3607  0.2140
 1781SOL    HW116802   0.135   3.745  13.970  0.2491 -0.2158 -1.2689
 1781SOL    HW216803   0.119   3.603  13.953 -0.1185  0.2284  0.4307
 1782SOL     OW16804   3.708   2.362   3.955 -0.2805  0.5871 -0.1429
 1782SOL    HW116805   3.797   2.396   3.965 -0.1897  0.6158 -0.9758
 1782SOL    HW216806   3.716   2.269   3.975 -0.3780  0.7181  0.4785
 1783SOL     OW16807   3.625   2.227   6.523  0.6554 -0.1773 -0.0512
 1783SOL    HW116808   3.546   2.227   6.469  0.7593  0.6217 -0.1972
 1783SOL    HW216809   3.679   2.293   6.480  0.0059  1.7244  2.0835
 1784SOL     OW16810   2.499   0.376  11.573 -0.0650 -0.1658  0.0036
 1784SOL    HW116811   2.590   0.358  11.597 -1.3070 -1.0937  4.1675
 1784SOL    HW216812   2.480   0.461  11.613  1.1744 -0.7595  1.9018
 1785SOL     OW16813   4.658   2.642   4.025  0.2233 -0.1894 -0.3579
 1785SOL    HW116814   4.694   2.630   3.937  1.1576  0.4192 -0.0569
 1785SOL    HW216815   4.591   2.709   4.013 -0.0876 -0.4097  0.1124
 1786SOL     OW16816   2.450   1.422   5.326 -0.3072  0.0174 -0.6224
 1786SOL    HW116817   2.413   1.368   5.257 -2.0567  2.0476 -1.2624
 1786SOL    HW216818   2.450   1.363   5.402  0.4869  1.0034  0.1646
 1787SOL     OW16819   2.014   3.172  10.874  0.2364  0.0171  0.0439
 1787SOL    HW116820   2.008   3.099  10.935  1.5517  0.6442  0.9194
 1787SOL    HW216821   2.075   3.236  10.910  1.1606  0.0525 -1.5672
 1788SOL     OW16822   2.784   1.949   0.902 -0.0993 -0.3396 -0.0856
 1788SOL    HW116823   2.792   2.033   0.856  1.7030  0.0496  0.9608
 1788SOL    HW216824   2.743   1.965   0.987 -0.6123  2.5143 -0.8775
 1789SOL     OW16825   3.014   0.755   9.045  0.2681  0.6204 -0.6887
 1789SOL    HW116826   3.065   0.676   9.065 -0.5845  0.2281 -0.0691
 1789SOL    HW216827   3.070   0.813   8.993  0.5839 -0.1753 -1.2364
 1790SOL     OW16828   3.822   0.024   0.936  0.1267  0.5476 -0.0921
 1790SOL    HW116829   3.765   0.031   0.859 -0.7611  0.3167  0.5473
 1790SOL    HW216830   3.813   0.115   0.967 -0.0708  0.4512  0.1350
 1791SOL     OW16831   3.002   3.965   4.872  0.0275  0.0643 -0.9651
 1791SOL    HW116832   3.026   4.048   4.915 -0.0036 -1.1805  1.4435
 1791SOL    HW216833   2.989   3.984   4.779 -1.1587  1.8761 -0.4247
 1792SOL     OW16834   3.766   4.290   7.339  0.1068  0.3119  0.4215
 1792SOL    HW116835   3.758   4.327   7.427  2.4649  2.7828 -0.3725
 1792SOL    HW216836   3.763   4.197   7.360  1.0540  0.5215  1.5088
 1793SOL     OW16837   0.003   3.814  14.429 -0.1607 -0.5730 -0.2446
 1793SOL    HW116838   4.694   3.748  14.370  2.6957 -2.5586  0.2921
 1793SOL    HW216839   4.675   3.891  14.410  0.0813 -0.0001  1.3328
 1794SOL     OW16840   1.586   1.090   4.701  0.0937  0.0284  0.6145
 1794SOL    HW116841   1.517   1.027   4.721  0.3583 -0.7445 -0.9607
 1794SOL    HW216842   1.561   1.140   4.624  0.3380  0.0570  0.5520
 1795SOL     OW16843   0.506   1.416   0.759  0.2254  0.2912  0.1465
 1795SOL    HW116844   0.574   1.483   0.767  0.4688 -0.2970  3.1292
 1795SOL    HW216845   0.448   1.434   0.833  0.2993  0.7670  0.0899
 1796SOL     OW16846   0.215   4.468   7.281  1.1437  0.3943  0.3655
 1796SOL    HW116847   0.150   4.397   7.284 -1.4341  2.9310  3.3969
 1796SOL    HW216848   0.275   4.441   7.351  2.0222  4.4191  1.1204
 1797SOL     OW16849   2.617   2.422   7.822 -0.1061 -0.6153  0.0557
 1797SOL    HW116850   2.664   2.445   7.742  0.4770 -1.3751  0.1764
 1797SOL    HW216851   2.529   2.455   7.807  0.5945  0.3546 -1.8987
 1798SOL     OW16852   4.288   0.468  13.883  0.7701  0.5397 -0.1282
 1798SOL    HW116853   4.363   0.523  13.907  1.6062 -1.3968  1.6318
 1798SOL    HW216854   4.212   0.526  13.873  0.3992 -0.1339 -1.1613
 1799SOL     OW16855   3.573   1.499   5.034 -0.2538 -0.5773  0.0589
 1799SOL    HW116856   3.579   1.407   5.009 -1.5589 -0.4327 -0.7895
 1799SOL    HW216857   3.510   1.491   5.105  2.0065 -0.2502  2.1102
 1800SOL     OW16858   1.997   2.358  10.076 -0.2044  0.5817 -0.6817
 1800SOL    HW116859   2.055   2.308  10.133 -0.6822  1.2377  0.3827
 1800SOL    HW216860   2.010   2.449  10.100 -0.4168  0.8485 -1.5738
 1801SOL     OW16861   0.813   0.057   3.239 -0.2120  1.1655  0.2371
 1801SOL    HW116862   0.878   4.723   3.202 -1.9507  0.6262 -1.9969
 1801SOL    HW216863   0.857   0.141   3.226  2.7103 -0.5918 -1.1443
 1802SOL     OW16864   1.492   0.828   6.720 -0.0801 -0.0093  0.3267
 1802SOL    HW116865   1.586   0.842   6.720 -0.1092  0.2001  1.0289
 1802SOL    HW216866   1.484   0.739   6.752  2.1597  0.5025  2.3158
 1803SOL     OW16867   1.478   0.132   3.928  0.7074 -0.6003  0.2125
 1803SOL    HW116868   1.491   0.141   4.023  0.1046  0.0997  0.2283
 1803SOL    HW216869   1.449   0.042   3.915 -1.3935  0.0455  0.4980
 1804SOL     OW16870   3.635   0.136   9.332 -0.1319 -0.5575 -0.0135
 1804SOL    HW116871   3.692   0.171   9.400 -0.3352  0.1851 -0.2317
 1804SOL    HW216872   3.580   0.072   9.377 -1.0408 -1.1696 -1.9662
 1805SOL     OW16873   0.768   2.979   0.257  0.8440  0.1078 -0.5345
 1805SOL    HW116874   0.697   2.946   0.202  0.7720 -1.3161  0.4019
 1805SOL    HW216875   0.725   3.000   0.340  1.6304  1.1430 -0.3929
 1806SOL     OW16876   2.697   0.314   5.695 -0.5848  0.2339 -0.3101
 1806SOL    HW116877   2.673   0.314   5.788  1.2630 -0.5493  0.1624
 1806SOL    HW216878   2.687   0.402   5.659 -1.4120 -0.7201 -2.4308
 1807SOL     OW16879   3.760   3.451   0.226  0.0096  0.7489  0.0347
 1807SOL    HW116880   3.746   3.445   0.321  0.7885  2.1527  0.2333
 1807SOL    HW216881   3.687   3.505   0.197  0.3948 -0.2061 -2.6891
 1808SOL     OW16882   0.755   1.273   0.899  0.0068 -0.3062  0.4161
 1808SOL    HW116883   0.674   1.269   0.948 -0.3142 -1.4550 -0.2046
 1808SOL    HW216884   0.776   1.180   0.886 -0.8102 -0.4425  0.1150
 1809SOL     OW16885   0.804   0.843   7.676 -0.0633  0.5072  0.4863
 1809SOL    HW116886   0.778   0.921   7.627 -2.7918 -0.2033  0.7982
 1809SOL    HW216887   0.884   0.832   7.625 -0.1367 -0.2023  0.5204
 1810SOL     OW16888   1.844   3.393   1.354  0.0215  0.0131 -0.2356
 1810SOL    HW116889   1.864   3.460   1.288  0.5157  0.3582  0.2657
 1810SOL    HW216890   1.868   3.440   1.434  0.6157  0.6124 -0.7630
 1811SOL     OW16891   2.827   4.580   8.579  0.0881  0.2105  0.0658
 1811SOL    HW116892   2.752   4.620   8.621 -0.0444 -0.3170  0.3338
 1811SOL    HW216893   2.857   4.645   8.515 -1.1987  1.3569  0.6392
 1812SOL     OW16894   4.458   4.568   3.471  0.5646 -0.3098 -0.2947
 1812SOL    HW116895   4.493   4.588   3.558  0.2566 -1.6212  0.1221
 1812SOL    HW216896   4.533   4.587   3.414  0.2025  0.1431 -0.6191
 1813SOL     OW16897   1.276   1.953  13.297  0.0831  0.0715  0.2412
 1813SOL    HW116898   1.239   1.874  13.259  0.9888 -1.0455  1.7083
 1813SOL    HW216899   1.227   2.025  13.256 -0.5886  0.2383  1.3385
 1814SOL     OW16900   4.213   0.372  14.166 -0.5233  0.3099  0.2630
 1814SOL    HW116901   4.260   0.379  14.083 -1.8317  2.6101 -0.2804
 1814SOL    HW216902   4.159   0.451  14.169  0.8869  1.2531  0.8888
 1815SOL     OW16903   3.761   0.407   3.824  0.2334 -0.3257  0.7136
 1815SOL    HW116904   3.856   0.423   3.830 -0.1502  2.0035  0.2209
 1815SOL    HW216905   3.742   0.438   3.736 -1.2389  0.1713  1.2210
 1816SOL     OW16906   1.071   0.293   3.024  0.2237 -0.6726  0.4031
 1816SOL    HW116907   1.071   0.388   3.023 -0.7413 -0.6675  1.4352
 1816SOL    HW216908   1.122   0.280   3.103  0.5314 -0.7783  0.1867
 1817SOL     OW16909   3.864   0.559   9.226  0.7162 -0.2268 -0.3163
 1817SOL    HW116910   3.938   0.602   9.183  0.0065  3.1477  1.8402
 1817SOL    HW216911   3.888   0.467   9.241  2.9855  0.7736  2.1338
 1818SOL     OW16912   2.383   2.201  11.343  0.4754  0.1129  0.0051
 1818SOL    HW116913   2.437   2.249  11.406  1.2890  0.5892 -1.0486
 1818SOL    HW216914   2.445   2.134  11.316  0.9897  0.7372 -0.3865
 1819SOL     OW16915   2.609   2.686   2.747  0.1958 -0.5483  0.2410
 1819SOL    HW116916   2.549   2.728   2.808  3.0503  0.9358  1.9889
 1819SOL    HW216917   2.597   2.592   2.763  1.5031 -0.7109  0.3037
 1820SOL     OW16918   2.793   0.250   6.623 -0.0365 -0.1558  0.0332
 1820SOL    HW116919   2.852   0.283   6.555 -0.5004 -0.6106 -0.5901
 1820SOL    HW216920   2.864   0.201   6.664 -1.2793 -0.6528  1.5488
 1821SOL     OW16921   2.991   1.221   8.741  0.3136  0.3761 -0.3416
 1821SOL    HW116922   2.933   1.146   8.757 -2.1198  2.3499  0.0060
 1821SOL    HW216923   3.044   1.240   8.818  1.4467 -1.0300 -0.7597
 1822SOL     OW16924   3.758   0.901   3.880  0.0263 -0.4190  0.4087
 1822SOL    HW116925   3.812   0.849   3.820 -1.9436 -2.6426  0.5818
 1822SOL    HW216926   3.669   0.869   3.864  0.3301 -0.9520 -0.2132
 1823SOL     OW16927   4.212   2.497  16.056 -0.5276  0.0394  0.2168
 1823SOL    HW116928   4.190   2.546  15.976  1.8951  1.0006  0.1445
 1823SOL    HW216929   4.171   2.557  16.118 -1.4097 -0.9566  0.5982
 1824SOL     OW16930   2.397   3.520   1.454 -0.1520 -0.3179 -0.3473
 1824SOL    HW116931   2.382   3.433   1.493 -1.0950 -1.8529 -4.1929
 1824SOL    HW216932   2.321   3.569   1.485  0.7377  1.0381 -0.3273
 1825SOL     OW16933   1.072   1.920   8.111 -0.3794  0.0315  0.2734
 1825SOL    HW116934   1.002   1.984   8.100  1.2368  1.5344 -1.1999
 1825SOL    HW216935   1.046   1.864   8.039 -1.5163  1.0285 -0.0824
 1826SOL     OW16936   4.187   3.693   7.124  0.0202 -0.2951 -0.1103
 1826SOL    HW116937   4.255   3.693   7.191 -1.3547 -0.8302  1.2689
 1826SOL    HW216938   4.185   3.600   7.100  1.5637 -0.7794  1.7131
 1827SOL     OW16939   0.489   2.851   1.104  0.1147 -0.2169  0.2451
 1827SOL    HW116940   0.486   2.777   1.165  0.7267 -1.1445 -0.8541
 1827SOL    HW216941   0.408   2.892   1.136  0.0176 -1.5683  1.7074
 1828SOL     OW16942   4.665   4.309   5.554 -0.0964  0.4885 -0.1532
 1828SOL    HW116943   4.684   4.256   5.476  0.8785  2.5346 -1.2982
 1828SOL    HW216944   0.024   4.316   5.598  0.7268 -1.8906 -1.3026
 1829SOL     OW16945   4.333   2.914   3.075  0.0077  0.2284 -0.6364
 1829SOL    HW116946   4.379   2.998   3.081  1.0419 -0.3468 -0.4914
 1829SOL    HW216947   4.407   2.873   3.030 -0.0197 -0.8662  0.3137
 1830SOL     OW16948   2.091   0.269   7.017  0.5854  0.2184 -0.6501
 1830SOL    HW116949   2.055   0.279   7.105 -2.0001 -0.5326 -1.6241
 1830SOL    HW216950   2.088   0.175   7.002 -0.0313  0.3160 -1.1319
 1831SOL     OW16951   1.688   0.487  15.651 -0.0152 -0.7393  0.2263
 1831SOL    HW116952   1.769   0.478  15.599  0.4268  1.3625  0.5457
 1831SOL    HW216953   1.703   0.437  15.731 -0.4405 -1.8169 -0.3680
 1832SOL     OW16954   4.627   4.224  14.067  0.4257  0.2312 -0.3156
 1832SOL    HW116955   4.556   4.210  14.004  0.1575  0.7048 -0.1160
 1832SOL    HW216956   4.611   4.311  14.103  1.6156  0.5712 -0.6035
 1833SOL     OW16957   4.092   3.236   7.700  0.7008  0.7420 -0.2796
 1833SOL    HW116958   4.151   3.222   7.774  0.3118  1.0729  0.0879
 1833SOL    HW216959   4.122   3.322   7.672  1.7199  0.3529 -0.3680
 1834SOL     OW16960   0.699   4.350  11.185 -0.1266 -0.1982  0.1385
 1834SOL    HW116961   0.676   4.430  11.231  2.0796  0.0679  0.7688
 1834SOL    HW216962   0.675   4.281  11.247 -2.5616  0.7001  0.1736
 1835SOL     OW16963   4.709   3.079   1.162 -0.3465  0.3918 -0.4065
 1835SOL    HW116964   0.010   3.165   1.127 -0.0024  0.4601  0.0190
 1835SOL    HW216965   4.675   3.114   1.244  0.6363  0.2140  0.0779
 1836SOL     OW16966   1.241   3.991   8.370 -0.1809  0.5241  0.1372
 1836SOL    HW116967   1.257   4.077   8.410  0.4246 -0.6663  2.4902
 1836SOL    HW216968   1.308   3.988   8.302  0.1141 -1.1257  0.4971
 1837SOL     OW16969   4.346   1.661   4.751 -0.0213 -0.3281  0.6183
 1837SOL    HW116970   4.414   1.612   4.705 -0.9923 -0.1288 -1.0289
 1837SOL    HW216971   4.365   1.634   4.841  1.0011  1.7021  0.9973
 1838SOL     OW16972   0.901   1.629  15.372  0.2455 -0.0987  0.3617
 1838SOL    HW116973   0.824   1.573  15.372  0.7935 -0.8352 -1.7640
 1838SOL    HW216974   0.889   1.662  15.461 -0.4280  0.3214  0.1101
 1839SOL     OW16975   0.126   0.110   0.809  0.4409  0.3253  0.1700
 1839SOL    HW116976   0.151   0.042   0.871 -0.7046 -1.0423 -0.8779
 1839SOL    HW216977   0.038   0.140   0.829  0.4968  1.4934 -1.3031
 1840SOL     OW16978   3.004   4.096   8.063  0.4139  0.2987  0.5213
 1840SOL    HW116979   2.948   4.106   7.986  1.1180  0.0419 -0.0289
 1840SOL    HW216980   2.949   4.125   8.135  1.3408  2.0038  0.5606
 1841SOL     OW16981   1.278   0.417   5.247  0.4458  0.3499  0.0861
 1841SOL    HW116982   1.265   0.351   5.180 -1.1074  1.3971 -0.6345
 1841SOL    HW216983   1.372   0.415   5.267  0.4019  1.7399  0.4455
 1842SOL     OW16984   3.961   4.303   1.148  0.4612 -0.0135 -0.0272
 1842SOL    HW116985   3.882   4.353   1.127 -1.0833 -1.3727  2.4894
 1842SOL    HW216986   3.989   4.279   1.060  0.3929  0.1538 -0.0933
 1843SOL     OW16987   3.799   4.604   3.642 -0.3244 -0.1420 -0.5212
 1843SOL    HW116988   3.826   4.680   3.692 -0.8886  0.5702 -1.3012
 1843SOL    HW216989   3.746   4.646   3.575  0.6048  1.2603 -0.3633
 1844SOL     OW16990   3.528   4.245   3.068 -1.1159  0.1254 -0.3066
 1844SOL    HW116991   3.484   4.160   3.071  0.3059 -0.5171  2.0858
 1844SOL    HW216992   3.459   4.305   3.040 -1.2588  0.2897  0.3925
 1845SOL     OW16993   4.004   0.734  11.795  0.5176  0.1783 -0.4710
 1845SOL    HW116994   4.063   0.810  11.791  0.9545 -0.2736 -2.5500
 1845SOL    HW216995   4.060   0.660  11.773 -0.4858 -0.8660  0.5095
 1846SOL     OW16996   0.667   1.469   3.515  0.6885 -0.1440 -0.2612
 1846SOL    HW116997   0.616   1.435   3.442  0.2322 -0.7873  0.3583
 1846SOL    HW216998   0.636   1.413   3.586  5.3654 -1.8678  0.4203
 1847SOL     OW16999   1.496   0.741   8.257 -0.0616  0.3349  0.0828
 1847SOL    HW117000   1.496   0.676   8.327 -1.6321 -0.6372 -0.8503
 1847SOL    HW217001   1.466   0.818   8.306 -0.1504  0.5669 -0.3418
 1848SOL     OW17002   3.551   0.585   4.766 -0.9924 -0.2419  0.1144
 1848SOL    HW117003   3.585   0.511   4.715  0.3560 -0.4456  1.3131
 1848SOL    HW217004   3.545   0.656   4.701 -0.2995  0.1835  0.5196
 1849SOL     OW17005   4.443   0.954   4.716 -0.5801  0.2179  0.4694
 1849SOL    HW117006   4.378   1.014   4.752 -1.1180 -1.1842  1.8746
 1849SOL    HW217007   4.473   0.910   4.796 -1.6109 -0.7885  0.3090
 1850SOL     OW17008   4.703   4.613   4.699  0.2176 -0.4097 -0.6450
 1850SOL    HW117009   4.640   4.575   4.761  1.2350 -0.3516  0.4230
 1850SOL    HW217010   0.046   4.548   4.714 -0.4903 -0.5296  2.0576
 1851SOL     OW17011   3.861   4.383   0.741  0.1485 -0.4111  0.0540
 1851SOL    HW117012   3.777   4.341   0.760  0.0936 -0.5607 -0.5215
 1851SOL    HW217013   3.824   4.458   0.696 -0.0794  1.4347  3.3031
 1852SOL     OW17014   0.397   0.590   5.901 -0.8757 -0.0979  0.4907
 1852SOL    HW117015   0.337   0.664   5.915  2.0199  2.4247 -0.3651
 1852SOL    HW217016   0.391   0.586   5.805  0.2815 -0.0933  0.4261
 1853SOL     OW17017   1.612   3.005   8.317 -0.1837 -0.5267  0.0432
 1853SOL    HW117018   1.584   3.051   8.396 -1.0296  1.0043 -1.1449
 1853SOL    HW217019   1.707   2.997   8.320 -0.2766 -1.5281  0.3362
 1854SOL     OW17020   2.470   3.326   2.605 -0.0507 -0.3630  0.2155
 1854SOL    HW117021   2.467   3.420   2.586  0.8623 -0.6136 -1.1212
 1854SOL    HW217022   2.411   3.291   2.539 -1.1907  2.4538 -0.2547
 1855SOL     OW17023   1.661   1.431   4.644 -0.5292  0.8634  0.4166
 1855SOL    HW117024   1.636   1.491   4.715 -1.8500 -0.1733  0.8321
 1855SOL    HW217025   1.579   1.400   4.607  0.5784 -0.8648 -0.5887
 1856SOL     OW17026   4.228   2.074  16.528  0.2669  0.2183 -0.2698
 1856SOL    HW117027   4.258   2.164  16.541 -0.1158  0.1167  1.3767
 1856SOL    HW217028   4.307   2.033  16.563 -0.0007  0.0979  0.1932
 1857SOL     OW17029   3.842   0.090   3.818  0.6532 -0.0523  0.1944
 1857SOL    HW117030   3.789   0.170   3.827 -1.2383 -1.3133  0.2940
 1857SOL    HW217031   3.904   0.116   3.886  1.4995 -1.9026  0.1307
 1858SOL     OW17032   1.495   2.589   3.857  0.9702 -0.6645  0.2838
 1858SOL    HW117033   1.568   2.648   3.876  0.6037 -0.0551 -0.1783
 1858SOL    HW217034   1.448   2.562   3.935  2.4253 -0.6594  1.1649
 1859SOL     OW17035   2.880   3.413   0.034  0.1576  0.3735 -0.3075
 1859SOL    HW117036   2.960   3.420   0.086  0.3666 -1.4578 -0.3713
 1859SOL    HW217037   2.911   3.456  17.656  3.1936  0.0960  0.7112
 1860SOL     OW17038   0.197   0.965   6.914 -0.1358  0.4177  0.0804
 1860SOL    HW117039   0.240   0.880   6.921 -0.0727  0.6177  1.9747
 1860SOL    HW217040   0.129   0.947   6.848 -0.5428 -0.6332  0.7896
 1861SOL     OW17041   0.258   3.911  16.036 -0.8934 -0.0307 -0.4137
 1861SOL    HW117042   0.175   3.864  16.035 -0.4135 -0.9113  0.8074
 1861SOL    HW217043   0.280   3.900  16.128  0.2542  0.4125 -0.6353
 1862SOL     OW17044   4.115   0.651  13.822  0.0135 -0.1967 -0.3704
 1862SOL    HW117045   4.074   0.736  13.839  1.3040  0.8073 -2.3446
 1862SOL    HW217046   4.036   0.605  13.790 -0.3421  0.3721 -0.3023
 1863SOL     OW17047   3.649   0.009  10.086 -0.1247  0.0799  0.8783
 1863SOL    HW117048   3.686   4.678  10.018  0.5983  0.1164  1.2404
 1863SOL    HW217049   3.581   0.055  10.037 -0.8844  0.3979  2.2279
 1864SOL     OW17050   4.313   1.165   1.530 -0.2106  0.5545  0.2436
 1864SOL    HW117051   4.340   1.218   1.605 -1.3047 -0.4530  1.3516
 1864SOL    HW217052   4.395   1.121   1.510  0.6020  1.4874  1.5287
 1865SOL     OW17053   2.957   3.438  13.687  0.5940 -0.0586  0.2665
 1865SOL    HW117054   2.987   3.347  13.687  0.8989  0.0440 -0.5722
 1865SOL    HW217055   3.041   3.483  13.701  0.7122 -0.2432  0.1573
 1866SOL     OW17056   2.342   1.640   5.446  0.0253 -0.3378  0.2173
 1866SOL    HW117057   2.375   1.555   5.417 -0.9900 -0.5203 -0.3896
 1866SOL    HW217058   2.404   1.647   5.518  0.7657  0.0631 -0.4598
 1867SOL     OW17059   3.095   3.951   6.239 -0.3546 -0.5252 -0.0700
 1867SOL    HW117060   3.091   3.989   6.327  2.5136 -1.4711  0.4493
 1867SOL    HW217061   3.140   4.023   6.196  0.3374  0.2456  1.9682
 1868SOL     OW17062   3.985   2.066  11.470 -0.5014 -0.2536  0.3330
 1868SOL    HW117063   3.983   2.011  11.391  2.6682  0.7187 -0.4372
 1868SOL    HW217064   3.936   2.144  11.446 -2.2459 -1.5772 -0.3553
 1869SOL     OW17065   3.028   1.699   5.136  0.3418  0.1436 -0.0731
 1869SOL    HW117066   2.977   1.703   5.055  2.1866 -0.2135 -1.2336
 1869SOL    HW217067   3.008   1.787   5.168  1.8231  0.8103 -0.9626
 1870SOL     OW17068   4.278   1.749   6.484  0.1841 -0.0971 -0.3517
 1870SOL    HW117069   4.239   1.833   6.509  1.4914 -0.7350  3.7905
 1870SOL    HW217070   4.271   1.715   6.573 -3.2188 -1.3050 -1.0814
 1871SOL     OW17071   4.318   0.755   6.715 -0.1557 -0.4443 -0.2505
 1871SOL    HW117072   4.317   0.795   6.629 -1.1805  2.1555  0.9808
 1871SOL    HW217073   4.331   0.663   6.693 -2.6492 -0.7763 -0.4075
 1872SOL     OW17074   3.419   2.345   8.299 -0.5356 -0.7202 -0.1009
 1872SOL    HW117075   3.409   2.274   8.362 -0.5190  1.1712  2.0118
 1872SOL    HW217076   3.326   2.366   8.285 -1.0758 -1.3849  2.4888
 1873SOL     OW17077   1.075   2.830   6.694  0.4355  0.6331 -0.3582
 1873SOL    HW117078   1.023   2.828   6.775 -0.8441 -0.4694 -1.2236
 1873SOL    HW217079   1.159   2.845   6.738  0.8617  2.5633 -1.8553
 1874SOL     OW17080   1.616   0.603  12.419  0.2087  0.1045 -0.2160
 1874SOL    HW117081   1.603   0.551  12.340 -1.0545 -0.2524  0.2303
 1874SOL    HW217082   1.703   0.569  12.439  0.8655  0.2868 -2.8096
 1875SOL     OW17083   3.857   2.805   6.927 -0.0659  0.0985  0.7766
 1875SOL    HW117084   3.792   2.844   6.986 -1.8312 -0.0396 -1.0708
 1875SOL    HW217085   3.934   2.813   6.983  0.9356 -2.7735 -0.2187
 1876SOL     OW17086   0.072   3.998  17.594 -0.6743 -0.2170  0.0272
 1876SOL    HW117087   0.142   3.942  17.627 -1.2556 -0.6781  0.4606
 1876SOL    HW217088   4.723   3.994  17.653  0.1331  0.5352  1.0922
 1877SOL     OW17089   1.999   3.075   3.966 -0.0691 -0.2882  0.0366
 1877SOL    HW117090   2.081   3.029   3.984  0.0445  0.3877  1.3097
 1877SOL    HW217091   1.938   3.020   4.015  0.4227  0.4142  1.4574
 1878SOL     OW17092   3.723   2.743   7.504  0.1107  0.7021  0.0292
 1878SOL    HW117093   3.689   2.691   7.576  1.3387 -0.1564 -0.0149
 1878SOL    HW217094   3.774   2.678   7.457 -1.3567 -1.3224  1.2580
 1879SOL     OW17095   2.006   3.946   5.009  0.8172 -0.5602 -0.4454
 1879SOL    HW117096   1.958   4.029   5.000  0.6301 -0.5987  0.1873
 1879SOL    HW217097   2.076   3.974   5.067  1.6216 -0.0227 -1.6679
 1880SOL     OW17098   2.932   4.015   0.699  0.2492  0.0597  0.1904
 1880SOL    HW117099   2.925   4.095   0.647 -2.2081  1.2307  2.3310
 1880SOL    HW217100   2.939   4.053   0.786 -0.2739  1.1259 -0.2374
 1881SOL     OW17101   0.858   1.999   5.173 -0.0626  0.4652 -0.7527
 1881SOL    HW117102   0.934   2.047   5.207  0.4671 -1.7237  1.1570
 1881SOL    HW217103   0.887   1.941   5.103  1.1061 -0.4640  0.5092
 1882SOL     OW17104   0.354   0.629   7.532  0.5266 -0.4729 -1.1134
 1882SOL    HW117105   0.302   0.708   7.516 -2.9489 -2.5821 -0.1395
 1882SOL    HW217106   0.297   0.552   7.534  1.7749 -1.3869 -0.2687
 1883SOL     OW17107   2.831   1.061   2.868  0.1149  0.1702 -0.2236
 1883SOL    HW117108   2.808   1.044   2.777  0.1255  0.6968 -0.3241
 1883SOL    HW217109   2.926   1.058   2.862  0.1807  2.5136 -0.4524
 1884SOL     OW17110   3.853   3.311   3.481 -0.5476 -0.1171  0.2331
 1884SOL    HW117111   3.780   3.358   3.441 -0.1196  0.8640  0.5824
 1884SOL    HW217112   3.805   3.253   3.540  0.2804  0.6939  1.7190
 1885SOL     OW17113   1.257   2.049   5.659  0.1215 -0.4668 -0.1475
 1885SOL    HW117114   1.191   2.025   5.593  0.2362 -1.1855 -0.0046
 1885SOL    HW217115   1.230   1.993   5.732  0.1229 -0.0908  0.1391
 1886SOL     OW17116   4.602   3.513   7.133  0.1959  0.2377  0.1883
 1886SOL    HW117117   4.634   3.523   7.223  0.7637 -1.1731  0.1393
 1886SOL    HW217118   4.572   3.603   7.122 -0.0660 -0.2108 -2.5931
 1887SOL     OW17119   4.420   3.021  10.708  0.3603  0.0388  0.2337
 1887SOL    HW117120   4.488   2.957  10.727  0.8566  0.1890 -1.0346
 1887SOL    HW217121   4.479   3.097  10.699  0.0844  0.0564 -1.4640
 1888SOL     OW17122   2.767   1.287   9.504 -0.3453 -0.0575 -0.8776
 1888SOL    HW117123   2.746   1.376   9.531 -2.3856 -0.2570 -1.7994
 1888SOL    HW217124   2.730   1.237   9.576  1.7653  0.4326  0.5197
 1889SOL     OW17125   4.587   4.500  17.165 -0.4061  0.5628  0.2370
 1889SOL    HW117126   4.641   4.462  17.234  0.6524  0.5797 -0.5694
 1889SOL    HW217127   4.646   4.491  17.090  0.1337 -0.9666  0.8447
 1890SOL     OW17128   0.492   0.519   2.601  0.1312  0.2925  0.8754
 1890SOL    HW117129   0.523   0.597   2.556 -1.2709  0.0648 -0.4918
 1890SOL    HW217130   0.520   0.530   2.692 -0.9675  1.4563  1.0789
 1891SOL     OW17131   0.051   2.479  13.988  0.0191  0.0312  0.3829
 1891SOL    HW117132   0.140   2.468  14.022  0.1043  1.9771  0.7555
 1891SOL    HW217133   0.026   2.567  14.013 -1.7667 -0.2635 -0.3685
 1892SOL     OW17134   3.960   1.028  16.778 -0.5369  0.1671 -0.0299
 1892SOL    HW117135   4.043   1.074  16.763 -0.0664 -0.6539  0.0642
 1892SOL    HW217136   3.988   0.937  16.782 -2.4151 -0.5065 -2.0821
 1893SOL     OW17137   4.283   3.822  10.796  0.9344  0.2762 -0.1287
 1893SOL    HW117138   4.249   3.910  10.812 -0.8926 -0.4527  0.0116
 1893SOL    HW217139   4.358   3.833  10.855  1.8506 -0.0390 -1.2363
 1894SOL     OW17140   4.063   2.477   5.907 -0.3163  0.5671 -0.5185
 1894SOL    HW117141   4.082   2.562   5.867  0.2198  0.1273 -1.1955
 1894SOL    HW217142   4.106   2.479   5.992 -2.2973 -1.7062  0.5535
 1895SOL     OW17143   1.790   2.251   5.212 -0.5557 -0.0762 -0.0963
 1895SOL    HW117144   1.817   2.159   5.217  0.1019  0.2376  1.8399
 1895SOL    HW217145   1.714   2.245   5.269 -2.6441 -0.9601 -2.9338
 1896SOL     OW17146   0.301   3.087   8.501 -0.0135  0.6032  0.0605
 1896SOL    HW117147   0.307   3.087   8.405  0.5437  0.9837  0.1000
 1896SOL    HW217148   0.394   3.075   8.516 -0.4384 -1.8777  0.8471
 1897SOL     OW17149   4.218   2.435   2.759 -0.2637 -0.0550 -0.1396
 1897SOL    HW117150   4.153   2.399   2.819 -1.1587  1.4181 -0.2188
 1897SOL    HW217151   4.295   2.403   2.806 -0.8321 -1.0471  0.1335
 1898SOL     OW17152   0.130   4.563   5.271 -0.3662 -0.2436 -0.2899
 1898SOL    HW117153   0.103   4.522   5.189  3.3859 -2.3193 -0.4942
 1898SOL    HW217154   0.043   4.575   5.311 -0.4808 -3.6592  0.5309
 1899SOL     OW17155   1.260   3.822   2.594 -0.5785 -0.3806  0.3233
 1899SOL    HW117156   1.212   3.905   2.591 -1.3048 -0.7283  1.7964
 1899SOL    HW217157   1.280   3.808   2.687 -2.8321  2.1751  1.2011
 1900SOL     OW17158   0.443   4.541   8.661 -0.2891 -0.1281 -0.2121
 1900SOL    HW117159   0.523   4.489   8.651 -0.2360 -0.2259  0.7708
 1900SOL    HW217160   0.476   4.610   8.718 -2.0501  0.8156 -0.3004
 1901SOL     OW17161   1.712   2.909  16.922 -0.7375  1.0873  0.0557
 1901SOL    HW117162   1.678   2.895  17.010 -0.8731  0.9800 -0.0142
 1901SOL    HW217163   1.805   2.924  16.939 -0.1869 -3.3330  0.8118
 1902SOL     OW17164   0.433   1.484   5.628  0.3090 -0.4092  0.7383
 1902SOL    HW117165   0.479   1.517   5.705  0.8950  1.1609 -0.2812
 1902SOL    HW217166   0.420   1.566   5.580 -1.2229 -0.8585  0.4003
 1903SOL     OW17167   3.169   3.719   4.910 -0.4692 -0.4506 -0.7751
 1903SOL    HW117168   3.248   3.734   4.859 -0.3167  0.2933 -0.3145
 1903SOL    HW217169   3.140   3.806   4.936  0.2578 -0.9810  1.8288
 1904SOL     OW17170   0.689   3.037  11.697  0.5065 -0.0935 -0.5104
 1904SOL    HW117171   0.612   3.085  11.668  0.8208  1.0707  0.6176
 1904SOL    HW217172   0.704   3.004  11.608  0.7041 -0.3958 -0.3653
 1905SOL     OW17173   0.028   1.837   6.599 -0.1947  0.3379 -0.3960
 1905SOL    HW117174   0.017   1.893   6.675 -0.2090  0.3123 -0.3793
 1905SOL    HW217175   0.072   1.761   6.636 -3.6107 -0.5082  1.9016
 1906SOL     OW17176   1.651   1.304   8.095 -0.0537  0.2666 -0.2053
 1906SOL    HW117177   1.587   1.366   8.062 -0.5474  0.8373  1.8304
 1906SOL    HW217178   1.582   1.241   8.119  0.8809 -0.7490 -0.1507
 1907SOL     OW17179   3.004   1.163  16.327  0.1760  0.2360 -0.4430
 1907SOL    HW117180   2.991   1.104  16.402 -1.4261  1.5420  0.3011
 1907SOL    HW217181   2.994   1.107  16.250 -4.2672 -2.9554  2.4587
 1908SOL     OW17182   3.261   3.977   0.090  0.5353 -0.1380 -0.2218
 1908SOL    HW117183   3.288   3.955   0.179  0.1148  1.8586  0.3956
 1908SOL    HW217184   3.332   3.944   0.035  0.8396  0.4076 -0.1571
 1909SOL     OW17185   3.630   4.070   5.445  0.0742 -0.2868 -0.7291
 1909SOL    HW117186   3.661   4.013   5.375  1.4492 -0.8892  0.3728
 1909SOL    HW217187   3.658   4.157   5.419  1.7544 -1.2768 -2.2622
 1910SOL     OW17188   4.445   3.814   1.409  0.2167 -0.7085  1.1616
 1910SOL    HW117189   4.384   3.773   1.470 -1.0022 -0.7007 -0.0610
 1910SOL    HW217190   4.384   3.831   1.338  1.7146 -0.5518 -0.0838
 1911SOL     OW17191   4.093   4.387   8.933 -0.2582 -0.0305  0.2599
 1911SOL    HW117192   4.183   4.414   8.952  0.0929 -1.1876  0.2238
 1911SOL    HW217193   4.061   4.400   9.022 -1.4254 -0.0269 -0.1706
 1912SOL     OW17194   3.189   1.877   8.457  0.3382  0.2556  0.6074
 1912SOL    HW117195   3.145   1.856   8.540 -0.8387 -2.8214 -0.7698
 1912SOL    HW217196   3.262   1.816   8.451  0.4771  0.4778  0.0833
 1913SOL     OW17197   0.529   0.053   8.803  0.3180 -0.0644 -0.0991
 1913SOL    HW117198   0.549   0.023   8.892 -0.7144 -0.8046 -0.1159
 1913SOL    HW217199   0.483   0.136   8.814 -2.5713 -1.5054 -1.2954
 1914SOL     OW17200   2.000   3.024   6.465  0.3249  0.4012 -0.1759
 1914SOL    HW117201   1.934   3.006   6.398 -0.8852  1.2890  0.7669
 1914SOL    HW217202   1.966   3.094   6.521  1.8659  0.0779  1.1571
 1915SOL     OW17203   1.194   4.693   8.640 -0.0146  0.2757  0.2169
 1915SOL    HW117204   1.144   0.049   8.646  0.7502  0.8694 -1.5167
 1915SOL    HW217205   1.207   4.676   8.734 -1.3111  0.7970  0.4839
 1916SOL     OW17206   3.357   2.088   8.461  0.0271  0.1232  0.8957
 1916SOL    HW117207   3.313   2.130   8.535 -1.3889  0.9858 -0.4471
 1916SOL    HW217208   3.293   2.019   8.443  1.1710 -0.4058 -1.0934
 1917SOL     OW17209   1.745   3.311   6.833  0.1945  0.9048  0.0219
 1917SOL    HW117210   1.674   3.374   6.829 -0.3499  0.3516  0.9059
 1917SOL    HW217211   1.752   3.312   6.928 -0.2593  1.0499  0.0525
 1918SOL     OW17212   1.843   3.914   6.992 -0.0454 -0.3350 -0.3678
 1918SOL    HW117213   1.887   3.975   6.932  1.3358  0.3052  1.3144
 1918SOL    HW217214   1.826   3.970   7.068 -1.7644 -0.4644 -0.6438
 1919SOL     OW17215   2.908   4.231  16.944 -0.1583  0.5259 -0.3267
 1919SOL    HW117216   2.891   4.147  16.985  1.6384  1.2440  1.8401
 1919SOL    HW217217   2.992   4.223  16.900  0.7517  0.5403  1.4092
 1920SOL     OW17218   0.535   2.713  16.429 -0.8006 -0.0072  0.0155
 1920SOL    HW117219   0.599   2.713  16.359  0.7754 -3.6298  1.4553
 1920SOL    HW217220   0.580   2.733  16.511  0.5903 -2.2885 -0.1894
 1921SOL     OW17221   2.080   0.806   7.387 -0.2269  0.5070  0.2251
 1921SOL    HW117222   2.010   0.778   7.328  2.4977 -2.5339 -1.5370
 1921SOL    HW217223   2.122   0.722   7.406  2.6353  2.0438  0.6871
 1922SOL     OW17224   0.593   2.162   2.486 -0.1612 -0.2634  0.0887
 1922SOL    HW117225   0.585   2.253   2.512 -0.1578 -0.3209  0.2932
 1922SOL    HW217226   0.526   2.164   2.418  0.2627  0.5322 -0.3024
 1923SOL     OW17227   0.622   2.415   0.511 -0.3125  0.1243  0.1468
 1923SOL    HW117228   0.668   2.339   0.476 -2.1637 -0.7522 -0.3941
 1923SOL    HW217229   0.545   2.407   0.455 -0.3935 -0.3820  0.3287
 1924SOL     OW17230   1.513   3.110  15.208  0.3334 -0.3728  0.7185
 1924SOL    HW117231   1.512   3.017  15.232  2.7232 -0.6704 -0.3035
 1924SOL    HW217232   1.457   3.114  15.130  0.7806  0.5505  0.4400
 1925SOL     OW17233   3.189   3.905   3.215 -0.0934 -0.1673  0.3076
 1925SOL    HW117234   3.115   3.965   3.222  0.1326  0.0896  0.5211
 1925SOL    HW217235   3.161   3.827   3.262 -1.3694  0.2137  0.1698
 1926SOL     OW17236   0.535   2.616   3.720 -0.1339 -0.0030 -0.0264
 1926SOL    HW117237   0.510   2.535   3.764  1.3368 -0.4265  0.0351
 1926SOL    HW217238   0.623   2.592   3.691 -0.9336  0.7894 -3.1123
 1927SOL     OW17239   0.338   3.090   0.418  0.1603  0.1928  0.6126
 1927SOL    HW117240   0.285   3.048   0.350  2.0755 -2.1988  0.6105
 1927SOL    HW217241   0.307   3.181   0.413 -0.6454 -0.1379 -0.4359
 1928SOL     OW17242   0.398   1.084   1.889  0.4986  0.1595  0.7372
 1928SOL    HW117243   0.482   1.126   1.875  2.0667 -3.3952 -0.4866
 1928SOL    HW217244   0.351   1.146   1.944  2.3124  1.6730  0.5675
 1929SOL     OW17245   2.200   2.383   3.773  0.3069  0.2169 -0.0073
 1929SOL    HW117246   2.118   2.332   3.774  0.3091  0.2194  0.1745
 1929SOL    HW217247   2.222   2.383   3.680 -2.6077  2.9486 -0.6890
 1930SOL     OW17248   3.968   0.416   4.814 -0.1959  0.7310 -0.2642
 1930SOL    HW117249   3.904   0.366   4.763  1.3986 -0.4268 -1.0974
 1930SOL    HW217250   3.989   0.485   4.751  0.2713  0.8551  0.0327
 1931SOL     OW17251   4.642   4.114  10.851  0.0513  0.1288  0.4507
 1931SOL    HW117252   4.666   4.029  10.815  2.0246  0.4597  0.9761
 1931SOL    HW217253   4.549   4.106  10.872  0.0299 -3.9267 -1.0941
 1932SOL     OW17254   1.429   0.147  11.010  0.1530 -0.3095 -0.6981
 1932SOL    HW117255   1.408   0.240  11.013  1.6057  0.0098 -0.2635
 1932SOL    HW217256   1.486   0.129  10.935  0.2340 -2.1170 -0.2057
 1933SOL     OW17257   2.966   1.995   3.366 -0.0088  0.1261 -0.3552
 1933SOL    HW117258   3.043   1.972   3.313  0.3569  0.2706  0.1165
 1933SOL    HW217259   2.995   2.076   3.407 -0.2207 -0.0912  0.2276
 1934SOL     OW17260   4.150   0.251  15.061 -0.1697 -0.0694 -0.4052
 1934SOL    HW117261   4.108   0.165  15.065 -0.3221  0.0597  0.6476
 1934SOL    HW217262   4.165   0.269  15.153  1.6331 -1.7242 -0.3759
 1935SOL     OW17263   4.467   3.864  11.032 -0.3797  0.4074  0.1501
 1935SOL    HW117264   4.563   3.866  11.031 -0.4226  2.4075  0.1156
 1935SOL    HW217265   4.438   3.885  11.121  1.8718  1.9940  0.4960
 1936SOL     OW17266   2.926   2.218   2.385 -0.5283 -0.2147 -0.7028
 1936SOL    HW117267   2.846   2.227   2.437 -0.4605 -3.8912  0.0936
 1936SOL    HW217268   2.891   2.187   2.301 -0.9957  0.4947 -0.7674
 1937SOL     OW17269   2.646   4.029   9.517  0.2391 -0.2754  0.0213
 1937SOL    HW117270   2.577   4.082   9.477  0.6591  0.1015 -0.2111
 1937SOL    HW217271   2.633   3.943   9.478  1.0261 -1.0332  1.4343
 1938SOL     OW17272   3.350   4.364  16.346  0.0323  0.0763 -0.3583
 1938SOL    HW117273   3.401   4.406  16.416  0.3777  1.7224 -1.5993
 1938SOL    HW217274   3.307   4.296  16.399 -0.3646  0.4729 -0.1705
 1939SOL     OW17275   0.515   0.027   2.240 -0.0110  0.2158  0.3956
 1939SOL    HW117276   0.443   0.014   2.301  0.5709 -1.2526  0.7847
 1939SOL    HW217277   0.549   0.115   2.252 -1.3014  0.3237  3.3468
 1940SOL     OW17278   0.905   4.140   2.360  0.1488  0.6027 -0.1199
 1940SOL    HW117279   0.939   4.125   2.272  0.7861 -0.6613  0.3403
 1940SOL    HW217280   0.856   4.065   2.393  1.8963 -0.2791  0.4533
 1941SOL     OW17281   2.191   2.484   1.008  0.1922  0.6495  0.3263
 1941SOL    HW117282   2.211   2.502   0.916  1.1348  0.4947  0.4959
 1941SOL    HW217283   2.271   2.441   1.041  0.3846  0.8467  0.1152
 1942SOL     OW17284   1.879   4.217   2.840 -0.3948 -0.1441  0.2698
 1942SOL    HW117285   1.877   4.299   2.792 -0.0149 -0.6864 -0.6688
 1942SOL    HW217286   1.824   4.151   2.797  1.1460 -2.1132  1.2975
 1943SOL     OW17287   1.582   2.552  17.227 -0.2032  0.1399  0.4763
 1943SOL    HW117288   1.662   2.604  17.231  0.8662 -1.7317  3.4759
 1943SOL    HW217289   1.511   2.612  17.248  0.8979  1.5964 -0.0291
 1944SOL     OW17290   4.363   3.860   9.980 -0.9211  0.3788  0.1058
 1944SOL    HW117291   4.270   3.847   9.998 -1.0136  0.0336 -0.6007
 1944SOL    HW217292   4.396   3.853  10.069 -0.1748 -1.2594 -0.2888
 1945SOL     OW17293   4.533   2.512   2.089  0.1127  0.2698  0.3729
 1945SOL    HW117294   4.458   2.569   2.076 -1.7623 -2.7273 -2.0682
 1945SOL    HW217295   4.593   2.582   2.115 -1.4272  1.3952  0.8491
 1946SOL     OW17296   1.638   2.210  17.051  0.0566 -0.3057  0.2239
 1946SOL    HW117297   1.649   2.235  17.142 -0.0684  1.8116 -0.3415
 1946SOL    HW217298   1.589   2.282  17.012  1.1376  0.1285 -0.3533
 1947SOL     OW17299   2.334   0.168   5.962  0.4619 -0.3523  0.1950
 1947SOL    HW117300   2.332   0.250   6.012  0.5925 -0.4661  0.3844
 1947SOL    HW217301   2.283   0.121   6.027 -1.0694  0.0232 -0.7248
 1948SOL     OW17302   3.029   2.236  17.441 -0.0459 -0.7703  0.2010
 1948SOL    HW117303   3.077   2.291  17.503  0.0072 -1.4345  0.7412
 1948SOL    HW217304   2.984   2.310  17.401 -1.8545 -2.3552 -0.6715
 1949SOL     OW17305   1.735   3.925  14.932 -0.1388 -0.0645  0.0762
 1949SOL    HW117306   1.648   3.959  14.950  0.4013  0.0901  2.3926
 1949SOL    HW217307   1.724   3.866  14.857  1.2083  1.4569 -1.3337
 1950SOL     OW17308   1.664   3.133   2.147 -0.1406  0.1042  0.0008
 1950SOL    HW117309   1.679   3.041   2.168 -0.7728  0.0776  0.3201
 1950SOL    HW217310   1.572   3.127   2.171 -0.5159  0.4051 -1.3900
 1951SOL     OW17311   1.953   1.838   2.406 -0.2904 -0.2080 -0.3838
 1951SOL    HW117312   2.021   1.904   2.421 -1.3195  0.8431 -0.2487
 1951SOL    HW217313   2.002   1.768   2.365 -1.0389 -1.0203  0.0977
 1952SOL     OW17314   3.634   2.625   0.753  0.2667 -0.6192  0.4411
 1952SOL    HW117315   3.639   2.658   0.843  0.2738  1.9001 -0.4801
 1952SOL    HW217316   3.663   2.703   0.705 -3.3518  2.2054  2.8055
 1953SOL     OW17317   0.370   2.479   7.732  0.3774 -0.1421  0.3789
 1953SOL    HW117318   0.408   2.433   7.657 -0.7768  1.3546 -1.1447
 1953SOL    HW217319   0.453   2.508   7.770 -0.4704  3.1156 -0.2452
 1954SOL     OW17320   2.221   1.197  13.627  0.7014  0.4976  0.2401
 1954SOL    HW117321   2.161   1.216  13.555 -0.9790  1.4753  1.8791
 1954SOL    HW217322   2.304   1.207  13.580 -0.1044  0.5215 -1.1708
 1955SOL     OW17323   1.349   2.240   9.788  0.4956 -0.2270 -0.1241
 1955SOL    HW117324   1.307   2.226   9.703 -1.2058  2.8588  0.1773
 1955SOL    HW217325   1.291   2.290   9.845 -2.3295 -2.5831 -0.9628
 1956SOL     OW17326   2.312   4.139   8.155  0.1417  0.0789  0.7541
 1956SOL    HW117327   2.276   4.224   8.128  1.1087  0.5193  0.8447
 1956SOL    HW217328   2.363   4.171   8.229  1.3274 -1.1629  0.4656
 1957SOL     OW17329   2.134   4.439   2.638 -0.2996 -0.2835  0.1753
 1957SOL    HW117330   2.042   4.465   2.640 -0.3542 -0.2431 -2.0648
 1957SOL    HW217331   2.153   4.435   2.544  0.2022  1.7208  0.2029
 1958SOL     OW17332   1.029   4.657   1.065  0.0706  0.3034  0.4183
 1958SOL    HW117333   0.980   0.007   1.099  0.6825  0.1422  1.6574
 1958SOL    HW217334   1.065   4.640   1.152 -0.6670 -0.1246  0.6453
 1959SOL     OW17335   0.733   4.306   1.514  0.0976  0.1932  0.3345
 1959SOL    HW117336   0.649   4.352   1.511 -0.3967 -0.8192 -1.7330
 1959SOL    HW217337   0.702   4.227   1.559 -0.6889  0.5975  0.4958
 1960SOL     OW17338   4.589   1.750   5.067 -0.2143 -0.3518 -0.1670
 1960SOL    HW117339   4.562   1.839   5.089 -0.5707 -0.0352 -1.9261
 1960SOL    HW217340   4.508   1.699   5.055 -1.8179  2.4166 -1.0562
 1961SOL     OW17341   1.907   2.348   1.733  0.4890  0.7032 -0.0060
 1961SOL    HW117342   1.886   2.257   1.752 -0.9109  0.7213 -1.4921
 1961SOL    HW217343   1.890   2.355   1.639  2.9479  0.9669 -0.4272
 1962SOL     OW17344   3.003   0.332   7.748  0.4651 -0.1316  0.2154
 1962SOL    HW117345   3.011   0.423   7.721 -1.5884  0.1996  0.6873
 1962SOL    HW217346   3.037   0.286   7.672 -1.5622  0.1633 -0.8858
 1963SOL     OW17347   0.233   3.747   2.024  0.6806  0.1476 -1.0109
 1963SOL    HW117348   0.273   3.667   2.059 -3.3616 -2.1754 -1.6555
 1963SOL    HW217349   0.306   3.808   2.016 -0.0901  1.2946  0.7179
 1964SOL     OW17350   4.006   1.975  15.536 -0.6282  0.1249 -0.0824
 1964SOL    HW117351   3.958   2.055  15.554 -1.3126  0.1900 -2.2553
 1964SOL    HW217352   3.943   1.913  15.572  2.1477 -1.9716  1.1854
 1965SOL     OW17353   1.843   4.415   3.123  0.2350  0.7821 -0.8234
 1965SOL    HW117354   1.908   4.430   3.192  0.1047  1.2488 -0.8071
 1965SOL    HW217355   1.871   4.485   3.065  1.7047  0.2847 -0.7229
 1966SOL     OW17356   0.092   4.154   2.922 -0.1463 -0.3744 -0.2103
 1966SOL    HW117357   0.018   4.095   2.908  0.0225 -1.0539  1.7314
 1966SOL    HW217358   0.117   4.200   2.842 -2.5869  1.2641 -0.0067
 1967SOL     OW17359   3.309   0.964   7.730 -0.5928 -0.4805  0.1302
 1967SOL    HW117360   3.324   0.902   7.802 -0.8899 -1.6635 -0.8376
 1967SOL    HW217361   3.235   0.935   7.677 -0.5091 -0.4592  0.0032
 1968SOL     OW17362   2.871   0.220  15.465 -0.3160  0.5069 -0.3401
 1968SOL    HW117363   2.927   0.265  15.401 -1.3946  0.2939 -1.4232
 1968SOL    HW217364   2.932   0.157  15.504 -1.7639  0.2093  1.4357
 1969SOL     OW17365   1.946   4.707  16.244  0.3586 -0.3589  0.1792
 1969SOL    HW117366   1.951   4.632  16.185  2.0986 -0.5167  0.5243
 1969SOL    HW217367   2.017   0.039  16.214  1.7265 -1.4912  1.2501
 1970SOL     OW17368   4.190   0.534   4.044 -0.3280 -0.0478 -0.1695
 1970SOL    HW117369   4.184   0.625   4.018 -0.6324 -0.3539 -1.1816
 1970SOL    HW217370   4.212   0.478   3.970 -2.2256  1.0446 -1.5563
 1971SOL     OW17371   0.709   3.937  16.811  0.1080  0.7209  0.4601
 1971SOL    HW117372   0.793   3.910  16.773 -0.0855  0.5129  0.1732
 1971SOL    HW217373   0.646   3.880  16.767  1.5999  0.3810 -1.2184
 1972SOL     OW17374   4.320   1.268   4.172  0.5384  0.5048 -0.4057
 1972SOL    HW117375   4.371   1.199   4.130  0.9359  0.0345  0.8557
 1972SOL    HW217376   4.370   1.348   4.154 -0.5893  1.5098  0.9759
 1973SOL     OW17377   0.451   2.675   8.178 -0.2850 -0.0962 -0.2839
 1973SOL    HW117378   0.497   2.689   8.261 -1.0654 -0.1252  0.1535
 1973SOL    HW217379   0.374   2.727   8.201  0.7421  0.6777  1.3899
 1974SOL     OW17380   2.056   2.368   5.174  0.5026 -0.0115 -0.2912
 1974SOL    HW117381   2.080   2.390   5.264  1.3908  0.8725 -0.7522
 1974SOL    HW217382   1.979   2.314   5.194  1.2055 -1.0164 -0.3148
 1975SOL     OW17383   4.640   3.854  15.229 -0.4460  0.1524  0.5317
 1975SOL    HW117384   4.600   3.767  15.226 -0.2785  0.0583  1.0633
 1975SOL    HW217385   4.706   3.838  15.161  0.2393  3.3238  0.4539
 1976SOL     OW17386   0.078   2.864   6.929 -0.1711  0.7220  0.2048
 1976SOL    HW117387   0.018   2.789   6.927 -0.4252  0.8333  3.5455
 1976SOL    HW217388   0.147   2.825   6.983 -1.1682 -0.6356  0.5107
 1977SOL     OW17389   2.109   2.606  17.533  0.4649  0.0700 -0.5865
 1977SOL    HW117390   2.087   2.649  17.616  0.1646 -1.7544  0.2752
 1977SOL    HW217391   2.096   2.674  17.467 -2.1830 -1.6762 -1.8192
 1978SOL     OW17392   2.690   0.069   4.073  0.4489  0.2065 -0.1053
 1978SOL    HW117393   2.619   0.063   4.137 -1.2204  2.1726 -1.7833
 1978SOL    HW217394   2.755   0.112   4.129 -0.4224  0.9288  0.3540
 1979SOL     OW17395   0.242   3.059  15.572 -0.1001  0.2156 -0.2155
 1979SOL    HW117396   0.203   3.111  15.502  1.6840  2.2741  0.2860
 1979SOL    HW217397   0.173   3.070  15.637 -1.0328 -0.9886 -1.0324
 1980SOL     OW17398   2.945   1.881   1.232  0.3790  0.0213 -0.3995
 1980SOL    HW117399   2.905   1.905   1.148  2.5681 -0.4009 -1.5667
 1980SOL    HW217400   2.884   1.810   1.252 -0.3664  0.3102 -1.6589
 1981SOL     OW17401   2.485   2.134   2.219  0.6367  0.0230  0.2552
 1981SOL    HW117402   2.464   2.083   2.140 -1.0546  0.2561  0.5416
 1981SOL    HW217403   2.547   2.073   2.259  1.8155 -0.1782 -1.8978
 1982SOL     OW17404   2.938   4.354   5.903 -0.6735  0.5271  0.4030
 1982SOL    HW117405   2.916   4.352   5.996 -0.7801 -1.2164  0.3520
 1982SOL    HW217406   2.850   4.335   5.871 -1.1581 -0.1842  2.1345
 1983SOL     OW17407   2.303   1.228   8.070  0.3609  0.3721 -0.2595
 1983SOL    HW117408   2.217   1.261   8.042  0.2357 -0.1651 -0.5033
 1983SOL    HW217409   2.317   1.150   8.016 -0.9254 -0.5151  0.6986
 1984SOL     OW17410   3.022   1.782  12.637  0.1059 -0.1989  0.4058
 1984SOL    HW117411   2.977   1.866  12.631 -1.7601 -1.3432 -2.0605
 1984SOL    HW217412   3.055   1.764  12.549  0.4911  0.0699  0.4945
 1985SOL     OW17413   4.036   1.875  15.285 -0.1537  0.2750  0.3739
 1985SOL    HW117414   4.024   1.931  15.208 -0.8642  0.0939  0.3510
 1985SOL    HW217415   4.047   1.936  15.357  0.4200  1.7083 -0.9295
 1986SOL     OW17416   4.238   1.126  12.614 -0.0556  0.3588 -0.2135
 1986SOL    HW117417   4.288   1.167  12.543  1.9209  0.7770  1.4170
 1986SOL    HW217418   4.195   1.055  12.566  1.3437 -0.5330 -0.1654
 1987SOL     OW17419   2.788   1.730   2.150 -0.4077 -0.1956  0.0822
 1987SOL    HW117420   2.715   1.681   2.188 -1.6120 -0.2428 -2.2562
 1987SOL    HW217421   2.844   1.660   2.116  2.0506  1.5035  0.6558
 1988SOL     OW17422   3.196   4.477   4.215 -0.3525 -0.0886  0.4072
 1988SOL    HW117423   3.111   4.445   4.185 -0.1197 -0.5972  0.3041
 1988SOL    HW217424   3.191   4.572   4.205  0.5241  0.4396  4.7155
 1989SOL     OW17425   0.819   0.441   7.043  0.2578 -0.0707 -0.2801
 1989SOL    HW117426   0.740   0.404   7.084 -0.2764 -1.3735 -2.4875
 1989SOL    HW217427   0.792   0.453   6.952 -2.2838  0.8074  0.5940
 1990SOL     OW17428   3.876   0.142   4.098 -0.0365  0.6715 -0.4014
 1990SOL    HW117429   3.896   0.124   4.190  1.2842 -3.2308 -1.4763
 1990SOL    HW217430   3.811   0.213   4.100  0.8606  1.5393 -1.3541
 1991SOL     OW17431   1.012   3.504   3.327 -0.1379  0.2513 -0.1588
 1991SOL    HW117432   1.009   3.505   3.423 -0.0439 -1.7232 -0.1356
 1991SOL    HW217433   0.937   3.557   3.303 -0.3626  0.9360  2.0397
 1992SOL     OW17434   0.706   4.228  12.314 -0.4429  0.5489  0.1745
 1992SOL    HW117435   0.690   4.249  12.222 -1.3784 -0.5316  0.0955
 1992SOL    HW217436   0.801   4.235  12.320 -0.2389 -1.8771 -0.2628
 1993SOL     OW17437   1.573   2.787  16.742  0.2122  0.2792 -0.2280
 1993SOL    HW117438   1.624   2.708  16.759  0.8304  0.7328  0.0335
 1993SOL    HW217439   1.615   2.853  16.798  0.3326  1.3500 -1.5735
 1994SOL     OW17440   1.303   1.586   7.694  0.0619  0.2588  0.0036
 1994SOL    HW117441   1.269   1.633   7.618 -0.6692 -1.0454 -0.4892
 1994SOL    HW217442   1.226   1.559   7.745 -0.5547  1.1401 -0.4627
 1995SOL     OW17443   3.709   0.793   9.166  0.1380 -0.4338 -0.3143
 1995SOL    HW117444   3.748   0.706   9.165  0.2308 -0.3998  0.4924
 1995SOL    HW217445   3.723   0.817   9.258 -0.6368  0.1759 -0.3558
 1996SOL     OW17446   0.114   0.824  10.301 -0.1152 -0.2731  0.4339
 1996SOL    HW117447   0.190   0.864  10.342 -0.9435  1.6381  0.0972
 1996SOL    HW217448   0.074   0.904  10.267 -0.5135 -0.3460  0.7311
 1997SOL     OW17449   3.214   1.463  17.573 -0.1858  0.1499  0.3918
 1997SOL    HW117450   3.285   1.497  17.518  1.0280 -2.6880  0.2225
 1997SOL    HW217451   3.149   1.418  17.520 -0.3152 -1.4072  1.8987
 1998SOL     OW17452   4.599   4.568   9.055 -0.3055  0.1986 -0.2933
 1998SOL    HW117453   4.639   4.489   9.020 -0.8821  0.3916 -1.3890
 1998SOL    HW217454   4.635   4.633   8.995 -0.2362  0.1390 -0.3153
 1999SOL     OW17455   0.366   1.124   7.068  0.0783  0.5344  0.7180
 1999SOL    HW117456   0.450   1.142   7.026  0.5997  2.0713  2.4009
 1999SOL    HW217457   0.325   1.053   7.019  3.4227 -1.0704  0.2577
 2000SOL     OW17458   3.427   3.570   8.681  0.2798  0.0449 -0.2292
 2000SOL    HW117459   3.494   3.524   8.731 -1.6158 -1.0897  1.2694
 2000SOL    HW217460   3.351   3.517   8.706  0.6043 -0.0698  0.4970
 2001SOL     OW17461   3.229   0.009   4.975  0.2096  0.2938  0.1953
 2001SOL    HW117462   3.139   0.036   4.956  0.1492 -0.7480 -0.9828
 2001SOL    HW217463   3.272   0.089   5.005 -0.8335  1.0217 -0.2697
 2002SOL     OW17464   2.092   3.460   4.386  0.2954  0.1415 -0.2788
 2002SOL    HW117465   2.110   3.537   4.332  0.7423  1.3591  1.5895
 2002SOL    HW217466   2.161   3.461   4.453  1.0580  2.3883 -1.0931
 2003SOL     OW17467   3.937   1.971  10.942  0.9639  0.0476 -0.2139
 2003SOL    HW117468   3.934   2.046  10.883 -1.6010  0.2798  0.2115
 2003SOL    HW217469   3.872   1.995  11.008  0.3799 -2.1760  0.0385
 2004SOL     OW17470   3.788   3.048   7.048  0.2979  0.4958  0.1997
 2004SOL    HW117471   3.719   3.049   7.114  0.6177 -2.3676  0.6045
 2004SOL    HW217472   3.858   3.103   7.083 -0.0237  1.0221  0.0168
 2005SOL     OW17473   4.496   0.516   5.788 -0.0695  1.0134 -0.9234
 2005SOL    HW117474   4.495   0.612   5.778 -1.6774  1.1916  1.0334
 2005SOL    HW217475   4.584   0.489   5.764 -0.2431 -0.9836  0.7575
 2006SOL     OW17476   1.839   4.176  11.971  0.2532  0.0258  0.0982
 2006SOL    HW117477   1.774   4.178  12.042  1.0648  0.8838  0.8198
 2006SOL    HW217478   1.821   4.088  11.939 -1.0905 -0.0387  1.0126
 2007SOL     OW17479   0.149   2.935   5.098  0.5268 -0.1674 -0.6072
 2007SOL    HW117480   0.171   2.996   5.168 -0.4100 -0.6187  0.0859
 2007SOL    HW217481   0.134   2.852   5.144  0.6290  0.8297  1.2624
 2008SOL     OW17482   1.682   3.125   0.543  0.2084 -0.0587  0.7971
 2008SOL    HW117483   1.701   3.211   0.581 -2.2852  0.3219  1.1485
 2008SOL    HW217484   1.654   3.074   0.619 -0.1770  2.1485  2.1385
 2009SOL     OW17485   3.247   4.542   3.883  0.0001  1.3213 -0.7016
 2009SOL    HW117486   3.330   4.584   3.860 -0.4656  1.1269 -2.7528
 2009SOL    HW217487   3.272   4.453   3.907 -1.4868  0.8876 -0.7744
 2010SOL     OW17488   2.003   2.539   6.835 -0.0849  0.0176  0.2612
 2010SOL    HW117489   1.933   2.500   6.783 -1.6402  0.4604  1.9973
 2010SOL    HW217490   2.056   2.460   6.840  0.9556  0.5506 -2.4700
 2011SOL     OW17491   4.724   2.275   2.963  0.3450 -0.4763 -0.3919
 2011SOL    HW117492   0.079   2.222   2.968  0.1701 -0.5161  1.9330
 2011SOL    HW217493   4.710   2.276   2.868 -1.3691 -2.5299 -0.1601
 2012SOL     OW17494   3.448   3.797   8.318 -0.1915 -0.2357 -0.2891
 2012SOL    HW117495   3.517   3.836   8.372  0.3322  2.6955 -3.0968
 2012SOL    HW217496   3.380   3.857   8.349 -0.4944 -1.2984  1.1401
 2013SOL     OW17497   2.816   4.290   2.908 -0.1990  0.3061 -0.1601
 2013SOL    HW117498   2.736   4.237   2.907  0.0339 -0.0593  0.2137
 2013SOL    HW217499   2.777   4.377   2.910 -1.1884 -0.0596 -2.7331
 2014SOL     OW17500   2.365   3.070   1.143 -0.2838  0.1922  0.6081
 2014SOL    HW117501   2.310   3.007   1.098 -0.7646  0.5133  0.7526
 2014SOL    HW217502   2.310   3.126   1.197 -1.5755 -0.4726 -0.0246
 2015SOL     OW17503   3.638   4.419  14.265  0.4351  0.0218  0.5326
 2015SOL    HW117504   3.668   4.363  14.336  1.6451  2.6872  2.1022
 2015SOL    HW217505   3.693   4.383  14.195  2.0866  1.4707  1.0869
 2016SOL     OW17506   2.570   1.168   2.669  0.4155  0.4954 -0.4435
 2016SOL    HW117507   2.651   1.146   2.622 -0.8045  0.4261 -2.5224
 2016SOL    HW217508   2.505   1.155   2.600 -0.1523 -0.5522  0.2950
 2017SOL     OW17509   1.721   4.106   9.349 -0.4077 -0.3972 -0.3397
 2017SOL    HW117510   1.777   4.152   9.286  1.1274 -2.3512 -0.4112
 2017SOL    HW217511   1.644   4.072   9.303 -1.4580  3.4305 -1.3899
 2018SOL     OW17512   2.723   0.972   4.947  0.0410  0.6707  0.4422
 2018SOL    HW117513   2.647   0.967   4.889  0.5565  1.6240 -0.3092
 2018SOL    HW217514   2.733   1.067   4.958  0.9580  0.6779 -0.4334
 2019SOL     OW17515   1.936   0.077   7.954 -0.2669 -1.0603  0.1880
 2019SOL    HW117516   2.006   0.143   7.959  0.2926 -1.8124  2.1614
 2019SOL    HW217517   1.869   0.120   8.006 -1.6895 -0.8336 -1.8486
 2020SOL     OW17518   0.658   0.897   9.986 -0.0781  0.2212  0.0300
 2020SOL    HW117519   0.706   0.978   9.969  1.3660 -0.6615 -0.1548
 2020SOL    HW217520   0.605   0.916  10.063 -0.7783 -2.4110  0.2067
 2021SOL     OW17521   0.534   3.681   6.669  0.1988  0.0138 -0.5568
 2021SOL    HW117522   0.629   3.691   6.674  0.6931 -2.8628 -3.4379
 2021SOL    HW217523   0.531   3.585   6.666 -3.4556  0.0735  1.1140
 2022SOL     OW17524   1.264   3.708   7.054 -0.1544 -0.4025 -0.4325
 2022SOL    HW117525   1.349   3.751   7.069  0.2312 -1.6621  0.9881
 2022SOL    HW217526   1.208   3.752   7.117 -0.2877 -0.8873 -0.2113
 2023SOL     OW17527   1.299   2.067  13.764  0.0237 -0.4274  0.2605
 2023SOL    HW117528   1.367   2.089  13.827 -0.7836 -1.9310  1.6552
 2023SOL    HW217529   1.348   2.037  13.687  1.7973 -1.2944  1.7422
 2024SOL     OW17530   0.912   3.444   5.607 -0.5674 -0.4993  0.4503
 2024SOL    HW117531   0.848   3.487   5.551 -1.6012 -1.3322  0.9893
 2024SOL    HW217532   0.902   3.491   5.689 -0.3691  0.4804 -0.0900
 2025SOL     OW17533   2.935   1.942  15.006  0.3697  0.3413  0.9488
 2025SOL    HW117534   2.895   2.011  15.059 -0.4308  1.8444 -1.5818
 2025SOL    HW217535   2.856   1.888  14.994  2.3149 -1.5801 -3.2592
 2026SOL     OW17536   3.239   1.089   8.372  0.3357  0.5389 -0.0097
 2026SOL    HW117537   3.181   1.026   8.329  2.9657  0.9911 -4.2484
 2026SOL    HW217538   3.190   1.169   8.356 -0.7738  0.3465  2.5539
 2027SOL     OW17539   0.109   2.459   6.657 -0.7162  0.3911 -0.2382
 2027SOL    HW117540   0.125   2.528   6.593 -1.1893  0.0020 -0.7626
 2027SOL    HW217541   0.112   2.504   6.742  1.1625  1.1252 -0.6725
 2028SOL     OW17542   1.534   4.494   5.856  0.6423  0.0443  0.0465
 2028SOL    HW117543   1.570   4.455   5.935  0.0663  1.6237  1.0835
 2028SOL    HW217544   1.457   4.533   5.897  0.2707 -0.1919 -0.4277
 2029SOL     OW17545   2.450   1.450   7.982 -0.3769 -0.2714 -1.0087
 2029SOL    HW117546   2.404   1.369   7.964  1.9389 -1.6030 -0.8942
 2029SOL    HW217547   2.382   1.518   7.981  0.7839  0.8913 -1.6173
 2030SOL     OW17548   1.155   0.510   9.133  0.2618 -0.3053  0.9074
 2030SOL    HW117549   1.248   0.527   9.119  0.2050 -1.5277 -0.8927
 2030SOL    HW217550   1.152   0.415   9.119 -0.1458 -0.0470 -0.7280
 2031SOL     OW17551   0.824   2.756   6.334  0.5862  0.6205  0.1384
 2031SOL    HW117552   0.770   2.794   6.404 -0.6877  0.5843 -0.8386
 2031SOL    HW217553   0.882   2.831   6.323  0.7651  0.3887 -0.4643
 2032SOL     OW17554   0.302   3.705   4.451  0.1350  0.4215  0.1109
 2032SOL    HW117555   0.313   3.684   4.358 -1.5139  0.8445 -0.1794
 2032SOL    HW217556   0.246   3.782   4.442  0.1668  0.7025  2.2807
 2033SOL     OW17557   2.179   3.903   4.075  0.1174 -0.0384  0.1797
 2033SOL    HW117558   2.123   3.918   3.999 -1.0429 -0.2360  0.9860
 2033SOL    HW217559   2.198   3.987   4.117 -0.0147 -0.0871  0.3373
 2034SOL     OW17560   2.779   2.766   5.997 -0.7633 -0.3840  0.6168
 2034SOL    HW117561   2.774   2.671   5.999  3.8380 -0.6258  0.3625
 2034SOL    HW217562   2.805   2.783   5.907  0.1847  1.2650  1.1866
 2035SOL     OW17563   0.194   1.889   2.483  0.1139 -0.2753  0.5679
 2035SOL    HW117564   0.267   1.947   2.503  0.3838 -0.8441  1.2042
 2035SOL    HW217565   0.120   1.939   2.517  1.8471  1.7542  1.3287
 2036SOL     OW17566   0.654   2.109  11.298 -0.1525 -0.0350  0.3339
 2036SOL    HW117567   0.588   2.135  11.363 -0.6133 -1.7397  0.5749
 2036SOL    HW217568   0.732   2.106  11.354 -0.3318 -1.6602  0.5066
 2037SOL     OW17569   3.404   1.938   2.969  0.4198  0.2210  0.1378
 2037SOL    HW117570   3.457   2.017   2.977  0.1878  0.6845 -2.7647
 2037SOL    HW217571   3.459   1.899   2.901  0.3527 -0.5267  0.5125
 2038SOL     OW17572   2.776   1.468   7.464 -0.5218  0.5098 -0.2568
 2038SOL    HW117573   2.831   1.501   7.393  0.6305  3.3281  1.9248
 2038SOL    HW217574   2.707   1.431   7.409 -0.0418 -0.7478  0.0082
 2039SOL     OW17575   1.831   2.793   3.042 -0.7065  0.2788  0.1658
 2039SOL    HW117576   1.814   2.721   3.102  0.2241  0.3340  0.4963
 2039SOL    HW217577   1.904   2.760   2.988 -1.5920 -0.3933 -0.6279
 2040SOL     OW17578   3.246   0.391   7.391  0.4858 -0.3471  0.8186
 2040SOL    HW117579   3.206   0.351   7.469 -3.0173  1.0650 -0.2791
 2040SOL    HW217580   3.177   0.455   7.375  2.8023  2.1598  0.8917
 2041SOL     OW17581   3.759   4.476   7.125 -0.6112  0.3359 -0.7229
 2041SOL    HW117582   3.774   4.412   7.195 -0.2553  1.0109 -0.1888
 2041SOL    HW217583   3.731   4.552   7.177  1.4615  0.0225  0.8667
 2042SOL     OW17584   3.279   1.879   2.600  0.7768 -0.1184 -0.4106
 2042SOL    HW117585   3.309   1.799   2.558  1.1780 -0.4082  0.4306
 2042SOL    HW217586   3.259   1.931   2.523 -0.5897 -0.0251  0.0023
 2043SOL     OW17587   1.901   3.492  14.877 -0.5513 -0.5040  0.5235
 2043SOL    HW117588   1.874   3.410  14.920  0.5854 -0.0921  2.0534
 2043SOL    HW217589   1.988   3.463  14.850 -0.6656 -0.6444  0.3134
 2044SOL     OW17590   1.185   0.931   0.296 -0.8453  0.7800 -0.2491
 2044SOL    HW117591   1.193   0.950   0.203  3.0152  2.8263  0.4884
 2044SOL    HW217592   1.197   0.836   0.287  2.2259  1.2842 -1.3541
 2045SOL     OW17593   4.146   2.665  16.253  0.0871 -0.4622 -0.2524
 2045SOL    HW117594   4.177   2.756  16.249 -0.1111 -0.4255 -0.8782
 2045SOL    HW217595   4.138   2.652  16.347 -0.1328 -0.0072 -0.2087
 2046SOL     OW17596   1.152   0.537   7.449  0.1208  0.4784 -0.5409
 2046SOL    HW117597   1.126   0.448   7.424 -0.9239  0.7699 -0.4957
 2046SOL    HW217598   1.213   0.521   7.521 -1.0336 -2.6795 -0.2406
 2047SOL     OW17599   3.367   4.427   5.151 -0.4574 -0.5631  0.0447
 2047SOL    HW117600   3.411   4.447   5.068 -1.0586  3.0966  0.6368
 2047SOL    HW217601   3.285   4.398   5.111  0.1623 -1.7107 -0.4067
 2048SOL     OW17602   1.164   4.217   5.165  0.0584 -0.2179  0.2473
 2048SOL    HW117603   1.104   4.162   5.115  0.2740  0.9496 -1.3008
 2048SOL    HW217604   1.111   4.236   5.242  1.1953  2.4084  0.3820
 2049SOL     OW17605   1.669   0.807  12.751 -0.2401  0.1490 -0.2124
 2049SOL    HW117606   1.763   0.805  12.730  0.3317  1.2901  2.2729
 2049SOL    HW217607   1.635   0.852  12.673  0.4491  1.5327  0.2807
 2050SOL     OW17608   1.007   1.568   6.831  0.1718 -0.3431  0.1564
 2050SOL    HW117609   1.038   1.635   6.892 -2.7530 -0.4431  1.7489
 2050SOL    HW217610   1.015   1.481   6.872  2.2262  0.1442  0.7858
 2051SOL     OW17611   2.378   3.407  14.242  0.0869  0.1984 -0.2661
 2051SOL    HW117612   2.373   3.321  14.284 -0.8969 -0.3890 -1.5874
 2051SOL    HW217613   2.287   3.410  14.210 -0.4630  1.6905  1.4243
 2052SOL     OW17614   3.533   0.297   4.654  0.2669  0.3579  0.1710
 2052SOL    HW117615   3.519   0.207   4.626  1.5683  0.5520 -1.0754
 2052SOL    HW217616   3.441   0.323   4.645 -0.3158 -1.2942  1.1785
 2053SOL     OW17617   3.758   1.595  17.186  0.2617 -0.3989 -0.3390
 2053SOL    HW117618   3.830   1.580  17.124 -0.9352  0.1104 -1.8330
 2053SOL    HW217619   3.730   1.676  17.144  2.4908  1.6872  2.2349
 2054SOL     OW17620   1.423   3.347   5.357  0.1273 -0.1269  0.2256
 2054SOL    HW117621   1.465   3.375   5.276  0.2973  0.1919  0.4198
 2054SOL    HW217622   1.340   3.320   5.317 -0.5367 -1.2687  2.3670
 2055SOL     OW17623   0.370   0.874   1.222  0.1240 -0.3428 -0.4948
 2055SOL    HW117624   0.403   0.919   1.300 -1.6392  1.6492 -0.9105
 2055SOL    HW217625   0.292   0.825   1.251  1.0975 -0.5059  1.8440
 2056SOL     OW17626   4.502   0.230   7.844 -0.4059 -0.7910  0.4504
 2056SOL    HW117627   4.509   0.239   7.939  2.2061 -1.1361  0.2648
 2056SOL    HW217628   4.479   0.321   7.825 -1.9765 -1.3285 -0.2543
 2057SOL     OW17629   4.583   0.654   8.522  0.0031 -0.5025  0.0648
 2057SOL    HW117630   4.506   0.700   8.489  1.1528 -0.4983 -2.6008
 2057SOL    HW217631   4.544   0.593   8.585 -0.6225 -0.9446 -0.7557
 2058SOL     OW17632   0.352   1.926   2.008  0.7464 -0.4656 -0.3083
 2058SOL    HW117633   0.272   1.950   2.054  0.3723 -1.4262 -0.4539
 2058SOL    HW217634   0.331   1.954   1.919  0.3764  3.0336  0.8984
 2059SOL     OW17635   2.381   3.281   3.979 -0.0383  0.6154  0.4977
 2059SOL    HW117636   2.416   3.260   4.066  1.7289 -0.7703 -0.5611
 2059SOL    HW217637   2.336   3.199   3.958  0.4019  0.4628  0.1683
 2060SOL     OW17638   3.426   2.817   3.829  0.3934  0.2829  0.1241
 2060SOL    HW117639   3.495   2.752   3.838  0.6230  1.0500  3.7037
 2060SOL    HW217640   3.395   2.791   3.742 -1.6644  0.1332  0.9051
 2061SOL     OW17641   1.692   3.219   6.046 -1.0044  0.0384 -0.0082
 2061SOL    HW117642   1.604   3.208   6.010 -0.5114 -1.5018 -0.7052
 2061SOL    HW217643   1.702   3.314   6.054 -1.6166 -0.0324  1.6390
 2062SOL     OW17644   1.711   4.584   6.855 -0.4377 -0.0649 -0.3032
 2062SOL    HW117645   1.690   4.499   6.816 -1.7412  0.2787 -0.3547
 2062SOL    HW217646   1.654   4.644   6.806 -0.1872 -0.2233 -0.7945
 2063SOL     OW17647   2.974   2.034   6.739  0.6042 -0.4369 -0.0445
 2063SOL    HW117648   3.015   1.984   6.809  1.7050  1.7869  0.8649
 2063SOL    HW217649   2.964   1.968   6.670 -0.0203 -1.0768  0.6516
 2064SOL     OW17650   2.828   2.096   2.153  0.2717 -0.5048  0.1926
 2064SOL    HW117651   2.891   2.051   2.097 -0.9631 -2.2356  0.1745
 2064SOL    HW217652   2.752   2.038   2.144  0.9320 -1.2806 -0.4342
 2065SOL     OW17653   3.177   0.329   6.630 -0.1128  0.0283 -0.0060
 2065SOL    HW117654   3.213   0.271   6.697  0.8222 -0.2773 -0.7699
 2065SOL    HW217655   3.149   0.405   6.680  0.0269  0.7468 -1.0125
 2066SOL     OW17656   3.650   0.371   6.677 -0.2884  0.3951 -0.0707
 2066SOL    HW117657   3.720   0.340   6.733  0.4419 -0.5633 -1.5128
 2066SOL    HW217658   3.647   0.300   6.613  0.6655 -1.1981  1.6922
 2067SOL     OW17659   1.619   2.919   3.157 -0.1878 -0.0387 -0.4068
 2067SOL    HW117660   1.714   2.913   3.162 -0.0886  2.0474  0.1395
 2067SOL    HW217661   1.604   2.881   3.070  0.4250  0.7757 -0.8741
 2068SOL     OW17662   4.396   3.873   6.407 -0.6777  0.4456  0.5797
 2068SOL    HW117663   4.395   3.921   6.325  0.4723 -1.6130 -0.6391
 2068SOL    HW217664   4.388   3.788   6.364  0.5801  1.0633 -0.8284
 2069SOL     OW17665   4.409   2.437   1.140 -0.0384  0.0833  0.2397
 2069SOL    HW117666   4.451   2.517   1.172 -3.6420  1.2634  1.9862
 2069SOL    HW217667   4.358   2.410   1.217  2.2823 -1.8324  1.1279
 2070SOL     OW17668   2.194   4.678   2.853  1.1854  0.0821 -0.1686
 2070SOL    HW117669   2.157   4.592   2.835 -0.3696  0.6210  0.4444
 2070SOL    HW217670   2.128   4.711   2.915  0.8589  2.7202 -1.9008
 2071SOL     OW17671   3.033   0.349   1.230  0.5461  0.4317 -0.7718
 2071SOL    HW117672   3.075   0.434   1.218 -0.8654  1.4673  1.4682
 2071SOL    HW217673   3.058   0.332   1.321  1.7976  0.2375 -1.1540
 2072SOL     OW17674   3.130   1.513   6.017  0.2641 -0.6260 -0.5565
 2072SOL    HW117675   3.165   1.466   5.942 -0.6777 -1.8983 -0.1969
 2072SOL    HW217676   3.177   1.596   6.004 -0.1484 -0.0197  1.7141
 2073SOL     OW17677   0.710   3.098   2.567  0.3237  0.5674 -0.6726
 2073SOL    HW117678   0.623   3.082   2.529 -0.4252 -1.3792  1.8873
 2073SOL    HW217679   0.756   3.021   2.531  1.2252  1.1112 -0.6886
 2074SOL     OW17680   0.441   3.651   3.810 -0.4048  0.5871 -0.5655
 2074SOL    HW117681   0.448   3.563   3.847  0.5876  0.1110 -1.9007
 2074SOL    HW217682   0.369   3.683   3.864 -0.9446 -0.6939 -0.5125
 2075SOL     OW17683   4.716   3.937   9.328 -0.2803 -0.5710  0.6453
 2075SOL    HW117684   4.693   3.852   9.292  1.4824 -1.4579  1.6110
 2075SOL    HW217685   4.639   3.947   9.383 -0.7998 -0.0488 -0.1792
 2076SOL     OW17686   2.318   2.186   1.152  0.2329  0.1039 -0.1037
 2076SOL    HW117687   2.344   2.262   1.204  1.7230 -1.1378  0.9559
 2076SOL    HW217688   2.292   2.131   1.226 -2.4059  1.2924 -0.1503
 2077SOL     OW17689   3.562   2.633   7.106  0.2715  0.0115 -0.0621
 2077SOL    HW117690   3.507   2.705   7.137  1.0658  0.8138 -0.5451
 2077SOL    HW217691   3.643   2.679   7.083  1.3038 -1.2294  1.0372
 2078SOL     OW17692   1.000   2.910   2.635 -0.2690  0.3795 -0.2060
 2078SOL    HW117693   0.958   2.895   2.550  1.1003  0.1251 -0.8336
 2078SOL    HW217694   0.934   2.884   2.699 -0.6685 -0.8452 -1.1147
 2079SOL     OW17695   3.299   4.347   9.453 -0.9825  0.5912 -0.3109
 2079SOL    HW117696   3.293   4.257   9.420 -2.1874  0.3874  0.4263
 2079SOL    HW217697   3.248   4.346   9.535 -1.5385 -0.7702 -0.6679
 2080SOL     OW17698   3.107   0.885   9.998 -0.0417 -0.4356 -0.0072
 2080SOL    HW117699   3.012   0.892   9.987 -0.2208  0.2054  1.9767
 2080SOL    HW217700   3.110   0.790  10.008 -0.6013 -0.2329  1.9191
 2081SOL     OW17701   3.471   0.161   1.592 -0.3231  0.1950  0.7129
 2081SOL    HW117702   3.514   0.246   1.577 -2.2872  1.6271  3.1315
 2081SOL    HW217703   3.429   0.145   1.507 -0.5740  0.9960  0.6852
 2082SOL     OW17704   2.733   4.161   4.770 -0.2816 -0.4215 -0.4148
 2082SOL    HW117705   2.814   4.111   4.777  0.4573  0.9246  0.6957
 2082SOL    HW217706   2.721   4.185   4.861  1.5573 -1.3755  0.0825
 2083SOL     OW17707   3.735   4.468   1.031 -0.5230  0.0921  0.3327
 2083SOL    HW117708   3.814   4.504   0.990 -0.3275 -0.8203 -0.0889
 2083SOL    HW217709   3.704   4.542   1.083  0.3479  0.8909 -0.2808
 2084SOL     OW17710   3.362   4.583   0.758  0.0324 -0.3869 -0.2265
 2084SOL    HW117711   3.376   4.490   0.738 -1.6661 -1.2743  2.7662
 2084SOL    HW217712   3.268   4.586   0.778 -0.3317 -0.4181 -1.9040
 2085SOL     OW17713   2.279   0.874   4.028 -0.7606  0.0383 -0.2187
 2085SOL    HW117714   2.243   0.786   4.014 -1.3301  0.4464 -1.2799
 2085SOL    HW217715   2.349   0.864   3.964 -0.2156  1.4207  0.1756
 2086SOL     OW17716   3.381   3.594   7.842  0.5075 -0.4466 -0.0116
 2086SOL    HW117717   3.400   3.576   7.934 -1.3954 -0.0863  0.4328
 2086SOL    HW217718   3.290   3.621   7.849  0.0419 -1.6261 -1.6752
 2087SOL     OW17719   0.381   3.080   3.359 -0.1077 -0.5351 -0.1077
 2087SOL    HW117720   0.377   3.130   3.277  0.7578 -0.6857 -0.2447
 2087SOL    HW217721   0.473   3.056   3.372  0.1751  0.3470 -0.4670
 2088SOL     OW17722   4.638   1.443  11.120 -0.1065  0.6460  0.7024
 2088SOL    HW117723   4.606   1.497  11.047 -2.2244 -0.8059  0.5577
 2088SOL    HW217724   0.003   1.474  11.128  0.0049  0.2712  0.9005
 2089SOL     OW17725   2.874   1.660   4.919  0.3573  0.2188 -0.3159
 2089SOL    HW117726   2.933   1.624   4.854  1.1259 -1.1937  1.1711
 2089SOL    HW217727   2.794   1.610   4.902  0.9453 -0.3202 -1.4760
 2090SOL     OW17728   2.546   0.867   9.849 -0.1027 -0.0602  0.0759
 2090SOL    HW117729   2.529   0.781   9.889  1.0582 -1.1955 -1.8953
 2090SOL    HW217730   2.468   0.918   9.872  0.1868  0.4437 -0.0585
 2091SOL     OW17731   1.782   1.108  10.022  0.3957  0.5987 -0.4481
 2091SOL    HW117732   1.772   1.184   9.964  0.1585  1.7699  1.1281
 2091SOL    HW217733   1.877   1.110  10.028  0.4125 -1.6145 -0.0516
 2092SOL     OW17734   4.307   2.747   6.203 -0.2207 -0.1255  0.2980
 2092SOL    HW117735   4.297   2.682   6.273  0.7704  0.5999  1.1209
 2092SOL    HW217736   4.400   2.769   6.211 -0.6267  2.1335 -1.3514
 2093SOL     OW17737   4.058   4.296   7.016  0.5045  0.0216  0.3637
 2093SOL    HW117738   4.016   4.210   7.017  2.0128 -0.7676 -1.7827
 2093SOL    HW217739   4.019   4.339   6.940 -2.1686  0.7245  2.1510
 2094SOL     OW17740   3.737   4.317   8.850  0.1387 -0.0897  0.4446
 2094SOL    HW117741   3.649   4.349   8.868  0.1594 -0.3635  1.0144
 2094SOL    HW217742   3.792   4.379   8.898  0.7589 -0.1713 -0.1595
 2095SOL     OW17743   2.441   0.851   7.235  0.3902 -0.1467  0.1217
 2095SOL    HW117744   2.527   0.829   7.199  0.0187 -0.6066 -0.4894
 2095SOL    HW217745   2.378   0.838   7.164  1.4711 -1.4915 -0.6076
 2096SOL     OW17746   3.636   0.310   0.742  0.0419 -0.3375 -0.1930
 2096SOL    HW117747   3.607   0.397   0.716 -1.6134 -0.8246 -0.0005
 2096SOL    HW217748   3.617   0.308   0.836 -2.5037 -1.3502 -0.7233
 2097SOL     OW17749   2.236   0.457   3.002 -0.1538  0.1511 -0.0691
 2097SOL    HW117750   2.225   0.366   3.030 -1.4063  0.2493 -0.2451
 2097SOL    HW217751   2.163   0.460   2.941  0.3367 -0.5703 -0.6928
 2098SOL     OW17752   3.755   4.567   2.463 -0.0473  0.0455 -0.1677
 2098SOL    HW117753   3.702   4.588   2.387  0.2718 -0.8174 -0.6271
 2098SOL    HW217754   3.803   4.489   2.433 -2.0338 -0.8830 -0.8732
 2099SOL     OW17755   1.201   0.283   6.545  0.5944  0.0881 -0.0841
 2099SOL    HW117756   1.135   0.298   6.477  0.8630 -1.1280 -0.6022
 2099SOL    HW217757   1.144   0.273   6.621  2.8945  3.0538  2.0310
 2100SOL     OW17758   0.194   4.459   4.756  0.0820  0.3244  0.1711
 2100SOL    HW117759   0.216   4.380   4.708 -3.1213 -1.0379  0.9397
 2100SOL    HW217760   0.278   4.465   4.802  1.3737 -1.4990 -1.9369
 2101SOL     OW17761   3.537   0.420   8.195  0.0943  0.0326 -0.6434
 2101SOL    HW117762   3.614   0.378   8.157  0.2546  0.9549 -1.3523
 2101SOL    HW217763   3.571   0.505   8.222 -0.6134 -0.0768  0.6054
 2102SOL     OW17764   0.151   0.326   0.586 -0.3935  0.0698 -0.2303
 2102SOL    HW117765   0.112   0.260   0.644  0.3124  1.1714  1.4717
 2102SOL    HW217766   0.081   0.375   0.543  0.2813  0.9277 -0.3514
 2103SOL     OW17767   0.328   3.132   0.734 -0.4194 -0.4045 -0.3963
 2103SOL    HW117768   0.304   3.101   0.646  0.9370  1.5101 -1.4364
 2103SOL    HW217769   0.420   3.106   0.730 -0.6516 -1.4219  0.7929
 2104SOL     OW17770   1.020   1.490   5.327 -0.7268  0.1410  0.6031
 2104SOL    HW117771   0.972   1.457   5.403 -0.0620 -1.0441  0.5083
 2104SOL    HW217772   1.112   1.470   5.346 -0.7687  1.6699  2.3939
 2105SOL     OW17773   4.703   0.496   9.951  0.0471 -0.1530  0.1100
 2105SOL    HW117774   0.017   0.540  10.027 -0.9283  0.9602 -0.0382
 2105SOL    HW217775   0.022   0.411   9.961 -0.2435 -0.1972  1.0630
 2106SOL     OW17776   1.530   3.080   6.574  0.1093 -0.7848  0.1722
 2106SOL    HW117777   1.588   3.107   6.503 -1.6894  1.5172 -0.4363
 2106SOL    HW217778   1.522   2.995   6.532 -1.5100 -0.9362  0.7769
 2107SOL     OW17779   4.674   4.161   0.737  0.2266  0.1742  0.4579
 2107SOL    HW117780   4.630   4.186   0.655  1.6363  0.4751 -0.1971
 2107SOL    HW217781   4.607   4.110   0.781 -0.9563  1.3276  0.0136
 2108SOL     OW17782   0.356   3.536   1.726 -0.1615 -0.2879 -0.4127
 2108SOL    HW117783   0.326   3.450   1.696 -0.0209  0.2978 -2.2503
 2108SOL    HW217784   0.302   3.595   1.674 -1.7494 -1.7424 -0.4283
 2109SOL     OW17785   0.365   3.824  14.366  0.4384 -0.1761 -0.3414
 2109SOL    HW117786   0.365   3.823  14.271  1.6563  1.7492 -0.3697
 2109SOL    HW217787   0.426   3.751  14.380  1.2625  0.4210 -0.8103
 2110SOL     OW17788   1.127   1.704   8.299  0.3740 -0.1007 -0.3320
 2110SOL    HW117789   1.203   1.739   8.346  0.2959  0.3450 -0.5294
 2110SOL    HW217790   1.106   1.785   8.252  2.3415 -0.5440 -1.9751
 2111SOL     OW17791   0.337   0.434   3.451  0.7582  0.2758  0.1025
 2111SOL    HW117792   0.265   0.379   3.422 -0.7541  1.3908  1.7596
 2111SOL    HW217793   0.412   0.383   3.482  0.7328  0.9785  1.3238
 2112SOL     OW17794   1.498   2.478   6.138 -0.0971  0.0438  0.1786
 2112SOL    HW117795   1.444   2.415   6.090 -0.5807  0.1160  0.6282
 2112SOL    HW217796   1.431   2.495   6.205  1.3474 -0.3525  1.7407
 2113SOL     OW17797   1.640   4.250  13.200 -0.3960  0.4375 -0.4076
 2113SOL    HW117798   1.700   4.202  13.258 -0.0508  1.4306  0.0430
 2113SOL    HW217799   1.560   4.233  13.251 -0.8230  3.1209 -0.2016
 2114SOL     OW17800   2.462   2.754  16.943 -0.7685 -1.2064  0.0708
 2114SOL    HW117801   2.500   2.756  16.856  0.8547 -0.8629  0.7763
 2114SOL    HW217802   2.523   2.812  16.989  1.4010 -2.0914 -1.7214
 2115SOL     OW17803   2.014   0.227  14.008 -0.9572  0.1494 -0.0100
 2115SOL    HW117804   1.970   0.236  13.923 -1.1711 -0.4953  0.0299
 2115SOL    HW217805   2.028   0.132  14.013  0.8284  0.5357  2.7020
 2116SOL     OW17806   1.758   1.388   1.977 -0.0733  0.5657 -0.1819
 2116SOL    HW117807   1.841   1.372   1.934 -1.0546 -0.2614 -1.7443
 2116SOL    HW217808   1.708   1.353   1.904 -0.4235  1.1420 -0.2242
 2117SOL     OW17809   2.322   0.150  17.507  0.8436 -0.5480  0.0700
 2117SOL    HW117810   2.247   0.164  17.564  1.4212  3.4149 -0.1419
 2117SOL    HW217811   2.393   0.102  17.550  1.4353 -0.8196 -1.2126
 2118SOL     OW17812   4.371   0.313   2.325  0.3350 -0.1142 -0.2681
 2118SOL    HW117813   4.440   0.344   2.265  1.9316  0.3553  1.8081
 2118SOL    HW217814   4.289   0.307   2.277 -0.4840 -1.9670  1.3804
 2119SOL     OW17815   3.691   2.247   2.776  0.1295  0.4542  0.4845
 2119SOL    HW117816   3.687   2.329   2.728  0.4265  0.1320 -0.0892
 2119SOL    HW217817   3.784   2.228   2.786  0.4008  1.3178 -0.3682
 2120SOL     OW17818   0.786   1.306  14.441  0.4057  0.2216  0.4544
 2120SOL    HW117819   0.767   1.237  14.503  0.0264  0.4231  0.5605
 2120SOL    HW217820   0.817   1.376  14.499  0.6297  1.2516 -0.8868
 2121SOL     OW17821   2.601   3.634   5.379 -0.4436  0.0354 -0.0801
 2121SOL    HW117822   2.561   3.720   5.372  0.6796  0.5438 -0.1961
 2121SOL    HW217823   2.642   3.619   5.294  1.5155 -0.5059  0.9522
 2122SOL     OW17824   3.696   1.588  13.490 -0.2699 -0.1616 -0.0529
 2122SOL    HW117825   3.781   1.621  13.519 -0.4403 -0.8031  1.1705
 2122SOL    HW217826   3.650   1.565  13.571  0.7071  2.1828  1.1592
 2123SOL     OW17827   1.432   1.252   4.525  0.0177 -0.5384 -0.2510
 2123SOL    HW117828   1.371   1.193   4.571 -0.3182 -1.2612 -1.6254
 2123SOL    HW217829   1.400   1.233   4.437 -0.5470 -1.3866  0.1298
 2124SOL     OW17830   4.360   4.510   3.756  0.1507  0.8185  0.6020
 2124SOL    HW117831   4.383   4.602   3.770 -0.1044  1.1771 -1.2560
 2124SOL    HW217832   4.443   4.462   3.755  0.1919  0.9038 -0.6066
 2125SOL     OW17833   2.548   2.891   5.670 -0.3241  0.0021 -0.4870
 2125SOL    HW117834   2.537   2.800   5.644 -1.8564  0.0027  0.1443
 2125SOL    HW217835   2.484   2.897   5.742 -1.9252 -0.1183 -1.9053
 2126SOL     OW17836   0.950   0.336  10.646 -0.1179  0.1137 -0.1032
 2126SOL    HW117837   1.000   0.404  10.601 -1.5072  3.0957  2.8574
 2126SOL    HW217838   0.947   0.372  10.734  2.0960 -0.4902  0.2176
 2127SOL     OW17839   0.950   4.006  13.528 -0.3056  0.3566 -0.2840
 2127SOL    HW117840   0.910   3.927  13.491  3.5086 -0.0270 -3.6339
 2127SOL    HW217841   0.895   4.021  13.605 -1.0629  1.2041 -0.9936
 2128SOL     OW17842   1.543   4.461   2.783 -0.3236 -0.1041  0.2346
 2128SOL    HW117843   1.471   4.429   2.837 -0.7325 -3.4800 -2.3237
 2128SOL    HW217844   1.547   4.552   2.812  2.5991 -0.5854  1.2713
 2129SOL     OW17845   3.858   0.679   5.406 -0.1094  0.7852  0.7137
 2129SOL    HW117846   3.823   0.612   5.347  0.3617  2.2681 -1.2212
 2129SOL    HW217847   3.898   0.620   5.470  0.5941  1.9063  1.2997
 2130SOL     OW17848   4.594   4.090  10.102 -0.4202 -0.2704  0.3217
 2130SOL    HW117849   4.556   4.078  10.015  1.3986  2.6686 -0.8557
 2130SOL    HW217850   4.512   4.075  10.149 -1.6180  0.3814 -1.5236
 2131SOL     OW17851   3.598   2.926   7.878  0.1347 -0.0493  0.3856
 2131SOL    HW117852   3.507   2.936   7.852 -0.4846 -2.0318  1.7929
 2131SOL    HW217853   3.591   2.889   7.966  0.1015  1.5904  1.0621
 2132SOL     OW17854   3.981   3.199   9.738 -0.1481  0.3642 -0.6352
 2132SOL    HW117855   3.904   3.173   9.787 -0.6499  0.0441 -1.5981
 2132SOL    HW217856   3.935   3.239   9.664  0.1441  0.4883 -0.7508
 2133SOL     OW17857   1.787   1.472   3.484  0.1527 -0.1220 -0.1547
 2133SOL    HW117858   1.726   1.494   3.414 -0.3602 -2.2100 -0.3333
 2133SOL    HW217859   1.815   1.381   3.472 -0.6888 -0.1344 -1.9263
 2134SOL     OW17860   0.648   0.274   8.046 -0.2133 -0.3000 -0.2487
 2134SOL    HW117861   0.589   0.323   7.989 -0.6408  0.8220  1.1610
 2134SOL    HW217862   0.621   0.185   8.020  0.1174 -0.6766  0.7194
 2135SOL     OW17863   0.479   3.889   9.581  0.2073 -0.0287  0.3503
 2135SOL    HW117864   0.499   3.961   9.641  0.2888  1.1746 -1.1319
 2135SOL    HW217865   0.390   3.904   9.550  0.4445  0.4237 -0.1101
 2136SOL     OW17866   3.600   3.237   8.034 -0.0227  0.1709 -0.2654
 2136SOL    HW117867   3.664   3.228   7.963  0.0781 -1.8566  0.0707
 2136SOL    HW217868   3.521   3.193   8.001  0.6598 -0.3223 -1.2706
 2137SOL     OW17869   3.825   1.187   1.415  0.1188  0.4810  0.1880
 2137SOL    HW117870   3.919   1.207   1.410 -0.0086  0.1525 -3.6340
 2137SOL    HW217871   3.841   1.121   1.483  0.6580  0.0354 -0.3690
 2138SOL     OW17872   4.204   2.004   9.824  0.1368 -0.2054 -0.3198
 2138SOL    HW117873   4.209   2.090   9.781 -0.2945  0.1890  0.4146
 2138SOL    HW217874   4.271   2.011   9.892 -0.6189  0.3361  0.3753
 2139SOL     OW17875   2.398   0.515   3.230  0.5205 -0.2164 -0.2083
 2139SOL    HW117876   2.353   0.510   3.146 -1.4249 -0.3641  0.8544
 2139SOL    HW217877   2.457   0.589   3.217 -0.9614  0.4906 -2.9438
 2140SOL     OW17878   2.955   1.810   3.982  0.3674 -0.8030 -0.1260
 2140SOL    HW117879   2.992   1.892   3.950  0.0298 -2.1281 -3.8318
 2140SOL    HW217880   2.920   1.780   3.898  0.9551  0.7737 -0.9253
 2141SOL     OW17881   2.951   4.603   2.860  0.5449 -0.3473 -0.7661
 2141SOL    HW117882   3.010   4.591   2.934 -1.0050 -0.0105  0.5278
 2141SOL    HW217883   3.001   4.644   2.789 -0.1268  1.0240 -0.4571
 2142SOL     OW17884   3.535   1.195   9.485 -0.4330 -0.1957 -0.4556
 2142SOL    HW117885   3.465   1.181   9.549 -0.4568  1.5673 -0.0862
 2142SOL    HW217886   3.546   1.290   9.489 -3.7265  0.1236  1.0457
 2143SOL     OW17887   0.884   2.508   7.659 -0.4493 -0.4281  0.2766
 2143SOL    HW117888   0.916   2.449   7.591  0.4433  0.6101 -0.2055
 2143SOL    HW217889   0.944   2.578   7.633  0.6910 -0.8685  1.7586
 2144SOL     OW17890   2.025   4.397   6.195  0.4993 -0.0181 -0.6339
 2144SOL    HW117891   2.091   4.336   6.229  2.4858  1.9207 -1.0522
 2144SOL    HW217892   2.064   4.416   6.110 -1.8969  0.6247 -1.6104
 2145SOL     OW17893   0.029   1.110   9.232 -0.1551  0.0084  0.3463
 2145SOL    HW117894   4.679   1.121   9.174  0.2655  0.0112 -0.1998
 2145SOL    HW217895   4.720   1.129   9.319  0.5449  0.9217  0.4267
 2146SOL     OW17896   0.047   1.709   8.382  0.9989  0.3091  0.0381
 2146SOL    HW117897   0.056   1.798   8.416  1.5317  0.5412 -0.6922
 2146SOL    HW217898   0.120   1.686   8.325 -1.0953 -0.6898 -2.2333
 2147SOL     OW17899   4.088   4.100   8.893 -0.2026  0.0467 -0.1565
 2147SOL    HW117900   4.093   4.194   8.909  2.6158  0.0744 -1.1674
 2147SOL    HW217901   3.995   4.089   8.878 -0.2865  1.1853 -0.4449
 2148SOL     OW17902   1.895   1.454   2.325 -0.1755 -0.0261  0.2172
 2148SOL    HW117903   1.919   1.382   2.267  2.3614 -0.3708  1.6421
 2148SOL    HW217904   1.894   1.526   2.262 -1.5369  0.2130  0.5219
 2149SOL     OW17905   0.173   1.288  16.324  0.3717 -0.1709  0.3467
 2149SOL    HW117906   0.147   1.354  16.388 -0.1645 -1.0322  1.0281
 2149SOL    HW217907   0.106   1.294  16.255 -0.8514  3.3964  1.8564
 2150SOL     OW17908   0.884   0.841  16.385 -0.2128 -0.1833  0.6463
 2150SOL    HW117909   0.818   0.780  16.418 -1.3913  1.2126  0.8481
 2150SOL    HW217910   0.963   0.820  16.435 -0.5068  0.4118  1.3600
 2151SOL     OW17911   3.942   2.102  16.240 -0.2631 -0.6740  1.1156
 2151SOL    HW117912   4.008   2.169  16.224 -0.0031 -1.1404  0.2429
 2151SOL    HW217913   4.000   2.032  16.269  1.7897  0.5622  0.0342
 2152SOL     OW17914   0.929   4.495   8.587  0.1641  0.5607  0.5563
 2152SOL    HW117915   0.972   4.573   8.551  1.9986 -0.4315  0.6013
 2152SOL    HW217916   0.996   4.427   8.585  0.2955  0.6718  1.5687
 2153SOL     OW17917   0.892   3.220   0.790 -0.4697  0.6308  0.1706
 2153SOL    HW117918   0.935   3.304   0.801  0.2567 -0.1026  2.9707
 2153SOL    HW217919   0.924   3.192   0.704 -0.5561 -0.8315  0.6034
 2154SOL     OW17920   3.166   4.470   7.523 -0.4745 -0.3547 -0.4386
 2154SOL    HW117921   3.187   4.401   7.586  0.7207  1.5068  1.2053
 2154SOL    HW217922   3.142   4.413   7.450 -0.5763 -2.2218  1.0549
 2155SOL     OW17923   0.050   3.270  10.026 -0.3551 -0.0053  0.7114
 2155SOL    HW117924   0.059   3.215   9.949  1.0736 -2.4258  2.6015
 2155SOL    HW217925   0.141   3.272  10.057 -0.1730 -0.0529  0.1713
 2156SOL     OW17926   0.190   0.092  11.163  0.0410  0.2332 -0.8155
 2156SOL    HW117927   0.279   0.118  11.187  1.0924 -1.8585 -2.4472
 2156SOL    HW217928   0.177   0.124  11.074 -0.0364  0.1012 -0.8507
 2157SOL     OW17929   1.585   3.549   2.950 -0.6950 -0.2907 -0.8040
 2157SOL    HW117930   1.666   3.522   2.992 -1.5970 -0.1630  1.0211
 2157SOL    HW217931   1.516   3.532   3.014  0.7588 -1.5997  0.4022
 2158SOL     OW17932   2.816   1.698   3.733  0.4395  0.1968  0.0216
 2158SOL    HW117933   2.770   1.643   3.670  0.4307 -1.7727  1.7322
 2158SOL    HW217934   2.860   1.766   3.682  2.8364 -0.2371  1.4907
 2159SOL     OW17935   3.521   3.020   1.266  0.1581 -0.4703  0.0756
 2159SOL    HW117936   3.482   2.967   1.197 -0.4352  2.4226 -1.8286
 2159SOL    HW217937   3.438   3.048   1.307  0.4876 -0.6291  0.8503
 2160SOL     OW17938   1.481   3.187  10.468 -0.2080  0.0328 -0.5105
 2160SOL    HW117939   1.501   3.277  10.491 -1.5891  0.1092  0.4256
 2160SOL    HW217940   1.458   3.153  10.555  1.5960  0.1608  0.0228
 2161SOL     OW17941   2.935   2.401   4.453  0.6376  0.0141 -0.2923
 2161SOL    HW117942   2.973   2.355   4.528 -0.7074  1.0512  1.0361
 2161SOL    HW217943   2.969   2.489   4.465  0.7513  0.1000 -1.2269
 2162SOL     OW17944   2.988   2.403   2.119 -0.2439  0.1761 -0.6577
 2162SOL    HW117945   3.016   2.334   2.180  0.6113  1.1935  0.1038
 2162SOL    HW217946   2.894   2.385   2.119  0.3059 -2.6329  3.1758
 2163SOL     OW17947   3.824   2.259   8.357  0.3868  0.3878 -0.4166
 2163SOL    HW117948   3.899   2.226   8.407  1.7208 -0.0726 -2.6964
 2163SOL    HW217949   3.843   2.352   8.351  1.3509  0.0863 -2.2048
 2164SOL     OW17950   3.503   4.705   9.521  0.1692  0.1063  0.1390
 2164SOL    HW117951   3.577   4.665   9.565 -0.3490  1.5602  2.3256
 2164SOL    HW217952   3.454   0.031   9.586  0.4573  1.0792 -0.4130
 2165SOL     OW17953   2.024   0.739   0.902 -0.4239 -0.0705  0.0228
 2165SOL    HW117954   2.053   0.650   0.880 -1.2213 -1.2659  3.9017
 2165SOL    HW217955   1.977   0.747   0.819 -3.9773  3.9935  2.4424
 2166SOL     OW17956   0.706   4.539   2.270  0.3529  0.5058 -0.4556
 2166SOL    HW117957   0.681   4.516   2.360  0.6382 -0.2617 -0.5666
 2166SOL    HW217958   0.645   4.611   2.252 -0.9588 -0.2316  1.0019
 2167SOL     OW17959   3.130   4.063  10.884  0.4980 -0.2011 -0.2534
 2167SOL    HW117960   3.101   4.044  10.973 -1.2900 -1.0889 -1.0323
 2167SOL    HW217961   3.198   3.995  10.886  0.7184 -0.0753 -3.7956
 2168SOL     OW17962   0.495   0.202   7.569  0.1622  0.2107 -0.1036
 2168SOL    HW117963   0.402   0.208   7.547  0.3556 -0.2510 -1.0496
 2168SOL    HW217964   0.495   0.144   7.645  1.1220 -0.9293 -0.9714
 2169SOL     OW17965   0.821   3.132   7.467  0.5256 -0.1090 -0.0991
 2169SOL    HW117966   0.740   3.167   7.430  0.1285  1.6397  2.4256
 2169SOL    HW217967   0.826   3.174   7.553 -0.6728  0.1644 -0.1679
 2170SOL     OW17968   1.989   1.931   1.374  0.4476  0.4401  0.3643
 2170SOL    HW117969   1.989   1.841   1.408 -0.6509 -0.2112 -1.3369
 2170SOL    HW217970   1.909   1.970   1.407 -0.8421 -1.0738 -1.0062
 2171SOL     OW17971   2.916   4.270   2.335  0.3689 -0.2546 -0.3593
 2171SOL    HW117972   2.888   4.344   2.389  0.7410 -0.3396 -0.0543
 2171SOL    HW217973   2.853   4.279   2.264  0.1797 -0.4690 -0.2190
 2172SOL     OW17974   3.126   0.061  13.999 -0.2538  0.0566 -0.2661
 2172SOL    HW117975   3.186   0.133  13.982 -0.9757  1.3472  2.6103
 2172SOL    HW217976   3.156   4.722  13.934 -1.2481  1.2563 -1.8804
 2173SOL     OW17977   0.727   2.163   6.313  0.5285  0.5065 -0.1478
 2173SOL    HW117978   0.707   2.142   6.404 -0.1160 -2.0255 -0.8789
 2173SOL    HW217979   0.646   2.140   6.267 -0.1052  2.0840  0.1481
 2174SOL     OW17980   0.740   0.195   2.029  0.0407 -0.2989 -0.3484
 2174SOL    HW117981   0.828   0.161   2.045 -0.4420 -1.1882  0.4052
 2174SOL    HW217982   0.762   0.270   1.975  0.5469  0.0716  0.3725
 2175SOL     OW17983   0.810   0.467   4.186 -0.0705 -0.9251  0.1179
 2175SOL    HW117984   0.769   0.418   4.115 -3.2406 -0.4396  1.6094
 2175SOL    HW217985   0.797   0.400   4.254 -0.2204  1.4791  2.4367
 2176SOL     OW17986   0.911   1.579   5.718  0.3743  0.1280  0.3104
 2176SOL    HW117987   0.995   1.545   5.687  0.2279  1.0142 -1.0778
 2176SOL    HW217988   0.898   1.538   5.804 -1.4748  1.0479  0.4767
 2177SOL     OW17989   1.215   3.323   7.892  0.1737 -0.4986 -0.4680
 2177SOL    HW117990   1.198   3.336   7.799  1.6255 -1.3010 -0.8297
 2177SOL    HW217991   1.308   3.301   7.901  0.2730  0.4194  0.7852
 2178SOL     OW17992   3.894   0.792  13.625 -0.5879 -0.9286 -0.3366
 2178SOL    HW117993   3.972   0.833  13.588  0.5400 -1.2988  1.6432
 2178SOL    HW217994   3.920   0.802  13.717 -0.4394 -0.8541 -0.3874
 2179SOL     OW17995   2.533   4.580   4.595  0.4895  0.5071  0.3381
 2179SOL    HW117996   2.471   4.524   4.548  1.1425  0.0706  0.0023
 2179SOL    HW217997   2.528   4.547   4.684 -0.0565  3.2554  1.3251
 2180SOL     OW17998   3.565   0.376   6.338  0.4700  0.0951 -0.1674
 2180SOL    HW117999   3.479   0.350   6.369  0.7545  0.9164  1.2766
 2180SOL    HW218000   3.543   0.394   6.246  1.4923  0.1938 -0.3985
 2181SOL     OW18001   0.371   1.026   9.437 -0.2406 -0.4645  0.2467
 2181SOL    HW118002   0.383   1.106   9.488 -0.5151  0.2882 -0.8650
 2181SOL    HW218003   0.373   0.958   9.504 -0.2809 -0.4854  0.2267
 2182SOL     OW18004   2.047   2.556   4.304 -0.0099  0.5732 -0.0047
 2182SOL    HW118005   2.127   2.520   4.266 -0.3942 -1.3416  1.0001
 2182SOL    HW218006   1.996   2.475   4.310  0.1442  0.5268  0.6891
 2183SOL     OW18007   2.435   2.892  14.317  0.1283  0.7045  0.1921
 2183SOL    HW118008   2.420   2.800  14.296 -0.4380  0.7752  0.2744
 2183SOL    HW218009   2.524   2.902  14.284 -1.1932 -1.0782 -3.8964
 2184SOL     OW18010   2.630   2.551   3.890 -0.3066  0.3899  0.2981
 2184SOL    HW118011   2.562   2.485   3.881  1.8279 -1.6633 -0.7232
 2184SOL    HW218012   2.712   2.512   3.859 -0.2730  1.5661 -1.1081
 2185SOL     OW18013   1.300   2.949   3.377 -0.2553 -0.2976 -0.5865
 2185SOL    HW118014   1.290   3.040   3.349  1.4914 -0.0364 -0.3290
 2185SOL    HW218015   1.209   2.921   3.390  0.0301 -1.6687 -1.5291
 2186SOL     OW18016   3.788   1.459   2.557 -0.3477 -0.0087  0.4488
 2186SOL    HW118017   3.716   1.409   2.597  0.6898 -1.7305  0.1764
 2186SOL    HW218018   3.741   1.503   2.485  0.5925 -2.6562 -1.7941
 2187SOL     OW18019   4.114   1.674  11.027  0.1285 -0.1076  0.5677
 2187SOL    HW118020   4.078   1.591  10.999  0.3598  0.1723 -0.5880
 2187SOL    HW218021   4.195   1.664  10.977 -1.0417 -1.2301 -1.0731
 2188SOL     OW18022   2.639   1.150   9.731  0.1035  0.5372 -0.3002
 2188SOL    HW118023   2.569   1.092   9.759  0.6208 -0.0046 -0.1404
 2188SOL    HW218024   2.622   1.226   9.787 -0.6936  0.9064 -1.0464
 2189SOL     OW18025   1.239   4.663   5.710 -0.0828  0.3699  0.2400
 2189SOL    HW118026   1.272   4.658   5.621  1.2485 -0.7233  0.7899
 2189SOL    HW218027   1.169   4.597   5.712  0.8134 -0.6251 -1.4577
 2190SOL     OW18028   1.112   3.428   6.618 -0.4973 -1.2713 -0.1790
 2190SOL    HW118029   1.127   3.334   6.615 -2.0658 -1.5212 -0.0778
 2190SOL    HW218030   1.196   3.468   6.641 -1.7109  0.2612  1.5696
 2191SOL     OW18031   4.162   0.785   7.684 -0.4818 -0.0330 -0.1350
 2191SOL    HW118032   4.176   0.851   7.751 -0.7401 -0.6340  0.5016
 2191SOL    HW218033   4.209   0.835   7.617  0.0410  0.1161  0.3470
 2192SOL     OW18034   0.706   0.581  16.819 -0.0247 -0.3425  0.0302
 2192SOL    HW118035   0.644   0.633  16.768 -0.4931 -3.0530 -2.1637
 2192SOL    HW218036   0.781   0.604  16.765  1.3023  1.1116  2.4821
 2193SOL     OW18037   0.588   1.996   5.159  0.3546 -0.1990 -0.6501
 2193SOL    HW118038   0.585   1.908   5.196  3.0995 -0.1388 -0.2582
 2193SOL    HW218039   0.681   1.995   5.135  0.6052  0.7869  0.2978
 2194SOL     OW18040   4.372   4.251   7.287  0.4911 -0.1154 -0.2766
 2194SOL    HW118041   4.419   4.168   7.290 -0.8587 -0.9278 -1.3239
 2194SOL    HW218042   4.290   4.221   7.327  1.3893 -1.7169  0.3501
 2195SOL     OW18043   3.728   0.841   6.602  0.1169  0.3515  0.6089
 2195SOL    HW118044   3.636   0.823   6.622  0.6778 -1.9053  1.1792
 2195SOL    HW218045   3.756   0.758   6.564 -1.9630 -0.0642  0.0111
 2196SOL     OW18046   2.833   1.015  10.001 -0.8832  0.0026 -0.6914
 2196SOL    HW118047   2.812   1.013   9.908 -2.1411  1.3726 -0.4288
 2196SOL    HW218048   2.753   1.052  10.037  0.6860  1.7031  1.0625
 2197SOL     OW18049   0.156   2.175   0.706  0.2853 -0.2152  0.5167
 2197SOL    HW118050   0.133   2.268   0.705 -0.4769 -0.4140 -0.2964
 2197SOL    HW218051   0.199   2.166   0.622 -2.6525 -1.9471 -0.8172
 2198SOL     OW18052   1.168   2.903  12.543 -0.2325  0.3180  0.2550
 2198SOL    HW118053   1.151   2.872  12.632  4.1323 -1.5779  0.4276
 2198SOL    HW218054   1.257   2.937  12.550 -0.8895  2.4483 -1.8773
 2199SOL     OW18055   1.033   1.271   4.787  0.3999  0.1240 -0.1196
 2199SOL    HW118056   1.111   1.261   4.841  2.0479  1.3288 -2.3085
 2199SOL    HW218057   1.037   1.366   4.774  1.6924 -0.1553 -1.7077
 2200SOL     OW18058   0.342   1.038   8.473  0.1255  0.2849 -0.0091
 2200SOL    HW118059   0.339   1.048   8.378  1.7435 -0.1234 -0.1077
 2200SOL    HW218060   0.253   1.060   8.498 -0.1875 -0.4000 -0.5207
 2201SOL     OW18061   2.560   0.949   6.144 -0.2057  0.3447 -0.0476
 2201SOL    HW118062   2.619   0.897   6.089 -1.1349 -2.5346  1.6964
 2201SOL    HW218063   2.582   0.910   6.228 -0.5497  1.4690  0.5687
 2202SOL     OW18064   2.615   1.863   9.423  0.5752 -0.3489  0.7003
 2202SOL    HW118065   2.520   1.860   9.407  1.0437 -1.9718 -1.6960
 2202SOL    HW218066   2.649   1.865   9.334  3.8499 -2.0438  1.9116
 2203SOL     OW18067   4.303   3.737   3.617  0.5055 -0.5035  0.1087
 2203SOL    HW118068   4.354   3.675   3.671 -0.1884 -0.2807  1.0155
 2203SOL    HW218069   4.304   3.687   3.536  0.1680 -1.6937  0.8364
 2204SOL     OW18070   0.062   2.719   5.889 -0.3483  0.5533 -0.1223
 2204SOL    HW118071   0.072   2.744   5.981 -1.8246  3.3627 -0.7105
 2204SOL    HW218072   0.086   2.801   5.845 -0.4374 -0.0447 -1.3046
 2205SOL     OW18073   4.039   2.678   0.800 -0.0224  0.0799  0.1554
 2205SOL    HW118074   4.052   2.624   0.878  0.3458  0.7755  0.5725
 2205SOL    HW218075   4.095   2.637   0.734  0.6267 -0.9296  1.3408
 2206SOL     OW18076   0.242   1.617   7.812 -0.1155  0.0446  0.0429
 2206SOL    HW118077   0.263   1.692   7.869 -0.5481 -0.5889  1.0420
 2206SOL    HW218078   0.149   1.606   7.832 -0.3883 -1.2333 -1.9182
 2207SOL     OW18079   2.164   1.473   4.989 -0.3603  0.1299 -0.3057
 2207SOL    HW118080   2.222   1.537   5.030 -2.1710  0.5489  1.6658
 2207SOL    HW218081   2.200   1.460   4.902  1.4541  1.2932  0.2805
 2208SOL     OW18082   3.979   4.272   8.463 -0.1020 -0.7805  0.2894
 2208SOL    HW118083   3.958   4.292   8.372  0.2747  0.3291  0.4412
 2208SOL    HW218084   3.991   4.358   8.505 -1.3736  0.6997 -2.3704
 2209SOL     OW18085   4.470   3.421   5.544  0.2553  0.5431 -0.2122
 2209SOL    HW118086   4.537   3.464   5.493  0.0970 -0.3406 -1.1628
 2209SOL    HW218087   4.501   3.334   5.571  0.2642  0.5254 -0.2806
 2210SOL     OW18088   1.875   2.382   5.836  0.1764 -0.0783 -0.2686
 2210SOL    HW118089   1.916   2.308   5.881 -1.4445  0.3907  1.9664
 2210SOL    HW218090   1.917   2.458   5.877 -2.5652  1.6538 -0.6463
 2211SOL     OW18091   2.113   1.738  10.182 -0.1042 -0.3245 -0.6054
 2211SOL    HW118092   2.155   1.823  10.193  0.9973 -0.7754 -1.3439
 2211SOL    HW218093   2.156   1.709  10.102 -0.6942 -0.3790 -0.9014
 2212SOL     OW18094   3.952   4.583  14.289 -0.3636  0.1945 -0.3343
 2212SOL    HW118095   3.919   4.648  14.227 -0.4339  0.2607 -0.2277
 2212SOL    HW218096   3.948   4.634  14.370 -0.5635  0.2227 -0.3630
 2213SOL     OW18097   2.687   4.249   5.017 -0.0424  0.5483  0.4964
 2213SOL    HW118098   2.617   4.190   5.043 -0.4637  0.5384 -0.6577
 2213SOL    HW218099   2.702   4.301   5.096  1.0043 -0.0205  0.6629
 2214SOL     OW18100   2.115   1.959   3.694  0.4390 -0.1172  0.1826
 2214SOL    HW118101   2.162   1.903   3.756  0.0511  0.3992  0.9356
 2214SOL    HW218102   2.179   2.023   3.665 -1.2117  1.0887 -0.8159
 2215SOL     OW18103   2.761   3.971  12.004 -0.2038  0.4331  0.2558
 2215SOL    HW118104   2.757   4.061  12.037 -0.4851  0.0125  1.3725
 2215SOL    HW218105   2.841   3.939  12.044  0.6730  0.2665 -1.6183
 2216SOL     OW18106   2.206   0.548   7.293 -0.0744 -0.3285 -0.2392
 2216SOL    HW118107   2.254   0.499   7.361 -2.0026 -0.2820  1.1329
 2216SOL    HW218108   2.140   0.485   7.263  0.7067 -1.1399 -0.2771
 2217SOL     OW18109   1.764   1.445   6.852 -0.0406 -0.1359  0.5732
 2217SOL    HW118110   1.733   1.355   6.852  2.5876 -1.0697 -0.9611
 2217SOL    HW218111   1.701   1.478   6.915  1.1935  2.3343  0.5168
 2218SOL     OW18112   4.217   1.400   3.036  0.4614  0.4304 -0.4326
 2218SOL    HW118113   4.269   1.417   3.115 -0.5013 -0.7971  0.4653
 2218SOL    HW218114   4.150   1.345   3.077  1.1684  0.3330  0.5877
 2219SOL     OW18115   3.782   1.874   4.685  0.4100 -0.5284  0.1059
 2219SOL    HW118116   3.719   1.918   4.628  1.4216  0.2040 -0.4399
 2219SOL    HW218117   3.728   1.858   4.763  0.1537 -1.9578 -0.3757
 2220SOL     OW18118   3.981   4.422   5.620  0.2198  0.1622  0.4128
 2220SOL    HW118119   4.029   4.502   5.643 -0.6672  0.0229  2.7150
 2220SOL    HW218120   3.898   4.441   5.663  1.3860 -0.0027  2.7385
 2221SOL     OW18121   4.392   0.547   4.799  0.0586  0.3510 -0.2356
 2221SOL    HW118122   4.415   0.575   4.711 -1.4477  0.9890 -0.4335
 2221SOL    HW218123   4.339   0.473   4.768  1.9365 -0.3255 -1.7669
 2222SOL     OW18124   1.709   4.335   8.512  0.2856 -0.1042 -0.3143
 2222SOL    HW118125   1.657   4.409   8.481  0.1874 -0.5552 -1.2661
 2222SOL    HW218126   1.687   4.264   8.451 -1.4093  1.0147 -1.0134
 2223SOL     OW18127   1.630   0.753   3.966 -0.0821  0.3234 -0.3088
 2223SOL    HW118128   1.635   0.716   4.054 -0.3644  0.3446 -0.2826
 2223SOL    HW218129   1.536   0.771   3.961 -0.4813 -1.9145 -0.9500
 2224SOL     OW18130   1.105   3.134   3.956  0.0786 -0.1340  0.0123
 2224SOL    HW118131   1.167   3.061   3.954  0.7328  0.3530  2.7388
 2224SOL    HW218132   1.059   3.115   4.038 -1.4613 -1.0549 -1.0639
 2225SOL     OW18133   0.314   0.906   2.815  0.4205 -0.0705  0.4881
 2225SOL    HW118134   0.267   0.944   2.740  0.6608 -0.8070 -0.0415
 2225SOL    HW218135   0.246   0.894   2.881 -0.5121  3.3785  0.1610
 2226SOL     OW18136   4.406   0.064   9.767  0.4607 -0.0418  0.2116
 2226SOL    HW118137   4.345   0.025   9.830  0.8789 -0.8912  0.0893
 2226SOL    HW218138   4.402   0.004   9.693  0.7161  0.8892 -0.5518
 2227SOL     OW18139   0.346   4.292  15.520  0.0814  0.7272 -0.0518
 2227SOL    HW118140   0.344   4.200  15.496 -1.1735  0.6729  0.2535
 2227SOL    HW218141   0.364   4.332  15.435 -1.5392  0.0139 -0.7157
 2228SOL     OW18142   2.814   3.972  14.683  0.2721 -0.1493 -0.5014
 2228SOL    HW118143   2.853   3.939  14.602 -3.4932 -0.9620 -1.9781
 2228SOL    HW218144   2.796   3.896  14.738  0.0269  0.3240  0.0720
 2229SOL     OW18145   4.273   0.165   7.291 -0.2739 -0.4615 -0.3199
 2229SOL    HW118146   4.255   0.227   7.362  2.0414 -1.9327  1.5591
 2229SOL    HW218147   4.367   0.148   7.284  0.0609  1.1022  0.2267
 2230SOL     OW18148   3.011   0.449  12.067  0.5712  0.3703 -0.0350
 2230SOL    HW118149   3.030   0.540  12.044 -2.0644  1.6495  2.7580
 2230SOL    HW218150   3.098   0.421  12.093  0.1949  1.0219  1.9846
 2231SOL     OW18151   4.680   2.298   3.224  0.2153  0.5309  0.3238
 2231SOL    HW118152   4.590   2.327   3.235  0.0224  0.0457  0.0102
 2231SOL    HW218153   4.697   2.301   3.130  1.3380 -1.7649  0.4368
 2232SOL     OW18154   2.296   2.785   4.728 -0.3917 -0.0002 -0.0686
 2232SOL    HW118155   2.389   2.783   4.708  0.0253 -0.0858  1.8920
 2232SOL    HW218156   2.249   2.802   4.646 -0.8478 -1.4504 -0.1273
 2233SOL     OW18157   3.596   0.414   2.716 -0.0692  0.1957  0.0080
 2233SOL    HW118158   3.573   0.425   2.808 -0.1669  1.0583 -0.1161
 2233SOL    HW218159   3.656   0.487   2.698  0.0446  0.6174  2.0256
 2234SOL     OW18160   2.431   3.753   7.999  0.2300 -0.0251  0.2678
 2234SOL    HW118161   2.360   3.790   8.051 -1.1120  0.5296 -1.9608
 2234SOL    HW218162   2.490   3.709   8.060  2.2483  1.0511 -0.8959
 2235SOL     OW18163   2.131   3.472   3.702  0.4709  0.2383 -0.2867
 2235SOL    HW118164   2.092   3.425   3.775  0.7451 -0.2955 -0.4825
 2235SOL    HW218165   2.203   3.503   3.757  1.2299 -1.8218 -0.1055
 2236SOL     OW18166   2.855   1.547   9.811  0.2646  0.4986  0.2279
 2236SOL    HW118167   2.918   1.617   9.829 -1.2315  1.7900  0.4127
 2236SOL    HW218168   2.905   1.470   9.784 -0.9678 -0.0082 -0.6071
 2237SOL     OW18169   0.750   1.325   8.737 -0.2504 -0.1830  0.2436
 2237SOL    HW118170   0.752   1.263   8.810  1.4525  1.3856  1.5188
 2237SOL    HW218171   0.668   1.290   8.701  1.0269 -0.7447 -2.1489
 2238SOL     OW18172   0.013   3.009   7.435 -0.0506 -0.8104  0.2569
 2238SOL    HW118173   0.103   2.981   7.454 -0.0485 -0.4953  0.7222
 2238SOL    HW218174   0.013   3.103   7.420  1.8516 -0.8656 -0.1597
 2239SOL     OW18175   1.177   4.047   6.413 -0.0525 -0.6063  0.1229
 2239SOL    HW118176   1.143   4.101   6.484 -0.4840 -2.0254  1.0090
 2239SOL    HW218177   1.171   4.101   6.334 -1.0977  0.5063  0.9596
 2240SOL     OW18178   3.369   2.878   4.098 -0.3685  0.2960 -0.2626
 2240SOL    HW118179   3.434   2.947   4.094  0.1842 -0.1702  0.6444
 2240SOL    HW218180   3.365   2.839   4.011 -2.1574  1.9445 -0.9386
 2241SOL     OW18181   0.848   1.537   4.521  0.1524 -0.3000  0.3072
 2241SOL    HW118182   0.831   1.621   4.478  1.6227  1.3462  2.9480
 2241SOL    HW218183   0.827   1.476   4.450  0.8179  2.3875 -2.2543
 2242SOL     OW18184   2.969   3.199   1.969  0.0748 -0.0891  0.2113
 2242SOL    HW118185   3.020   3.275   1.995  0.4637 -1.2024  2.7622
 2242SOL    HW218186   2.895   3.244   1.928 -2.1725 -2.0370  2.0236
 2243SOL     OW18187   0.534   4.403  13.411  0.0191 -0.0898 -0.7427
 2243SOL    HW118188   0.602   4.377  13.473  0.0247  1.0555 -0.2574
 2243SOL    HW218189   0.596   4.412  13.339  1.1303 -1.1800  0.0862
 2244SOL     OW18190   2.219   3.460   7.220  0.3343  0.6198  0.3193
 2244SOL    HW118191   2.228   3.502   7.134  1.8389 -0.8397 -0.2261
 2244SOL    HW218192   2.150   3.510   7.265  1.8156  1.0042  2.1377
 2245SOL     OW18193   4.203   2.087   8.856 -0.6438  0.5534 -0.5370
 2245SOL    HW118194   4.181   2.176   8.883 -1.1083 -0.8511  3.7997
 2245SOL    HW218195   4.125   2.035   8.879 -0.7029 -0.3025 -2.6709
 2246SOL     OW18196   2.521   1.086  16.127  0.1247 -0.3179 -0.1962
 2246SOL    HW118197   2.472   1.087  16.045  2.3931  0.1175 -1.5379
 2246SOL    HW218198   2.451   1.064  16.188  1.6487 -1.4416  1.1431
 2247SOL     OW18199   1.193   3.778   9.808 -0.2483 -0.1946 -0.5760
 2247SOL    HW118200   1.265   3.837   9.831  0.4900 -1.2954 -0.1022
 2247SOL    HW218201   1.226   3.691   9.787 -1.1662 -0.7640  0.3112
 2248SOL     OW18202   3.417   2.205  17.443 -0.1554 -0.6397  0.1903
 2248SOL    HW118203   3.364   2.255  17.381  0.2790  1.4628  1.5193
 2248SOL    HW218204   3.472   2.282  17.460  1.8717 -2.1273  0.3473
 2249SOL     OW18205   3.845   4.497  13.545  0.4923  0.1971 -0.0124
 2249SOL    HW118206   3.922   4.528  13.498  0.2882 -0.0062 -0.4768
 2249SOL    HW218207   3.815   4.581  13.580 -0.4359 -0.2447  0.2531
 2250SOL     OW18208   1.054   1.814   4.483  0.1064  0.2545 -0.8244
 2250SOL    HW118209   1.111   1.768   4.422 -2.6034 -1.5639 -1.9498
 2250SOL    HW218210   1.104   1.786   4.559 -2.3454  0.7053  0.9671
 2251SOL     OW18211   0.958   1.672   3.448 -0.1435 -0.1675  0.2961
 2251SOL    HW118212   0.972   1.630   3.363  1.4881  2.1490 -0.5838
 2251SOL    HW218213   0.970   1.597   3.506 -0.5434  0.1242  0.7604
 2252SOL     OW18214   0.321   2.873   3.120  0.1581  0.0317  0.2366
 2252SOL    HW118215   0.343   2.958   3.080  0.9288 -0.2501  0.0607
 2252SOL    HW218216   0.408   2.844   3.147  0.9386  1.0766 -1.1317
 2253SOL     OW18217   2.174   3.080  15.128  0.2094 -0.1090  0.5393
 2253SOL    HW118218   2.211   3.086  15.040  0.6467  0.1063  0.7407
 2253SOL    HW218219   2.149   3.172  15.142 -0.5444 -0.2567  0.1611
 2254SOL     OW18220   3.789   2.999   7.571 -0.4045  0.2339  0.3866
 2254SOL    HW118221   3.718   3.047   7.527 -1.3900 -1.0345  0.5876
 2254SOL    HW218222   3.765   2.913   7.535  0.2736 -0.5189  1.7362
 2255SOL     OW18223   4.693   3.091  11.510  0.0013 -0.0500 -0.4717
 2255SOL    HW118224   4.657   3.034  11.579  4.0023 -1.6081  0.3279
 2255SOL    HW218225   4.635   3.069  11.438 -1.3783 -0.5639  0.7832
 2256SOL     OW18226   4.543   0.506   7.321 -0.0630  0.8678  0.0067
 2256SOL    HW118227   4.467   0.510   7.263  0.2709  1.5915 -0.3807
 2256SOL    HW218228   4.504   0.524   7.407  0.4043 -0.8481  0.5846
 2257SOL     OW18229   0.376   3.204   9.374  0.8817  0.3312  0.6015
 2257SOL    HW118230   0.337   3.162   9.298 -0.1878  1.0343  0.7639
 2257SOL    HW218231   0.469   3.218   9.355  0.1262  1.8629 -1.7518
 2258SOL     OW18232   0.276   3.321   5.692  0.0422  0.3302  0.6059
 2258SOL    HW118233   0.290   3.351   5.602  2.5134  1.0459  1.2334
 2258SOL    HW218234   0.358   3.335   5.740  0.9719 -1.8224 -0.3484
 2259SOL     OW18235   3.884   3.273  10.474 -0.5794  0.0247 -0.1032
 2259SOL    HW118236   3.965   3.322  10.461 -1.1617  1.1718  0.6730
 2259SOL    HW218237   3.910   3.203  10.534 -1.5387  0.5240  0.8978
 2260SOL     OW18238   0.681   2.292   3.791  0.1751  0.1352 -0.2788
 2260SOL    HW118239   0.673   2.219   3.729 -1.4837 -0.0178  0.1127
 2260SOL    HW218240   0.725   2.354   3.734  0.2988 -0.3431 -0.7075
 2261SOL     OW18241   2.181   3.101   5.588 -0.0696 -0.3270 -0.1328
 2261SOL    HW118242   2.246   3.171   5.592  0.3711 -0.7596  0.3137
 2261SOL    HW218243   2.201   3.060   5.672 -1.3654 -1.7221 -0.4981
 2262SOL     OW18244   2.030   2.614   2.239 -0.2724  0.7795  0.2420
 2262SOL    HW118245   2.083   2.558   2.182  0.0187  0.5470  0.7478
 2262SOL    HW218246   2.101   2.671   2.265  0.1115  0.1653  0.5283
 2263SOL     OW18247   1.572   0.736   6.321 -0.4329  0.5054 -0.1158
 2263SOL    HW118248   1.553   0.787   6.242 -0.9788 -0.8173 -0.8249
 2263SOL    HW218249   1.534   0.793   6.389 -1.9332 -1.7793  0.9317
 2264SOL     OW18250   0.187   2.982   5.873 -0.0566 -0.0063  0.4980
 2264SOL    HW118251   0.187   3.014   5.963  0.8736  0.1170  0.4484
 2264SOL    HW218252   0.280   2.968   5.861  0.1962  0.2311  2.1028
 2265SOL     OW18253   0.181   0.223   3.374 -0.3559 -0.0917 -0.6049
 2265SOL    HW118254   0.211   0.137   3.404 -1.3114 -1.3359 -3.2225
 2265SOL    HW218255   0.148   0.194   3.289  0.1556  0.0755 -0.8613
 2266SOL     OW18256   3.774   3.020  17.011 -0.3635  0.0484 -0.3757
 2266SOL    HW118257   3.840   3.004  17.079  0.7878  0.5794 -1.3712
 2266SOL    HW218258   3.770   3.113  17.032 -3.8360 -0.3518  0.6356
 2267SOL     OW18259   1.619   2.186   2.665  0.3317  0.1338 -0.2257
 2267SOL    HW118260   1.714   2.174   2.655  0.4714 -1.0252  2.4680
 2267SOL    HW218261   1.612   2.281   2.668 -2.5446 -0.0194 -2.2465
 2268SOL     OW18262   0.364   0.555  10.256  1.1126  0.6022  0.5269
 2268SOL    HW118263   0.374   0.511  10.171  0.2476 -0.6956  1.0983
 2268SOL    HW218264   0.455   0.556  10.285  0.4857  0.8610  2.4632
 2269SOL     OW18265   4.227   3.133   7.453 -0.1590  0.7108 -0.1340
 2269SOL    HW118266   4.308   3.183   7.443 -0.5175  1.0058 -1.5578
 2269SOL    HW218267   4.199   3.157   7.541 -2.2755 -1.2659 -0.2829
 2270SOL     OW18268   0.683   1.216  11.831 -0.4006 -0.3952  0.5201
 2270SOL    HW118269   0.686   1.130  11.789  0.2192 -1.3739  2.5592
 2270SOL    HW218270   0.622   1.261  11.772 -1.8851  0.6053  2.7945
 2271SOL     OW18271   2.379   2.146  12.217 -0.3106 -0.1272  0.2869
 2271SOL    HW118272   2.435   2.213  12.178  1.6064 -0.4593  2.4917
 2271SOL    HW218273   2.373   2.092  12.139  1.7945  1.1350 -0.7339
 2272SOL     OW18274   3.927   2.505   7.696 -0.1224  0.3481  0.1708
 2272SOL    HW118275   3.972   2.586   7.673 -1.8299  2.8890  5.8646
 2272SOL    HW218276   3.872   2.537   7.768  0.3237 -0.5192  0.8985
 2273SOL     OW18277   0.353   1.447   3.190  0.8454  0.4301 -0.2619
 2273SOL    HW118278   0.412   1.472   3.262  1.3130 -2.2791  0.3083
 2273SOL    HW218279   0.315   1.532   3.170 -0.6622  0.1116  1.1739
 2274SOL     OW18280   2.881   2.912   3.638  0.5869  0.4368  0.2918
 2274SOL    HW118281   2.891   2.948   3.726  0.2785 -0.6845  0.7881
 2274SOL    HW218282   2.786   2.923   3.633  0.3292 -0.5971  2.7838
 2275SOL     OW18283   0.782   1.070   3.648  0.5607  0.0752  0.1509
 2275SOL    HW118284   0.856   1.077   3.587  0.2047 -0.6468 -0.3653
 2275SOL    HW218285   0.821   1.065   3.736 -1.0284 -1.8403  0.7581
 2276SOL     OW18286   2.270   3.700   5.841 -0.3919 -0.3997  0.0476
 2276SOL    HW118287   2.343   3.653   5.803  0.9562  0.2137  1.8813
 2276SOL    HW218288   2.194   3.641   5.843 -2.1729  1.8260 -1.5269
 2277SOL     OW18289   1.251   1.298   4.955 -0.4722 -0.0280 -0.2767
 2277SOL    HW118290   1.288   1.375   4.913 -0.9834  1.7447  2.5624
 2277SOL    HW218291   1.327   1.251   4.991 -2.2409 -0.6845  2.5784
 2278SOL     OW18292   1.015   2.134   0.625  0.2613 -0.1513  0.7161
 2278SOL    HW118293   1.034   2.159   0.535  1.9608 -0.1154  1.0953
 2278SOL    HW218294   1.080   2.064   0.629  0.5072  0.0866  0.8319
 2279SOL     OW18295   1.750   1.513   3.780 -0.1719  0.4274  0.1798
 2279SOL    HW118296   1.770   1.421   3.795 -0.6366  0.5641  1.6203
 2279SOL    HW218297   1.772   1.529   3.688  0.7699 -2.0594 -0.0250
 2280SOL     OW18298   1.891   2.372   5.562  0.4495 -0.4032  0.7520
 2280SOL    HW118299   1.878   2.346   5.654  2.5661 -2.6294  0.4039
 2280SOL    HW218300   1.986   2.365   5.565  0.4621 -0.2213  0.7560
 2281SOL     OW18301   1.602   1.938   1.058  0.1493  0.0471  0.4283
 2281SOL    HW118302   1.628   1.856   1.102 -0.2611 -0.5142 -0.3743
 2281SOL    HW218303   1.509   1.922   1.071  0.1646 -0.4909 -0.0921
 2282SOL     OW18304   2.070   1.600   7.336  0.1933  0.3200  0.1373
 2282SOL    HW118305   2.152   1.648   7.322 -0.1052  1.5326  2.4711
 2282SOL    HW218306   2.088   1.517   7.293 -1.8338 -1.1361  2.1082
 2283SOL     OW18307   2.403   3.248   1.449 -0.1554  0.3006  0.2950
 2283SOL    HW118308   2.351   3.173   1.479  2.1782 -0.4631  2.3929
 2283SOL    HW218309   2.492   3.216   1.458  0.5718  1.9697 -0.9566
 2284SOL     OW18310   2.656   2.553   6.726  0.6692  0.2366 -0.4708
 2284SOL    HW118311   2.579   2.609   6.711  0.4993  0.4443  1.1809
 2284SOL    HW218312   2.638   2.552   6.820  1.5327 -0.1182 -0.3136
 2285SOL     OW18313   2.004   2.732  13.391 -0.2889 -0.2727  0.0838
 2285SOL    HW118314   1.983   2.774  13.308  0.6462 -0.6752 -0.3615
 2285SOL    HW218315   2.009   2.807  13.451  0.5078  0.7839 -1.3180
 2286SOL     OW18316   3.900   1.480   6.386 -0.3650 -0.0028 -0.5770
 2286SOL    HW118317   3.896   1.386   6.405 -0.6375  0.1265  0.0084
 2286SOL    HW218318   3.830   1.484   6.320 -1.8229  1.5132  1.0829
 2287SOL     OW18319   1.075   0.005   3.033  0.2465 -0.1071 -0.2296
 2287SOL    HW118320   1.043   0.007   2.943 -1.4370  0.1672  0.3604
 2287SOL    HW218321   1.081   0.100   3.042  0.3959 -0.0741 -0.6959
 2288SOL     OW18322   3.225   0.966   4.570 -0.0104 -0.4828  0.1570
 2288SOL    HW118323   3.165   1.035   4.598  1.1163  0.6397 -0.1975
 2288SOL    HW218324   3.250   0.999   4.484 -1.6317  0.7716  0.1628
 2289SOL     OW18325   3.168   2.664  15.837 -0.9198 -0.3301  0.0746
 2289SOL    HW118326   3.150   2.571  15.821  0.4139 -1.0568  2.7150
 2289SOL    HW218327   3.105   2.692  15.904 -0.6748  0.3379  0.0253
 2290SOL     OW18328   3.837   0.606   8.010  0.1271  0.2196 -0.4107
 2290SOL    HW118329   3.924   0.604   7.970  0.1201 -1.8534 -0.3202
 2290SOL    HW218330   3.832   0.517   8.045 -4.0523  0.9297  0.8018
 2291SOL     OW18331   4.634   3.069   8.202 -0.2630 -0.2058  0.0658
 2291SOL    HW118332   4.560   3.079   8.262 -0.0219 -2.7494  0.7949
 2291SOL    HW218333   4.649   3.163   8.192 -2.0667  0.2379  1.4476
 2292SOL     OW18334   0.806   4.327  16.141 -0.2948  0.3209 -0.5994
 2292SOL    HW118335   0.802   4.383  16.063  0.4868  2.7046  1.0441
 2292SOL    HW218336   0.847   4.248  16.106 -2.4509 -1.2244  0.3500
 2293SOL     OW18337   4.267   0.911  12.039 -0.9345 -0.2866  0.4514
 2293SOL    HW118338   4.346   0.964  12.052 -0.3779 -1.1941  0.8146
 2293SOL    HW218339   4.285   0.871  11.954 -2.3969  2.0554 -0.9339
 2294SOL     OW18340   3.098   0.074  15.522  0.1006  0.3082 -0.2965
 2294SOL    HW118341   3.166   0.012  15.551 -1.5549 -0.8397  1.1194
 2294SOL    HW218342   3.132   0.159  15.550 -1.0942  1.3160 -1.9664
 2295SOL     OW18343   1.519   3.503  14.924 -0.0128 -0.3606  0.5548
 2295SOL    HW118344   1.571   3.444  14.979  1.0995  0.8850  0.8493
 2295SOL    HW218345   1.514   3.455  14.842 -3.7818  3.5113 -1.4730
 2296SOL     OW18346   2.076   4.418  14.808 -0.0634 -0.3768  0.1636
 2296SOL    HW118347   1.987   4.402  14.841  1.2512 -2.2942  2.7799
 2296SOL    HW218348   2.126   4.391  14.884  1.6478  1.7790 -0.2147
 2297SOL     OW18349   3.466   3.842   3.829  0.7573  0.3074 -0.0584
 2297SOL    HW118350   3.470   3.797   3.744 -0.1101  2.7391 -1.3908
 2297SOL    HW218351   3.404   3.781   3.870 -0.4352  2.1168  0.8418
 2298SOL     OW18352   4.222   2.319   4.404 -0.3261  0.6676 -0.5715
 2298SOL    HW118353   4.229   2.404   4.360  0.5674  0.2300 -1.2738
 2298SOL    HW218354   4.275   2.258   4.353 -0.2213  0.0298  0.3096
 2299SOL     OW18355   4.685   2.624   8.746  0.6317 -0.0856 -0.2100
 2299SOL    HW118356   4.723   2.633   8.834 -0.6446 -1.7941  0.5149
 2299SOL    HW218357   4.590   2.630   8.753  0.6840 -2.3770  2.5637
 2300SOL     OW18358   3.213   2.288   5.642 -0.3134  0.4600  0.0655
 2300SOL    HW118359   3.180   2.271   5.730  0.7458  2.0402  0.7748
 2300SOL    HW218360   3.305   2.279   5.663 -0.8040 -2.0437  1.0278
 2301SOL     OW18361   0.180   3.402   5.264  0.2726 -0.0908  0.1675
 2301SOL    HW118362   0.197   3.481   5.213 -0.6068 -0.3607 -0.5560
 2301SOL    HW218363   0.216   3.417   5.351  1.1872  1.3459 -0.4583
 2302SOL     OW18364   0.229   2.105   9.984 -0.2223  0.0115 -0.4756
 2302SOL    HW118365   0.294   2.081  10.049 -1.4948  0.2423  0.8841
 2302SOL    HW218366   0.173   2.165  10.034 -0.7525  0.0728 -1.1445
 2303SOL     OW18367   4.385   2.645   4.645 -0.4959 -0.0647  0.2104
 2303SOL    HW118368   4.323   2.576   4.668 -0.8772  0.5018  0.8868
 2303SOL    HW218369   4.467   2.598   4.664  0.3384  0.8115 -1.2089
 2304SOL     OW18370   0.174   0.305   2.143 -0.8524 -0.2906  0.0917
 2304SOL    HW118371   0.168   0.399   2.129  2.9241  0.0766  0.8183
 2304SOL    HW218372   0.202   0.281   2.054 -2.0403 -1.1672 -0.0566
 2305SOL     OW18373   1.158   0.533   7.818 -0.6429  0.0060 -0.1536
 2305SOL    HW118374   1.224   0.602   7.816 -1.1393  0.4822  0.0224
 2305SOL    HW218375   1.076   0.583   7.812 -1.2534 -0.8856  0.7111
 2306SOL     OW18376   2.976   0.227   0.727  0.0880 -0.1387 -0.2965
 2306SOL    HW118377   2.990   0.198   0.817 -0.1281 -2.9100 -1.1681
 2306SOL    HW218378   2.994   0.320   0.742  1.1056 -0.7125  2.0916
 2307SOL     OW18379   1.319   3.759  14.062  0.3509  0.1714  0.1218
 2307SOL    HW118380   1.392   3.706  14.092 -0.4851 -0.4705  1.0261
 2307SOL    HW218381   1.352   3.791  13.978 -2.1635 -0.3393 -1.0808
 2308SOL     OW18382   4.236   2.294   9.588  0.5873  0.3075  0.7986
 2308SOL    HW118383   4.324   2.255   9.590  0.1939 -0.5439  1.3747
 2308SOL    HW218384   4.229   2.335   9.674  0.9946  0.8283  0.5821
 2309SOL     OW18385   0.660   3.212   9.306  0.3930  0.6053  0.3111
 2309SOL    HW118386   0.728   3.182   9.247 -0.5414 -0.1299 -0.3974
 2309SOL    HW218387   0.699   3.182   9.388 -0.4818  0.5369  0.7016
 2310SOL     OW18388   4.489   2.478  13.864  0.1780 -0.3452 -0.1353
 2310SOL    HW118389   4.476   2.384  13.862 -1.2726 -0.1559  0.5382
 2310SOL    HW218390   4.526   2.494  13.951  3.6883 -0.4640 -1.5903
 2311SOL     OW18391   0.876   3.619  10.719  0.4676  0.2961  0.5624
 2311SOL    HW118392   0.888   3.526  10.739 -0.2295 -0.4897 -2.7651
 2311SOL    HW218393   0.962   3.645  10.686  0.0050  0.7700 -0.2654
 2312SOL     OW18394   3.257   2.306   7.908 -0.1608  0.0693  0.1959
 2312SOL    HW118395   3.283   2.222   7.946  0.7506  0.2890  0.0431
 2312SOL    HW218396   3.163   2.290   7.895  0.0498 -0.2293 -0.9046
 2313SOL     OW18397   1.368   1.455  17.006  0.3314  0.4310  0.5517
 2313SOL    HW118398   1.280   1.418  17.010 -0.1106  1.1494 -2.4690
 2313SOL    HW218399   1.346   1.543  17.035  2.4536  1.2730 -0.3569
 2314SOL     OW18400   4.493   0.817  11.414  0.1095  0.7101  0.8267
 2314SOL    HW118401   4.469   0.815  11.321 -2.4310  0.3734  1.5110
 2314SOL    HW218402   4.581   0.855  11.419  0.5615 -0.1002 -0.8881
 2315SOL     OW18403   3.971   3.673   2.441  0.2499 -0.5214 -0.5379
 2315SOL    HW118404   4.043   3.736   2.446  1.8248 -2.2437 -1.5096
 2315SOL    HW218405   3.955   3.658   2.534  0.4969 -1.4867 -0.6530
 2316SOL     OW18406   1.016   2.010   6.952  0.2246 -0.1862  0.5880
 2316SOL    HW118407   0.953   2.072   6.916  0.3915  0.0896  0.7734
 2316SOL    HW218408   0.955   1.966   7.012  0.7771 -0.6598  0.8097
 2317SOL     OW18409   4.169   3.372   9.546 -0.0162  0.1247 -0.0787
 2317SOL    HW118410   4.096   3.365   9.607  2.1457  0.5109  2.5419
 2317SOL    HW218411   4.124   3.385   9.463  0.3735 -0.4570 -0.3800
 2318SOL     OW18412   2.516   3.526  13.030  0.1097 -0.1822 -0.6613
 2318SOL    HW118413   2.446   3.482  13.078 -0.8181  0.2513 -1.6416
 2318SOL    HW218414   2.489   3.503  12.942 -2.2599  2.1230 -0.5194
 2319SOL     OW18415   0.496   1.015   5.223 -0.1262 -0.2986 -0.4138
 2319SOL    HW118416   0.575   0.972   5.256  0.6306  1.6504  0.3141
 2319SOL    HW218417   0.524   1.056   5.141  0.7540  2.7660  1.4271
 2320SOL     OW18418   3.935   1.769  13.690 -0.5333 -0.0169  0.8068
 2320SOL    HW118419   3.922   1.684  13.733 -1.5212 -0.6644 -0.7620
 2320SOL    HW218420   3.953   1.738  13.601 -0.5218  0.1113  0.7647
 2321SOL     OW18421   3.842   2.988   9.976  0.3074 -0.2282  0.4350
 2321SOL    HW118422   3.817   2.940  10.054  0.6359 -0.9784  0.0819
 2321SOL    HW218423   3.851   2.924   9.905 -1.0623 -0.8052  0.7841
 2322SOL     OW18424   2.248   0.156   2.674  0.1235 -0.3557 -0.3804
 2322SOL    HW118425   2.246   0.097   2.749  1.7538  1.5393  1.1454
 2322SOL    HW218426   2.323   0.212   2.697 -2.0849  1.5560  2.0652
 2323SOL     OW18427   1.175   3.424   0.819  0.0017 -0.2456  0.5025
 2323SOL    HW118428   1.214   3.337   0.822 -1.4693 -0.9660 -1.3132
 2323SOL    HW218429   1.211   3.460   0.900  1.0620 -3.3921  1.4293
 2324SOL     OW18430   1.228   3.602   0.108  0.2369 -0.5322  0.5401
 2324SOL    HW118431   1.282   3.674   0.139 -1.0556 -0.2103  2.0590
 2324SOL    HW218432   1.208   3.562   0.193 -3.9303  1.6987  0.6523
 2325SOL     OW18433   0.526   3.211   1.138 -0.1025  0.0388  0.1210
 2325SOL    HW118434   0.484   3.296   1.145  0.3192  0.1093  1.9477
 2325SOL    HW218435   0.597   3.230   1.077 -0.2791  1.4309  0.3527
 2326SOL     OW18436   3.174   0.182  16.476 -0.0042 -0.4065  0.1204
 2326SOL    HW118437   3.239   0.138  16.530 -0.9158 -1.4232  0.3919
 2326SOL    HW218438   3.210   0.270  16.477 -0.9480 -0.0128 -0.2383
 2327SOL     OW18439   0.477   0.640   8.064  0.2001  0.0712  0.0548
 2327SOL    HW118440   0.461   0.552   8.028 -1.9245  0.0748  1.0053
 2327SOL    HW218441   0.418   0.690   8.009 -0.6792 -1.6545 -0.5791
 2328SOL     OW18442   1.024   0.454   4.536  0.3481  0.4114 -0.3812
 2328SOL    HW118443   1.006   0.527   4.478  1.0886 -0.5004 -1.7637
 2328SOL    HW218444   0.944   0.455   4.588  0.4798  0.9069 -0.1913
 2329SOL     OW18445   0.258   2.114   0.477 -1.1239  0.1043  0.7002
 2329SOL    HW118446   0.325   2.050   0.455  0.2782  2.2383 -1.1528
 2329SOL    HW218447   0.172   2.073   0.468 -1.5558  1.0698  0.4979
 2330SOL     OW18448   0.206   1.355   7.063  0.4940 -0.3636 -0.3775
 2330SOL    HW118449   0.150   1.324   6.992  1.8974 -0.8458 -1.2651
 2330SOL    HW218450   0.278   1.292   7.061 -0.3456 -1.2519 -2.6584
 2331SOL     OW18451   0.576   1.399   6.946  0.2058 -0.5171  0.5525
 2331SOL    HW118452   0.512   1.415   7.015 -1.4051 -1.8307 -0.6563
 2331SOL    HW218453   0.595   1.305   6.954  0.8049 -0.5293 -1.0236
 2332SOL     OW18454   4.271   1.770   8.360 -0.2665 -0.0179  0.1475
 2332SOL    HW118455   4.208   1.829   8.319 -1.4478 -1.5148 -0.1999
 2332SOL    HW218456   4.233   1.682   8.356 -1.9342  0.7390 -0.7668
 2333SOL     OW18457   1.401   0.154  15.363  0.3386  0.2822  0.5189
 2333SOL    HW118458   1.488   0.126  15.335 -0.6113 -1.4603 -0.6899
 2333SOL    HW218459   1.411   0.127  15.455  1.3053 -2.0298 -0.2449
 2334SOL     OW18460   4.520   2.278   5.037 -0.3116  0.2600  0.8665
 2334SOL    HW118461   4.602   2.281   5.086  0.1117  2.1076  0.0101
 2334SOL    HW218462   4.467   2.345   5.079 -0.0657  0.7640  0.3629
 2335SOL     OW18463   3.688   1.721  13.100 -0.2130 -0.1228  0.2330
 2335SOL    HW118464   3.716   1.752  13.014 -1.4052 -0.9016 -0.4338
 2335SOL    HW218465   3.699   1.795  13.160 -1.9422  1.2415 -1.1365
 2336SOL     OW18466   2.832   4.565  17.218 -0.2503  0.5352  0.1815
 2336SOL    HW118467   2.896   4.599  17.156  0.0507 -2.2853 -1.0590
 2336SOL    HW218468   2.865   4.484  17.257  2.5145  0.7297 -1.7526
 2337SOL     OW18469   2.135   4.221   4.531 -0.0419  0.1217 -0.2253
 2337SOL    HW118470   2.060   4.175   4.569 -0.0533  0.3406  0.0165
 2337SOL    HW218471   2.098   4.308   4.515  0.4676  0.0020 -2.0314
 2338SOL     OW18472   1.038   0.287   7.130 -0.4062  0.1624  0.4970
 2338SOL    HW118473   0.970   0.351   7.110 -0.9660 -0.8448 -0.7854
 2338SOL    HW218474   1.113   0.346   7.123  1.7836 -2.7232 -0.8660
 2339SOL     OW18475   1.001   0.846  17.430  0.2915  1.0104  0.4669
 2339SOL    HW118476   0.990   0.761  17.388 -0.5382  0.5664  1.5970
 2339SOL    HW218477   1.095   0.866  17.437  0.3610  0.6796  0.4492
 2340SOL     OW18478   1.483   3.586   2.169 -0.8903  1.0037  0.1026
 2340SOL    HW118479   1.489   3.666   2.221  1.6233  0.8848  0.0323
 2340SOL    HW218480   1.470   3.624   2.083  0.6951  2.1252  0.3445
 2341SOL     OW18481   2.075   2.561  12.001 -0.3171  0.2080 -0.1551
 2341SOL    HW118482   1.988   2.574  12.039 -1.3150 -0.4787 -2.2458
 2341SOL    HW218483   2.070   2.483  11.945  0.7472  1.0011 -1.3488
 2342SOL     OW18484   0.741   0.161  15.456 -0.9364  0.0153  0.1255
 2342SOL    HW118485   0.742   0.252  15.484  2.0395  0.2931 -0.7923
 2342SOL    HW218486   0.698   0.172  15.371  0.7381 -0.1403 -0.7537
 2343SOL     OW18487   1.213   1.497  10.446  0.3453  0.4528  0.4018
 2343SOL    HW118488   1.212   1.528  10.356  1.9628  0.6688  0.4473
 2343SOL    HW218489   1.120   1.479  10.455 -0.1378  2.5435 -0.4342
 2344SOL     OW18490   0.705   3.496   5.037  0.0465  0.1124 -0.0521
 2344SOL    HW118491   0.731   3.424   4.980  1.0953  1.0571 -0.7652
 2344SOL    HW218492   0.735   3.455   5.118 -0.5889  1.2415  0.7634
 2345SOL     OW18493   4.462   2.718  12.352  0.0603 -0.0714  0.4353
 2345SOL    HW118494   4.554   2.691  12.354 -0.2945 -1.3913 -1.2119
 2345SOL    HW218495   4.450   2.735  12.445  0.0828 -0.5275  0.5199
 2346SOL     OW18496   3.608   1.703  16.582 -0.4410  0.0343 -0.0627
 2346SOL    HW118497   3.676   1.675  16.642 -2.0655  0.3481  1.9453
 2346SOL    HW218498   3.663   1.731  16.508  2.3268  0.3710  2.1556
 2347SOL     OW18499   1.598   2.919  10.439  0.2605 -0.2741  0.2889
 2347SOL    HW118500   1.526   2.982  10.440  1.4216  1.0570  0.6808
 2347SOL    HW218501   1.664   2.968  10.388 -0.3204  1.4987  1.2424
 2348SOL     OW18502   0.506   1.707   2.420 -0.4481  0.1950  0.0252
 2348SOL    HW118503   0.563   1.745   2.354 -1.3711  0.4376 -0.6221
 2348SOL    HW218504   0.470   1.786   2.460 -0.7003  0.9750 -1.7753
 2349SOL     OW18505   0.112   3.892   6.059 -0.4473  0.3947 -0.2770
 2349SOL    HW118506   0.018   3.874   6.053 -0.4946  0.6335 -0.2560
 2349SOL    HW218507   0.128   3.875   6.152 -0.5408  0.1755 -0.3008
 2350SOL     OW18508   4.387   4.613  10.211  0.5003  0.2422 -0.0989
 2350SOL    HW118509   4.467   4.639  10.257  0.5565 -0.2777  0.0942
 2350SOL    HW218510   4.417   4.545  10.151  0.9427 -0.3040  0.7423
 2351SOL     OW18511   3.734   4.550   8.567  0.0981 -0.4613 -0.1991
 2351SOL    HW118512   3.792   4.564   8.492  1.1024 -0.5416  0.5688
 2351SOL    HW218513   3.794   4.496   8.619 -1.4712 -1.5530  0.4772
 2352SOL     OW18514   2.595   1.282   0.456  0.2558  0.4735  0.5201
 2352SOL    HW118515   2.543   1.236   0.522 -0.2287  0.8941  0.4266
 2352SOL    HW218516   2.668   1.220   0.447 -0.9506 -0.8891  0.1678
 2353SOL     OW18517   1.570   1.273   2.390 -1.0538 -0.0947  0.1883
 2353SOL    HW118518   1.529   1.204   2.338 -1.2303  0.1445  0.0084
 2353SOL    HW218519   1.508   1.310   2.453 -0.0183  3.4143 -0.8006
 2354SOL     OW18520   1.112   2.139   4.058 -0.1831 -0.0423  1.0709
 2354SOL    HW118521   1.142   2.183   4.138  1.2843  1.8202 -0.5295
 2354SOL    HW218522   1.107   2.045   4.079  0.3964 -0.4669 -0.7564
 2355SOL     OW18523   2.750   0.132   5.168 -1.0769 -0.8682  0.3973
 2355SOL    HW118524   2.715   0.093   5.087 -1.1038 -0.4703  0.2147
 2355SOL    HW218525   2.687   0.200   5.192 -0.2419 -0.4085  1.2762
 2356SOL     OW18526   0.325   2.046  12.007  0.5509  0.6257  0.0695
 2356SOL    HW118527   0.268   1.983  12.052 -0.8525  1.8665  0.0156
 2356SOL    HW218528   0.403   1.991  11.995  0.2473  0.3141 -0.4838
 2357SOL     OW18529   2.782   3.807   5.906 -0.4987 -0.0701 -0.0369
 2357SOL    HW118530   2.837   3.783   5.831  0.9212  1.4702  0.5306
 2357SOL    HW218531   2.795   3.722   5.948  1.3044 -0.3586 -1.1644
 2358SOL     OW18532   3.738   3.446   7.552 -0.5188  0.1483  0.3497
 2358SOL    HW118533   3.686   3.492   7.618  0.6334 -0.7612  1.9072
 2358SOL    HW218534   3.813   3.506   7.549  0.2430 -0.8101  0.0920
 2359SOL     OW18535   0.147   3.886   5.603  0.2393 -0.6243 -0.2724
 2359SOL    HW118536   0.095   3.952   5.649 -0.4031  1.1291 -3.5756
 2359SOL    HW218537   0.164   3.831   5.680  0.0395 -1.8661 -1.1113
 2360SOL     OW18538   1.837   1.735  11.631  0.1847  0.4672  0.2597
 2360SOL    HW118539   1.811   1.666  11.692  0.1249 -1.0358 -1.4956
 2360SOL    HW218540   1.869   1.803  11.691  0.0405 -0.5479  1.4857
 2361SOL     OW18541   0.995   2.093  10.934  0.4434  0.0238 -0.5384
 2361SOL    HW118542   0.955   2.090  10.847  1.8463 -0.7707 -1.1498
 2361SOL    HW218543   1.086   2.120  10.921 -0.1232  2.8655  1.3266
 2362SOL     OW18544   3.647   2.032   0.374  0.4781 -0.1283  0.0268
 2362SOL    HW118545   3.705   1.984   0.433  1.3965  0.2718 -0.5378
 2362SOL    HW218546   3.657   1.967   0.305 -2.7419 -0.0157 -0.5413
 2363SOL     OW18547   1.736   2.616  13.959  0.0778  0.0544 -0.1128
 2363SOL    HW118548   1.785   2.685  14.003 -1.1405  0.7596  0.1329
 2363SOL    HW218549   1.720   2.648  13.870 -0.9968  1.7597  0.6981
 2364SOL     OW18550   3.263   0.386   8.114 -0.1811  0.6151  0.4958
 2364SOL    HW118551   3.245   0.311   8.058  1.5097 -0.0110  0.7853
 2364SOL    HW218552   3.358   0.382   8.128  0.0102 -0.7036 -1.2314
 2365SOL     OW18553   2.973   3.523  17.487 -0.8176  0.1976  0.6559
 2365SOL    HW118554   3.041   3.589  17.498 -0.3621 -0.3870  1.3278
 2365SOL    HW218555   3.010   3.471  17.416 -0.8550  1.6989 -0.4762
 2366SOL     OW18556   1.366   0.399   2.859 -0.2636  0.0141 -0.1366
 2366SOL    HW118557   1.384   0.319   2.809  0.8429 -0.3839  0.8935
 2366SOL    HW218558   1.344   0.464   2.793  1.3764  1.5659  0.8752
 2367SOL     OW18559   3.639   4.025   3.689 -0.4234  0.1512 -0.5204
 2367SOL    HW118560   3.666   4.095   3.749  0.2922  0.3762 -1.0924
 2367SOL    HW218561   3.576   3.972   3.737 -0.1142  1.0878  0.9051
 2368SOL     OW18562   4.569   0.678   2.999 -0.4324  0.3517 -0.0074
 2368SOL    HW118563   4.571   0.584   2.983 -1.7237 -0.3198  3.7911
 2368SOL    HW218564   4.494   0.688   3.057 -1.1285 -1.1728 -0.6554
 2369SOL     OW18565   0.613   2.338   4.910 -0.0194 -0.0739  0.1480
 2369SOL    HW118566   0.521   2.321   4.890 -0.2287 -1.6182  2.3596
 2369SOL    HW218567   0.607   2.434   4.913 -1.6751 -0.1774  0.3772
 2370SOL     OW18568   0.886   3.986  14.030  0.2498  0.2006 -0.2399
 2370SOL    HW118569   0.942   3.978  14.108 -0.4468 -1.1966  0.1113
 2370SOL    HW218570   0.800   3.973  14.070  0.2016  1.5973  0.1074
 2371SOL     OW18571   4.348   0.007   8.909  0.4882  0.4208 -0.3353
 2371SOL    HW118572   4.339   4.662   8.974  1.9303  0.3446 -0.2193
 2371SOL    HW218573   4.413   4.694   8.851 -0.1942  3.0481 -2.8141
 2372SOL     OW18574   3.964   1.508  12.983  0.3014 -0.4209  0.8088
 2372SOL    HW118575   3.908   1.484  13.057 -2.1845  3.5298  0.1974
 2372SOL    HW218576   3.999   1.422  12.961 -0.2207 -0.3915 -0.1591
 2373SOL     OW18577   3.554   4.297   8.527  0.0978  0.5829  0.2889
 2373SOL    HW118578   3.575   4.276   8.436 -0.8013 -1.6833  0.5903
 2373SOL    HW218579   3.580   4.389   8.517  3.3592 -0.2186  1.6235
 2374SOL     OW18580   4.174   4.609   2.448  0.0163  0.6793 -0.0741
 2374SOL    HW118581   4.214   4.696   2.440 -0.3594  0.6957 -1.9437
 2374SOL    HW218582   4.174   4.574   2.359  0.4997 -2.4461  1.1429
 2375SOL     OW18583   0.870   3.462   8.656  0.2938  0.3632  0.1112
 2375SOL    HW118584   0.954   3.428   8.686  0.5139  0.8189  0.0078
 2375SOL    HW218585   0.901   3.545   8.622  2.3476 -0.9375 -1.2083
 2376SOL     OW18586   2.031   1.099   2.448  0.4741  0.1617 -0.0819
 2376SOL    HW118587   1.979   1.020   2.442  0.2306  0.2582  0.7299
 2376SOL    HW218588   1.978   1.150   2.509 -0.9218 -1.5338  0.0965
 2377SOL     OW18589   0.216   0.631  12.343 -0.2824  0.1444  0.1143
 2377SOL    HW118590   0.132   0.643  12.298 -0.2677 -1.8158 -0.4039
 2377SOL    HW218591   0.273   0.610  12.269 -1.7944  0.7741 -1.2209
 2378SOL     OW18592   3.734   2.795   5.422 -0.3903  0.5071  0.7013
 2378SOL    HW118593   3.686   2.843   5.355 -0.4086 -1.1282 -0.4752
 2378SOL    HW218594   3.712   2.848   5.499 -2.5384  1.1122 -0.3223
 2379SOL     OW18595   0.357   0.993   4.229 -0.4002 -0.2618 -0.1993
 2379SOL    HW118596   0.344   1.083   4.259 -1.0265 -1.0129  1.7718
 2379SOL    HW218597   0.389   1.023   4.144 -1.2327 -0.5942 -0.6411
 2380SOL     OW18598   0.430   3.990   3.291  0.7256  0.0433 -0.0656
 2380SOL    HW118599   0.468   4.058   3.347 -1.0114  2.7134 -2.1513
 2380SOL    HW218600   0.446   4.023   3.203  0.1867  0.3029 -0.0703
 2381SOL     OW18601   0.281   0.913   6.535 -0.4262 -1.5761 -0.3944
 2381SOL    HW118602   0.189   0.898   6.557 -0.7763 -1.0605 -1.5166
 2381SOL    HW218603   0.272   0.961   6.453 -0.4535 -3.0687 -1.2800
 2382SOL     OW18604   1.944   2.970  15.017  0.4410  0.3333 -0.9944
 2382SOL    HW118605   2.021   3.012  15.056  0.2803 -0.6790  0.3799
 2382SOL    HW218606   1.913   2.912  15.086  0.3852  3.0656  1.2657
 2383SOL     OW18607   2.765   0.564   4.988 -0.3925  0.4511 -0.1337
 2383SOL    HW118608   2.818   0.485   5.002  1.4594  1.2811 -2.5055
 2383SOL    HW218609   2.824   0.611   4.930 -0.4826  0.8813  0.1252
 2384SOL     OW18610   3.650   2.160  16.402  0.3074 -0.7795 -0.2843
 2384SOL    HW118611   3.608   2.118  16.477 -2.0165 -0.4685 -1.3760
 2384SOL    HW218612   3.743   2.159  16.421  0.2914 -0.1622 -0.1868
 2385SOL     OW18613   3.219   2.109   8.891  0.0647  0.2276 -0.6430
 2385SOL    HW118614   3.257   2.027   8.860  0.1977  0.1834 -0.3670
 2385SOL    HW218615   3.129   2.078   8.891 -0.2312  1.0570  0.3820
 2386SOL     OW18616   0.973   2.429   5.100  0.2169  0.7631 -0.1063
 2386SOL    HW118617   0.892   2.386   5.127  0.6106  1.2083  1.7771
 2386SOL    HW218618   1.002   2.484   5.172 -0.5791  1.6884 -0.4797
 2387SOL     OW18619   2.325   2.716   8.676 -0.0404  0.1859  0.2024
 2387SOL    HW118620   2.398   2.737   8.734  0.8680  0.6975 -1.1232
 2387SOL    HW218621   2.265   2.785   8.704  1.6600  2.4753 -1.6990
 2388SOL     OW18622   4.075   2.710  10.232 -0.1160 -0.2681 -0.0913
 2388SOL    HW118623   4.119   2.788  10.199 -0.3575  0.2585  0.8404
 2388SOL    HW218624   3.985   2.741  10.233  0.2075  0.6400  0.9304
 2389SOL     OW18625   3.000   1.978   1.959  0.3178  0.0325 -0.3516
 2389SOL    HW118626   3.095   1.972   1.949  0.5138  0.2696  1.2388
 2389SOL    HW218627   2.975   1.887   1.948  1.0189 -0.0496 -1.2443
 2390SOL     OW18628   2.142   4.285   2.046  0.7027  0.0055 -0.5854
 2390SOL    HW118629   2.123   4.193   2.064 -0.1030 -0.6721 -4.7763
 2390SOL    HW218630   2.142   4.294   1.950 -4.6238  1.9076 -0.3830
 2391SOL     OW18631   1.678   1.349  11.292  0.1249 -0.0855 -0.0137
 2391SOL    HW118632   1.622   1.271  11.293 -0.1319  0.1095  1.2118
 2391SOL    HW218633   1.715   1.329  11.379 -2.3019  2.3326  1.5710
 2392SOL     OW18634   0.574   1.111   0.692 -0.1379  0.2035 -0.4114
 2392SOL    HW118635   0.627   1.084   0.766  2.0046  3.2521 -0.8267
 2392SOL    HW218636   0.565   1.207   0.698 -0.0841  0.0234  2.4908
 2393SOL     OW18637   1.869   0.856   2.409 -0.0419  0.1543 -0.2660
 2393SOL    HW118638   1.776   0.880   2.412 -0.3422 -0.9024 -1.0380
 2393SOL    HW218639   1.884   0.770   2.448  1.0335 -0.1364 -1.3407
 2394SOL     OW18640   2.252   1.956  14.438  0.0115 -0.3192 -0.4945
 2394SOL    HW118641   2.233   1.864  14.420  0.3277 -0.9512  2.4255
 2394SOL    HW218642   2.244   2.011  14.360  0.1197  1.0907  0.4798
 2395SOL     OW18643   1.628   1.846   6.273  0.7119 -0.2417  0.0029
 2395SOL    HW118644   1.703   1.798   6.239  0.5616  1.1467 -2.3068
 2395SOL    HW218645   1.657   1.937   6.266 -0.5542  0.1693 -0.0652
 2396SOL     OW18646   3.131   3.657   8.448 -0.4224 -0.5319  0.0986
 2396SOL    HW118647   3.089   3.736   8.414  0.4550 -0.0534  0.1489
 2396SOL    HW218648   3.129   3.687   8.539 -0.4234  1.6639 -0.6359
 2397SOL     OW18649   2.933   2.709  11.657  0.0480 -0.6920  0.6620
 2397SOL    HW118650   2.873   2.780  11.633 -0.1104 -1.2801 -0.6850
 2397SOL    HW218651   2.983   2.752  11.727 -0.5176  2.4301 -0.8617
 2398SOL     OW18652   3.552   3.946   9.631 -0.4484  0.1087  0.2846
 2398SOL    HW118653   3.604   3.979   9.704 -3.2711  0.4281  2.1565
 2398SOL    HW218654   3.488   3.894   9.680 -1.9017  0.9220 -0.7425
 2399SOL     OW18655   2.921   3.164   5.825 -0.2447 -0.1062  0.6861
 2399SOL    HW118656   2.922   3.205   5.911  0.5009 -0.9132  1.0612
 2399SOL    HW218657   2.840   3.198   5.787  0.7662 -0.4437 -1.8338
 2400SOL     OW18658   1.888   3.464  15.306 -0.0141  0.1583 -0.1337
 2400SOL    HW118659   1.917   3.377  15.334  0.6177  0.1289 -0.9030
 2400SOL    HW218660   1.972   3.509  15.309 -0.8742  1.6222  1.9713
 2401SOL     OW18661   3.739   3.165   9.823  0.4714  0.1346  0.0415
 2401SOL    HW118662   3.768   3.104   9.891 -1.3844 -1.0481 -0.2392
 2401SOL    HW218663   3.714   3.238   9.878  0.1650  1.3857 -1.7490
 2402SOL     OW18664   0.208   3.411   9.176 -0.6064 -0.4734 -0.2080
 2402SOL    HW118665   0.234   3.323   9.147  0.0460  0.2224 -1.6956
 2402SOL    HW218666   0.114   3.404   9.159 -0.4241  0.9528 -1.8401
 2403SOL     OW18667   2.792   0.606   8.269  0.1487  0.0624  0.1895
 2403SOL    HW118668   2.855   0.603   8.197 -0.1630 -1.6599 -0.0087
 2403SOL    HW218669   2.812   0.525   8.317  0.7629  0.1263  0.0413
 2404SOL     OW18670   2.080   1.360   5.577  0.5208 -0.2652  0.2066
 2404SOL    HW118671   2.113   1.280   5.535 -2.4002 -0.3861 -1.8602
 2404SOL    HW218672   2.118   1.416   5.508  1.3329  1.4198  2.0315
 2405SOL     OW18673   0.942   0.379   3.544 -0.6755  0.1343  0.2360
 2405SOL    HW118674   0.956   0.392   3.637  0.6471 -0.5041  0.1224
 2405SOL    HW218675   0.920   0.461   3.501 -1.4175 -0.4777 -0.5633
 2406SOL     OW18676   0.259   0.939   9.182  0.2818 -0.0972 -0.6012
 2406SOL    HW118677   0.284   0.941   9.275  0.9703 -0.1701 -0.7781
 2406SOL    HW218678   0.185   0.999   9.184  0.5543  0.2817 -1.7914
 2407SOL     OW18679   3.121   2.208   6.300  0.4392  0.0796 -0.6661
 2407SOL    HW118680   3.098   2.300   6.295 -2.0938 -0.7149 -3.2787
 2407SOL    HW218681   3.047   2.163   6.260  0.9714 -1.2143 -0.2093
 2408SOL     OW18682   4.638   0.305   1.789 -0.6909 -0.7062 -0.4821
 2408SOL    HW118683   4.616   0.259   1.870 -0.1018 -0.2707 -0.0716
 2408SOL    HW218684   4.656   0.233   1.729 -2.1511 -0.7232 -0.8916
 2409SOL     OW18685   0.160   0.509  17.135  0.1277 -0.5817  0.3492
 2409SOL    HW118686   0.162   0.428  17.186 -0.9869  0.0774  1.4352
 2409SOL    HW218687   0.252   0.520  17.112 -0.1063 -0.1700 -0.4062
 2410SOL     OW18688   0.722   2.478  14.027  0.4793  0.2263 -0.0964
 2410SOL    HW118689   0.806   2.456  14.068  0.4097 -2.0461 -1.1980
 2410SOL    HW218690   0.664   2.449  14.098  0.8040 -1.4446 -0.5166
 2411SOL     OW18691   2.515   0.225   6.603  0.1722  0.4903 -0.1753
 2411SOL    HW118692   2.483   0.139   6.628  0.8012  0.0493 -0.8652
 2411SOL    HW218693   2.606   0.228   6.633  0.5826 -0.3222 -1.3470
 2412SOL     OW18694   0.969   4.234  12.328 -0.1500 -0.5437 -0.2509
 2412SOL    HW118695   1.013   4.226  12.413 -0.2041 -0.5174 -0.2206
 2412SOL    HW218696   1.045   4.236  12.269  1.3744  0.8629  1.7336
 2413SOL     OW18697   3.416   2.187   3.768  0.1521  0.1378  0.5061
 2413SOL    HW118698   3.341   2.244   3.757 -0.9529 -1.0019  2.1432
 2413SOL    HW218699   3.434   2.197   3.862 -0.6335  0.8126  0.5828
 2414SOL     OW18700   0.187   4.395   6.832  0.1256 -0.0897 -0.7608
 2414SOL    HW118701   0.151   4.340   6.902  0.8504 -1.0827 -1.1651
 2414SOL    HW218702   0.113   4.448   6.804 -0.4451 -0.6951 -0.3926
 2415SOL     OW18703   0.257   1.865  17.607 -0.0609 -0.2793  0.3325
 2415SOL    HW118704   0.340   1.830  17.575  0.4107 -1.0301  2.3377
 2415SOL    HW218705   0.286   1.878  17.698 -0.5302 -1.7045  0.6939
 2416SOL     OW18706   0.908   1.194   7.880 -0.4436  0.3553  0.2096
 2416SOL    HW118707   0.870   1.142   7.950 -1.2075 -1.1267 -1.2942
 2416SOL    HW218708   0.931   1.129   7.814  1.0477  2.9286 -1.7862
 2417SOL     OW18709   2.503   2.003   1.915 -0.1639 -0.1697 -0.4155
 2417SOL    HW118710   2.542   1.921   1.885 -1.1788  0.0026 -2.1579
 2417SOL    HW218711   2.556   2.063   1.863 -0.3178  1.1531  0.9634
 2418SOL     OW18712   0.065   0.897   2.937 -0.5063  0.1394  0.3985
 2418SOL    HW118713   0.016   0.979   2.937 -0.2615  0.2871  0.5931
 2418SOL    HW218714   4.722   0.847   2.982 -0.1261 -1.1529 -0.4628
 2419SOL     OW18715   2.885   3.239   6.339  0.2392  0.0924  0.0067
 2419SOL    HW118716   2.823   3.212   6.407  1.0989  0.9395  1.1292
 2419SOL    HW218717   2.905   3.327   6.371 -0.5045  0.3132 -0.1281
 2420SOL     OW18718   4.500   1.728   7.957 -0.3322 -0.1124 -0.1323
 2420SOL    HW118719   4.542   1.700   8.039 -1.3322 -1.2740 -0.0279
 2420SOL    HW218720   4.569   1.779   7.914  0.8323  0.1264  2.0102
 2421SOL     OW18721   1.038   3.031  17.635 -0.2112 -0.0745 -0.2588
 2421SOL    HW118722   1.070   3.117  17.611  0.8223 -0.0967  1.0354
 2421SOL    HW218723   1.057   3.029   0.027  1.3486 -1.3242 -0.5956
 2422SOL     OW18724   0.828   3.906   4.143  0.0285 -0.3306 -0.2559
 2422SOL    HW118725   0.739   3.940   4.152  0.3960  0.4775  0.2805
 2422SOL    HW218726   0.822   3.829   4.200  0.8329  1.7474  2.5884
 2423SOL     OW18727   3.565   0.244   5.080  0.0775  0.4640 -0.5330
 2423SOL    HW118728   3.539   0.330   5.048 -1.8551 -0.9329 -2.7566
 2423SOL    HW218729   3.479   0.200   5.084 -0.8007  2.1704 -0.6141
 2424SOL     OW18730   1.731   2.576  16.844  0.4519  0.0594 -0.2463
 2424SOL    HW118731   1.772   2.498  16.807 -0.1253 -1.9771  3.4197
 2424SOL    HW218732   1.802   2.623  16.886 -1.1981  0.4412  2.1251
 2425SOL     OW18733   0.176   0.890   7.541 -0.0379 -0.9693  0.4372
 2425SOL    HW118734   0.168   0.904   7.636  2.0277 -1.6674  0.7124
 2425SOL    HW218735   0.088   0.907   7.508 -0.1015 -3.0883 -0.5123
 2426SOL     OW18736   4.654   2.132   4.399  0.5160 -0.4446  0.2046
 2426SOL    HW118737   4.649   2.073   4.475 -0.8913 -0.6812 -0.0732
 2426SOL    HW218738   0.002   2.094   4.351 -0.8404  0.0569 -2.2544
 2427SOL     OW18739   1.217   4.411   6.297 -0.0005 -0.6944 -0.1998
 2427SOL    HW118740   1.267   4.346   6.248 -1.0165 -0.9270 -0.9192
 2427SOL    HW218741   1.172   4.457   6.226 -0.4661  0.9604  1.1787
 2428SOL     OW18742   4.637   0.242   5.520  0.1893  0.0525  0.2266
 2428SOL    HW118743   4.553   0.250   5.475  1.0999  2.6741 -0.9416
 2428SOL    HW218744   4.669   0.332   5.526  0.1220  0.0686  0.3480
 2429SOL     OW18745   2.489   1.675  14.110  0.6278 -0.1387  0.0385
 2429SOL    HW118746   2.552   1.631  14.054  0.6896 -0.0714  0.0549
 2429SOL    HW218747   2.501   1.633  14.195  1.1724 -0.3751 -0.1581
 2430SOL     OW18748   4.466   4.092  12.262 -0.3237  0.2151  0.2698
 2430SOL    HW118749   4.375   4.086  12.290 -0.0907 -0.8163  0.8093
 2430SOL    HW218750   4.459   4.167  12.202  1.0847 -1.1899 -1.6497
 2431SOL     OW18751   1.264   3.919   6.101  0.2683  0.5313  0.2048
 2431SOL    HW118752   1.175   3.920   6.065  1.2091 -0.2863 -2.1523
 2431SOL    HW218753   1.248   3.854   6.169 -1.4013 -1.8649 -2.4702
 2432SOL     OW18754   3.480   2.912  15.770  0.0892  0.2679 -0.4592
 2432SOL    HW118755   3.386   2.931  15.777  0.0316 -0.1670 -0.0696
 2432SOL    HW218756   3.518   2.891  15.855 -0.3629 -1.0997 -0.5935
 2433SOL     OW18757   3.075   2.948   1.799 -0.2687  0.2705 -0.7805
 2433SOL    HW118758   3.067   2.991   1.884  1.6715  2.7691 -1.8659
 2433SOL    HW218759   3.160   2.904   1.808 -0.5947 -0.1587  0.2517
 2434SOL     OW18760   2.423   0.071   8.761 -0.6854  0.0570  0.3851
 2434SOL    HW118761   2.410   0.162   8.789  2.1305  0.8899 -0.9651
 2434SOL    HW218762   2.330   0.051   8.764 -0.3159 -1.7130  0.3056
 2435SOL     OW18763   0.494   0.620  14.993  0.0617 -0.0781  0.0870
 2435SOL    HW118764   0.443   0.588  14.919 -1.4612 -2.3589  2.1009
 2435SOL    HW218765   0.564   0.673  14.955 -1.3620  0.6482 -1.4954
 2436SOL     OW18766   0.959   3.961   8.331  0.4497  0.0126 -0.0405
 2436SOL    HW118767   1.054   3.973   8.326  0.0303  3.3362 -0.0968
 2436SOL    HW218768   0.953   3.910   8.250 -2.3648  1.8424 -0.9952
 2437SOL     OW18769   1.327   1.460   0.209  0.4217 -0.1273  0.3071
 2437SOL    HW118770   1.279   1.449   0.127  2.9185  1.5075 -1.3789
 2437SOL    HW218771   1.398   1.398   0.195  0.8869  0.8305 -1.6006
 2438SOL     OW18772   0.520   3.378   5.790 -0.3088 -0.1895 -0.2391
 2438SOL    HW118773   0.587   3.322   5.829 -1.1503 -1.4402 -0.6186
 2438SOL    HW218774   0.562   3.419   5.714  2.2283 -2.0097  0.1619
 2439SOL     OW18775   1.466   0.784  11.525  0.6309  0.0998  0.4856
 2439SOL    HW118776   1.446   0.713  11.464  2.5302  0.2618 -0.3277
 2439SOL    HW218777   1.439   0.749  11.610 -1.0814 -0.2442 -0.1913
 2440SOL     OW18778   3.469   0.259   7.283 -0.1297  0.4099 -0.6768
 2440SOL    HW118779   3.407   0.325   7.314  0.6932  0.0428  1.7250
 2440SOL    HW218780   3.499   0.224   7.367 -0.7765  0.0221 -0.6146
 2441SOL     OW18781   3.123   2.654  13.658 -0.0702  0.4563  0.6007
 2441SOL    HW118782   3.106   2.625  13.568  0.3629 -0.1479  0.7149
 2441SOL    HW218783   3.076   2.593  13.714 -1.7648 -0.7902 -2.1970
 2442SOL     OW18784   2.654   1.781   1.921  0.4764 -0.2314 -0.4756
 2442SOL    HW118785   2.712   1.759   1.994  0.3626 -0.5846 -0.4934
 2442SOL    HW218786   2.570   1.754   1.958  0.8530  1.3586  1.5921
 2443SOL     OW18787   0.269   1.637   7.315 -0.1006  0.0274  0.2954
 2443SOL    HW118788   0.208   1.578   7.359 -0.7975  1.1505  0.8387
 2443SOL    HW218789   0.226   1.719   7.338 -1.4772 -0.9588  1.2415
 2444SOL     OW18790   0.401   4.075   1.944 -0.3200  0.1902 -0.3291
 2444SOL    HW118791   0.451   4.014   1.999 -2.4380 -1.4584 -0.2388
 2444SOL    HW218792   0.337   4.021   1.899  0.1734  0.9734 -1.9720
 2445SOL     OW18793   2.220   3.993   5.163  0.3385  0.4519 -0.5783
 2445SOL    HW118794   2.224   3.983   5.258 -0.5458  0.1796 -0.5725
 2445SOL    HW218795   2.286   4.061   5.151 -0.5670  0.9983 -2.5195
 2446SOL     OW18796   0.452   0.824   8.792  0.4195 -0.3748  0.0769
 2446SOL    HW118797   0.483   0.754   8.849  0.1807 -3.5351 -3.6662
 2446SOL    HW218798   0.451   0.901   8.850  1.6692  1.0221 -1.7533
 2447SOL     OW18799   3.914   0.073   3.056 -0.4418  0.3114 -0.1909
 2447SOL    HW118800   3.911   0.166   3.075  0.2257  0.2205  0.3263
 2447SOL    HW218801   3.833   0.030   3.085 -0.9027  1.2381 -0.1169
 2448SOL     OW18802   3.859   2.602   2.864  0.4572  0.1514 -0.3472
 2448SOL    HW118803   3.785   2.647   2.824 -0.7559  1.8058  3.8450
 2448SOL    HW218804   3.931   2.647   2.821  0.3025 -0.9365 -1.7553
 2449SOL     OW18805   3.241   0.755   8.688  0.4840  0.3973 -0.1408
 2449SOL    HW118806   3.310   0.707   8.642  0.2573 -0.7333  0.6983
 2449SOL    HW218807   3.172   0.756   8.622 -0.4545  0.9318  0.8451
 2450SOL     OW18808   4.068   3.584  14.153  0.2933  0.5916 -0.2157
 2450SOL    HW118809   3.981   3.556  14.179  0.9938 -0.9480  0.5054
 2450SOL    HW218810   4.070   3.568  14.059 -0.0203 -0.0562 -0.1094
 2451SOL     OW18811   1.972   0.519   2.054  0.1761 -0.3087  0.5810
 2451SOL    HW118812   2.064   0.522   2.082 -0.1241  0.5594  1.4779
 2451SOL    HW218813   1.983   0.545   1.963  0.6179  0.6080  0.8943
 2452SOL     OW18814   2.424   1.106   6.967 -0.3062  0.2126 -0.5458
 2452SOL    HW118815   2.365   1.087   7.041  0.4160 -0.0751 -0.0397
 2452SOL    HW218816   2.365   1.104   6.892 -0.5669 -0.5863 -0.3187
 2453SOL     OW18817   2.966   3.666   3.112 -0.3848 -0.6808  0.4834
 2453SOL    HW118818   2.974   3.665   3.017 -0.0828 -1.2088  0.5174
 2453SOL    HW218819   2.911   3.744   3.126 -2.0942 -1.7357 -0.4199
 2454SOL     OW18820   0.061   1.326  12.936 -0.4670 -0.5016 -0.2251
 2454SOL    HW118821   4.705   1.306  12.983 -0.0083  0.5587  1.0146
 2454SOL    HW218822   0.081   1.408  12.981 -1.0762 -0.3730 -0.1953
 2455SOL     OW18823   0.210   4.240   6.553 -0.1532  0.4380  0.6108
 2455SOL    HW118824   0.148   4.306   6.583  0.4490  1.4040 -0.2578
 2455SOL    HW218825   0.147   4.172   6.531 -1.0571  1.3531  0.3873
 2456SOL     OW18826   4.064   0.112   9.027  0.1821  0.1780  0.7884
 2456SOL    HW118827   4.002   0.150   9.089 -1.8845  0.0696 -1.2274
 2456SOL    HW218828   4.154   0.129   9.056  0.3972 -0.5470  0.5637
 2457SOL     OW18829   2.105   0.966   5.790 -0.1108 -0.3281  0.1472
 2457SOL    HW118830   2.090   1.028   5.862  0.9606 -0.9397  0.8974
 2457SOL    HW218831   2.181   1.010   5.752  0.0463 -0.8047 -0.0969
 2458SOL     OW18832   1.966   3.646   2.099  0.4564  0.1373 -0.0604
 2458SOL    HW118833   1.878   3.649   2.061  0.6117 -0.9468 -0.5054
 2458SOL    HW218834   2.016   3.618   2.022 -0.4118 -1.4079 -0.0664
 2459SOL     OW18835   3.618   2.019  16.922 -0.4601 -0.7473  0.2742
 2459SOL    HW118836   3.629   2.074  16.844 -1.4814 -0.4948  0.3062
 2459SOL    HW218837   3.602   2.079  16.996  0.0277  1.3003 -1.2743
 2460SOL     OW18838   3.695   1.983  15.901 -0.0185  0.2379  0.0242
 2460SOL    HW118839   3.699   1.892  15.872 -0.5863  0.0028  0.6774
 2460SOL    HW218840   3.696   1.974  15.996  1.0144 -1.6707 -0.1657
 2461SOL     OW18841   3.958   2.461   4.020 -0.0676 -0.1986 -0.5267
 2461SOL    HW118842   3.980   2.531   3.958 -1.3773  0.6548 -0.0202
 2461SOL    HW218843   4.047   2.430   4.039 -0.6779 -0.3719  2.0651
 2462SOL     OW18844   3.043   3.037  12.583 -1.0544  0.1342  0.0649
 2462SOL    HW118845   3.070   2.948  12.609 -1.3934  0.6830  2.2310
 2462SOL    HW218846   2.949   3.021  12.584 -1.4738  2.7153  0.7869
 2463SOL     OW18847   1.155   3.804   4.674 -0.0438  0.1512 -0.6671
 2463SOL    HW118848   1.218   3.742   4.637  1.1565  0.9690  0.0258
 2463SOL    HW218849   1.163   3.785   4.767 -0.8328  2.0004 -0.2191
 2464SOL     OW18850   0.416   1.876   1.714  0.2659  0.3535 -0.3337
 2464SOL    HW118851   0.502   1.890   1.752  0.0303 -0.4003  0.4946
 2464SOL    HW218852   0.380   1.962   1.693 -1.5836  0.0123  1.3955
 2465SOL     OW18853   3.300   2.717   2.758 -0.2025  0.1620 -0.0857
 2465SOL    HW118854   3.215   2.736   2.718 -0.0357  2.3326  0.6178
 2465SOL    HW218855   3.324   2.795   2.808 -0.0364  0.7262 -1.0467
 2466SOL     OW18856   1.938   3.108   0.677 -0.0711 -0.0874  0.1866
 2466SOL    HW118857   1.980   3.157   0.607  1.3495  1.5447  2.1592
 2466SOL    HW218858   1.846   3.105   0.651  0.7566 -0.3880 -2.7024
 2467SOL     OW18859   1.091   1.151  15.385 -0.2704 -0.0363  0.1155
 2467SOL    HW118860   1.072   1.074  15.437  1.1482 -0.7310 -0.3930
 2467SOL    HW218861   1.039   1.215  15.434 -1.2750 -0.9185  0.2001
 2468SOL     OW18862   1.006   1.980  17.073 -0.2371 -0.1691 -0.1601
 2468SOL    HW118863   1.074   2.045  17.086 -0.0647 -0.3044 -0.3725
 2468SOL    HW218864   0.962   1.983  17.158 -0.4732  1.6432 -0.3496
 2469SOL     OW18865   1.656   1.314   2.741 -0.1158  0.0868  0.2936
 2469SOL    HW118866   1.705   1.293   2.661 -0.0976 -3.1731  1.1299
 2469SOL    HW218867   1.591   1.366   2.695  1.1462  2.2835  0.9745
 2470SOL     OW18868   2.192   3.924   1.264 -0.2714 -0.4868  0.6772
 2470SOL    HW118869   2.254   3.892   1.198  0.2406  0.7701  0.5366
 2470SOL    HW218870   2.237   3.894   1.343 -0.4905 -1.3403  0.4680
 2471SOL     OW18871   3.874   3.400   8.698  0.0870  0.1829 -0.4427
 2471SOL    HW118872   3.948   3.388   8.638 -0.4910  2.7581 -1.6368
 2471SOL    HW218873   3.918   3.462   8.756  0.3079  0.0239 -0.4412
 2472SOL     OW18874   0.513   1.803   3.740  0.3410  0.5773  0.1639
 2472SOL    HW118875   0.548   1.791   3.651 -0.7228 -3.0851  0.2656
 2472SOL    HW218876   0.593   1.776   3.786  0.1685 -1.0520 -0.5106
 2473SOL     OW18877   2.083   0.134   5.721  0.6709 -0.1153 -0.1435
 2473SOL    HW118878   2.108   0.221   5.753  0.0235  0.0806 -0.1827
 2473SOL    HW218879   2.154   0.072   5.739  1.2893  0.7264  0.3444
 2474SOL     OW18880   4.200   1.210   8.982 -0.1973  0.1609  0.1174
 2474SOL    HW118881   4.108   1.229   8.968  0.1183 -0.3433 -2.6280
 2474SOL    HW218882   4.213   1.231   9.074  0.6852  4.2594 -0.9419
 2475SOL     OW18883   3.167   0.695   2.931 -0.4043  0.3000 -0.1412
 2475SOL    HW118884   3.179   0.641   2.853  0.9406  0.6140 -0.1502
 2475SOL    HW218885   3.089   0.661   2.976 -1.2772  0.7924 -1.2802
 2476SOL     OW18886   3.129   0.737   3.694  0.3708 -0.2140 -0.2659
 2476SOL    HW118887   3.224   0.726   3.689  0.6311  1.1540  1.6288
 2476SOL    HW218888   3.105   0.660   3.745  2.0931 -0.2053  0.5554
 2477SOL     OW18889   3.227   4.548  10.958  0.8773 -0.2667  0.5993
 2477SOL    HW118890   3.189   4.469  10.921  0.1887 -0.1597  1.0866
 2477SOL    HW218891   3.292   4.516  11.020  3.7663  1.0113 -1.7406
 2478SOL     OW18892   2.675   1.274   5.007 -0.3825 -0.5626  0.2049
 2478SOL    HW118893   2.719   1.319   5.078 -0.5696  1.4368 -0.9447
 2478SOL    HW218894   2.692   1.334   4.934 -2.7445 -1.4842 -1.1205
 2479SOL     OW18895   1.308   1.990   3.534 -0.3132  0.2693  0.1758
 2479SOL    HW118896   1.256   1.934   3.591 -0.0578 -0.4316 -0.2822
 2479SOL    HW218897   1.242   2.003   3.466 -1.6236  2.8434  1.9465
 2480SOL     OW18898   0.675   3.765   8.279 -0.0169 -0.4118  0.3004
 2480SOL    HW118899   0.673   3.669   8.277 -0.7735 -0.3716 -1.0626
 2480SOL    HW218900   0.692   3.780   8.372  2.4178  1.5223 -0.4767
 2481SOL     OW18901   1.061   4.242   0.700 -0.1377 -0.0252  0.1616
 2481SOL    HW118902   1.073   4.196   0.617  0.4850  0.3411  0.0520
 2481SOL    HW218903   1.028   4.328   0.674  2.7611  1.6221  1.9058
 2482SOL     OW18904   0.997   1.457   1.558 -0.6704  0.2373  0.2304
 2482SOL    HW118905   0.934   1.387   1.544 -0.7344 -0.0444  1.9071
 2482SOL    HW218906   1.006   1.494   1.470  0.4009  1.3945  0.8244
 2483SOL     OW18907   0.804   3.516   8.193 -0.4285 -0.4231  0.3955
 2483SOL    HW118908   0.872   3.451   8.178 -0.0828 -0.0857  0.5104
 2483SOL    HW218909   0.764   3.491   8.276  1.2628 -0.0352  1.3277
 2484SOL     OW18910   0.815   1.272   4.954 -0.0304 -0.1279 -0.6255
 2484SOL    HW118911   0.819   1.367   4.952 -0.3180 -0.1415 -2.3351
 2484SOL    HW218912   0.883   1.256   4.888  1.5491  1.0904  0.7358
 2485SOL     OW18913   3.586   3.090   5.361  0.2207  0.1063  0.6932
 2485SOL    HW118914   3.556   3.133   5.281  0.5087  0.6112  0.8591
 2485SOL    HW218915   3.499   3.078   5.399 -0.3057 -2.8746 -1.4853
 2486SOL     OW18916   0.491   2.380  10.416  0.0568 -0.2308  0.5062
 2486SOL    HW118917   0.572   2.427  10.398 -1.4380  1.1667 -2.6623
 2486SOL    HW218918   0.434   2.417  10.348 -1.1674 -0.0384  1.6382
 2487SOL     OW18919   0.390   0.986   3.629  0.3420  0.1435 -0.1544
 2487SOL    HW118920   0.348   0.998   3.544 -1.0129  0.9111  0.6155
 2487SOL    HW218921   0.476   0.960   3.597 -0.0266 -1.0291 -0.1791
 2488SOL     OW18922   1.446   4.675   5.168  0.0496  0.1612 -0.2271
 2488SOL    HW118923   1.364   4.637   5.200  0.7861 -0.9926  0.2663
 2488SOL    HW218924   1.469   0.009   5.240  0.1766  1.2852 -1.1851
 2489SOL     OW18925   1.439   2.232   0.305 -0.4069  0.0685  0.3047
 2489SOL    HW118926   1.498   2.215   0.378 -0.8619  1.5942  1.0375
 2489SOL    HW218927   1.394   2.313   0.328  0.1295  0.3522  0.3372
 2490SOL     OW18928   2.561   0.296   7.598 -0.5748 -0.2070 -0.4679
 2490SOL    HW118929   2.565   0.276   7.691  0.4587  0.9182 -0.2740
 2490SOL    HW218930   2.535   0.209   7.566 -2.2399 -0.7600  2.3816
 2491SOL     OW18931   0.016   1.443   7.967  0.0837  0.1912 -0.3628
 2491SOL    HW118932   0.085   1.377   7.969  0.5418  0.6420 -1.2851
 2491SOL    HW218933   0.057   1.508   8.024 -0.9344 -0.2992  0.9567
 2492SOL     OW18934   1.765   3.147  17.081 -0.7717  0.3905  0.1853
 2492SOL    HW118935   1.735   3.137  17.171  1.5562  3.3763  1.2990
 2492SOL    HW218936   1.823   3.071  17.071 -1.9834 -0.5897  0.6622
 2493SOL     OW18937   3.356   0.430   1.357 -0.6105 -0.0024  0.0948
 2493SOL    HW118938   3.268   0.421   1.393 -0.8655  0.2707 -0.4663
 2493SOL    HW218939   3.342   0.475   1.274 -0.8824 -2.5115 -1.1879
 2494SOL     OW18940   1.439   2.228   5.595  0.3526  0.0860  0.1440
 2494SOL    HW118941   1.356   2.190   5.623 -0.9757  3.1071  0.2739
 2494SOL    HW218942   1.489   2.216   5.676  1.9173  1.4373 -0.6263
 2495SOL     OW18943   1.838   2.821  13.060  0.2635 -0.4662 -0.4129
 2495SOL    HW118944   1.771   2.761  13.025  0.4356  1.5327 -4.1542
 2495SOL    HW218945   1.886   2.848  12.982 -2.9641 -1.7235 -2.8245
 2496SOL     OW18946   3.655   0.163   4.366 -0.0773 -0.3123 -0.1227
 2496SOL    HW118947   3.736   0.119   4.339 -0.2523 -0.1644 -0.8704
 2496SOL    HW218948   3.642   0.117   4.449  0.0906 -1.4239 -0.7076
 2497SOL     OW18949   0.510   1.207   8.630 -0.6393  0.2536  0.0204
 2497SOL    HW118950   0.456   1.132   8.606 -1.0835  0.4296  0.4779
 2497SOL    HW218951   0.441   1.273   8.632  0.2592  1.1032  2.8564
 2498SOL     OW18952   4.521   4.558  16.391  0.6698  0.4573 -0.1360
 2498SOL    HW118953   4.426   4.547  16.398  0.5465  0.0161 -2.4439
 2498SOL    HW218954   4.539   4.505  16.313  1.4260  1.2762 -0.5161
 2499SOL     OW18955   2.309   3.977   6.199 -0.2655  0.1602  0.3491
 2499SOL    HW118956   2.341   3.993   6.110  0.7257 -2.6877  0.1979
 2499SOL    HW218957   2.270   3.890   6.189 -0.0391  0.1298 -0.2659
 2500SOL     OW18958   0.933   4.061  12.877  0.0710  0.1586  0.6880
 2500SOL    HW118959   0.964   3.983  12.924  0.7850  0.3527  0.5452
 2500SOL    HW218960   0.919   4.027  12.789 -0.6691  0.7112  0.6000
 2501SOL     OW18961   0.859   4.617   7.384 -0.0002  0.4452  0.1241
 2501SOL    HW118962   0.777   4.586   7.422 -0.2642  0.9986  0.0106
 2501SOL    HW218963   0.820   4.692   7.339  2.8851  1.7812 -0.1902
 2502SOL     OW18964   3.168   3.330   8.128 -0.1422 -0.1759  0.0195
 2502SOL    HW118965   3.097   3.352   8.189  0.8814  1.8956  0.4532
 2502SOL    HW218966   3.224   3.286   8.192  1.0300  2.4736  0.7983
 2503SOL     OW18967   0.748   1.699   8.588 -0.3236 -0.1541 -0.1617
 2503SOL    HW118968   0.688   1.675   8.517  2.1830 -2.5218 -1.4804
 2503SOL    HW218969   0.819   1.686   8.525 -0.0930  0.7752 -0.0907
 2504SOL     OW18970   1.545   0.558   4.241  0.1051 -0.4892 -0.3009
 2504SOL    HW118971   1.507   0.646   4.245 -2.5076 -1.6757  1.0401
 2504SOL    HW218972   1.470   0.507   4.210 -0.5993  0.4154 -0.0804
 2505SOL     OW18973   2.351   4.166  14.491 -0.5627  0.0596 -0.0036
 2505SOL    HW118974   2.373   4.074  14.501 -4.2768 -0.5126  2.9460
 2505SOL    HW218975   2.439   4.196  14.469 -0.2686 -0.8180 -0.0034
 2506SOL     OW18976   0.113   1.625  12.503  0.0708 -0.7423  0.2741
 2506SOL    HW118977   0.105   1.635  12.598  0.5763 -1.4389  0.3900
 2506SOL    HW218978   0.207   1.609  12.498  0.2912  0.7976 -0.5545
 2507SOL     OW18979   2.802   0.605  10.666 -0.1323 -0.4335 -0.1320
 2507SOL    HW118980   2.776   0.619  10.756 -0.1100  2.3680 -0.5509
 2507SOL    HW218981   2.753   0.675  10.624  0.6816  0.3528  0.2347
 2508SOL     OW18982   1.746   0.980   6.446 -0.0307 -0.0701  0.0722
 2508SOL    HW118983   1.770   0.976   6.353  0.1905 -1.3384  0.1839
 2508SOL    HW218984   1.813   1.047   6.462 -1.3882  0.4001  3.6249
 2509SOL     OW18985   0.566   2.965   5.022 -0.0346 -0.4250  0.1111
 2509SOL    HW118986   0.471   2.962   5.035  0.2681 -1.4169  2.1750
 2509SOL    HW218987   0.591   2.892   5.079  1.7596 -0.9624 -1.3761
 2510SOL     OW18988   3.008   0.563   4.194 -0.0599 -0.0199 -0.1350
 2510SOL    HW118989   2.956   0.604   4.263 -1.0248 -0.1548 -0.7749
 2510SOL    HW218990   3.097   0.590   4.213 -0.4542  1.7252 -0.8042
 2511SOL     OW18991   1.787   3.044   4.145 -0.1495 -0.1787 -0.0123
 2511SOL    HW118992   1.788   2.988   4.222 -0.3083 -1.1231 -0.7017
 2511SOL    HW218993   1.820   3.118   4.197 -0.6218 -1.0949  1.5971
 2512SOL     OW18994   4.558   1.200   9.076 -0.2066  0.0572 -0.4769
 2512SOL    HW118995   4.570   1.294   9.092 -0.5262  0.1375 -0.7019
 2512SOL    HW218996   4.546   1.198   8.981 -1.7473  1.3873 -0.3025
 2513SOL     OW18997   1.044   0.699  17.700  0.1485  0.1061 -0.1657
 2513SOL    HW118998   1.096   0.623  17.677  0.8928  1.0498 -1.6321
 2513SOL    HW218999   0.971   0.679  17.642 -0.3447  0.0652  0.4716
 2514SOL     OW19000   4.280   2.719   7.751 -0.1354  0.3460  0.1351
 2514SOL    HW119001   4.191   2.752   7.740  0.6584  2.4133 -0.1333
 2514SOL    HW219002   4.273   2.641   7.806  2.1047  0.1486  0.1544
 2515SOL     OW19003   0.770   3.624   6.235  0.5653 -0.2947 -0.2268
 2515SOL    HW119004   0.827   3.646   6.308 -1.8890  0.3752  1.4668
 2515SOL    HW219005   0.746   3.545   6.284 -1.4090  0.0594 -0.6362
 2516SOL     OW19006   2.055   2.803  17.313 -0.0821 -0.1292  0.3785
 2516SOL    HW119007   2.127   2.782  17.254  1.8210 -0.6642  2.9031
 2516SOL    HW219008   2.043   2.896  17.294  1.6928 -0.1529 -0.8222
 2517SOL     OW19009   2.180   4.482   9.403 -0.3922 -0.3391  0.0437
 2517SOL    HW119010   2.189   4.396   9.362 -1.3008 -0.6981  0.5719
 2517SOL    HW219011   2.211   4.459   9.491 -0.6281  0.9174  0.4521
 2518SOL     OW19012   4.667   4.463   0.686  0.0518 -0.3758 -0.0670
 2518SOL    HW119013   0.017   4.466   0.627  1.8326  1.1434  2.2389
 2518SOL    HW219014   4.594   4.469   0.625  0.4375  0.4479 -0.4417
 2519SOL     OW19015   1.548   1.190   3.504  1.1458  0.2237 -0.4069
 2519SOL    HW119016   1.586   1.175   3.417  1.9483 -0.7790  0.1116
 2519SOL    HW219017   1.616   1.158   3.564 -0.4518 -1.0147  0.7325
 2520SOL     OW19018   1.967   2.200   7.097  0.2240 -0.0694 -0.3825
 2520SOL    HW119019   1.938   2.206   7.188  2.0501  0.9907  0.1299
 2520SOL    HW219020   2.016   2.118   7.098  1.4772  0.6868  0.8474
 2521SOL     OW19021   4.072   0.495  10.205  0.9328  0.0365 -0.5907
 2521SOL    HW119022   4.109   0.434  10.269  1.2177  0.6879 -0.1315
 2521SOL    HW219023   4.148   0.532  10.161  0.6871  3.4080  1.8252
 2522SOL     OW19024   2.459   4.021   1.176 -0.2235 -0.0394  0.0788
 2522SOL    HW119025   2.525   4.042   1.109 -0.7011 -0.0566 -0.3979
 2522SOL    HW219026   2.438   3.930   1.156 -1.4853  0.5861 -1.4391
 2523SOL     OW19027   0.640   0.380   3.054  0.3081  0.2318 -0.7314
 2523SOL    HW119028   0.649   0.306   2.994  0.1323 -0.7990  0.5328
 2523SOL    HW219029   0.547   0.403   3.045  0.7462  1.9554 -1.0171
 2524SOL     OW19030   0.928   3.715   8.524 -0.1817  0.1758 -0.1057
 2524SOL    HW119031   1.003   3.662   8.497 -0.9959 -1.8146  1.6032
 2524SOL    HW219032   0.939   3.789   8.463  0.7367  1.8186  2.0345
 2525SOL     OW19033   1.405   0.689   5.351  0.9397  0.0901 -0.5373
 2525SOL    HW119034   1.446   0.775   5.352 -1.5893  1.2951 -1.8432
 2525SOL    HW219035   1.395   0.664   5.259 -0.2578  0.8161 -0.5940
 2526SOL     OW19036   2.095   0.212   4.730 -0.8427 -0.1573  0.2065
 2526SOL    HW119037   2.049   0.244   4.807  0.5179  0.8933  0.5844
 2526SOL    HW219038   2.166   0.161   4.768 -0.0735  0.6847 -0.0972
 2527SOL     OW19039   2.968   3.438   3.563 -0.1140  0.0285 -0.0255
 2527SOL    HW119040   2.968   3.439   3.468  2.0124  0.6407 -0.0281
 2527SOL    HW219041   2.974   3.343   3.563 -1.8502 -0.0706 -0.6765
 2528SOL     OW19042   4.592   0.775   4.881  0.1295  0.0065  0.0941
 2528SOL    HW119043   4.654   0.708   4.909 -1.6110 -1.4827  0.4370
 2528SOL    HW219044   4.508   0.734   4.901  0.0541 -0.3114 -0.8620
 2529SOL     OW19045   1.083   2.941   1.966 -0.4772  0.3439  0.3140
 2529SOL    HW119046   1.093   3.036   1.974  0.6353  0.1868  0.8094
 2529SOL    HW219047   1.154   2.910   1.910 -2.4281 -1.8024 -0.9546
 2530SOL     OW19048   0.524   1.734   5.301  0.3288  0.1436 -0.0107
 2530SOL    HW119049   0.516   1.731   5.397  1.1779  1.8963  0.1158
 2530SOL    HW219050   0.586   1.665   5.279 -0.0767 -0.4435  0.6916
 2531SOL     OW19051   2.900   2.714   5.755  0.2941 -0.1962 -0.1579
 2531SOL    HW119052   2.992   2.696   5.768  0.8846  1.8485 -1.4055
 2531SOL    HW219053   2.867   2.625   5.765 -0.4057 -0.0138 -0.8141
 2532SOL     OW19054   3.373   1.408   7.122  0.5917  0.2082  0.9117
 2532SOL    HW119055   3.425   1.366   7.191 -0.2635  1.1198  2.1087
 2532SOL    HW219056   3.370   1.501   7.145 -2.7977 -0.2791  2.4266
 2533SOL     OW19057   3.752   3.863   2.170 -0.0752  0.6573  0.2121
 2533SOL    HW119058   3.828   3.911   2.203  2.6543 -2.1733 -1.9426
 2533SOL    HW219059   3.735   3.915   2.091  2.1187 -1.4957 -1.6853
 2534SOL     OW19060   4.556   0.113  17.085  0.1763  0.5989 -0.0381
 2534SOL    HW119061   4.494   0.047  17.054 -2.2340  2.6216  0.4381
 2534SOL    HW219062   4.519   0.143  17.168 -0.7736 -0.5488 -0.0499
 2535SOL     OW19063   2.770   1.321  10.284  0.1105 -0.0362 -1.2684
 2535SOL    HW119064   2.696   1.286  10.235 -0.5306  0.0214 -0.3527
 2535SOL    HW219065   2.780   1.390  10.218  1.7627  2.2004  1.2953
 2536SOL     OW19066   3.466   0.979   6.183  0.3092  0.0606 -0.2138
 2536SOL    HW119067   3.438   0.936   6.102 -2.9331 -0.8482  1.3878
 2536SOL    HW219068   3.536   0.919   6.206  1.3863  1.2376 -0.4315
 2537SOL     OW19069   4.038   3.080   4.400 -0.5804 -0.0109  0.1030
 2537SOL    HW119070   4.099   3.051   4.332 -1.0842  0.0997 -0.4047
 2537SOL    HW219071   4.081   3.040   4.475 -2.3532  1.4731  1.8984
 2538SOL     OW19072   0.175   4.141  10.614  0.1232 -0.4004  0.2144
 2538SOL    HW119073   0.195   4.055  10.651  2.4610  0.7090  1.5737
 2538SOL    HW219074   0.155   4.123  10.523 -3.9499 -1.4794  1.3209
 2539SOL     OW19075   4.371   3.391   4.917 -0.2581 -0.4620 -0.5362
 2539SOL    HW119076   4.315   3.314   4.907 -1.8621  0.4757  1.3107
 2539SOL    HW219077   4.455   3.347   4.929 -0.1855 -0.4356 -0.9293
 2540SOL     OW19078   1.436   1.116  15.043  0.3596  0.0407 -0.0700
 2540SOL    HW119079   1.418   1.142  15.134 -1.6031 -3.6384  0.6152
 2540SOL    HW219080   1.457   1.199  15.003 -1.0103  0.6324  0.4162
 2541SOL     OW19081   1.122   2.177   0.345  0.0608  0.1036 -0.0629
 2541SOL    HW119082   1.216   2.182   0.363 -0.0650 -2.5326  1.3761
 2541SOL    HW219083   1.116   2.236   0.270 -4.5009  1.1362  1.1015
 2542SOL     OW19084   0.406   2.225   2.306 -0.3497 -0.0407 -0.3219
 2542SOL    HW119085   0.391   2.320   2.298 -0.3636  0.0000  0.1584
 2542SOL    HW219086   0.464   2.199   2.235 -1.5719 -2.8080 -0.3003
 2543SOL     OW19087   4.432   1.504   3.311 -0.3699  0.1968  0.0775
 2543SOL    HW119088   4.496   1.484   3.379  0.4201 -0.6485 -0.9016
 2543SOL    HW219089   4.350   1.509   3.358 -1.2912 -1.1645 -1.3488
 2544SOL     OW19090   1.272   4.229   7.325 -0.0519  0.0434  0.0676
 2544SOL    HW119091   1.325   4.187   7.392 -0.2080 -1.0216 -0.4734
 2544SOL    HW219092   1.201   4.168   7.304 -0.5370  1.1986 -1.6227
 2545SOL     OW19093   3.983   2.986   7.759 -0.0268  0.1532  0.0929
 2545SOL    HW119094   4.047   3.055   7.744  0.9070 -0.5587  0.8501
 2545SOL    HW219095   3.923   3.012   7.689  1.6889  0.1219 -1.3691
 2546SOL     OW19096   2.471   0.958   4.785 -0.0608  0.5189  0.0641
 2546SOL    HW119097   2.455   0.864   4.788 -0.2821  0.5851  1.0350
 2546SOL    HW219098   2.437   0.974   4.697 -0.5813 -0.3404  0.1063
 2547SOL     OW19099   0.932   2.901   7.720  0.2555  0.6084 -0.5621
 2547SOL    HW119100   0.910   2.868   7.808  1.1715 -0.1762 -0.6239
 2547SOL    HW219101   0.869   2.970   7.704 -1.2209 -1.1385 -2.3375
 2548SOL     OW19102   3.092   1.081   3.867  0.5691 -0.2337  0.0564
 2548SOL    HW119103   3.099   1.159   3.922 -2.6596  0.0734  0.0582
 2548SOL    HW219104   3.167   1.090   3.808  0.7279 -0.9987  0.1429
 2549SOL     OW19105   1.799   3.348  17.510  0.3365 -0.0555  0.3292
 2549SOL    HW119106   1.865   3.414  17.488  0.4612  0.3628  1.9798
 2549SOL    HW219107   1.807   3.359  17.604 -1.3386  0.9155  0.3660
 2550SOL     OW19108   2.844   2.241   1.186  0.0609 -0.0552 -0.9057
 2550SOL    HW119109   2.865   2.152   1.159  1.0911  0.3200 -1.3360
 2550SOL    HW219110   2.829   2.229   1.280  1.6408 -1.1879 -0.7992
 2551SOL     OW19111   1.091   1.057  16.027 -0.4208 -0.1867  0.1232
 2551SOL    HW119112   1.013   1.065  15.972 -0.0305 -2.4350 -0.7784
 2551SOL    HW219113   1.053   1.036  16.113 -0.7963  1.2860  0.3056
 2552SOL     OW19114   0.664   4.393   7.144 -0.6995 -0.6398 -0.2542
 2552SOL    HW119115   0.596   4.460   7.152  1.3385  1.2627  1.1316
 2552SOL    HW219116   0.653   4.347   7.227  2.3885 -0.5921  0.1681
 2553SOL     OW19117   3.843   4.014   2.835 -0.2534 -0.3592 -0.0443
 2553SOL    HW119118   3.908   4.084   2.846  1.0356 -1.8487  1.6741
 2553SOL    HW219119   3.851   3.966   2.917 -3.3671 -2.0516 -0.7117
 2554SOL     OW19120   1.991   2.306   4.734  0.0294 -0.7700 -0.3008
 2554SOL    HW119121   2.068   2.301   4.790  0.1884 -3.7791 -0.7464
 2554SOL    HW219122   2.014   2.385   4.686 -0.0885 -1.7319 -1.9543
 2555SOL     OW19123   1.963   3.093   2.839 -0.1365 -0.2036 -0.0228
 2555SOL    HW119124   2.001   3.022   2.891  1.0371  1.2225  1.0247
 2555SOL    HW219125   2.028   3.099   2.770  0.6630  0.4814  0.7977
 2556SOL     OW19126   2.410   3.194  10.460  0.1947  0.3653 -0.3156
 2556SOL    HW119127   2.488   3.248  10.471 -1.0500  2.1425 -0.2628
 2556SOL    HW219128   2.333   3.238  10.495 -1.2323  0.4969 -3.6242
 2557SOL     OW19129   2.834   3.194   7.050 -0.2570  0.6797  0.4747
 2557SOL    HW119130   2.797   3.106   7.048  2.1223 -0.3552  2.0280
 2557SOL    HW219131   2.912   3.187   6.996 -1.3505 -1.7262 -0.7557
 2558SOL     OW19132   3.947   0.215   7.064  0.1421 -0.6740  0.1409
 2558SOL    HW119133   4.001   0.164   7.124 -0.0269  0.6766  1.4690
 2558SOL    HW219134   3.919   0.138   7.015 -1.2750 -1.3772  2.0421
 2559SOL     OW19135   3.119   2.989   7.231  0.0611 -0.6723  0.0115
 2559SOL    HW119136   3.025   2.983   7.214 -0.4421  0.3440  2.5439
 2559SOL    HW219137   3.120   3.045   7.309 -1.1577 -1.8477  0.8575
 2560SOL     OW19138   0.830   2.080   8.075 -0.4239  0.0615  0.1943
 2560SOL    HW119139   0.755   2.092   8.018 -0.7370 -0.9863  0.3948
 2560SOL    HW219140   0.847   2.171   8.101  2.0800 -0.8871  1.9161
 2561SOL     OW19141   0.650   4.004  15.861 -0.6474  0.0712  0.3646
 2561SOL    HW119142   0.629   4.036  15.774  1.5607 -1.2046 -0.6485
 2561SOL    HW219143   0.675   3.913  15.846  0.8274  0.0977  2.7009
 2562SOL     OW19144   0.635   3.368   2.948  0.0012  0.0048  0.5363
 2562SOL    HW119145   0.587   3.447   2.972  0.3340  1.1764 -2.7069
 2562SOL    HW219146   0.716   3.383   2.998 -1.3749 -2.0830  3.3689
 2563SOL     OW19147   3.260   4.231   8.571  0.0666  0.4632  0.6873
 2563SOL    HW119148   3.195   4.288   8.530  0.4950  1.0592  0.8389
 2563SOL    HW219149   3.341   4.266   8.533  0.1082 -0.0286  0.3204
 2564SOL     OW19150   3.835   3.887   8.137  0.4369 -0.3330  0.3486
 2564SOL    HW119151   3.748   3.857   8.111  0.5387 -0.3996  0.0863
 2564SOL    HW219152   3.873   3.802   8.161 -1.0700 -1.0391  0.2348
 2565SOL     OW19153   3.955   0.133  10.134 -0.6637  0.1492  0.1288
 2565SOL    HW119154   3.945   0.189  10.057  0.0090 -0.8690 -0.7031
 2565SOL    HW219155   4.045   0.157  10.154 -0.6378 -1.2927  1.7622
 2566SOL     OW19156   1.577   1.187   6.184 -0.6082 -0.0610  0.0088
 2566SOL    HW119157   1.603   1.215   6.272 -0.1497 -0.2512 -0.0658
 2566SOL    HW219158   1.517   1.258   6.163  0.3829  1.0098  0.7383
 2567SOL     OW19159   3.221   3.557   4.384  0.6521  0.0623  0.5372
 2567SOL    HW119160   3.130   3.532   4.372  0.5453  0.4558  0.5210
 2567SOL    HW219161   3.258   3.515   4.306 -0.8794  0.4684 -0.4121
 2568SOL     OW19162   1.138   1.566  10.155  0.3655  0.0245  0.2689
 2568SOL    HW119163   1.057   1.608  10.181  1.4219  2.0341  0.2843
 2568SOL    HW219164   1.111   1.474  10.155 -0.3096  0.2244  0.5106
 2569SOL     OW19165   0.787   1.329   5.397 -0.8221  0.1171 -0.7645
 2569SOL    HW119166   0.705   1.289   5.369 -0.6640 -1.3742  0.8929
 2569SOL    HW219167   0.768   1.422   5.380  3.0021  0.7110 -1.7442
 2570SOL     OW19168   4.384   3.991   3.663  0.0361  0.3733  0.0828
 2570SOL    HW119169   4.323   4.000   3.736 -1.0093 -0.1150 -0.7238
 2570SOL    HW219170   4.350   3.909   3.626 -4.2846  2.1056  0.3058
 2571SOL     OW19171   4.570   4.021  13.848 -0.2424  0.0805  0.1630
 2571SOL    HW119172   4.507   4.087  13.876  1.2553  0.9011  1.5595
 2571SOL    HW219173   4.576   4.034  13.753 -0.9910 -0.3209  0.0598
 2572SOL     OW19174   1.571   3.406   7.760  0.0953 -0.4898  0.8720
 2572SOL    HW119175   1.663   3.420   7.781  0.5733 -0.3561 -1.3341
 2572SOL    HW219176   1.564   3.427   7.667  1.6431  1.1215  1.1241
 2573SOL     OW19177   2.965   0.630   3.219 -0.5830 -0.3123 -0.1158
 2573SOL    HW119178   3.042   0.596   3.265  0.3144 -1.3909 -2.3845
 2573SOL    HW219179   2.978   0.724   3.230 -1.5153  0.1018 -2.6544
 2574SOL     OW19180   4.696   2.041  12.065 -0.0155 -0.2843 -0.3485
 2574SOL    HW119181   0.042   2.094  12.030  0.1011  0.6047  1.2322
 2574SOL    HW219182   0.007   2.001  12.144 -0.3108 -0.9337 -0.5447
 2575SOL     OW19183   4.706   1.073   5.579  0.3090 -0.3896  0.0666
 2575SOL    HW119184   4.688   1.031   5.495  1.5538 -1.1179  0.1640
 2575SOL    HW219185   4.633   1.135   5.573  0.1230 -0.4028  2.3941
 2576SOL     OW19186   1.405   3.005   7.372  0.6213  0.0406 -0.0170
 2576SOL    HW119187   1.402   2.911   7.353  0.5206 -0.3467  1.8983
 2576SOL    HW219188   1.370   3.000   7.461  0.8497  2.2746  0.1911
 2577SOL     OW19189   0.062   2.679   5.183 -0.1289  0.3715 -0.1836
 2577SOL    HW119190   4.711   2.633   5.217 -0.0156  0.5412  0.3007
 2577SOL    HW219191   0.131   2.617   5.204  0.2817  0.5322 -1.0252
 2578SOL     OW19192   3.545   2.540   4.211 -0.5991 -0.6766  0.2641
 2578SOL    HW119193   3.516   2.463   4.260 -0.3007 -1.1415 -0.2914
 2578SOL    HW219194   3.638   2.546   4.233  0.0448 -0.8223 -2.4565
 2579SOL     OW19195   0.397   3.450   6.288 -0.0225  0.1991 -0.0577
 2579SOL    HW119196   0.427   3.488   6.206 -3.8902  0.0369 -1.5343
 2579SOL    HW219197   0.318   3.500   6.307 -1.0812 -2.5938  2.8192
 2580SOL     OW19198   3.597   3.369   6.134  0.3084  0.7578 -0.3751
 2580SOL    HW119199   3.603   3.432   6.063 -1.2802 -1.0802 -2.1440
 2580SOL    HW219200   3.508   3.334   6.129 -0.1750  1.7520  1.1796
 2581SOL     OW19201   1.483   2.373   4.777 -0.4810  0.3310  0.0821
 2581SOL    HW119202   1.400   2.406   4.741 -0.8217  0.4397  0.9665
 2581SOL    HW219203   1.532   2.455   4.786 -4.2287  2.6019  0.1700
 2582SOL     OW19204   0.116   0.779   5.845 -0.3873 -0.4785 -0.2331
 2582SOL    HW119205   0.020   0.781   5.840 -0.3199  2.8979  0.3126
 2582SOL    HW219206   0.127   0.829   5.925 -0.5857 -1.6757  0.5491
 2583SOL     OW19207   0.777   1.007   1.607 -0.5924 -0.5196 -0.5018
 2583SOL    HW119208   0.818   0.922   1.590 -0.0866 -0.6269  1.2201
 2583SOL    HW219209   0.826   1.027   1.687 -2.5381  0.2012  0.5356
 2584SOL     OW19210   2.503   1.411   2.462 -0.5000 -0.1525  0.4260
 2584SOL    HW119211   2.456   1.439   2.541  1.5509  1.8418  0.9356
 2584SOL    HW219212   2.460   1.328   2.442 -2.4553  0.5665  1.5829
 2585SOL     OW19213   2.374   3.281   4.589 -0.9844 -0.0119 -0.5180
 2585SOL    HW119214   2.294   3.259   4.635 -1.7100  3.9543  0.1424
 2585SOL    HW219215   2.402   3.190   4.583  1.6449  0.9408 -3.3002
 2586SOL     OW19216   0.105   1.758   8.872  0.2384 -0.3082 -0.3108
 2586SOL    HW119217   0.058   1.841   8.869 -1.8306 -1.4780 -0.3148
 2586SOL    HW219218   0.188   1.792   8.904  1.1357 -0.2663 -2.6723
 2587SOL     OW19219   4.255   2.601   4.279  0.0768  0.1759  0.2238
 2587SOL    HW119220   4.253   2.660   4.204  0.6353 -0.5138 -0.3352
 2587SOL    HW219221   4.347   2.576   4.282 -0.0546 -0.2683  0.6335
 2588SOL     OW19222   0.118   2.245   5.478 -0.0096  0.1410  0.2065
 2588SOL    HW119223   0.102   2.247   5.573 -0.0752  1.5864  0.1757
 2588SOL    HW219224   0.210   2.221   5.476  0.1017  0.7751 -2.0722
 2589SOL     OW19225   4.229   3.135   7.906 -0.0692  0.3105 -0.4929
 2589SOL    HW119226   4.196   3.092   7.985 -1.2681  2.0311 -0.0376
 2589SOL    HW219227   4.301   3.180   7.951 -0.9993  1.9922 -0.6760
 2590SOL     OW19228   0.546   4.230   3.850  0.0233  0.3151  0.1523
 2590SOL    HW119229   0.515   4.289   3.782 -3.7427 -0.3805  1.2829
 2590SOL    HW219230   0.530   4.141   3.819  0.5345  0.7151 -1.2265
 2591SOL     OW19231   3.274   0.381   4.564 -0.0202 -0.0233 -0.5156
 2591SOL    HW119232   3.301   0.321   4.495 -2.4057 -1.3566 -0.2989
 2591SOL    HW219233   3.216   0.437   4.511  0.0290 -1.0467 -1.6531
 2592SOL     OW19234   1.352   3.765   5.720 -0.5316  0.5132  0.1666
 2592SOL    HW119235   1.342   3.698   5.652 -0.8992 -1.3124  2.0300
 2592SOL    HW219236   1.335   3.714   5.799 -1.0148  1.3372  0.5952
 2593SOL     OW19237   1.918   0.471  15.525  0.3094  0.0928 -0.6878
 2593SOL    HW119238   1.979   0.419  15.472 -0.7859 -1.5965 -0.2885
 2593SOL    HW219239   1.977   0.500  15.595 -0.9745 -1.3768  0.9983
 2594SOL     OW19240   3.591   0.357   9.037 -0.2174 -0.2381 -0.1469
 2594SOL    HW119241   3.532   0.284   9.056  1.0096 -1.2315 -0.1798
 2594SOL    HW219242   3.580   0.406   9.118  0.0923  1.8494 -1.3617
 2595SOL     OW19243   0.518   3.884   2.120  0.0849 -0.3257  0.4832
 2595SOL    HW119244   0.486   3.809   2.170  3.7440 -0.3093  2.8302
 2595SOL    HW219245   0.612   3.881   2.137  0.2637 -2.0924 -0.8632
 2596SOL     OW19246   0.041   0.038   8.466 -0.4518 -0.1736  0.4016
 2596SOL    HW119247   4.683   0.077   8.495 -1.1283 -0.5279 -1.0236
 2596SOL    HW219248   0.072   0.006   8.550  0.4725  2.0037  0.8740
 2597SOL     OW19249   3.468   4.667   3.763  0.1789 -0.3585  0.3075
 2597SOL    HW119250   3.417   4.725   3.706 -2.8237 -2.0806  1.2858
 2597SOL    HW219251   3.471   4.586   3.713 -1.6978  1.3686 -2.5854
 2598SOL     OW19252   2.036   2.912  14.749 -0.3273 -0.0977  0.7097
 2598SOL    HW119253   2.054   2.965  14.827  2.3138 -0.1196  0.1203
 2598SOL    HW219254   1.984   2.838  14.780 -0.8682 -0.7360 -1.7196
 2599SOL     OW19255   2.966   4.008   7.007 -0.1157  0.2442 -0.0830
 2599SOL    HW119256   2.962   4.104   7.010 -2.4771  0.1043  1.3094
 2599SOL    HW219257   2.877   3.972   7.007  0.7223 -1.7895 -3.2560
 2600SOL     OW19258   3.779   0.325   8.823 -0.1306  0.2861  0.9430
 2600SOL    HW119259   3.706   0.346   8.881  0.2269 -0.6867  1.7527
 2600SOL    HW219260   3.749   0.250   8.772 -0.8991  2.5083 -1.8824
 2601SOL     OW19261   1.690   1.077  14.037 -0.0622  0.5302 -0.2280
 2601SOL    HW119262   1.754   1.113  13.976 -1.3102  2.2896 -0.4923
 2601SOL    HW219263   1.613   1.104  13.987 -0.1352  0.0012 -0.3982
 2602SOL     OW19264   4.162   4.002   5.456  0.1401  0.2030  0.6083
 2602SOL    HW119265   4.247   3.999   5.500  0.2483 -0.7139  0.3354
 2602SOL    HW219266   4.113   4.061   5.513 -0.9012  1.0587 -1.1715
 2603SOL     OW19267   1.904   0.010  13.731  0.3049  0.3770 -0.3208
 2603SOL    HW119268   1.891   4.641  13.728  0.7436  0.2276  2.3284
 2603SOL    HW219269   1.833   0.033  13.791  0.0568  0.0906 -0.5099
 2604SOL     OW19270   4.392   4.442   4.906  0.4643  0.0720 -0.0307
 2604SOL    HW119271   4.303   4.426   4.873  0.9347  0.5292 -1.5188
 2604SOL    HW219272   4.375   4.462   4.998  0.4866 -1.1643  0.2438
 2605SOL     OW19273   2.279   4.191  15.853 -0.1102 -0.4519  0.0451
 2605SOL    HW119274   2.308   4.219  15.766  1.8893  0.7445  1.1090
 2605SOL    HW219275   2.207   4.252  15.869 -0.3901 -0.4478 -1.2152
 2606SOL     OW19276   4.418   4.075   5.523 -0.3243 -0.7559  0.0984
 2606SOL    HW119277   4.405   4.129   5.445  1.5024  1.4580  1.3195
 2606SOL    HW219278   4.415   4.142   5.591 -0.8587 -1.4213  0.7159
 2607SOL     OW19279   3.917   2.932   0.216 -0.6209 -0.2765 -0.0401
 2607SOL    HW119280   3.960   2.951   0.133  0.4480 -1.9486  0.1343
 2607SOL    HW219281   3.843   2.994   0.212 -0.7929 -0.3044  2.2312
 2608SOL     OW19282   3.947   1.494   1.684  0.5353  0.3466  0.0989
 2608SOL    HW119283   4.041   1.498   1.668  0.3197 -1.8976 -1.7814
 2608SOL    HW219284   3.947   1.489   1.780  0.3467 -0.4673  0.0601
 2609SOL     OW19285   3.903   3.509   0.028 -0.9510  0.3988  0.4164
 2609SOL    HW119286   3.984   3.536   0.072 -0.3549 -4.0620  2.0925
 2609SOL    HW219287   3.857   3.496   0.111 -0.3412 -0.1894  0.6662
 2610SOL     OW19288   1.344   3.582   5.504  0.4507  0.0868  0.0583
 2610SOL    HW119289   1.399   3.526   5.449  0.1631 -0.6416  0.5164
 2610SOL    HW219290   1.258   3.560   5.469 -0.6844  0.4134  2.6699
 2611SOL     OW19291   2.151   3.611   2.436 -0.2969 -0.2709  0.0371
 2611SOL    HW119292   2.069   3.635   2.392  1.3701  2.0897 -1.7734
 2611SOL    HW219293   2.113   3.576   2.517  0.1644 -0.8553 -0.0009
 2612SOL     OW19294   2.166   2.754   4.474 -0.2198  0.1440 -0.0323
 2612SOL    HW119295   2.100   2.704   4.425 -1.8516  2.0016  0.2624
 2612SOL    HW219296   2.197   2.793   4.392  0.6281  0.0790  0.2570
 2613SOL     OW19297   4.332   1.429  12.894 -0.0013  0.2639 -0.3118
 2613SOL    HW119298   4.286   1.465  12.819  1.0755  1.3366 -0.4665
 2613SOL    HW219299   4.389   1.504  12.914  2.2074 -1.6191  0.5606
 2614SOL     OW19300   0.881   1.848   3.928 -0.0332  0.3263  0.2870
 2614SOL    HW119301   0.905   1.923   3.982  0.2850  0.5029 -0.1054
 2614SOL    HW219302   0.920   1.864   3.843 -0.9995 -1.0308 -0.4214
 2615SOL     OW19303   1.620   2.216   3.189 -0.1843 -0.5712 -0.0770
 2615SOL    HW119304   1.671   2.135   3.195  1.5299  0.5837  1.0526
 2615SOL    HW219305   1.658   2.242   3.105  1.7762  1.1777  1.3444
 2616SOL     OW19306   0.235   4.590   3.755 -0.3091 -0.5619  0.2321
 2616SOL    HW119307   0.187   4.572   3.835 -1.0626 -0.0613 -0.1120
 2616SOL    HW219308   0.323   4.603   3.790  0.0049 -0.9962 -0.3987
 2617SOL     OW19309   3.935   3.100   2.199 -0.6887 -0.2477 -0.2558
 2617SOL    HW119310   3.944   3.012   2.236  1.1127 -0.6984 -1.7568
 2617SOL    HW219311   3.845   3.090   2.171 -0.7499 -2.1944  0.6499
 2618SOL     OW19312   0.747   4.696   4.181  0.2709  0.4136  0.3997
 2618SOL    HW119313   0.662   4.720   4.217  0.0923 -1.6344  1.3143
 2618SOL    HW219314   0.759   4.608   4.215 -2.3093 -0.9469 -2.2255
 2619SOL     OW19315   0.028   2.197   6.599  0.2193 -0.0917  0.1772
 2619SOL    HW119316   4.690   2.256   6.557 -0.2580  1.2676  2.7626
 2619SOL    HW219317   0.095   2.264   6.612  0.2974 -0.1986  0.3313
 2620SOL     OW19318   2.484   0.376  16.872 -0.3311 -0.2514 -0.6003
 2620SOL    HW119319   2.484   0.437  16.946  3.6995  0.7328 -1.4329
 2620SOL    HW219320   2.575   0.345  16.875 -0.5895 -0.9839 -0.3863
 2621SOL     OW19321   0.293   3.332   7.381  0.3702  0.0989 -0.0901
 2621SOL    HW119322   0.309   3.345   7.474 -0.8454 -0.3292  0.1845
 2621SOL    HW219323   0.329   3.417   7.354 -1.2139  0.2992 -1.5746
 2622SOL     OW19324   3.835   1.452   4.872  0.2957 -0.1633 -0.1181
 2622SOL    HW119325   3.793   1.366   4.863  1.1736 -0.5851 -0.1876
 2622SOL    HW219326   3.832   1.454   4.967  0.1357  1.6466 -0.1640
 2623SOL     OW19327   1.115   1.126  17.692  0.1616  0.8287  0.4971
 2623SOL    HW119328   1.035   1.076   0.006 -0.4208  1.6782  0.2478
 2623SOL    HW219329   1.174   1.052   0.004  3.2240  3.0416 -0.7227
 2624SOL     OW19330   2.776   2.444  14.425 -0.6511 -0.1767 -0.0414
 2624SOL    HW119331   2.834   2.520  14.419 -0.8807  0.0490  0.6094
 2624SOL    HW219332   2.839   2.372  14.414 -0.5767 -0.2967  1.2004
 2625SOL     OW19333   3.002   3.593   0.375 -0.4928  0.2588  0.1049
 2625SOL    HW119334   2.941   3.520   0.384  1.0033 -0.8439  1.4252
 2625SOL    HW219335   2.993   3.639   0.458 -1.8679 -0.6395  0.4349
 2626SOL     OW19336   3.460   4.497   3.563 -0.1504  0.6755  0.4678
 2626SOL    HW119337   3.522   4.531   3.498 -0.0328 -2.7797 -1.2089
 2626SOL    HW219338   3.385   4.499   3.504  1.1600  0.1652 -1.2128
 2627SOL     OW19339   2.106   3.167   2.622 -0.6437  0.1571 -0.1806
 2627SOL    HW119340   2.146   3.227   2.559  0.9903 -0.5680  0.1544
 2627SOL    HW219341   2.120   3.208   2.708 -0.3520 -0.5379  0.1020
 2628SOL     OW19342   4.693   2.050   4.667 -0.0879 -0.3266  0.1669
 2628SOL    HW119343   4.611   2.057   4.715 -1.4155 -1.1558 -1.9434
 2628SOL    HW219344   0.030   2.098   4.721 -0.8473  2.0103 -1.0512
 2629SOL     OW19345   2.798   0.982  17.385 -0.1513 -0.3921  0.0654
 2629SOL    HW119346   2.801   1.049  17.317  2.8507 -2.2151 -1.5976
 2629SOL    HW219347   2.791   0.901  17.334 -3.0224  0.2968 -0.6412
 2630SOL     OW19348   2.591   3.327   6.930  0.1928  0.1206  0.2777
 2630SOL    HW119349   2.679   3.320   6.966 -0.2639 -2.7318  0.8446
 2630SOL    HW219350   2.562   3.416   6.946 -0.1569  0.0382  0.1030
 2631SOL     OW19351   2.196   1.996   6.891 -0.2693  0.3103 -0.3290
 2631SOL    HW119352   2.105   1.982   6.864  0.2251 -1.9285 -0.8828
 2631SOL    HW219353   2.232   2.060   6.830 -3.1430  2.5259  0.3426
 2632SOL     OW19354   3.201   2.595  16.735  0.4691 -0.1978  0.7350
 2632SOL    HW119355   3.290   2.630  16.736  0.4263 -0.0780  0.0941
 2632SOL    HW219356   3.166   2.622  16.820 -0.5867 -1.0732  0.5840
 2633SOL     OW19357   4.593   4.152   5.138 -0.0802  0.0749 -0.3177
 2633SOL    HW119358   4.593   4.206   5.059 -1.5556  0.3386 -0.1302
 2633SOL    HW219359   4.502   4.162   5.164 -0.4977 -2.3566 -0.8838
 2634SOL     OW19360   1.280   2.669   1.999 -0.0656 -0.6507 -0.0688
 2634SOL    HW119361   1.346   2.734   1.977 -0.9431 -0.4619 -2.1770
 2634SOL    HW219362   1.319   2.627   2.075  1.9448 -1.2599 -1.4500
 2635SOL     OW19363   0.599   2.028   3.928  0.1340  1.2192 -0.2490
 2635SOL    HW119364   0.568   1.980   3.852  0.2691 -1.2137  1.2406
 2635SOL    HW219365   0.676   2.070   3.889  1.7382 -1.0267  0.4727
 2636SOL     OW19366   0.030   4.584  10.963  0.3757  0.3326  0.0909
 2636SOL    HW119367   0.120   4.618  10.955  0.4542 -0.1069 -0.8535
 2636SOL    HW219368   0.039   4.524  10.889  0.1038 -0.3493  0.6147
 2637SOL     OW19369   2.411   0.555   1.634  0.0587 -0.5570  0.0600
 2637SOL    HW119370   2.492   0.593   1.598 -1.3397 -1.0763 -3.6284
 2637SOL    HW219371   2.448   0.493   1.696 -0.3886 -0.6266  0.2543
 2638SOL     OW19372   4.084   1.298   1.441 -0.0092  0.2402  0.0909
 2638SOL    HW119373   4.164   1.255   1.469  0.3653  0.3372 -0.8118
 2638SOL    HW219374   4.101   1.380   1.487  0.1900 -0.4406  1.2020
 2639SOL     OW19375   0.953   0.719   3.764  0.2017 -0.7917 -1.1987
 2639SOL    HW119376   1.003   0.774   3.704  1.3967 -1.8983 -1.2073
 2639SOL    HW219377   1.027   0.686   3.815 -0.8406 -0.3352  0.6012
 2640SOL     OW19378   0.562   2.814  16.709  0.0180  0.2449  0.3115
 2640SOL    HW119379   0.571   2.801  16.803 -3.3935 -1.5299  0.3969
 2640SOL    HW219380   0.495   2.882  16.709  1.6611  1.8519  0.0043
 2641SOL     OW19381   1.978   1.684   3.552  0.1274  0.7172  0.1049
 2641SOL    HW119382   1.936   1.767   3.576  1.9307  2.1759 -1.7059
 2641SOL    HW219383   1.903   1.639   3.514  0.5038  0.7589 -0.6847
 2642SOL     OW19384   3.034   1.495   3.708  0.0564  0.2173  0.3722
 2642SOL    HW119385   3.017   1.589   3.710 -1.9924 -0.1096 -2.0660
 2642SOL    HW219386   3.051   1.466   3.618  2.8398 -2.3546  1.7288
 2643SOL     OW19387   1.262   0.645   0.280  0.2785 -0.2346  0.3839
 2643SOL    HW119388   1.245   0.631   0.373  0.9370 -0.9275  0.4031
 2643SOL    HW219389   1.245   0.557   0.246 -1.4387 -0.3274  1.5250
 2644SOL     OW19390   4.722   2.743   9.003  0.2274 -0.0668 -0.2308
 2644SOL    HW119391   4.639   2.789   8.987  0.0839  0.6995  2.6707
 2644SOL    HW219392   4.718   2.741   9.099  2.2257  0.0122 -0.1634
 2645SOL     OW19393   3.400   2.052   4.336  0.5232  0.0476  0.2520
 2645SOL    HW119394   3.333   2.013   4.280  1.7493  0.7395 -1.7010
 2645SOL    HW219395   3.350   2.052   4.418  1.8593 -0.0943  1.0597
 2646SOL     OW19396   2.155   2.269   6.187 -0.3386 -0.0473 -0.1457
 2646SOL    HW119397   2.097   2.200   6.220 -0.7210 -0.5859 -1.9096
 2646SOL    HW219398   2.178   2.311   6.269 -0.2921  1.3621 -0.8755
 2647SOL     OW19399   1.569   2.814   6.497  0.3377  0.2179  0.3372
 2647SOL    HW119400   1.523   2.732   6.514  1.2578 -0.7570 -1.8666
 2647SOL    HW219401   1.650   2.792   6.544 -1.2814 -2.5326  1.8384
 2648SOL     OW19402   2.374   2.749   5.188 -0.1451 -0.0058 -0.0799
 2648SOL    HW119403   2.451   2.789   5.229 -1.4967  1.0990  1.3601
 2648SOL    HW219404   2.303   2.795   5.234 -1.5163 -1.5290 -0.6909
 2649SOL     OW19405   0.810   4.436   0.745 -0.3772  0.4153  0.1917
 2649SOL    HW119406   0.872   4.432   0.818  0.5908  1.3038 -0.5718
 2649SOL    HW219407   0.830   4.529   0.732  0.2337  0.6440  2.7145
 2650SOL     OW19408   2.517   1.601  16.107 -0.2172 -0.1130 -0.2785
 2650SOL    HW119409   2.496   1.562  16.023  2.3712 -0.9783 -0.5121
 2650SOL    HW219410   2.575   1.530  16.133  0.3126  0.6796  0.6988
 2651SOL     OW19411   0.460   4.719   7.739 -0.1336 -0.3473  0.6668
 2651SOL    HW119412   0.528   4.711   7.805  1.7992 -0.5310 -1.3186
 2651SOL    HW219413   0.377   4.712   7.785 -1.0555 -0.3588 -0.9759
 2652SOL     OW19414   2.487   3.607  14.092 -0.3801 -0.6076  0.3812
 2652SOL    HW119415   2.539   3.572  14.020 -2.1570 -0.6075 -0.8680
 2652SOL    HW219416   2.450   3.524  14.124  0.1269 -1.4281 -1.1786
 2653SOL     OW19417   0.037   0.893   2.231 -0.2557  0.1804 -0.2432
 2653SOL    HW119418   0.092   0.846   2.294  2.1244  2.9818 -0.2536
 2653SOL    HW219419   0.095   0.889   2.156 -1.0068  0.7721 -0.8524
 2654SOL     OW19420   4.296   4.364   9.787  0.3514 -0.1010  0.7882
 2654SOL    HW119421   4.341   4.417   9.853  1.1745 -0.0779  0.2152
 2654SOL    HW219422   4.262   4.294   9.842  0.4994  0.2862  1.3792
 2655SOL     OW19423   1.454   2.493   8.335  0.1033 -0.4162 -0.0589
 2655SOL    HW119424   1.463   2.586   8.356 -3.9078  0.3554 -1.7969
 2655SOL    HW219425   1.359   2.496   8.325  0.0499 -0.7148  0.3711
 2656SOL     OW19426   3.200   0.904   8.927  0.2767 -0.0423 -0.7423
 2656SOL    HW119427   3.282   0.863   8.955  0.2051  0.5325  0.2968
 2656SOL    HW219428   3.197   0.888   8.832  1.0604 -1.4307 -0.5394
 2657SOL     OW19429   0.589   2.221   4.139 -0.2278  0.2936  0.1074
 2657SOL    HW119430   0.612   2.156   4.073 -0.9346  1.5233 -1.3398
 2657SOL    HW219431   0.654   2.198   4.206  0.7816 -1.0714 -1.3552
 2658SOL     OW19432   0.905   3.902   6.390 -0.8722  0.1621 -0.2982
 2658SOL    HW119433   0.977   3.907   6.327 -0.7143  3.0975  0.0954
 2658SOL    HW219434   0.832   3.944   6.344 -0.9935  1.9290  1.5296
 2659SOL     OW19435   3.854   1.074   1.874  0.9823 -0.2767 -0.0394
 2659SOL    HW119436   3.830   1.097   1.784 -0.7173 -3.4175 -0.3978
 2659SOL    HW219437   3.776   1.026   1.900  0.6046  0.0122 -0.6459
 2660SOL     OW19438   0.721   4.357   2.016  0.5282  0.1320  0.2506
 2660SOL    HW119439   0.691   4.438   1.974  1.8934 -0.5055 -1.9494
 2660SOL    HW219440   0.716   4.389   2.106  0.8067 -1.1764  0.7351
 2661SOL     OW19441   0.266   3.090   2.373 -0.0687  0.0013  0.1734
 2661SOL    HW119442   0.290   3.174   2.414  2.1372 -0.9257  0.8057
 2661SOL    HW219443   0.172   3.108   2.370 -0.1553 -0.2985  1.0631
 2662SOL     OW19444   0.616   1.881  16.739 -0.7573  0.3367 -0.1524
 2662SOL    HW119445   0.673   1.852  16.810  1.1124  0.6705 -1.5259
 2662SOL    HW219446   0.606   1.974  16.763  0.5454  0.8505 -1.6289
 2663SOL     OW19447   2.155   0.062   9.037  0.1690  0.3241  0.3305
 2663SOL    HW119448   2.073   0.094   9.077  0.4471  1.9286 -0.3711
 2663SOL    HW219449   2.218   0.131   9.059  0.5269 -0.0279  0.4133
 2664SOL     OW19450   4.401   3.887   5.813 -0.2980  0.7358  0.2550
 2664SOL    HW119451   4.411   3.794   5.793 -1.5180  0.7212 -0.3180
 2664SOL    HW219452   4.309   3.912   5.805 -0.6748  0.7288  4.5876
 2665SOL     OW19453   1.885   2.132  17.521 -0.5436  0.3682  0.0334
 2665SOL    HW119454   1.930   2.212  17.494  0.1987  0.2113  0.7741
 2665SOL    HW219455   1.952   2.100  17.582 -0.5713 -1.1179 -0.7257
 2666SOL     OW19456   3.326   4.660  15.582 -0.1918  0.0723  1.2243
 2666SOL    HW119457   3.392   4.591  15.588 -0.0311 -0.0831 -2.0271
 2666SOL    HW219458   3.379   0.008  15.610 -0.6381  1.4502 -1.5444
 2667SOL     OW19459   4.047   2.071  15.095  0.0557  0.6238 -0.1390
 2667SOL    HW119460   4.023   2.140  15.157 -0.4577  0.6822 -0.3983
 2667SOL    HW219461   4.137   2.090  15.070  0.4175  1.4644  1.8373
 2668SOL     OW19462   3.313   1.219  17.681  0.0869  0.6505 -0.3038
 2668SOL    HW119463   3.254   1.163  17.631 -0.2660 -0.2559  1.1153
 2668SOL    HW219464   3.259   1.242   0.055 -2.4423 -2.0435 -1.2972
 2669SOL     OW19465   2.739   0.260   8.232  0.3623  0.2048  0.4765
 2669SOL    HW119466   2.746   0.225   8.144 -3.0901  0.9523 -0.1061
 2669SOL    HW219467   2.645   0.248   8.244  0.5047 -1.5708 -0.2031
 2670SOL     OW19468   4.570   1.549   5.773 -0.4813 -0.2857  0.4945
 2670SOL    HW119469   4.506   1.577   5.839 -2.4747 -3.9980  0.1457
 2670SOL    HW219470   4.594   1.628   5.724 -0.4614  1.0770  2.6821
 2671SOL     OW19471   2.339   1.770   7.764 -0.1651 -0.2490 -0.0844
 2671SOL    HW119472   2.325   1.742   7.854 -0.7962  1.4318  0.3479
 2671SOL    HW219473   2.310   1.692   7.718 -1.3770  1.0472 -1.4853
 2672SOL     OW19474   4.572   2.455  12.163 -0.0082  0.6317  0.3356
 2672SOL    HW119475   4.581   2.526  12.100  0.8643  1.6052  1.5669
 2672SOL    HW219476   4.579   2.494  12.250  0.1425  1.7507 -0.1837
 2673SOL     OW19477   3.591   2.243   7.015  0.5471 -0.0990  0.0215
 2673SOL    HW119478   3.597   2.285   7.101 -0.3463  0.5026 -0.2146
 2673SOL    HW219479   3.637   2.301   6.953  1.0956  2.3604  2.7297
 2674SOL     OW19480   3.934   3.807   9.028  0.2442 -0.1418 -0.4663
 2674SOL    HW119481   3.887   3.859   8.962 -0.2120  2.0829  1.6500
 2674SOL    HW219482   4.004   3.869   9.045 -1.4994  1.9726 -0.9826
 2675SOL     OW19483   0.139   2.667   3.357 -0.0866 -0.1704  0.1528
 2675SOL    HW119484   0.064   2.708   3.401  1.4344  2.6950  0.0589
 2675SOL    HW219485   0.103   2.634   3.275  2.2584  0.8655 -1.2886
 2676SOL     OW19486   3.248   1.236  11.670  0.1020 -0.1161 -0.2186
 2676SOL    HW119487   3.321   1.241  11.609 -0.1189  1.3253 -0.3635
 2676SOL    HW219488   3.224   1.143  11.668  0.1810 -0.1042 -1.7992
 2677SOL     OW19489   0.414   2.283   6.834 -0.1789 -0.2929 -0.1113
 2677SOL    HW119490   0.421   2.219   6.764  1.2109  0.0383 -0.2745
 2677SOL    HW219491   0.437   2.231   6.912  0.2233  0.1205  0.0449
 2678SOL     OW19492   4.623   1.146   0.341 -0.0699  0.3345  0.1878
 2678SOL    HW119493   4.674   1.166   0.420  1.5279  2.3748 -1.3457
 2678SOL    HW219494   4.530   1.149   0.362  0.4321  2.9119  2.2166
 2679SOL     OW19495   2.284   3.282   8.413 -0.0201  0.1640 -0.6796
 2679SOL    HW119496   2.253   3.209   8.358  1.7936 -0.9208 -0.2650
 2679SOL    HW219497   2.275   3.358   8.356 -0.4159  0.5083 -0.1472
 2680SOL     OW19498   0.460   3.848   8.685 -0.1252  0.2540 -0.1330
 2680SOL    HW119499   0.386   3.903   8.659 -0.5393  0.2714  1.0796
 2680SOL    HW219500   0.444   3.756   8.667 -1.8922  0.7536 -1.1021
 2681SOL     OW19501   0.713   1.074  17.553 -0.0444 -0.1896 -0.1270
 2681SOL    HW119502   0.783   1.085  17.488  0.0536 -2.3636 -0.3977
 2681SOL    HW219503   0.735   0.982  17.569  1.4617  0.3908  1.2440
 2682SOL     OW19504   3.756   2.800   3.936  0.4123 -0.0343 -0.1270
 2682SOL    HW119505   3.714   2.714   3.924  0.5551 -0.3039  1.2619
 2682SOL    HW219506   3.736   2.839   3.851  1.1936 -3.2007 -1.7407
 2683SOL     OW19507   3.845   2.710  15.906  0.1706 -0.0011 -0.5934
 2683SOL    HW119508   3.772   2.678  15.853 -0.9483  1.8627 -0.2245
 2683SOL    HW219509   3.853   2.631  15.959 -1.2250 -0.1276 -0.5510
 2684SOL     OW19510   3.073   1.310   2.196 -0.1269  0.2962  0.6252
 2684SOL    HW119511   3.084   1.320   2.291 -0.9011  0.0010  0.7438
 2684SOL    HW219512   3.126   1.231   2.184  0.9524  1.5233 -2.4522
 2685SOL     OW19513   4.018   3.089   0.946  0.2054 -0.5444  0.3461
 2685SOL    HW119514   3.968   3.017   0.907  0.6739 -1.1969  0.9623
 2685SOL    HW219515   4.101   3.045   0.962 -0.4760 -2.4823 -1.3487
 2686SOL     OW19516   0.970   1.119   0.386  0.2704  0.1726  0.2591
 2686SOL    HW119517   0.976   1.083   0.474  1.1084  1.7411  0.8503
 2686SOL    HW219518   1.039   1.085   0.331 -0.2371 -2.3348  1.1941
 2687SOL     OW19519   2.477   2.383   2.657 -0.0707 -0.3197 -0.3593
 2687SOL    HW119520   2.464   2.318   2.588 -2.8141 -0.4921  0.3182
 2687SOL    HW219521   2.571   2.380   2.676 -0.2215 -0.6962  0.3218
 2688SOL     OW19522   2.092   3.327   4.693 -0.0840  0.2231 -0.1373
 2688SOL    HW119523   2.126   3.309   4.780 -0.7235 -2.7616 -0.4997
 2688SOL    HW219524   2.077   3.238   4.660 -0.0827 -0.3940  1.5648
 2689SOL     OW19525   1.890   3.638   2.349  0.0466 -0.1308 -0.3738
 2689SOL    HW119526   1.932   3.643   2.263 -0.0188  1.4367 -0.3262
 2689SOL    HW219527   1.837   3.559   2.340 -0.3387  0.0073  0.6105
 2690SOL     OW19528   2.097   0.685  11.999  0.0806 -0.4034 -0.1507
 2690SOL    HW119529   2.165   0.698  11.933 -0.6896 -2.4892 -1.3636
 2690SOL    HW219530   2.038   0.758  11.978  1.3075  0.8931  0.9294
 2691SOL     OW19531   2.644   1.824   5.864 -0.4895  0.2797 -0.1287
 2691SOL    HW119532   2.719   1.872   5.900 -0.1018 -0.4132 -0.0041
 2691SOL    HW219533   2.617   1.764   5.933 -1.0411  0.9034  0.1977
 2692SOL     OW19534   1.639   2.382  10.632 -0.1895  0.1520 -0.0075
 2692SOL    HW119535   1.674   2.296  10.610  0.0945 -0.1901  1.8075
 2692SOL    HW219536   1.664   2.431  10.554 -1.0951 -1.5033 -1.3400
 2693SOL     OW19537   0.688   1.843   7.766  0.3593 -0.0498 -0.1299
 2693SOL    HW119538   0.610   1.828   7.820 -0.2423  1.8437 -0.4640
 2693SOL    HW219539   0.720   1.754   7.758  0.3348  0.0180 -0.9605
 2694SOL     OW19540   0.129   0.648   3.141  0.3069 -0.1342 -0.0557
 2694SOL    HW119541   0.069   0.629   3.213 -0.3228 -0.7358 -0.7388
 2694SOL    HW219542   0.061   0.675   3.078 -0.0308 -1.5589 -0.3072
 2695SOL     OW19543   3.829   3.982   5.917 -0.1579 -0.1734 -0.4675
 2695SOL    HW119544   3.892   4.025   5.974  0.3818  0.6579 -1.7013
 2695SOL    HW219545   3.808   4.056   5.861 -1.5064  0.6565  1.1236
 2696SOL     OW19546   2.223   2.192   3.038 -0.0748  0.5462  0.1161
 2696SOL    HW119547   2.285   2.227   2.975 -1.7436  1.5873 -0.9404
 2696SOL    HW219548   2.234   2.268   3.096 -0.0195 -0.3951  1.3491
 2697SOL     OW19549   1.935   1.349  15.296 -1.0039 -0.5009  0.0195
 2697SOL    HW119550   1.973   1.281  15.351  0.5544  0.0760 -0.3384
 2697SOL    HW219551   1.894   1.394  15.369  0.7494 -0.9317  1.2864
 2698SOL     OW19552   2.165   2.196   4.417  0.9917  0.4936  0.0923
 2698SOL    HW119553   2.222   2.262   4.457 -0.7782  1.3887  1.1337
 2698SOL    HW219554   2.106   2.253   4.370  0.9071  0.6473  0.3851
 2699SOL     OW19555   3.155   2.017   2.371 -0.0237  0.3300  0.4677
 2699SOL    HW119556   3.222   2.068   2.326  0.9124 -0.5662  0.8325
 2699SOL    HW219557   3.074   2.061   2.346 -1.0788 -2.2372 -0.7461
 2700SOL     OW19558   0.396   0.670   9.616 -0.0690 -0.0763 -0.0097
 2700SOL    HW119559   0.410   0.642   9.706 -2.8461 -0.9286  0.1663
 2700SOL    HW219560   0.454   0.746   9.611 -1.1106  0.5632 -2.2472
 2701SOL     OW19561   1.374   1.614  17.552  0.5498  0.4346 -0.3792
 2701SOL    HW119562   1.321   1.639  17.476  0.0315  1.3316  0.2722
 2701SOL    HW219563   1.457   1.658  17.533  0.5548 -0.3502 -2.2092
 2702SOL     OW19564   2.501   1.702   5.667 -0.0232  0.0352  0.3727
 2702SOL    HW119565   2.552   1.745   5.735  1.6170 -0.8916 -0.2530
 2702SOL    HW219566   2.420   1.697   5.718 -0.5448 -0.0340 -0.4716
 2703SOL     OW19567   0.614   0.900   3.498 -0.2716  0.4818  0.3175
 2703SOL    HW119568   0.657   0.849   3.430 -1.3675  2.1718 -1.6344
 2703SOL    HW219569   0.684   0.956   3.532  0.2016  0.3009 -0.3497
 2704SOL     OW19570   2.451   3.594  16.961  0.1370 -0.2285  0.8010
 2704SOL    HW119571   2.456   3.550  17.046  0.5658 -1.6482  0.0427
 2704SOL    HW219572   2.362   3.624  16.979  0.0775  0.8541 -1.2365
 2705SOL     OW19573   0.495   1.706   3.036 -0.1341 -0.0787 -0.3228
 2705SOL    HW119574   0.448   1.754   2.968  2.4088  2.7628 -0.1247
 2705SOL    HW219575   0.436   1.706   3.112  1.6959  1.1451  1.1043
 2706SOL     OW19576   1.321   2.725   7.350  0.4418 -0.1905 -0.9203
 2706SOL    HW119577   1.389   2.658   7.351  0.7001  0.1058  2.8662
 2706SOL    HW219578   1.236   2.682   7.347 -1.1267  2.6999  2.2955
 2707SOL     OW19579   4.034   0.816  16.951 -0.1116 -0.1835 -0.2527
 2707SOL    HW119580   3.948   0.841  16.987 -1.2448 -2.0228 -1.6926
 2707SOL    HW219581   4.008   0.736  16.905  0.7763 -1.1901  1.0059
 2708SOL     OW19582   0.541   2.043  13.539 -0.1939  0.6432 -0.1295
 2708SOL    HW119583   0.626   2.083  13.558  0.3736 -0.6872  0.1242
 2708SOL    HW219584   0.504   2.104  13.475  0.4318  0.7872 -0.3631
 2709SOL     OW19585   4.549   2.455   3.599  0.0285 -0.0483 -0.7880
 2709SOL    HW119586   4.607   2.384   3.625 -0.2717  0.7163  2.0207
 2709SOL    HW219587   4.595   2.531   3.635 -0.2460 -0.5784  0.6839
 2710SOL     OW19588   1.530   4.557   8.475  0.3602  0.2455 -0.1253
 2710SOL    HW119589   1.568   4.624   8.418 -0.5217 -0.6141 -1.7431
 2710SOL    HW219590   1.436   4.566   8.455 -0.1606  0.1623  2.3718
 2711SOL     OW19591   1.111   3.198   1.993  0.0710  0.4019  0.0147
 2711SOL    HW119592   1.056   3.272   1.965  0.7464  1.0246  0.3445
 2711SOL    HW219593   1.172   3.255   2.040  1.4988  0.6121 -2.0409
 2712SOL     OW19594   0.393   2.202   9.705  0.2148  0.0956 -0.1677
 2712SOL    HW119595   0.306   2.179   9.738  0.6031 -4.3754 -2.1399
 2712SOL    HW219596   0.409   2.135   9.638  0.4533  1.0784 -1.0922
 2713SOL     OW19597   2.644   3.966   0.976 -0.1617 -0.1603 -0.2586
 2713SOL    HW119598   2.719   4.024   0.964  0.1324 -0.8252 -1.7242
 2713SOL    HW219599   2.665   3.914   1.053 -1.6735 -1.4585 -0.7196
 2714SOL     OW19600   2.496   4.007   0.749  0.0934  0.4195  0.2327
 2714SOL    HW119601   2.568   4.005   0.812  0.7069 -0.2582 -0.4975
 2714SOL    HW219602   2.426   3.956   0.789  1.1286  0.2518  1.7869
 2715SOL     OW19603   1.228   1.843   4.040  0.2994 -0.3442  0.1374
 2715SOL    HW119604   1.284   1.770   4.066 -0.2815 -1.0907 -0.7112
 2715SOL    HW219605   1.162   1.819   4.106  1.8678 -0.4106  1.6804
 2716SOL     OW19606   4.208   0.650   9.315  0.2225  0.3004  0.1172
 2716SOL    HW119607   4.179   0.638   9.225  0.1541 -1.5957  0.3840
 2716SOL    HW219608   4.217   0.745   9.326  0.7065  0.5671 -2.7129
 2717SOL     OW19609   3.195   1.329  10.065 -1.0065 -0.5428  0.9971
 2717SOL    HW119610   3.125   1.295  10.120  0.6138 -0.0361  3.3702
 2717SOL    HW219611   3.242   1.248  10.043 -0.9527 -0.5783  1.2381
 2718SOL     OW19612   2.611   4.075   6.217 -0.1935 -0.2750 -0.5377
 2718SOL    HW119613   2.585   4.142   6.154 -2.3081 -1.3926 -0.8574
 2718SOL    HW219614   2.699   4.052   6.190  0.8965  0.2577  2.5809
 2719SOL     OW19615   4.701   1.224  11.350 -0.0396  0.4264 -0.2022
 2719SOL    HW119616   4.623   1.270  11.321 -0.2185  0.8360  0.9112
 2719SOL    HW219617   4.701   1.229  11.446  3.7033  1.7142 -0.2722
 2720SOL     OW19618   4.272   2.922   5.468 -0.1709  0.9040 -0.3337
 2720SOL    HW119619   4.324   2.845   5.492 -1.6175 -0.1173 -0.4050
 2720SOL    HW219620   4.191   2.878   5.443  0.3063  1.4429 -2.7860
 2721SOL     OW19621   3.556   0.999   1.601 -0.4219  0.7282  0.0186
 2721SOL    HW119622   3.562   1.084   1.558 -0.4496 -0.3810 -2.1592
 2721SOL    HW219623   3.489   1.004   1.669 -0.3685 -2.7525  0.3267
 2722SOL     OW19624   1.506   1.098   8.212  0.2801  0.5672 -0.1235
 2722SOL    HW119625   1.492   1.107   8.307  2.0142 -0.7216  0.2522
 2722SOL    HW219626   1.416   1.098   8.179  0.2328 -0.5281  0.0071
 2723SOL     OW19627   2.495   0.609   9.933 -0.2422 -0.4528 -0.7303
 2723SOL    HW119628   2.442   0.656   9.998  2.2022  0.8602  0.2958
 2723SOL    HW219629   2.428   0.542   9.916 -0.3514 -0.9370  1.5848
 2724SOL     OW19630   1.669   4.027   7.797 -0.0845 -0.0421 -1.0425
 2724SOL    HW119631   1.625   3.996   7.876 -1.3975  1.1424 -1.3182
 2724SOL    HW219632   1.743   3.966   7.788 -1.4416 -1.9555  0.8833
 2725SOL     OW19633   1.125   3.980  10.777  0.1724 -0.2749 -0.2966
 2725SOL    HW119634   1.174   3.995  10.857  1.8930  1.9930 -1.7618
 2725SOL    HW219635   1.037   3.993  10.813  0.5223  1.7974 -0.1702
 2726SOL     OW19636   2.836   2.106  14.614 -0.0845  0.3814  0.0831
 2726SOL    HW119637   2.860   2.180  14.669 -0.3265 -0.1029  0.8477
 2726SOL    HW219638   2.924   2.068  14.611  0.0415  0.6852 -0.0699
 2727SOL     OW19639   2.521   3.714   1.269  0.3867  0.2396  0.4014
 2727SOL    HW119640   2.464   3.668   1.331  0.6459 -0.2891  0.2505
 2727SOL    HW219641   2.460   3.754   1.208  0.1820  0.7280  0.9240
 2728SOL     OW19642   3.344   0.046   2.371  0.1199  0.0741 -0.1316
 2728SOL    HW119643   3.337   4.687   2.416  3.0527 -0.4304 -0.6521
 2728SOL    HW219644   3.260   0.051   2.326  0.1278  1.0998 -0.0383
 2729SOL     OW19645   0.454   3.605   5.480 -0.2545  0.1105 -0.2736
 2729SOL    HW119646   0.365   3.640   5.471 -0.8740 -0.8962  1.8401
 2729SOL    HW219647   0.437   3.511   5.479  0.5646 -0.0548  0.9756
 2730SOL     OW19648   3.015   2.679  13.114  0.3119 -0.3216 -0.7168
 2730SOL    HW119649   2.922   2.657  13.125  0.6629 -0.0628  2.9263
 2730SOL    HW219650   3.006   2.746  13.046 -0.5524 -0.7519 -1.0317
 2731SOL     OW19651   2.503   2.937  14.008  0.2196 -0.2596  0.4786
 2731SOL    HW119652   2.538   2.929  13.919 -2.4940  0.1182 -0.6225
 2731SOL    HW219653   2.467   2.848  14.015  3.0861 -1.4247  0.5222
 2732SOL     OW19654   1.937   4.108   8.328 -0.1827  0.0623 -0.6780
 2732SOL    HW119655   1.848   4.112   8.292 -0.0689 -0.4369 -1.0171
 2732SOL    HW219656   1.931   4.146   8.415  4.0710 -0.4877 -0.1228
 2733SOL     OW19657   4.671   0.882   8.330  0.3879  0.0193 -0.4079
 2733SOL    HW119658   4.699   0.971   8.309 -1.3084  1.1501  2.1045
 2733SOL    HW219659   0.035   0.846   8.334  0.1135 -0.7441 -1.2216
 2734SOL     OW19660   2.353   2.714   1.955  0.1253 -0.1578  0.0317
 2734SOL    HW119661   2.301   2.704   1.875 -0.1516  1.2509  0.0442
 2734SOL    HW219662   2.362   2.808   1.967 -1.9569  0.3514 -2.3208
 2735SOL     OW19663   0.801   2.985  12.120  0.4784  0.2180 -0.1089
 2735SOL    HW119664   0.737   3.054  12.139  1.8995  1.5097 -0.1011
 2735SOL    HW219665   0.861   3.036  12.066 -0.2609  0.3048 -0.8553
 2736SOL     OW19666   4.096   4.658   5.718 -0.0657 -0.2343 -0.2898
 2736SOL    HW119667   4.130   4.717   5.786 -1.3489 -2.7356  2.5224
 2736SOL    HW219668   4.156   4.675   5.645  3.2710 -1.4947  2.1762
 2737SOL     OW19669   2.013   1.119  11.086 -0.6823 -0.3871  0.3736
 2737SOL    HW119670   1.937   1.154  11.038  0.7656  0.7517 -1.0838
 2737SOL    HW219671   2.087   1.154  11.036 -0.1894 -0.4052  1.0950
 2738SOL     OW19672   2.860   0.761  15.662  0.4079  0.1804  0.4550
 2738SOL    HW119673   2.874   0.854  15.646  2.0320 -0.2175 -0.5579
 2738SOL    HW219674   2.791   0.737  15.600  0.6343 -0.9590  0.6319
 2739SOL     OW19675   4.543   2.423   9.909  0.2882 -0.2266 -0.3147
 2739SOL    HW119676   4.595   2.347   9.882 -0.2675 -0.1342 -1.6472
 2739SOL    HW219677   4.465   2.383   9.944 -1.1032  2.1014 -0.7335
 2740SOL     OW19678   3.845   4.352   3.611  0.2046 -0.2523 -0.1898
 2740SOL    HW119679   3.803   4.302   3.681 -0.2577  0.9241  0.3734
 2740SOL    HW219680   3.818   4.443   3.621  1.7976  0.4000 -1.9108
 2741SOL     OW19681   0.582   2.447   8.490  0.0417 -0.0256  0.9847
 2741SOL    HW119682   0.652   2.445   8.555 -0.3594  1.4882  1.4818
 2741SOL    HW219683   0.594   2.524   8.434 -0.3426 -2.4757 -2.4611
 2742SOL     OW19684   4.491   1.509   1.443 -0.3734 -0.0173 -0.9609
 2742SOL    HW119685   4.504   1.438   1.506  0.6992  2.0442  1.1370
 2742SOL    HW219686   4.559   1.481   1.382 -1.1124 -2.1816 -0.7872
 2743SOL     OW19687   2.833   2.390   3.034 -1.0725  0.4205  0.2443
 2743SOL    HW119688   2.783   2.458   3.079 -0.1861  0.2518  1.4809
 2743SOL    HW219689   2.798   2.318   3.086  0.5821 -0.4122  0.1970
 2744SOL     OW19690   0.515   2.877  14.218  0.3781  0.5966  0.4944
 2744SOL    HW119691   0.510   2.857  14.312 -2.9684 -0.7583  0.0091
 2744SOL    HW219692   0.606   2.853  14.201  1.0335  1.7137  2.3625
 2745SOL     OW19693   0.889   2.743  14.683 -0.1891 -0.3607  0.0416
 2745SOL    HW119694   0.925   2.741  14.771 -3.5395  1.2669  1.4788
 2745SOL    HW219695   0.795   2.735  14.698  0.2108  0.0627  2.7020
 2746SOL     OW19696   2.933   4.464   4.098  0.0602  0.6862 -0.1381
 2746SOL    HW119697   2.891   4.512   4.027  0.5282  0.0937 -0.8171
 2746SOL    HW219698   2.868   4.466   4.169 -0.0184  1.3223 -0.2365
 2747SOL     OW19699   2.554   0.541   9.073  0.9154  0.4725 -0.5345
 2747SOL    HW119700   2.503   0.535   8.992  4.8320  0.1292 -2.9838
 2747SOL    HW219701   2.578   0.450   9.092  3.3007  1.7371  2.5829
 2748SOL     OW19702   1.147   2.501   2.606 -0.3876  0.5965 -0.4329
 2748SOL    HW119703   1.142   2.438   2.678  1.2246  0.9111 -0.0437
 2748SOL    HW219704   1.100   2.453   2.538 -0.3746  0.5606 -0.4163
 2749SOL     OW19705   1.114   0.646   9.385  0.2024 -0.1277 -0.5978
 2749SOL    HW119706   1.069   0.724   9.354 -1.2989 -1.9947 -3.1615
 2749SOL    HW219707   1.105   0.594   9.305  1.3605 -1.2778  0.0158
 2750SOL     OW19708   3.777   0.269   6.187  0.0065  0.2927 -0.6531
 2750SOL    HW119709   3.796   0.343   6.130 -0.2062  0.9631  0.1531
 2750SOL    HW219710   3.706   0.308   6.237  0.1868  1.4079 -1.2734
 2751SOL     OW19711   3.172   3.414   8.783  0.2215 -0.0193 -0.2918
 2751SOL    HW119712   3.144   3.325   8.761 -0.5398 -0.3945  2.2937
 2751SOL    HW219713   3.125   3.461   8.714 -1.7967  1.5444  2.1640
 2752SOL     OW19714   0.395   0.296   0.494  0.1232 -0.4902 -0.2448
 2752SOL    HW119715   0.432   0.351   0.563  0.2086 -0.2758 -0.4630
 2752SOL    HW219716   0.303   0.322   0.498  0.2483  0.1029 -1.1574
 2753SOL     OW19717   3.891   0.521  14.546  0.7871 -0.1959  0.3171
 2753SOL    HW119718   3.960   0.462  14.515 -1.3366 -1.3254 -2.1920
 2753SOL    HW219719   3.811   0.474  14.523  1.0771 -0.7969  0.5256
 2754SOL     OW19720   3.722   4.178  12.486  0.0840  0.6452  0.5318
 2754SOL    HW119721   3.710   4.258  12.537  1.9081  0.2600  1.5850
 2754SOL    HW219722   3.738   4.115  12.556 -1.5405  0.6292  0.8890
 2755SOL     OW19723   4.276   2.339   3.568  0.0633  0.4885  0.6797
 2755SOL    HW119724   4.289   2.245   3.558 -2.6641  0.2711 -0.7837
 2755SOL    HW219725   4.365   2.373   3.575  0.4940 -1.0990  3.0336
 2756SOL     OW19726   1.373   0.636  11.774 -0.3296  0.5445  0.2781
 2756SOL    HW119727   1.347   0.544  11.766 -0.5876  0.6051  0.4360
 2756SOL    HW219728   1.294   0.668  11.817 -2.0864  0.8263 -3.1328
 2757SOL     OW19729   3.651   0.046   0.725  0.0337  0.0229  0.1245
 2757SOL    HW119730   3.660   0.140   0.741 -0.9546  0.4369 -1.7906
 2757SOL    HW219731   3.560   0.029   0.747  0.2911 -0.0461  1.1294
 2758SOL     OW19732   0.296   0.851  14.592  0.0715  0.0027 -0.5914
 2758SOL    HW119733   0.206   0.827  14.613  1.2407 -2.2628  1.8108
 2758SOL    HW219734   0.324   0.774  14.544 -2.0275 -0.3700 -1.1963
 2759SOL     OW19735   0.773   2.754   8.601  0.1628  0.0270  0.1221
 2759SOL    HW119736   0.859   2.713   8.605  0.2811  0.2644  0.0285
 2759SOL    HW219737   0.782   2.847   8.620  1.8941 -0.2148  0.4452
 2760SOL     OW19738   0.265   0.140   1.573 -0.2137  0.3676  0.1152
 2760SOL    HW119739   0.285   0.120   1.664 -0.4410 -1.7895 -0.3215
 2760SOL    HW219740   0.171   0.125   1.576 -0.0116 -0.3989  2.5481
 2761SOL     OW19741   1.654   0.265   1.740  0.5284  0.4131 -0.0002
 2761SOL    HW119742   1.704   0.217   1.674 -0.5192  1.1230 -1.3042
 2761SOL    HW219743   1.720   0.271   1.810 -1.0609  1.6039  1.3822
 2762SOL     OW19744   1.488   1.386  10.253  0.3873 -0.6671  0.4643
 2762SOL    HW119745   1.423   1.412  10.319 -1.5730  1.7679 -2.4723
 2762SOL    HW219746   1.466   1.453  10.189 -0.1170 -0.8865  0.4060
 2763SOL     OW19747   4.276   3.348  10.772  0.2464 -0.2075  0.2996
 2763SOL    HW119748   4.297   3.311  10.686 -1.8083  1.4748 -0.9236
 2763SOL    HW219749   4.266   3.442  10.757  0.7378 -0.2905 -0.5237
 2764SOL     OW19750   1.017   2.734   8.400  0.3793 -0.2059 -0.4540
 2764SOL    HW119751   1.029   2.683   8.480  0.8423 -0.9574 -1.0035
 2764SOL    HW219752   1.078   2.806   8.415 -0.4415  0.5737 -0.8573
 2765SOL     OW19753   4.599   2.342   8.234  0.0919  0.1604  0.2814
 2765SOL    HW119754   4.602   2.247   8.239 -1.9676 -0.0033 -1.4022
 2765SOL    HW219755   4.679   2.363   8.185 -0.1008  0.8438  0.2503
 2766SOL     OW19756   3.576   1.636   6.352 -0.0295  0.0389  0.0034
 2766SOL    HW119757   3.584   1.612   6.444 -0.7152  1.7972  0.5397
 2766SOL    HW219758   3.648   1.590   6.311  1.1918  1.2665  0.7650
 2767SOL     OW19759   2.803   2.165   3.176  0.5340  0.3346  0.8488
 2767SOL    HW119760   2.897   2.178   3.187  0.4486  0.0904  1.8546
 2767SOL    HW219761   2.767   2.163   3.264  1.0296 -0.9531  1.0187
 2768SOL     OW19762   2.065   3.801   3.281 -0.1631 -0.2048  0.6881
 2768SOL    HW119763   2.090   3.858   3.353  3.2502 -1.0758  0.2072
 2768SOL    HW219764   2.135   3.821   3.219 -0.1444 -1.3166  0.3450
 2769SOL     OW19765   0.654   0.055   6.648  0.0224 -0.2028  0.3932
 2769SOL    HW119766   0.640   4.697   6.602 -0.5993 -0.0503  0.3035
 2769SOL    HW219767   0.735   0.038   6.694 -0.3525  2.6768  2.1436
 2770SOL     OW19768   1.297   1.012   7.356 -0.0984 -0.3465 -0.1773
 2770SOL    HW119769   1.382   0.977   7.383  0.5232  1.9629  0.8770
 2770SOL    HW219770   1.302   1.098   7.400  1.5902 -0.2878 -0.4865
 2771SOL     OW19771   1.674   2.648   4.267  0.3535  0.4448  0.0717
 2771SOL    HW119772   1.660   2.588   4.340  1.6741  0.5743  0.4183
 2771SOL    HW219773   1.712   2.583   4.208  0.9774 -1.2668  2.3871
 2772SOL     OW19774   0.886   1.644  12.025  0.0160  0.0994 -0.1142
 2772SOL    HW119775   0.938   1.638  12.105 -1.1602  0.0920  0.6453
 2772SOL    HW219776   0.909   1.733  11.998  0.6277 -0.4727 -1.4700
 2773SOL     OW19777   3.247   1.005   3.416 -0.4501  0.7873 -0.3279
 2773SOL    HW119778   3.169   1.044   3.376 -1.9144 -0.0057  1.7613
 2773SOL    HW219779   3.320   1.035   3.361  1.3054 -0.0659  1.5390
 2774SOL     OW19780   4.267   4.540   2.951  0.4681  0.4254  0.2633
 2774SOL    HW119781   4.282   4.529   3.045  0.0142  0.0292  0.2933
 2774SOL    HW219782   4.357   4.540   2.917  0.6223 -0.8143  0.6628
 2775SOL     OW19783   0.397   0.854   0.948  0.0146 -0.1251  1.0201
 2775SOL    HW119784   0.395   0.859   1.043  0.2181  1.6157  0.9331
 2775SOL    HW219785   0.448   0.934   0.934  2.5189 -1.5937  1.7200
 2776SOL     OW19786   0.858   0.696   6.996 -0.1122 -0.0966  0.1953
 2776SOL    HW119787   0.857   0.612   7.042  0.6220  0.3362  0.9986
 2776SOL    HW219788   0.830   0.748   7.072 -2.2693 -0.0063 -0.6601
 2777SOL     OW19789   1.629   0.498   9.725 -0.0067 -0.8548  0.1232
 2777SOL    HW119790   1.686   0.525   9.797 -0.2270  0.4063 -0.1770
 2777SOL    HW219791   1.548   0.466   9.763 -0.7349 -1.8280 -2.2745
 2778SOL     OW19792   4.491   1.137   8.207 -0.3540  0.3018  0.2016
 2778SOL    HW119793   4.470   1.230   8.196  3.6312  1.1194 -0.7140
 2778SOL    HW219794   4.584   1.132   8.231 -0.3414  0.7348  0.2446
 2779SOL     OW19795   4.083   4.289   7.310  0.1332 -0.3437 -0.2233
 2779SOL    HW119796   4.108   4.299   7.218  0.2237 -2.5527 -0.4288
 2779SOL    HW219797   3.988   4.299   7.304  0.1193 -0.0645  0.5279
 2780SOL     OW19798   1.805   2.150   3.617  0.2755  0.2561  0.0050
 2780SOL    HW119799   1.767   2.225   3.572  1.6197  0.3187 -1.0181
 2780SOL    HW219800   1.801   2.092   3.541 -0.1688 -0.0469  0.2596
 2781SOL     OW19801   4.706   2.630   7.346 -0.3528  0.1652  0.4366
 2781SOL    HW119802   0.018   2.641   7.433 -1.0877 -0.9700  0.8840
 2781SOL    HW219803   4.691   2.723   7.325  0.5476  0.7128  2.2086
 2782SOL     OW19804   4.229   2.308   4.065  0.0144  0.1564  0.9126
 2782SOL    HW119805   4.272   2.389   4.039 -2.2709  0.6754 -1.2627
 2782SOL    HW219806   4.285   2.271   4.134  0.6129 -1.8636 -0.6393
 2783SOL     OW19807   3.811   0.242   4.668  0.1353  0.0800  0.0868
 2783SOL    HW119808   3.718   0.228   4.684  0.2225 -2.8984 -2.2525
 2783SOL    HW219809   3.844   0.153   4.679 -1.6170 -0.3376  2.0355
 2784SOL     OW19810   3.417   4.324   5.478  0.2795  0.1032 -0.5302
 2784SOL    HW119811   3.439   4.330   5.385  1.1227 -1.5329 -0.4477
 2784SOL    HW219812   3.336   4.371   5.493  0.3559 -0.6670  2.1980
 2785SOL     OW19813   2.534   2.483  16.563  0.2877 -0.9098 -0.6057
 2785SOL    HW119814   2.523   2.472  16.469 -1.6799  2.2495 -0.7515
 2785SOL    HW219815   2.492   2.567  16.582  1.0533 -0.3063 -1.5429
 2786SOL     OW19816   1.480   4.236   3.199 -0.0362 -0.3807  0.2264
 2786SOL    HW119817   1.393   4.200   3.179 -1.2640  2.0548  1.1909
 2786SOL    HW219818   1.524   4.160   3.161 -1.7872 -0.6079 -1.3409
 2787SOL     OW19819   3.808   1.883  10.253 -0.4525  0.2703 -0.2524
 2787SOL    HW119820   3.735   1.937  10.285 -1.0908 -1.0240  0.4719
 2787SOL    HW219821   3.851   1.950  10.199  0.1070 -0.0644 -0.2225
 2788SOL     OW19822   1.815   1.336   9.907 -0.2933 -0.5384  0.0233
 2788SOL    HW119823   1.908   1.359   9.906 -1.1444  2.8960  2.2224
 2788SOL    HW219824   1.773   1.419   9.927  2.6207  1.1107 -0.6656
 2789SOL     OW19825   0.210   2.851   1.533  0.4528  0.1327 -0.1662
 2789SOL    HW119826   0.260   2.920   1.489 -0.0207  0.2990 -0.4410
 2789SOL    HW219827   0.123   2.876   1.502 -0.7276  0.0311  3.0643
 2790SOL     OW19828   4.622   0.532   4.345  0.2636 -0.1006  0.0822
 2790SOL    HW119829   4.690   0.597   4.327  0.9174 -0.9164 -0.4234
 2790SOL    HW219830   4.569   0.583   4.406 -0.7672  0.0735 -0.9449
 2791SOL     OW19831   3.309   1.651   3.561  0.2817 -0.1258  0.7432
 2791SOL    HW119832   3.277   1.713   3.495 -0.2251 -1.2987 -0.0957
 2791SOL    HW219833   3.302   1.568   3.515 -0.1642  0.3950 -0.1185
 2792SOL     OW19834   2.164   1.053   9.047 -0.4000  0.1100  0.9710
 2792SOL    HW119835   2.129   1.127   9.097  0.1551 -0.8836  2.8468
 2792SOL    HW219836   2.172   0.999   9.126 -1.6200  0.4204  1.3130
 2793SOL     OW19837   1.060   0.265  12.772  0.3859  0.2809  0.2868
 2793SOL    HW119838   0.966   0.261  12.789  0.0133 -0.6645 -2.0024
 2793SOL    HW219839   1.070   0.355  12.738 -0.4467 -0.2945 -1.4884
 2794SOL     OW19840   0.638   4.436   3.989 -0.0533 -0.5768  0.4341
 2794SOL    HW119841   0.613   4.353   3.949  0.9875 -1.1575  0.9856
 2794SOL    HW219842   0.662   4.418   4.080 -0.8888 -2.5075  0.2831
 2795SOL     OW19843   3.419   4.653   5.316  0.2795  0.0863  0.1461
 2795SOL    HW119844   3.378   4.626   5.398 -1.0166 -1.8528 -1.1384
 2795SOL    HW219845   3.389   4.586   5.254  1.4278  0.9085 -1.3072
 2796SOL     OW19846   0.861   2.748   7.933  0.1029  0.9641  0.0967
 2796SOL    HW119847   0.871   2.675   7.872 -1.9088  0.6006  0.1914
 2796SOL    HW219848   0.896   2.703   8.011  1.0643  1.4094 -0.0727
 2797SOL     OW19849   1.258   4.407   6.570 -0.0419  0.4059 -0.2011
 2797SOL    HW119850   1.245   4.497   6.600 -0.7244 -0.0755  0.9458
 2797SOL    HW219851   1.233   4.411   6.478  0.7169  2.0137 -0.3265
 2798SOL     OW19852   3.988   4.381   0.470  0.0080 -0.3431 -0.6133
 2798SOL    HW119853   3.899   4.349   0.457  0.3618 -2.0374  1.1719
 2798SOL    HW219854   3.971   4.475   0.483 -0.1070 -0.2848 -1.2145
 2799SOL     OW19855   0.714   3.362   3.970 -1.1404  0.3243 -0.0188
 2799SOL    HW119856   0.696   3.269   3.984  1.0351 -0.4224 -2.1061
 2799SOL    HW219857   0.802   3.366   4.007  0.1367  1.9994 -3.1805
 2800SOL     OW19858   1.447   0.585   6.822 -0.3121 -0.0096 -0.2053
 2800SOL    HW119859   1.433   0.518   6.756  0.0409 -0.2897  0.0078
 2800SOL    HW219860   1.533   0.552   6.846 -1.2805 -1.7486  0.8907
 2801SOL     OW19861   0.283   3.616  10.078 -0.5840 -0.3398  0.6596
 2801SOL    HW119862   0.209   3.669  10.106  0.1572  1.2373 -0.4081
 2801SOL    HW219863   0.271   3.529  10.116 -1.4193 -0.3493  0.3822
 2802SOL     OW19864   1.774   4.692   5.316  0.6831 -0.0483  0.2018
 2802SOL    HW119865   1.682   4.706   5.340  0.7569  2.1615 -0.7317
 2802SOL    HW219866   1.816   0.010   5.391  0.5544 -0.9699  0.7957
 2803SOL     OW19867   4.422   1.945   8.828  0.9557  0.0289 -0.2479
 2803SOL    HW119868   4.390   1.871   8.880 -0.1005  3.0783  3.3912
 2803SOL    HW219869   4.362   2.016   8.850 -0.9882 -2.1413  1.4550
 2804SOL     OW19870   1.980   3.065  17.283 -0.8557 -0.0584  0.5435
 2804SOL    HW119871   2.002   3.158  17.279 -0.2515 -0.2412 -0.4128
 2804SOL    HW219872   1.886   3.073  17.300 -0.8829 -1.5575  1.0764
 2805SOL     OW19873   0.806   2.150   9.842 -0.2714  0.2927 -0.1633
 2805SOL    HW119874   0.888   2.193   9.818 -0.1050  0.1304  0.1236
 2805SOL    HW219875   0.828   2.124   9.931  2.1268  4.3817  0.4429
 2806SOL     OW19876   4.415   0.827   8.414 -0.2771 -0.3801  0.0026
 2806SOL    HW119877   4.494   0.842   8.363 -0.8282 -0.7711 -0.9729
 2806SOL    HW219878   4.433   0.886   8.487 -2.3819  0.7643 -0.4059
 2807SOL     OW19879   2.887   3.712   0.625 -0.2552 -0.1370  0.3184
 2807SOL    HW119880   2.858   3.795   0.664 -0.4358 -1.2096  2.4053
 2807SOL    HW219881   2.937   3.659   0.686  1.2372 -1.6766 -2.2311
 2808SOL     OW19882   4.380   2.238   1.901  0.4491  0.2608  0.1581
 2808SOL    HW119883   4.347   2.316   1.855 -1.7232 -1.0472 -0.4768
 2808SOL    HW219884   4.309   2.245   1.964 -1.7069  1.4707 -2.4000
 2809SOL     OW19885   0.655   2.522   8.105  0.2004 -0.3630 -0.4526
 2809SOL    HW119886   0.599   2.599   8.089  1.8931  0.4614 -2.4198
 2809SOL    HW219887   0.692   2.534   8.192  2.0267  0.8497 -1.3867
 2810SOL     OW19888   4.031   3.009   2.884 -1.1083  0.6625  0.3951
 2810SOL    HW119889   4.018   2.936   2.824 -2.3857  2.4494 -1.4818
 2810SOL    HW219890   4.114   3.032   2.841 -0.5499  0.9141  1.6004
 2811SOL     OW19891   2.047   1.970  17.678  0.0773  0.2308 -0.1011
 2811SOL    HW119892   2.113   2.001   0.038  0.4861 -0.4299 -0.2146
 2811SOL    HW219893   2.038   1.877  17.698  1.8478  0.3844  1.3804
 2812SOL     OW19894   1.037   2.879   3.509  0.9267 -0.2444  0.5720
 2812SOL    HW119895   1.094   2.888   3.585  0.0797  2.1844  0.9234
 2812SOL    HW219896   1.038   2.783   3.503  0.3439 -0.0253 -3.2661
 2813SOL     OW19897   2.177   3.746   0.315  0.2995  0.4991 -0.2823
 2813SOL    HW119898   2.169   3.784   0.228 -1.9779 -1.9807 -1.1398
 2813SOL    HW219899   2.272   3.738   0.326  0.5247  0.3746 -2.3191
 2814SOL     OW19900   3.631   0.729   2.060  0.6191 -0.8027 -0.4835
 2814SOL    HW119901   3.673   0.776   2.132 -3.8122  0.6940  1.1317
 2814SOL    HW219902   3.678   0.646   2.067  2.3225  0.0848 -1.2387
 2815SOL     OW19903   2.577   1.994   9.680 -0.5436 -0.1174 -0.1553
 2815SOL    HW119904   2.655   2.044   9.701  0.6254 -1.9047 -0.2227
 2815SOL    HW219905   2.596   1.966   9.590  1.2803 -1.1969  0.5764
 2816SOL     OW19906   2.425   1.361   6.298 -0.2218  0.2058  0.3154
 2816SOL    HW119907   2.475   1.442   6.300 -1.1350  0.7136  2.0342
 2816SOL    HW219908   2.489   1.290   6.295  0.4168  0.7382  1.6845
 2817SOL     OW19909   4.545   1.490   7.186 -0.0845  0.4356  0.7724
 2817SOL    HW119910   4.495   1.471   7.265 -0.2662 -0.0190  0.5495
 2817SOL    HW219911   4.593   1.567   7.216  1.8444 -0.6476  0.5020
 2818SOL     OW19912   3.703   0.821   9.462  0.5205 -0.2673 -0.2666
 2818SOL    HW119913   3.716   0.893   9.524  0.8043 -0.7501  0.2378
 2818SOL    HW219914   3.614   0.791   9.479  0.1324  0.7110 -0.5611
 2819SOL     OW19915   4.428   2.932   7.785  0.1459  0.0248 -0.5104
 2819SOL    HW119916   4.372   2.987   7.841  0.5300 -1.2813  1.1601
 2819SOL    HW219917   4.379   2.851   7.774  0.4150 -0.4135  1.4197
 2820SOL     OW19918   4.691   3.296   9.192  0.2280 -0.3320  0.2626
 2820SOL    HW119919   4.696   3.204   9.166 -2.3545 -0.3483 -0.1774
 2820SOL    HW219920   4.686   3.279   9.286  0.0564 -2.3816 -0.1138
 2821SOL     OW19921   4.287   1.123   5.784 -0.2350  0.1660 -0.1062
 2821SOL    HW119922   4.273   1.031   5.808 -0.0278  0.0361 -0.4882
 2821SOL    HW219923   4.258   1.168   5.863  0.1352 -1.4631  0.9544
 2822SOL     OW19924   2.656   1.193   4.117  0.4479 -0.6200  0.6223
 2822SOL    HW119925   2.573   1.206   4.071  0.9217 -0.8885 -0.3112
 2822SOL    HW219926   2.710   1.145   4.054 -0.0180 -2.6548  1.7446
 2823SOL     OW19927   3.104   4.633   1.942  0.1595  0.0965 -0.5215
 2823SOL    HW119928   3.130   4.573   1.872  1.4244 -0.2526  0.2564
 2823SOL    HW219929   3.030   4.588   1.984  0.8047 -0.3953  0.0919
 2824SOL     OW19930   4.449   2.525   8.383  0.1803  0.5546 -0.3442
 2824SOL    HW119931   4.505   2.599   8.360  0.1378  1.2604  1.8726
 2824SOL    HW219932   4.499   2.456   8.339 -0.0800  1.3414 -1.8890
 2825SOL     OW19933   2.847   4.525   1.929  0.2142 -0.4408 -0.5685
 2825SOL    HW119934   2.889   4.482   1.854  0.8577 -1.7809  0.5631
 2825SOL    HW219935   2.797   4.597   1.890 -2.4359 -0.7608  2.2402
 2826SOL     OW19936   0.849   0.081  11.168 -0.3591  0.2272 -0.3596
 2826SOL    HW119937   0.939   0.104  11.145  0.2879 -0.1913  1.7535
 2826SOL    HW219938   0.849   4.711  11.177  0.7923  0.3231  0.5836
 2827SOL     OW19939   1.913   0.006   4.624  0.9234 -0.0462  0.3422
 2827SOL    HW119940   1.864   0.005   4.706  2.6765 -0.6189  1.3959
 2827SOL    HW219941   1.968   0.084   4.631  0.2686  0.2502  2.3516
 2828SOL     OW19942   1.371   1.967  17.526  0.2200 -0.1849  0.1968
 2828SOL    HW119943   1.353   2.007  17.611 -0.5837  0.4710 -0.2822
 2828SOL    HW219944   1.463   1.989  17.514  0.9788 -3.4578 -0.0355
 2829SOL     OW19945   1.942   0.061  10.835 -0.1203 -0.1220 -0.6210
 2829SOL    HW119946   1.897   0.119  10.896  2.8042  0.9708  0.4877
 2829SOL    HW219947   1.970   0.121  10.766  0.2014  0.1910 -0.2146
 2830SOL     OW19948   4.362   1.661  16.990  0.2827 -0.2330  0.2721
 2830SOL    HW119949   4.412   1.586  16.958  1.4560  1.2123 -1.2625
 2830SOL    HW219950   4.414   1.694  17.063 -0.2831 -0.5130  0.8112
 2831SOL     OW19951   3.767   0.004   2.663  0.1369  0.2167 -0.1628
 2831SOL    HW119952   3.790   4.665   2.596 -4.2698 -1.3679 -0.1216
 2831SOL    HW219953   3.822   0.074   2.627 -0.3457 -0.7985 -2.9146
 2832SOL     OW19954   4.185   2.493   8.357 -0.2758  0.1144 -0.1691
 2832SOL    HW119955   4.279   2.503   8.377 -0.4915  1.8485 -0.0062
 2832SOL    HW219956   4.145   2.563   8.408 -0.8389 -0.6377  0.4250
 2833SOL     OW19957   3.719   1.512   7.768  0.2204 -0.0069  0.7874
 2833SOL    HW119958   3.639   1.460   7.765  0.4832 -0.4981  1.9604
 2833SOL    HW219959   3.688   1.597   7.736 -0.7499 -1.1619 -1.3310
 2834SOL     OW19960   1.232   2.210  16.175  0.1303  0.1789 -0.3524
 2834SOL    HW119961   1.217   2.167  16.259 -2.5320  1.9939  0.0895
 2834SOL    HW219962   1.327   2.207  16.180 -0.0586 -1.3532  2.3589
 2835SOL     OW19963   2.601   0.163   2.989 -0.2503 -0.1158 -0.2191
 2835SOL    HW119964   2.603   0.163   3.084 -2.8840  2.8952 -0.1307
 2835SOL    HW219965   2.511   0.132   2.976 -0.2886  0.3915 -1.2230
 2836SOL     OW19966   3.393   1.125  10.363 -0.5341 -0.1414 -0.0226
 2836SOL    HW119967   3.357   1.104  10.449 -2.1238 -0.5199 -0.7809
 2836SOL    HW219968   3.486   1.106  10.377 -0.0478  0.3592 -2.5358
 2837SOL     OW19969   3.860   4.373   2.329  0.3375 -0.4983  0.3514
 2837SOL    HW119970   3.809   4.292   2.325 -0.4611  0.0712 -0.7650
 2837SOL    HW219971   3.946   4.346   2.364  0.8690  0.9032  0.1338
 2838SOL     OW19972   4.439   0.150   3.305 -0.6645  0.0874  0.3488
 2838SOL    HW119973   4.433   0.071   3.251 -0.4559  0.3980 -0.1372
 2838SOL    HW219974   4.527   0.183   3.285 -0.5644 -0.6985 -0.4984
 2839SOL     OW19975   0.489   1.953   9.107 -0.0043  0.4096 -0.1496
 2839SOL    HW119976   0.583   1.955   9.090  0.4494 -0.1700  2.2034
 2839SOL    HW219977   0.465   1.951   9.200  0.8783  2.8946  0.1152
 2840SOL     OW19978   3.867   4.425  12.199  0.3602 -0.1892  0.4503
 2840SOL    HW119979   3.803   4.495  12.214  0.5759  0.3079 -0.9815
 2840SOL    HW219980   3.815   4.345  12.186  0.2178  0.1632 -1.2017
 2841SOL     OW19981   3.356   0.687   2.617 -0.0209  0.1649  0.2147
 2841SOL    HW119982   3.291   0.755   2.598  0.4685  1.1911  2.2503
 2841SOL    HW219983   3.308   0.616   2.661 -1.3300  1.3446  0.7014
 2842SOL     OW19984   4.186   1.532   3.447  0.2364 -0.0124 -0.4663
 2842SOL    HW119985   4.096   1.547   3.476 -0.0660  1.9951 -2.4302
 2842SOL    HW219986   4.205   1.623   3.425  0.9437  0.2179  1.0657
 2843SOL     OW19987   2.621   1.198   6.258 -0.1126  0.3406  0.0336
 2843SOL    HW119988   2.597   1.112   6.222 -1.2319  0.0508  1.4853
 2843SOL    HW219989   2.681   1.219   6.186  0.1992  0.3315  0.2946
 2844SOL     OW19990   4.621   1.087   4.271  0.4444  0.2881  0.3887
 2844SOL    HW119991   4.550   1.046   4.322 -0.9300  2.1215 -0.0653
 2844SOL    HW219992   4.654   1.146   4.339 -0.0828 -0.2211  1.0901
 2845SOL     OW19993   1.688   1.790   3.528 -0.4504 -0.2141  0.1535
 2845SOL    HW119994   1.650   1.721   3.473  0.2726 -0.0281 -0.5962
 2845SOL    HW219995   1.624   1.790   3.598  1.1663 -1.1546  1.6114
 2846SOL     OW19996   1.560   3.665   5.271 -0.2635  0.1936 -0.1898
 2846SOL    HW119997   1.590   3.688   5.359 -0.7640 -2.8857  0.7748
 2846SOL    HW219998   1.627   3.610   5.230  1.3468 -0.6259  3.5689
 2847SOL     OW19999   4.230   1.112   4.421 -0.2403 -0.0086 -0.2091
 2847SOL    HW120000   4.224   1.160   4.338 -0.6586  1.9738  0.9801
 2847SOL    HW220001   4.280   1.172   4.476  0.6472 -1.7451  0.8921
 2848SOL     OW20002   2.284   1.502   8.720 -0.5933  0.0785 -0.3843
 2848SOL    HW120003   2.214   1.436   8.716  0.5576 -1.0604 -1.6122
 2848SOL    HW220004   2.348   1.480   8.652  1.1763  2.6404  0.5076
 2849SOL     OW20005   4.256   4.313   9.501  0.2720 -0.9570  0.5849
 2849SOL    HW120006   4.348   4.316   9.476  0.5221 -2.0145  1.4074
 2849SOL    HW220007   4.260   4.293   9.594  0.7454 -0.7069  0.6156
 2850SOL     OW20008   1.291   2.970   2.929  0.0795  0.0163  0.1528
 2850SOL    HW120009   1.300   2.887   2.977  0.9016  1.5190  2.6162
 2850SOL    HW220010   1.349   3.032   2.973  0.7802 -2.3701  2.6057
 2851SOL     OW20011   1.137   4.422   4.979 -0.1392  0.0866 -0.0360
 2851SOL    HW120012   1.122   4.501   5.031 -0.5417 -0.4854  0.7120
 2851SOL    HW220013   1.150   4.356   5.047 -1.0032 -0.1360 -0.0865
 2852SOL     OW20014   1.428   3.741  12.002 -0.4297  0.6564 -0.3324
 2852SOL    HW120015   1.352   3.688  12.027  0.9612 -1.3947 -0.3840
 2852SOL    HW220016   1.410   3.747  11.908  2.2165 -1.1872 -0.9652
 2853SOL     OW20017   3.569   4.265   1.032  0.4773 -0.0816 -0.3900
 2853SOL    HW120018   3.653   4.310   1.032  1.1194 -1.2697 -0.3874
 2853SOL    HW220019   3.496   4.326   1.026  0.0630 -0.3251  1.9887
 2854SOL     OW20020   4.399   1.245   2.592 -0.2142 -0.3555  0.8409
 2854SOL    HW120021   4.364   1.298   2.664 -0.4976 -0.1216  0.5305
 2854SOL    HW220022   4.342   1.262   2.518  2.0492 -0.6707 -0.9834
 2855SOL     OW20023   0.050   0.467   9.002 -0.4620  0.4551  0.4436
 2855SOL    HW120024   4.715   0.446   9.073  0.0067 -0.8736  0.4403
 2855SOL    HW220025   0.015   0.554   8.983  1.4144  1.2605  0.6146
 2856SOL     OW20026   4.122   2.610   5.596  0.0976  0.2586 -0.0029
 2856SOL    HW120027   4.215   2.623   5.579  0.4516  0.3933  2.0673
 2856SOL    HW220028   4.116   2.675   5.666  1.3434  0.5804 -0.2045
 2857SOL     OW20029   2.552   0.732   1.893  0.1349 -0.2964 -0.4198
 2857SOL    HW120030   2.592   0.741   1.980  0.2954 -0.5866 -0.4637
 2857SOL    HW220031   2.582   0.644   1.868  0.1655  0.0291 -1.5198
 2858SOL     OW20032   2.825   0.009  10.920 -0.5339  0.0244  0.3937
 2858SOL    HW120033   2.783   4.710  11.002  0.5492  0.2436  1.0179
 2858SOL    HW220034   2.838   0.102  10.938  0.2944  0.1716 -0.9866
 2859SOL     OW20035   1.490   2.005   7.419 -0.4938  0.1643 -0.0924
 2859SOL    HW120036   1.499   1.969   7.508  0.2358  1.1667  0.2365
 2859SOL    HW220037   1.578   1.998   7.381 -0.7775 -0.9237 -0.5426
 2860SOL     OW20038   4.443   0.686   3.432  0.1610 -0.1183 -0.7627
 2860SOL    HW120039   4.436   0.592   3.445 -1.7341  0.0204 -0.7776
 2860SOL    HW220040   4.408   0.696   3.344 -0.4399 -0.9313 -0.6063
 2861SOL     OW20041   1.097   1.836   0.631 -0.7126 -0.2025  0.0272
 2861SOL    HW120042   1.139   1.759   0.670  0.0883 -0.0464 -0.5291
 2861SOL    HW220043   1.089   1.802   0.541  1.2892 -0.4933 -0.0350
 2862SOL     OW20044   3.719   1.459   5.277  0.3536  0.2498 -0.3636
 2862SOL    HW120045   3.753   1.547   5.294 -0.7073  0.2803  1.6361
 2862SOL    HW220046   3.628   1.477   5.303  1.2166  1.1365  2.0361
 2863SOL     OW20047   3.713   4.426   3.013 -0.5994  1.1278  0.2931
 2863SOL    HW120048   3.710   4.372   2.934  0.3093  1.7604 -0.1666
 2863SOL    HW220049   3.664   4.364   3.067  1.3197  0.4398  1.2673
 2864SOL     OW20050   3.833   2.684   8.626 -0.5759  0.3136  0.2586
 2864SOL    HW120051   3.761   2.700   8.566  0.0037 -2.3688 -1.1278
 2864SOL    HW220052   3.913   2.715   8.582  1.2419 -1.0222  2.5972
 2865SOL     OW20053   4.174   2.923  16.352  0.1680  0.3962  0.3340
 2865SOL    HW120054   4.134   3.001  16.391  1.1893  0.2413  1.6897
 2865SOL    HW220055   4.177   2.949  16.260  0.7022 -3.2651 -0.6987
 2866SOL     OW20056   2.808   0.079   8.024  0.0064 -0.2083 -0.0580
 2866SOL    HW120057   2.903   0.090   8.021  0.0525 -0.3181  0.7883
 2866SOL    HW220058   2.787   0.093   7.932 -0.9863 -1.8426 -0.0834
 2867SOL     OW20059   1.659   2.338   6.359 -0.1292 -0.5462 -0.2462
 2867SOL    HW120060   1.637   2.390   6.281  0.4440 -2.0086 -1.3762
 2867SOL    HW220061   1.586   2.358   6.418 -0.1779  0.8765 -0.7920
 2868SOL     OW20062   2.578   2.027   2.901  0.3178  0.3655  0.2873
 2868SOL    HW120063   2.629   1.954   2.937 -0.9378  0.0150  1.3306
 2868SOL    HW220064   2.650   2.081   2.870 -0.5422  1.2504 -0.1440
 2869SOL     OW20065   2.841   2.604  14.153 -0.2092  0.0154  0.0401
 2869SOL    HW120066   2.898   2.667  14.109  0.7328 -2.3827 -2.1737
 2869SOL    HW220067   2.897   2.529  14.171 -2.9351 -2.1751 -0.5741
 2870SOL     OW20068   2.960   2.434   4.894 -0.7943 -0.5825 -0.2240
 2870SOL    HW120069   3.000   2.516   4.924 -0.5297 -0.1999 -1.6116
 2870SOL    HW220070   2.873   2.455   4.929 -1.0745 -1.0475 -0.6588
 2871SOL     OW20071   1.053   3.136   5.125 -0.4425 -0.6352  1.0295
 2871SOL    HW120072   1.100   3.163   5.204  0.1914 -0.1162  0.4770
 2871SOL    HW220073   0.961   3.126   5.147 -0.9783 -2.0201 -1.7356
 2872SOL     OW20074   0.288   2.587   1.246 -0.0961 -0.1791 -0.3919
 2872SOL    HW120075   0.223   2.611   1.179  0.3354  0.3588 -0.6158
 2872SOL    HW220076   0.233   2.559   1.319  0.8941 -0.4421  0.2528
 2873SOL     OW20077   4.479   3.328  16.731  0.4644  0.1602 -0.0979
 2873SOL    HW120078   4.460   3.289  16.645  2.6292  0.5103 -0.7556
 2873SOL    HW220079   4.491   3.421  16.713  1.0935 -0.0919 -0.9912
 2874SOL     OW20080   0.197   1.371   9.474  0.2717 -0.2710 -0.0110
 2874SOL    HW120081   0.234   1.329   9.551  0.5215  1.2450  0.7049
 2874SOL    HW220082   0.188   1.294   9.418  1.0253 -1.2171  1.2026
 2875SOL     OW20083   3.646   0.102  10.884 -0.2142  0.4591  0.3684
 2875SOL    HW120084   3.651   0.034  10.951  0.7025 -0.8340 -1.0335
 2875SOL    HW220085   3.579   0.151  10.932 -0.5188 -0.4708  0.8968
 2876SOL     OW20086   1.197   4.327  13.278 -0.0930 -0.2973  0.3967
 2876SOL    HW120087   1.149   4.409  13.274 -0.0380 -0.3285 -0.8329
 2876SOL    HW220088   1.123   4.267  13.289 -0.6531  0.4369  0.6299
 2877SOL     OW20089   0.043   2.904  11.211 -0.4102  0.0093 -0.0840
 2877SOL    HW120090   4.708   2.975  11.187  0.1958  1.0181  1.4161
 2877SOL    HW220091   4.714   2.827  11.192 -0.5417 -0.0556  0.5260
 2878SOL     OW20092   3.819   2.784  10.251 -0.8418  0.2332  0.7390
 2878SOL    HW120093   3.785   2.852  10.308  0.9855  2.5778 -0.9895
 2878SOL    HW220094   3.786   2.701  10.286  2.9834 -1.2739  0.7900
 2879SOL     OW20095   3.628   3.220   7.479 -0.6357  0.3011  0.0304
 2879SOL    HW120096   3.556   3.212   7.541 -1.0299 -0.4923 -0.5237
 2879SOL    HW220097   3.684   3.286   7.519  1.2870 -1.7233  0.6694
 2880SOL     OW20098   4.537   4.256   3.840 -0.5571 -0.1018 -0.2572
 2880SOL    HW120099   4.628   4.262   3.869 -1.2120 -0.7538  1.9535
 2880SOL    HW220100   4.495   4.252   3.926  0.7353  1.4886  0.4333
 2881SOL     OW20101   0.729   3.637   5.524  0.0405  0.1438 -0.5438
 2881SOL    HW120102   0.758   3.728   5.515  1.2452 -0.1212  0.6802
 2881SOL    HW220103   0.645   3.642   5.477 -0.2361  1.6942  0.1035
 2882SOL     OW20104   0.747   2.709   4.255  0.3432  0.1350  0.4252
 2882SOL    HW120105   0.817   2.735   4.195  0.5605  0.7560  0.9514
 2882SOL    HW220106   0.785   2.734   4.339  0.7386  0.5016  0.1359
 2883SOL     OW20107   2.070   2.648  13.822 -0.1670 -0.4838 -0.3112
 2883SOL    HW120108   2.038   2.733  13.791  0.2119 -0.3918 -0.4427
 2883SOL    HW220109   2.026   2.585  13.766 -2.2003 -0.6614  1.4620
 2884SOL     OW20110   1.503   2.499   7.328 -0.5829 -0.4060  0.1414
 2884SOL    HW120111   1.563   2.562   7.288 -0.4792  0.2868  1.3974
 2884SOL    HW220112   1.562   2.449   7.383 -1.2145 -1.3787 -0.0779
 2885SOL     OW20113   2.054   0.602  12.477  0.2236  0.3084 -0.0463
 2885SOL    HW120114   1.984   0.606  12.542  1.7499 -0.8588  1.6458
 2885SOL    HW220115   2.056   0.507  12.467  2.2807  0.5021 -1.5615
 2886SOL     OW20116   0.998   4.141  13.206 -0.2355 -0.7752  0.3827
 2886SOL    HW120117   0.929   4.184  13.155 -1.4448 -0.9822  1.8479
 2886SOL    HW220118   0.943   4.121  13.281  0.7379  0.9673  1.5843
 2887SOL     OW20119   0.957   2.901   3.202 -0.1952 -0.0556 -0.1246
 2887SOL    HW120120   0.979   2.894   3.295  2.2387  3.1334 -0.4568
 2887SOL    HW220121   0.999   2.986   3.188 -3.2957  1.5011  0.0569
 2888SOL     OW20122   2.160   4.090  10.841  0.3089  0.3318 -0.3641
 2888SOL    HW120123   2.143   4.142  10.762 -0.2062 -1.1152 -1.2086
 2888SOL    HW220124   2.255   4.089  10.831  0.3491 -1.2656  0.1200
 2889SOL     OW20125   2.173   4.404   8.512  0.6919  0.2869 -0.7984
 2889SOL    HW120126   2.079   4.401   8.529  0.8208 -0.6216 -0.2438
 2889SOL    HW220127   2.207   4.414   8.601  0.2432 -0.3940 -0.5599
 2890SOL     OW20128   2.780   3.624  16.782 -0.1620 -0.6653  0.1719
 2890SOL    HW120129   2.820   3.612  16.868  0.0955 -0.0529  0.1309
 2890SOL    HW220130   2.792   3.717  16.763  0.5565 -0.8527 -0.3071
 2891SOL     OW20131   0.927   4.193   3.790  0.7907 -0.3658  0.2589
 2891SOL    HW120132   1.011   4.189   3.836 -0.0880 -1.9720  1.7486
 2891SOL    HW220133   0.883   4.133   3.850 -0.6382 -0.1702 -0.5931
 2892SOL     OW20134   3.279   0.530  14.520  0.0257 -0.2773  0.6680
 2892SOL    HW120135   3.363   0.535  14.473  0.7397  4.3270  2.3991
 2892SOL    HW220136   3.283   0.589  14.595  0.8445 -0.3880  0.7104
 2893SOL     OW20137   4.001   2.807   3.650 -0.1803  0.4274  0.1953
 2893SOL    HW120138   4.034   2.719   3.670  1.2129  0.3779 -2.3780
 2893SOL    HW220139   4.078   2.861   3.667 -0.5910  1.5037 -1.4287
 2894SOL     OW20140   3.555   1.920   5.319 -0.1522 -0.0713  0.2274
 2894SOL    HW120141   3.576   2.011   5.340 -0.6657  0.6321 -2.2579
 2894SOL    HW220142   3.460   1.918   5.314 -0.1822 -0.6101  0.9809
 2895SOL     OW20143   2.013   2.978  10.668  0.4264  0.2706 -0.3627
 2895SOL    HW120144   1.997   3.054  10.723  3.6116 -0.9539  2.2771
 2895SOL    HW220145   1.927   2.936  10.677  0.4136  0.5182  0.7213
 2896SOL     OW20146   3.003   0.547   7.417 -0.4606 -0.1081 -0.0942
 2896SOL    HW120147   2.933   0.492   7.382  1.2976 -1.8316 -0.8993
 2896SOL    HW220148   3.003   0.622   7.358 -0.0059 -1.3734 -1.6800
 2897SOL     OW20149   0.016   3.928   7.983 -0.3136 -0.8440  0.3989
 2897SOL    HW120150   0.103   3.891   7.998 -0.5463 -0.8761  1.6728
 2897SOL    HW220151   4.688   3.865   8.032 -1.4809  1.1656  1.7567
 2898SOL     OW20152   2.075   4.317  11.073 -0.0352  0.4652 -0.3144
 2898SOL    HW120153   2.160   4.360  11.062  0.4752 -0.4470  0.1063
 2898SOL    HW220154   2.026   4.398  11.087  0.8928  0.9214  0.3658
 2899SOL     OW20155   2.437   2.391   5.276  0.1700  0.1908 -0.4782
 2899SOL    HW120156   2.429   2.466   5.336  1.8603  1.2396 -1.5827
 2899SOL    HW220157   2.438   2.426   5.187  2.6335  2.2030  0.3386
 2900SOL     OW20158   2.236   4.222   4.883 -0.5432  0.2617 -0.1392
 2900SOL    HW120159   2.300   4.204   4.814  1.1471 -2.3498  2.1236
 2900SOL    HW220160   2.275   4.178   4.959 -1.6843  0.9901  0.8782
 2901SOL     OW20161   0.118   2.480   0.683  0.0903  0.7217 -0.3972
 2901SOL    HW120162   0.027   2.466   0.711  0.1204  0.3432 -0.4819
 2901SOL    HW220163   0.127   2.573   0.703 -1.0745  0.6869  0.2939
 2902SOL     OW20164   1.356   0.714   3.920 -0.3409 -0.0030 -0.0437
 2902SOL    HW120165   1.311   0.680   3.843  2.0484  0.1745 -1.5522
 2902SOL    HW220166   1.344   0.646   3.985  0.1931  0.1610  0.2310
 2903SOL     OW20167   3.650   0.075   8.162 -0.2147 -0.3362  0.4927
 2903SOL    HW120168   3.575   0.063   8.105 -0.5362 -2.7288  1.3912
 2903SOL    HW220169   3.700   0.142   8.116  0.4248 -1.1429  0.0029
 2904SOL     OW20170   0.065   3.581  10.780  0.0269 -0.2281 -0.3375
 2904SOL    HW120171   0.025   3.557  10.697  1.8365  0.5953 -1.4339
 2904SOL    HW220172   0.139   3.636  10.753 -0.2896  0.9304  1.1596
 2905SOL     OW20173   3.076   1.040   7.863 -0.4315 -0.7887  0.3786
 2905SOL    HW120174   3.054   1.133   7.852  1.9849 -0.2463  0.0941
 2905SOL    HW220175   3.157   1.027   7.813  0.4377  0.0831  1.5307
 2906SOL     OW20176   2.872   1.394   4.504  0.4784 -0.4102 -0.2688
 2906SOL    HW120177   2.930   1.462   4.539 -0.8021  1.1403 -1.1659
 2906SOL    HW220178   2.867   1.424   4.413  2.8796 -1.8646 -0.8957
 2907SOL     OW20179   1.904   1.787   6.304 -0.5895  0.3289  0.4159
 2907SOL    HW120180   1.926   1.741   6.223  0.1479 -0.2139  0.9364
 2907SOL    HW220181   1.928   1.739   6.383  0.3558 -1.6875 -1.0898
 2908SOL     OW20182   1.987   1.395   1.841  0.6777  0.6415  0.4377
 2908SOL    HW120183   1.979   1.419   1.749  2.4748  2.3162  0.7254
 2908SOL    HW220184   2.020   1.307   1.820  1.6809  1.5297 -1.6614
 2909SOL     OW20185   3.219   0.682   3.352  0.6466 -0.2453  0.0161
 2909SOL    HW120186   3.264   0.708   3.272 -0.5378  1.9138  0.0746
 2909SOL    HW220187   3.207   0.768   3.391  0.8385  1.2003 -3.1686
 2910SOL     OW20188   2.405   3.342  15.110  0.4983 -0.1563 -0.0704
 2910SOL    HW120189   2.396   3.401  15.036  0.2449  0.3109  0.3340
 2910SOL    HW220190   2.421   3.267  15.052 -2.4305 -0.4852 -0.4579
 2911SOL     OW20191   0.980   2.085   5.801 -0.1821  0.2771 -0.3595
 2911SOL    HW120192   1.021   1.998   5.798  0.2881  0.5363 -1.6436
 2911SOL    HW220193   0.904   2.070   5.745 -1.5687  1.3228  1.2275
 2912SOL     OW20194   2.906   2.389   8.479 -0.0918  0.1443  0.5619
 2912SOL    HW120195   2.908   2.330   8.553  2.1003 -1.6829 -0.9784
 2912SOL    HW220196   2.873   2.474   8.510 -3.7241 -1.4280  0.9936
 2913SOL     OW20197   1.028   0.184  13.468  0.5689 -0.7298  0.4684
 2913SOL    HW120198   1.098   0.120  13.454  0.3836 -1.0424  0.9935
 2913SOL    HW220199   1.025   0.178  13.563 -0.6876 -0.2438  0.4559
 2914SOL     OW20200   4.502   3.463  14.425 -0.5008 -0.4242  0.3850
 2914SOL    HW120201   4.567   3.478  14.493  0.0626  1.1842 -0.5159
 2914SOL    HW220202   4.540   3.499  14.345 -0.9999  1.3032  0.9377
 2915SOL     OW20203   4.102   0.508  14.983  0.1231  0.0875  0.5526
 2915SOL    HW120204   4.027   0.487  14.927  0.2625 -1.2223  0.8527
 2915SOL    HW220205   4.102   0.419  15.018 -0.2188 -0.3675 -0.6243
 2916SOL     OW20206   2.402   3.526   2.869 -0.3875  0.3724 -0.1827
 2916SOL    HW120207   2.376   3.608   2.911 -3.1945 -1.2140  1.1426
 2916SOL    HW220208   2.482   3.557   2.825 -0.4803 -0.0043 -0.6140
 2917SOL     OW20209   4.549   2.223  12.339  0.5810  0.7825 -0.3283
 2917SOL    HW120210   4.565   2.147  12.282 -0.3472  0.1844  0.2004
 2917SOL    HW220211   4.524   2.294  12.280  3.7267  0.9454 -1.5053
 2918SOL     OW20212   4.367   1.598   2.421 -0.2569  0.4188  0.2858
 2918SOL    HW120213   4.437   1.570   2.480  2.9579  0.7631 -3.3396
 2918SOL    HW220214   4.327   1.649   2.491 -1.3091  1.1315 -0.8405
 2919SOL     OW20215   2.395   2.083   3.678  0.1349 -0.3721  0.1009
 2919SOL    HW120216   2.406   2.078   3.773 -2.9586 -1.7959  0.3771
 2919SOL    HW220217   2.466   2.029   3.642 -0.0995  1.2315 -2.8419
 2920SOL     OW20218   1.092   3.770   3.659 -0.1965  0.1596  0.7852
 2920SOL    HW120219   1.083   3.784   3.754 -0.7090 -2.0897  1.0570
 2920SOL    HW220220   1.055   3.683   3.647  0.5084 -0.0350  0.1190
 2921SOL     OW20221   2.589   4.343   9.172  0.2243 -0.2315  0.0193
 2921SOL    HW120222   2.583   4.430   9.211  2.0040 -0.4186  0.7224
 2921SOL    HW220223   2.681   4.344   9.143  0.2969 -1.8487  0.1854
 2922SOL     OW20224   2.901   3.646   3.999 -0.2191 -0.2824  0.2655
 2922SOL    HW120225   2.830   3.584   3.980  0.7754 -1.2698 -0.1916
 2922SOL    HW220226   2.856   3.730   3.999 -1.6773 -1.0378  1.0524
 2923SOL     OW20227   3.900   2.008   4.409 -0.7406 -0.1697  0.0517
 2923SOL    HW120228   3.842   1.995   4.334 -1.0595  0.1682  0.2393
 2923SOL    HW220229   3.976   1.960   4.377 -1.1543 -1.6190  1.2533
 2924SOL     OW20230   1.284   2.151  14.762 -0.5210 -0.1727  0.6083
 2924SOL    HW120231   1.310   2.154  14.855 -0.4916 -1.2416  0.6311
 2924SOL    HW220232   1.206   2.095  14.768  0.7116 -2.0156 -0.6317
 2925SOL     OW20233   2.170   0.230   5.420 -0.1591  0.0093 -0.5345
 2925SOL    HW120234   2.139   0.156   5.472  0.7904 -0.2741 -0.3752
 2925SOL    HW220235   2.081   0.238   5.385 -0.7552 -3.1161  0.2789
 2926SOL     OW20236   1.298   2.168   0.903 -0.3055 -0.1321  0.4693
 2926SOL    HW120237   1.314   2.073   0.908 -2.4323 -0.6340 -2.6465
 2926SOL    HW220238   1.375   2.198   0.952 -0.8738  0.4201  1.0288
 2927SOL     OW20239   0.588   0.773  12.866 -0.2079  0.4180  0.3983
 2927SOL    HW120240   0.561   0.855  12.907 -0.7189  0.4489 -0.0077
 2927SOL    HW220241   0.586   0.790  12.772  2.0386 -1.6306 -0.0162
 2928SOL     OW20242   4.666   3.150   4.377 -0.0807 -0.5021 -0.1670
 2928SOL    HW120243   4.613   3.080   4.341  0.3148 -1.0009  0.2226
 2928SOL    HW220244   0.025   3.137   4.333  0.8398  1.9680  0.8204
 2929SOL     OW20245   3.865   4.409  17.089 -0.0052 -0.0758 -0.1967
 2929SOL    HW120246   3.861   4.355  17.168  0.3453  0.2997  0.0787
 2929SOL    HW220247   3.833   4.493  17.121 -1.8811 -0.4182 -1.1823
 2930SOL     OW20248   0.327   2.430   2.647  0.7177 -0.1331 -0.1625
 2930SOL    HW120249   0.274   2.359   2.683  0.7642  0.3795  0.9055
 2930SOL    HW220250   0.295   2.433   2.556 -2.2046  1.2377  0.9158
 2931SOL     OW20251   1.017   3.672   9.995 -0.6156  0.7731 -0.3222
 2931SOL    HW120252   0.960   3.655   9.920 -2.2219 -1.6318  1.4728
 2931SOL    HW220253   1.077   3.721   9.938 -0.6898  1.2805  0.0368
 2932SOL     OW20254   0.051   4.428   8.517 -0.1806  0.3595  0.2083
 2932SOL    HW120255   0.046   4.395   8.606  3.3009  0.1768  0.3546
 2932SOL    HW220256   0.133   4.478   8.511  0.6640 -1.2092 -1.2620
 2933SOL     OW20257   1.104   4.685   9.463 -0.4647  0.2754  0.0312
 2933SOL    HW120258   1.040   4.705   9.395 -1.7590 -0.4738  1.0350
 2933SOL    HW220259   1.085   4.591   9.466 -0.0844  0.1845 -0.2935
 2934SOL     OW20260   0.349   4.718  14.773 -0.2010  0.2868 -0.0183
 2934SOL    HW120261   0.429   4.705  14.724  0.2906 -2.2587  1.4530
 2934SOL    HW220262   0.285   4.711  14.702 -1.4087 -0.4351  1.1249
 2935SOL     OW20263   0.904   4.453   9.769  0.6885 -0.4595 -0.4897
 2935SOL    HW120264   0.864   4.540   9.758 -1.0203 -0.7904  3.0043
 2935SOL    HW220265   0.830   4.403   9.733 -2.1760  2.3017  1.5369
 2936SOL     OW20266   0.404   1.227  11.136  0.2349  0.2925  0.1200
 2936SOL    HW120267   0.408   1.190  11.048  1.4184  0.4454  0.1124
 2936SOL    HW220268   0.380   1.315  11.105 -0.4206  0.6293  1.6014
 2937SOL     OW20269   1.485   1.595   6.535 -0.0794 -0.3035 -0.0289
 2937SOL    HW120270   1.478   1.608   6.440  0.4631 -1.7779 -0.2818
 2937SOL    HW220271   1.392   1.576   6.544 -0.2284  0.2540 -0.3858
 2938SOL     OW20272   4.624   2.215   9.772 -0.7169  0.5355 -0.4642
 2938SOL    HW120273   4.575   2.150   9.822  0.5404 -1.0751 -1.3444
 2938SOL    HW220274   4.612   2.180   9.684  0.2867  0.6716 -0.6482
 2939SOL     OW20275   4.195   3.018   5.913 -0.4561  0.3602  1.0082
 2939SOL    HW120276   4.232   3.080   5.975  0.9724  1.3437 -0.8446
 2939SOL    HW220277   4.143   2.965   5.974 -0.7309 -1.0499 -0.4485
 2940SOL     OW20278   3.868   3.682   3.488  0.1876 -0.2754  0.2618
 2940SOL    HW120279   3.903   3.607   3.537  0.5133  0.1709  0.7127
 2940SOL    HW220280   3.873   3.752   3.553 -0.8862 -0.2755  0.3490
 2941SOL     OW20281   2.869   2.210   3.660 -0.2710 -0.2300 -0.0568
 2941SOL    HW120282   2.887   2.303   3.674  1.7613 -0.5078 -0.8860
 2941SOL    HW220283   2.906   2.208   3.572  1.5758  3.0651  0.6503
 2942SOL     OW20284   3.268   3.789   2.432 -0.1742 -0.4259  0.1251
 2942SOL    HW120285   3.303   3.770   2.520  0.0656  0.9402  0.3306
 2942SOL    HW220286   3.188   3.834   2.457  0.2781  1.7794 -2.4490
 2943SOL     OW20287   4.538   2.240   7.617 -0.0884  0.1654 -0.1460
 2943SOL    HW120288   4.447   2.221   7.641  0.1857 -4.0345 -2.4264
 2943SOL    HW220289   4.586   2.225   7.698 -1.4813 -0.5617  0.5451
 2944SOL     OW20290   2.521   0.675   8.105 -0.3166  0.3315  0.2282
 2944SOL    HW120291   2.519   0.759   8.058  1.6196  0.5298  0.5330
 2944SOL    HW220292   2.614   0.668   8.123 -1.0536 -3.7519  2.4390
 2945SOL     OW20293   3.786   1.559   7.252 -0.2218 -0.2906  0.1319
 2945SOL    HW120294   3.782   1.523   7.341  2.1204  0.6462  0.6423
 2945SOL    HW220295   3.845   1.497   7.209  0.6453  1.0147 -0.5615
 2946SOL     OW20296   1.004   2.170   1.479 -0.1006  0.0195 -0.1133
 2946SOL    HW120297   1.001   2.076   1.461  0.8161 -0.3098  1.4375
 2946SOL    HW220298   0.928   2.209   1.437  0.8487  1.0045 -0.9154
 2947SOL     OW20299   0.097   3.490   2.633 -0.0586  0.0986  0.6365
 2947SOL    HW120300   0.085   3.407   2.588 -0.9641 -0.4804  1.9392
 2947SOL    HW220301   0.167   3.466   2.693 -0.9021  0.1927  1.6601
 2948SOL     OW20302   3.590   3.540  12.178  0.0151  0.1700  0.3559
 2948SOL    HW120303   3.571   3.615  12.121  0.2815  0.9826  1.3245
 2948SOL    HW220304   3.501   3.515  12.201 -0.1579  1.1833  0.8208
 2949SOL     OW20305   1.943   0.458  11.376  0.2128 -0.3827 -0.1306
 2949SOL    HW120306   1.913   0.418  11.294  1.0882  0.2655 -0.7583
 2949SOL    HW220307   2.033   0.427  11.381  1.0704  2.1354 -0.0639
 2950SOL     OW20308   1.218   2.762   1.124  0.2799  0.0791  0.6508
 2950SOL    HW120309   1.219   2.680   1.173 -2.8820  1.9795  3.9449
 2950SOL    HW220310   1.280   2.818   1.171 -1.8545  0.5994  2.8871
 2951SOL     OW20311   0.299   0.940   5.361 -0.2261 -0.2441  0.3771
 2951SOL    HW120312   0.334   0.963   5.447  1.2920 -1.8305  0.1831
 2951SOL    HW220313   0.370   0.973   5.306 -2.0336 -2.6768 -3.3914
 2952SOL     OW20314   0.229   1.840   3.786  0.7049  0.1309  0.0571
 2952SOL    HW120315   0.322   1.819   3.786  0.2603 -1.8592  1.6419
 2952SOL    HW220316   0.199   1.764   3.835  0.0587  1.6888  2.0822
 2953SOL     OW20317   2.616   0.647   4.154  0.1404  0.3110  0.0763
 2953SOL    HW120318   2.592   0.716   4.215 -2.0209  1.1720 -1.7332
 2953SOL    HW220319   2.618   0.685   4.066  1.8504 -0.7280 -0.3457
 2954SOL     OW20320   4.322   3.020   7.173  0.4753 -0.2461 -0.4457
 2954SOL    HW120321   4.386   3.063   7.230  0.4742 -0.2625 -0.4321
 2954SOL    HW220322   4.340   2.929   7.198 -0.2123  0.0399  1.0797
 2955SOL     OW20323   0.452   0.168   3.863 -0.0896  0.5313 -0.0777
 2955SOL    HW120324   0.481   0.176   3.772 -0.7545 -0.0946 -0.3545
 2955SOL    HW220325   0.442   0.073   3.872  0.5079  0.5594  0.8671
 2956SOL     OW20326   4.387   4.432  16.857 -0.1107 -0.5278  0.0401
 2956SOL    HW120327   4.440   4.360  16.890  1.7687  0.0465 -1.7114
 2956SOL    HW220328   4.320   4.446  16.924 -0.0087 -0.7416  0.1849
 2957SOL     OW20329   4.502   2.484   4.217 -0.3646  0.1245  0.2507
 2957SOL    HW120330   4.597   2.498   4.225 -0.4820  0.3592  1.2144
 2957SOL    HW220331   4.502   2.409   4.276 -1.3918 -1.3912 -1.6706
 2958SOL     OW20332   2.105   2.214   2.097  0.1633  0.2942  0.0115
 2958SOL    HW120333   2.195   2.248   2.101  0.4297 -0.2014 -1.7281
 2958SOL    HW220334   2.124   2.134   2.048  0.8592 -0.0121  0.7631
 2959SOL     OW20335   1.315   1.606   0.927  0.1199  0.2206 -0.0350
 2959SOL    HW120336   1.274   1.577   0.845  2.6597 -1.4995 -0.7039
 2959SOL    HW220337   1.405   1.575   0.913  0.3243  1.2298 -0.9945
 2960SOL     OW20338   4.467   2.445  14.918 -0.4683  0.3721  0.0146
 2960SOL    HW120339   4.454   2.532  14.881 -1.2243  1.2637  2.4377
 2960SOL    HW220340   4.559   2.443  14.944 -0.6061  2.2353  0.6005
 2961SOL     OW20341   1.498   2.111   8.351 -0.5644  0.1577 -0.5912
 2961SOL    HW120342   1.475   2.160   8.430  0.8336 -1.9279  1.1169
 2961SOL    HW220343   1.421   2.074   8.311 -0.6435 -0.5518  0.2205
 2962SOL     OW20344   2.638   2.849  14.557 -0.2678  0.0651 -0.2629
 2962SOL    HW120345   2.565   2.789  14.543  1.7339 -2.1854 -1.1363
 2962SOL    HW220346   2.678   2.834  14.471 -0.2777 -0.2536 -0.2121
 2963SOL     OW20347   0.664   4.377   7.668  0.8255  0.1033  0.3435
 2963SOL    HW120348   0.621   4.336   7.744  1.0021 -1.1795 -0.2440
 2963SOL    HW220349   0.651   4.471   7.681  0.4469  0.2048 -0.7569
 2964SOL     OW20350   0.317   3.073   7.252 -0.3885  0.1469 -0.3354
 2964SOL    HW120351   0.229   3.077   7.215 -0.8090  1.0450  0.7516
 2964SOL    HW220352   0.309   3.142   7.318 -0.2254 -0.8818  0.7527
 2965SOL     OW20353   4.418   2.445   5.791  0.0574  0.0696 -0.3498
 2965SOL    HW120354   4.375   2.525   5.823  0.3834 -0.6728  1.9163
 2965SOL    HW220355   4.363   2.373   5.822  1.2184 -0.9172 -0.5776
 2966SOL     OW20356   4.164   2.279  14.811  0.0166 -0.2826 -0.6633
 2966SOL    HW120357   4.143   2.332  14.888 -1.5939 -0.8820 -0.6958
 2966SOL    HW220358   4.114   2.200  14.830  1.1570 -1.0531 -0.8749
 2967SOL     OW20359   0.304   1.799  14.937  0.0854 -0.4564  0.1129
 2967SOL    HW120360   0.315   1.717  14.986  0.2196 -0.1532  0.5996
 2967SOL    HW220361   0.370   1.861  14.971  0.6569 -1.5813  1.0686
 2968SOL     OW20362   2.215   0.125   7.481  0.7007  0.3359  0.1328
 2968SOL    HW120363   2.247   0.200   7.532  1.2979  0.3206 -0.2259
 2968SOL    HW220364   2.303   0.096   7.461 -0.6324 -2.0654 -2.1914
 2969SOL     OW20365   2.127   1.394   2.873  0.2894  0.1606 -0.2094
 2969SOL    HW120366   2.049   1.404   2.929  0.2466  3.3527 -0.8086
 2969SOL    HW220367   2.113   1.306   2.837  0.5238  0.5886 -1.3574
 2970SOL     OW20368   0.516   1.765  17.612 -0.6130 -0.4323  0.5043
 2970SOL    HW120369   0.609   1.776  17.630 -0.0151 -2.3230 -1.3820
 2970SOL    HW220370   0.483   1.690  17.661  3.6566 -3.5325 -1.3463
 2971SOL     OW20371   3.491   0.995   8.168 -0.1392  0.7239 -0.1703
 2971SOL    HW120372   3.475   1.042   8.249 -0.3950 -0.4578  0.4543
 2971SOL    HW220373   3.582   0.963   8.166 -0.0793  0.8902 -0.0797
 2972SOL     OW20374   1.748   4.380   3.521 -0.2130 -0.3374 -0.2637
 2972SOL    HW120375   1.720   4.430   3.598  0.2966 -0.2080 -0.1615
 2972SOL    HW220376   1.792   4.454   3.479 -2.0846  0.1368 -1.3375
 2973SOL     OW20377   0.743   3.759   3.023 -0.2093 -0.6482  0.1456
 2973SOL    HW120378   0.758   3.768   2.929 -1.3229  2.7467  0.3020
 2973SOL    HW220379   0.690   3.838   3.017  2.4112  1.2538  2.2205
 2974SOL     OW20380   1.136   4.285   8.561 -0.1703  0.1491 -0.1189
 2974SOL    HW120381   1.199   4.234   8.612 -2.2243 -0.1116  2.1276
 2974SOL    HW220382   1.186   4.359   8.528  0.2344  1.3757  3.2786
 2975SOL     OW20383   2.923   0.406   8.996 -0.1256  0.0518 -0.1881
 2975SOL    HW120384   2.925   0.459   8.917 -0.9557 -1.4422 -1.2149
 2975SOL    HW220385   2.830   0.384   8.996  0.5054 -2.6046 -0.2985
 2976SOL     OW20386   2.569   2.543  15.706  0.0720  0.3682  0.6369
 2976SOL    HW120387   2.526   2.578  15.784 -1.4219  0.0394 -0.0411
 2976SOL    HW220388   2.606   2.466  15.749  2.5883  0.7165 -0.8926
 2977SOL     OW20389   1.981   1.844  11.824 -0.6419  0.2345 -0.5563
 2977SOL    HW120390   1.945   1.818  11.909  0.4717  0.9479  0.1303
 2977SOL    HW220391   2.069   1.814  11.845 -2.1325 -2.8642  1.2741
 2978SOL     OW20392   2.401   2.854  12.573 -0.8189  0.1733  0.0008
 2978SOL    HW120393   2.441   2.846  12.487 -0.3310 -0.0261  0.2439
 2978SOL    HW220394   2.338   2.922  12.551  0.4022  1.8005  1.5531
 2979SOL     OW20395   2.745   2.643   3.102 -0.3817  0.7637  0.3580
 2979SOL    HW120396   2.661   2.686   3.118 -0.2348  1.7775 -1.6656
 2979SOL    HW220397   2.772   2.683   3.020  1.6081 -1.0812  0.1174
 2980SOL     OW20398   0.523   4.302   5.881  0.0161 -0.6048 -0.1127
 2980SOL    HW120399   0.495   4.214   5.855  0.3207 -0.8488  0.4037
 2980SOL    HW220400   0.606   4.309   5.835 -0.1795  1.3817 -0.1523
 2981SOL     OW20401   4.615   0.218   9.756  0.7560 -0.0379  0.5405
 2981SOL    HW120402   4.582   0.291   9.808 -0.2988 -2.3702  3.1328
 2981SOL    HW220403   4.545   0.154   9.764  0.0159  0.8644  1.2646
 2982SOL     OW20404   1.582   2.378  17.660  0.5586 -0.2142 -0.1736
 2982SOL    HW120405   1.580   2.420   0.044 -1.1943 -2.7210  1.0230
 2982SOL    HW220406   1.676   2.376  17.643  0.6635  2.8324  0.0401
 2983SOL     OW20407   1.848   0.010   5.609 -0.4727 -0.5486  0.2477
 2983SOL    HW120408   1.891   0.071   5.669 -0.6851  0.5927 -0.7651
 2983SOL    HW220409   1.763   4.715   5.647 -0.2916  0.0909  0.9890
 2984SOL     OW20410   3.700   2.115   5.785 -0.3458 -0.2831  0.5793
 2984SOL    HW120411   3.768   2.166   5.829  0.7896 -0.3374 -1.1039
 2984SOL    HW220412   3.661   2.067   5.858 -2.6216  0.2519 -0.2909
 2985SOL     OW20413   4.070   3.622   5.083 -0.4732 -0.1696 -0.3676
 2985SOL    HW120414   4.152   3.618   5.131 -1.0592  0.0390  0.6537
 2985SOL    HW220415   4.058   3.527   5.073 -1.0459 -0.3238  1.8723
 2986SOL     OW20416   4.056   2.283  10.150  0.2141 -0.1141 -0.0242
 2986SOL    HW120417   4.005   2.212  10.111 -1.2459  2.3319 -2.5346
 2986SOL    HW220418   4.041   2.356  10.090 -1.0283 -2.5722 -2.7039
 2987SOL     OW20419   0.253   0.286   5.735 -0.2706  0.3309 -0.8287
 2987SOL    HW120420   0.195   0.215   5.763  1.3415  0.1430  2.0601
 2987SOL    HW220421   0.267   0.248   5.648 -0.2734  1.7727 -1.4637
 2988SOL     OW20422   0.210   0.562   6.293 -0.0205 -0.0235 -0.2709
 2988SOL    HW120423   0.252   0.524   6.216 -0.9124 -0.0108 -0.7558
 2988SOL    HW220424   0.215   0.485   6.350 -0.2796  1.8274  2.3013
 2989SOL     OW20425   1.400   4.658   4.494  0.4139 -0.5581 -0.1127
 2989SOL    HW120426   1.495   4.660   4.483  0.4029  0.6782 -0.0224
 2989SOL    HW220427   1.383   0.010   4.548  1.8591  0.8077 -1.5877
 2990SOL     OW20428   2.855   0.545   2.919  0.2445 -0.0393 -0.3135
 2990SOL    HW120429   2.798   0.478   2.881 -1.3909  0.1456  1.8222
 2990SOL    HW220430   2.820   0.620   2.870 -0.3702 -0.7022 -0.8716
 2991SOL     OW20431   3.488   1.154  12.977  1.1675  0.1895  0.6369
 2991SOL    HW120432   3.398   1.175  13.002  0.5302 -0.2484 -1.2597
 2991SOL    HW220433   3.483   1.144  12.882 -0.5951  2.7405  0.4773
 2992SOL     OW20434   1.278   0.906  17.445  0.5135 -0.2368  0.5411
 2992SOL    HW120435   1.367   0.889  17.475 -0.1202 -3.0292  0.8019
 2992SOL    HW220436   1.288   0.967  17.371 -0.5366  0.7176  1.1861
 2993SOL     OW20437   1.858   4.662   4.877 -0.1895  0.7332  0.1647
 2993SOL    HW120438   1.905   4.613   4.944 -0.8012  0.2679  0.2541
 2993SOL    HW220439   1.892   0.026   4.886 -0.9246  1.0656 -0.2905
 2994SOL     OW20440   3.093   1.899   7.885 -0.7224  0.8320  0.5694
 2994SOL    HW120441   3.095   1.811   7.922  0.8821  1.7276  2.6682
 2994SOL    HW220442   3.003   1.898   7.855 -0.2318  2.3494 -0.9254
 2995SOL     OW20443   0.888   0.816   9.521 -0.6605 -0.9204  0.1071
 2995SOL    HW120444   0.872   0.724   9.501 -1.7169 -0.5046 -0.9385
 2995SOL    HW220445   0.939   0.808   9.602 -1.4693  0.1115  0.7180
 2996SOL     OW20446   3.884   4.684   6.077  0.3119 -0.0673 -0.6343
 2996SOL    HW120447   3.936   4.608   6.101 -2.1923 -1.4402  0.4212
 2996SOL    HW220448   3.828   4.690   6.154  2.2112 -1.5897  0.8725
 2997SOL     OW20449   2.402   4.582  13.075  0.3765  0.4063 -0.0176
 2997SOL    HW120450   2.343   4.514  13.040  1.5887 -0.4840 -0.3200
 2997SOL    HW220451   2.361   4.666  13.055 -1.1509  0.2715  2.4163
 2998SOL     OW20452   3.942   4.402   6.538  0.8639 -0.2914  0.0551
 2998SOL    HW120453   4.015   4.349   6.573  1.3606  1.2599  1.3662
 2998SOL    HW220454   3.880   4.334   6.513  1.3818 -0.5437 -0.5660
 2999SOL     OW20455   0.905   4.193   2.857 -0.2019  0.7302 -0.5138
 2999SOL    HW120456   0.810   4.194   2.865 -0.0856  0.9954  0.8350
 2999SOL    HW220457   0.929   4.112   2.901  2.8810  0.3593 -2.8271
 3000SOL     OW20458   0.542   0.162   5.403 -0.0395  0.4648  0.0957
 3000SOL    HW120459   0.477   0.092   5.410 -0.1405  0.6301  0.8394
 3000SOL    HW220460   0.561   0.163   5.497  0.8337  0.4542 -0.0808
 3001SOL     OW20461   2.651   3.158   3.880 -0.2513  0.3510  0.0403
 3001SOL    HW120462   2.598   3.097   3.931  0.3055 -1.8623 -2.0292
 3001SOL    HW220463   2.736   3.112   3.876 -0.6876 -0.5368  0.8865
 3002SOL     OW20464   4.116   2.257  16.106 -0.1530 -0.3510 -0.0838
 3002SOL    HW120465   4.158   2.341  16.088 -1.9786 -0.1178 -3.1263
 3002SOL    HW220466   4.068   2.231  16.027  1.4087  0.0312 -1.1625
 3003SOL     OW20467   0.702   2.866  11.481 -0.0998  0.0249 -0.1680
 3003SOL    HW120468   0.786   2.851  11.436  0.8593  1.6679  1.0692
 3003SOL    HW220469   0.641   2.879  11.408 -1.9598  1.5186  1.6561
 3004SOL     OW20470   2.188   1.387   5.842  0.2417  0.6375  0.2355
 3004SOL    HW120471   2.176   1.380   5.747 -0.9250 -1.4478  0.5406
 3004SOL    HW220472   2.154   1.304   5.874 -1.2167  0.4228 -1.8796
 3005SOL     OW20473   0.350   1.615   1.876 -0.6536 -0.4377 -0.5835
 3005SOL    HW120474   0.335   1.686   1.814 -0.4813  1.4820  1.5856
 3005SOL    HW220475   0.330   1.545   1.813 -0.3750 -1.1271  0.0963
 3006SOL     OW20476   3.451   1.266   6.142  0.2378 -0.3514  0.2051
 3006SOL    HW120477   3.402   1.291   6.220  1.3779  1.3388  0.3834
 3006SOL    HW220478   3.441   1.172   6.157  0.4763 -0.1795  1.4694
 3007SOL     OW20479   1.878   4.372   6.534  0.5944 -0.2340 -0.3291
 3007SOL    HW120480   1.834   4.389   6.450 -0.3881 -1.9319 -0.1443
 3007SOL    HW220481   1.802   4.330   6.574 -1.2232  2.1244 -1.2414
 3008SOL     OW20482   1.517   0.811   4.656  0.1697 -0.1570  0.7844
 3008SOL    HW120483   1.582   0.748   4.623  1.3046  0.7347  1.3453
 3008SOL    HW220484   1.453   0.742   4.677  0.7225 -1.3726 -1.4812
 3009SOL     OW20485   3.191   0.991   5.332  0.1301  0.1762 -0.5925
 3009SOL    HW120486   3.138   1.069   5.318  1.3038  0.9954 -0.4939
 3009SOL    HW220487   3.219   0.969   5.243  2.1107  0.0441  0.0648
 3010SOL     OW20488   1.258   2.287   6.073 -0.0361  0.0158  0.2870
 3010SOL    HW120489   1.186   2.339   6.106 -0.0029 -0.7497  1.5870
 3010SOL    HW220490   1.268   2.219   6.140 -0.9878  2.2380  2.6796
 3011SOL     OW20491   1.896   0.697   4.139  0.9623  0.6244 -0.4113
 3011SOL    HW120492   1.973   0.678   4.085  0.0263  1.2986 -1.9733
 3011SOL    HW220493   1.940   0.761   4.194  1.1979  1.4126 -1.5180
 3012SOL     OW20494   0.090   1.792   4.180  0.9315 -0.2368  0.2430
 3012SOL    HW120495   0.075   1.723   4.244  3.2244 -2.0432 -1.1869
 3012SOL    HW220496   0.075   1.733   4.106 -0.1484  1.0881 -0.5868
 3013SOL     OW20497   4.680   1.339   4.155  0.3078 -0.3076 -0.1293
 3013SOL    HW120498   4.644   1.251   4.147  2.8536 -1.2430 -1.2982
 3013SOL    HW220499   4.699   1.346   4.062  1.0203  4.6200  0.4101
 3014SOL     OW20500   0.734   0.894   6.528 -0.0561  0.5022 -0.5434
 3014SOL    HW120501   0.704   0.867   6.614  1.8152  0.5724  0.1229
 3014SOL    HW220502   0.829   0.888   6.536 -0.2994 -0.2898  1.6302
 3015SOL     OW20503   1.076   2.537  11.084  0.4042  0.6444 -0.4071
 3015SOL    HW120504   0.999   2.560  11.135  1.0428 -0.6239  1.1298
 3015SOL    HW220505   1.030   2.506  11.006  3.4462 -1.2160 -1.4557
 3016SOL     OW20506   3.096   4.255   3.438 -0.4231 -0.1200 -0.8720
 3016SOL    HW120507   3.130   4.344   3.447  1.0980 -0.7459 -0.3824
 3016SOL    HW220508   3.002   4.273   3.441  0.0130  1.4937  2.0728
 3017SOL     OW20509   4.685   1.121   5.009 -0.1208 -0.1701  0.0685
 3017SOL    HW120510   4.696   1.067   5.087 -0.9721 -1.3274 -0.6107
 3017SOL    HW220511   4.720   1.060   4.943  1.9226 -0.7114  1.6285
 3018SOL     OW20512   3.246   4.248   6.691  0.1776 -0.1056  0.2100
 3018SOL    HW120513   3.264   4.162   6.653  1.0158 -0.2162  0.8500
 3018SOL    HW220514   3.214   4.217   6.776 -2.6636  1.4903 -0.2796
 3019SOL     OW20515   0.742   0.227   9.789 -0.4150 -0.1909 -0.1747
 3019SOL    HW120516   0.774   0.210   9.877  0.2829  0.7241 -0.2511
 3019SOL    HW220517   0.823   0.226   9.740  0.9837 -1.4829  2.1762
 3020SOL     OW20518   0.589   2.110  16.887 -0.5814 -0.3965 -0.1593
 3020SOL    HW120519   0.611   2.202  16.874  1.3756 -1.1217 -1.8393
 3020SOL    HW220520   0.534   2.100  16.965  0.7781  0.4432  0.9036
 3021SOL     OW20521   3.307   2.767   6.958  0.4569 -0.6243 -0.3169
 3021SOL    HW120522   3.228   2.818   6.941 -0.4109 -2.1347 -0.8114
 3021SOL    HW220523   3.349   2.796   7.039  1.6754  0.2176 -1.2420
 3022SOL     OW20524   3.784   0.913  16.603  0.6920  0.2154  0.0066
 3022SOL    HW120525   3.789   0.829  16.649  0.1461 -0.3665 -0.9987
 3022SOL    HW220526   3.847   0.965  16.654  0.4345  0.9493 -0.4337
 3023SOL     OW20527   4.637   1.113   2.533 -0.4607  0.5550 -0.2390
 3023SOL    HW120528   4.691   1.175   2.484 -1.1020  3.3653  2.5986
 3023SOL    HW220529   4.566   1.173   2.558 -1.9510 -1.5386  0.5619
 3024SOL     OW20530   2.417   0.219   4.050  0.2530  0.1344 -0.2543
 3024SOL    HW120531   2.430   0.150   4.115  1.0558  1.8031  1.3608
 3024SOL    HW220532   2.471   0.287   4.090  1.5324 -0.1139 -1.5380
 3025SOL     OW20533   2.168   3.362  15.189 -0.5277  0.0965 -0.0687
 3025SOL    HW120534   2.258   3.341  15.165 -0.0235 -0.1903  2.1335
 3025SOL    HW220535   2.175   3.453  15.218 -1.2685  0.6338 -1.5533
 3026SOL     OW20536   3.162   2.166  17.192 -0.4933 -0.4743 -0.6122
 3026SOL    HW120537   3.231   2.231  17.202 -1.7518  0.6241  0.9775
 3026SOL    HW220538   3.111   2.194  17.268  1.3652  0.4085  0.3090
 3027SOL     OW20539   1.376   1.209   8.465  0.2268 -0.2445 -0.4425
 3027SOL    HW120540   1.296   1.257   8.445  0.4790  0.3520 -0.0109
 3027SOL    HW220541   1.449   1.269   8.452  1.9916 -2.7831 -2.2117
 3028SOL     OW20542   3.575   1.137   6.700 -0.6205  0.3458 -0.0833
 3028SOL    HW120543   3.611   1.201   6.638 -0.2652 -0.9037 -1.1656
 3028SOL    HW220544   3.654   1.084   6.712  0.1755  1.5561  0.0003
 3029SOL     OW20545   3.672   3.322   2.575 -0.4332  0.3878  0.2413
 3029SOL    HW120546   3.638   3.406   2.604 -0.2793  0.9116 -1.1186
 3029SOL    HW220547   3.744   3.350   2.519 -1.4130 -3.0006 -2.7014
 3030SOL     OW20548   2.785   4.381   5.555 -0.3957  0.0891  0.2883
 3030SOL    HW120549   2.819   4.423   5.476 -1.4389 -1.3469 -0.9172
 3030SOL    HW220550   2.782   4.459   5.611  0.1305 -0.7563  1.5007
 3031SOL     OW20551   1.266   1.464  15.159 -0.2015 -0.1697  0.1727
 3031SOL    HW120552   1.316   1.396  15.205  1.8934  1.2126 -0.0859
 3031SOL    HW220553   1.283   1.429  15.071 -1.3057  0.1248 -0.1579
 3032SOL     OW20554   4.114   0.112   6.766 -0.9226  0.0934 -0.0660
 3032SOL    HW120555   4.166   0.113   6.846 -0.3531 -0.2673 -0.4345
 3032SOL    HW220556   4.092   0.019   6.760 -0.6440 -0.0578  1.2735
 3033SOL     OW20557   0.927   1.688   4.139  0.1279 -0.3274 -0.0453
 3033SOL    HW120558   0.918   1.738   4.058  1.3067  1.4212  0.9132
 3033SOL    HW220559   0.923   1.755   4.207 -4.8991 -0.3551 -0.3456
 3034SOL     OW20560   4.318   0.689  11.572 -0.6430 -0.0194  0.0588
 3034SOL    HW120561   4.367   0.739  11.507 -2.1704  3.1914  1.4102
 3034SOL    HW220562   4.344   0.600  11.548 -1.7101 -0.3321  0.0748
 3035SOL     OW20563   1.112   2.344   5.825  0.0247 -0.4345 -0.2262
 3035SOL    HW120564   1.168   2.338   5.902 -1.8069  0.7095  1.1926
 3035SOL    HW220565   1.080   2.254   5.813  0.0672 -0.8438  2.7642
 3036SOL     OW20566   1.988   0.444   5.823 -0.2691  0.0660  0.0755
 3036SOL    HW120567   1.966   0.535   5.802  0.6980  0.8704  2.5839
 3036SOL    HW220568   2.053   0.437   5.754  1.3171 -2.1594  1.8249
 3037SOL     OW20569   0.964   3.915   6.026  0.0926  0.2385 -0.2912
 3037SOL    HW120570   0.938   3.961   5.946  2.2535  1.1613 -0.4759
 3037SOL    HW220571   0.981   3.990   6.082 -2.8654  1.4555 -1.0519
 3038SOL     OW20572   0.968   0.552   6.614 -0.0068  0.6624 -0.6819
 3038SOL    HW120573   1.030   0.570   6.685  0.0895  0.0808 -0.6196
 3038SOL    HW220574   0.890   0.521   6.660  0.7833  1.7273  1.3473
 3039SOL     OW20575   0.244   3.725   9.836 -0.2766 -0.5118  0.6559
 3039SOL    HW120576   0.256   3.678   9.918 -1.8185 -1.3163  0.4066
 3039SOL    HW220577   0.195   3.659   9.787  0.5939 -0.5543 -0.1651
 3040SOL     OW20578   0.051   3.058   3.358 -0.3408 -0.4008  0.1401
 3040SOL    HW120579   0.082   2.969   3.339  0.8250 -0.2047  1.1154
 3040SOL    HW220580   4.704   3.077   3.298  0.2562  0.6256 -0.2541
 3041SOL     OW20581   4.640   2.794   3.386  0.0418  0.1977  0.8740
 3041SOL    HW120582   4.591   2.873   3.408  0.5760  1.1185 -1.2498
 3041SOL    HW220583   4.562   2.739   3.380  1.4953 -1.7440 -0.1787
 3042SOL     OW20584   0.618   0.762   4.921  0.3258 -0.2669 -0.7465
 3042SOL    HW120585   0.681   0.804   4.981  1.1074 -0.3789 -1.4891
 3042SOL    HW220586   0.649   0.673   4.939 -1.0021 -0.4893  0.4356
 3043SOL     OW20587   1.027   3.007   7.092  0.4497 -0.2418 -0.4265
 3043SOL    HW120588   1.058   2.928   7.047  0.6589  0.0919 -0.8697
 3043SOL    HW220589   0.934   2.987   7.104  0.6417 -0.9800 -0.1541
 3044SOL     OW20590   2.867   2.306   8.912 -0.2993 -0.1777  0.8150
 3044SOL    HW120591   2.873   2.316   9.007 -0.1739 -0.5334  0.8474
 3044SOL    HW220592   2.773   2.321   8.901 -0.6151 -0.2364  3.4150
 3045SOL     OW20593   0.151   3.590   6.287  0.5527  0.9584 -0.2734
 3045SOL    HW120594   0.134   3.641   6.208 -2.1735 -0.3317 -0.5357
 3045SOL    HW220595   0.109   3.649   6.349  1.7575  0.7342  0.7618
 3046SOL     OW20596   1.273   2.869   1.515 -0.2276 -0.1945  0.0350
 3046SOL    HW120597   1.364   2.846   1.532  0.4847  1.8542 -0.9603
 3046SOL    HW220598   1.227   2.786   1.510 -0.9620  0.1984  0.2045
 3047SOL     OW20599   3.945   3.669   2.153 -0.6492 -0.1583 -0.0380
 3047SOL    HW120600   3.973   3.665   2.244  2.3675  0.5382 -0.9297
 3047SOL    HW220601   3.854   3.697   2.157 -0.5303  0.2484 -0.2257
 3048SOL     OW20602   0.300   0.577  15.869  0.2493 -0.0460 -0.4336
 3048SOL    HW120603   0.346   0.500  15.837  1.1891  0.3506 -0.0315
 3048SOL    HW220604   0.292   0.557  15.962  0.6085 -3.3508 -1.1030
 3049SOL     OW20605   0.200   2.780   8.200  0.3179 -0.2535 -0.0733
 3049SOL    HW120606   0.112   2.787   8.165 -0.0286  0.4281  0.9406
 3049SOL    HW220607   0.203   2.862   8.249  0.0431  0.0702 -0.5987
 3050SOL     OW20608   1.697   1.663   8.662  0.8372  0.3863 -0.0035
 3050SOL    HW120609   1.610   1.661   8.624  0.2932  0.4034  1.2303
 3050SOL    HW220610   1.686   1.750   8.701  1.9313  0.4817  0.1134
 3051SOL     OW20611   3.870   1.451   1.263 -0.1826 -0.5975 -0.4425
 3051SOL    HW120612   3.896   1.388   1.330 -1.4516  0.7975  1.3651
 3051SOL    HW220613   3.792   1.500   1.287  0.9400  0.3035  1.3440
 3052SOL     OW20614   2.126   0.075  14.410  0.1206 -0.4154  0.2518
 3052SOL    HW120615   2.095   0.021  14.482 -0.5776  0.7149  0.7919
 3052SOL    HW220616   2.204   0.115  14.447  0.1318 -1.0943  0.9577
 3053SOL     OW20617   4.544   0.189   8.126  0.1379 -0.3223  0.0003
 3053SOL    HW120618   4.456   0.225   8.120  0.6587  1.1498  1.0393
 3053SOL    HW220619   4.569   0.219   8.214 -0.1170 -0.7241  0.2093
 3054SOL     OW20620   0.789   3.029   7.942  0.6276  0.1403  0.4293
 3054SOL    HW120621   0.804   2.940   7.972  1.5137  0.4863  1.0204
 3054SOL    HW220622   0.762   3.071   8.024 -0.1210  0.4574  0.0279
 3055SOL     OW20623   3.634   3.287   2.926 -0.2908  0.9353 -0.2473
 3055SOL    HW120624   3.705   3.299   2.989  0.9670 -1.6157 -1.1869
 3055SOL    HW220625   3.580   3.365   2.939 -0.8451  0.7334 -1.2960
 3056SOL     OW20626   3.625   0.608   3.384 -0.2609  0.2085 -0.3745
 3056SOL    HW120627   3.669   0.642   3.307 -0.3004  1.8922  0.3537
 3056SOL    HW220628   3.674   0.526   3.397 -1.6158 -0.2527  1.7616
 3057SOL     OW20629   1.971   3.240   6.658 -0.0380  0.0050  0.2370
 3057SOL    HW120630   1.913   3.245   6.734  0.3073 -2.9555  0.6635
 3057SOL    HW220631   2.052   3.249   6.708  1.1262  1.5621 -1.9257
 3058SOL     OW20632   0.725   2.370   5.838 -0.0943 -0.6552 -0.1337
 3058SOL    HW120633   0.758   2.312   5.907 -0.6776 -2.6919 -1.5794
 3058SOL    HW220634   0.781   2.341   5.766  0.7435  2.0068 -0.5303
 3059SOL     OW20635   2.955   0.097   1.712  0.2687  0.7413  0.4930
 3059SOL    HW120636   2.869   0.095   1.755  0.3380  1.0993  0.6498
 3059SOL    HW220637   2.967   0.003   1.704 -1.5834  0.5155  0.2454
 3060SOL     OW20638   2.282   3.408   0.807  0.2875  0.0565  0.2133
 3060SOL    HW120639   2.192   3.375   0.812  0.5067 -0.4642  0.7633
 3060SOL    HW220640   2.305   3.332   0.754  0.3157 -1.1671  1.9533
 3061SOL     OW20641   4.369   1.070   8.797  0.2470 -0.0393  0.2385
 3061SOL    HW120642   4.337   1.111   8.878  1.8920 -0.5021  1.1355
 3061SOL    HW220643   4.444   1.125   8.775 -0.8389  1.5198  0.4112
 3062SOL     OW20644   1.669   3.221  10.728  0.5422 -0.3149  0.0272
 3062SOL    HW120645   1.712   3.146  10.686  0.3362 -1.2733  1.5164
 3062SOL    HW220646   1.636   3.268  10.652 -1.8014 -1.3097  0.4468
 3063SOL     OW20647   2.590   0.790  14.307 -0.4802 -0.5219  0.4158
 3063SOL    HW120648   2.538   0.842  14.246  1.6987 -0.1511 -1.1554
 3063SOL    HW220649   2.657   0.858  14.322 -2.7283  1.5692  0.9592
 3064SOL     OW20650   2.096   1.378  14.505  0.6799 -0.1631 -0.6827
 3064SOL    HW120651   2.130   1.458  14.545 -1.3606  0.6424 -0.5555
 3064SOL    HW220652   2.008   1.367  14.541  0.7711 -1.2881 -0.7975
 3065SOL     OW20653   4.272   2.710   8.175  0.0165 -0.5002 -0.5477
 3065SOL    HW120654   4.240   2.622   8.191  0.7121 -0.4512  1.1665
 3065SOL    HW220655   4.344   2.691   8.115  1.1756  2.2725 -0.0482
 3066SOL     OW20656   1.608   0.831   5.876  0.5869  0.2769 -0.7866
 3066SOL    HW120657   1.658   0.761   5.919 -0.2354  1.5773  2.2633
 3066SOL    HW220658   1.558   0.851   5.955  2.5613 -3.6017  1.4130
 3067SOL     OW20659   3.478   3.524  13.468 -0.0781 -0.1165  0.3554
 3067SOL    HW120660   3.528   3.445  13.490 -0.9109 -0.2494  1.7540
 3067SOL    HW220661   3.500   3.582  13.541  2.8154  0.3017 -0.8210
 3068SOL     OW20662   2.640   2.427   4.162 -0.1471  0.2194 -0.2569
 3068SOL    HW120663   2.662   2.443   4.070  1.0182  0.1920  0.0223
 3068SOL    HW220664   2.721   2.399   4.204 -0.0461  0.4948 -0.2665
 3069SOL     OW20665   4.091   1.715   5.091  0.1301  0.2805 -0.2660
 3069SOL    HW120666   4.164   1.663   5.058 -1.4796 -1.3204 -1.3491
 3069SOL    HW220667   4.075   1.780   5.022 -1.0655 -1.1367 -1.3520
 3070SOL     OW20668   0.255   3.142   9.142  0.0262  0.0700 -0.3010
 3070SOL    HW120669   0.334   3.125   9.091  0.9983 -2.8649  2.1885
 3070SOL    HW220670   0.191   3.116   9.075  1.3811 -2.7698 -0.5109
 3071SOL     OW20671   0.991   4.276  13.539  0.2742  0.1094  0.4377
 3071SOL    HW120672   0.996   4.189  13.500  2.2195 -0.4683  1.9912
 3071SOL    HW220673   1.049   4.270  13.615 -0.3094 -4.5035  0.5299
 3072SOL     OW20674   3.221   1.668   1.175 -0.1031 -0.1020  0.7206
 3072SOL    HW120675   3.146   1.630   1.129 -0.0881  1.0547 -0.2674
 3072SOL    HW220676   3.173   1.691   1.254 -1.3746 -1.0161  0.2238
 3073SOL     OW20677   0.581   2.662  11.705  0.3182 -0.2153 -0.1946
 3073SOL    HW120678   0.532   2.580  11.714  1.6784 -1.1241 -0.9904
 3073SOL    HW220679   0.580   2.678  11.610  1.4550  2.5791  0.2770
 3074SOL     OW20680   0.093   2.521   1.477 -0.6068  0.4727 -0.3630
 3074SOL    HW120681   0.030   2.577   1.522 -0.6735 -2.1253  2.7837
 3074SOL    HW220682   0.035   2.445   1.469 -0.5445  0.5271 -1.3299
 3075SOL     OW20683   1.977   1.419  15.021  0.6305 -0.0615 -0.1978
 3075SOL    HW120684   1.990   1.367  15.100  1.7098 -0.5711 -0.6958
 3075SOL    HW220685   2.068   1.446  15.009  0.4911  0.2271 -0.6231
 3076SOL     OW20686   1.724   2.769  10.192  0.3719  0.0439  0.4426
 3076SOL    HW120687   1.644   2.804  10.231  0.1844 -0.0757  0.1601
 3076SOL    HW220688   1.788   2.796  10.258  3.0474 -1.4164 -1.5611
 3077SOL     OW20689   0.099   0.939   2.623  0.4285  0.1772 -0.4871
 3077SOL    HW120690   0.043   0.871   2.662  0.8280 -0.5523 -1.1865
 3077SOL    HW220691   0.030   0.997   2.593 -1.3343 -1.9056 -0.4586
 3078SOL     OW20692   4.062   1.963   6.494  0.3009 -0.0481  0.9754
 3078SOL    HW120693   3.985   1.917   6.527  0.6943 -0.3238  1.5015
 3078SOL    HW220694   4.051   2.057   6.504  2.0411  0.2270  0.2157
 3079SOL     OW20695   1.470   0.031   3.207  0.3624 -0.2950  0.2963
 3079SOL    HW120696   1.462   0.016   3.113 -1.1733 -2.6006  0.7920
 3079SOL    HW220697   1.464   4.663   3.230  0.9704 -0.5113 -0.4340
 3080SOL     OW20698   4.039   0.786  13.152 -0.8130 -0.1361 -0.2454
 3080SOL    HW120699   3.995   0.854  13.204  0.6374  1.1868 -0.7357
 3080SOL    HW220700   4.024   0.704  13.200  0.3951 -1.2790 -1.8408
 3081SOL     OW20701   3.062   2.582   6.858 -0.0576 -0.3288 -0.4724
 3081SOL    HW120702   3.132   2.562   6.920 -0.7471  1.4420  0.8779
 3081SOL    HW220703   3.044   2.675   6.875  0.2659 -0.3447 -0.0575
 3082SOL     OW20704   4.654   0.404   2.934  0.3872 -0.0643  0.0271
 3082SOL    HW120705   0.012   0.368   2.904 -0.4253 -1.5883 -0.3892
 3082SOL    HW220706   4.601   0.327   2.915  0.2951 -0.8566  3.3630
 3083SOL     OW20707   3.800   2.435  15.702 -0.3303 -0.1517 -0.2013
 3083SOL    HW120708   3.732   2.495  15.733  1.3963  0.5906  2.1280
 3083SOL    HW220709   3.850   2.423  15.783 -0.2589 -2.4086 -0.5841
 3084SOL     OW20710   1.645   2.644   6.800  0.5715 -0.2620  0.2594
 3084SOL    HW120711   1.575   2.656   6.865  2.6039  1.1369  2.2030
 3084SOL    HW220712   1.657   2.730   6.759  1.9259 -0.5429  0.0704
 3085SOL     OW20713   1.466   0.047  17.041  0.2899  0.1442  1.4563
 3085SOL    HW120714   1.376   0.060  17.073 -0.2373  0.6253 -0.2105
 3085SOL    HW220715   1.487   0.138  17.060 -0.8615  1.0554 -1.5723
 3086SOL     OW20716   0.632   3.219  12.526  0.3245  0.0545  0.3510
 3086SOL    HW120717   0.663   3.278  12.457 -0.9704 -0.5270 -0.7388
 3086SOL    HW220718   0.701   3.152  12.530  0.8933  0.5985 -0.2931
 3087SOL     OW20719   1.063   0.950   8.087  0.1964  0.3532 -0.1049
 3087SOL    HW120720   1.136   1.012   8.096  0.9325 -0.6567  0.8902
 3087SOL    HW220721   1.064   0.921   7.996  0.5511  0.9522 -0.2921
 3088SOL     OW20722   0.507   2.858   5.380  0.3423  0.5879 -0.5859
 3088SOL    HW120723   0.508   2.842   5.285  1.4212  1.3927 -0.7183
 3088SOL    HW220724   0.443   2.793   5.407  1.7841  0.8513  3.4654
 3089SOL     OW20725   4.253   0.834   3.993 -0.4075 -0.2493  0.0595
 3089SOL    HW120726   4.219   0.860   3.908 -1.6317  0.5465  0.8021
 3089SOL    HW220727   4.176   0.851   4.047 -0.6492 -1.1560 -0.0115
 3090SOL     OW20728   4.481   1.927   8.463 -0.3285  0.1992 -0.3125
 3090SOL    HW120729   4.429   1.850   8.442 -1.0861  1.3909 -2.7572
 3090SOL    HW220730   4.425   1.974   8.524  0.5490  1.1180 -0.2214
 3091SOL     OW20731   4.376   3.982  11.259 -0.1419 -0.2564 -0.2646
 3091SOL    HW120732   4.421   4.043  11.200  1.0972 -1.6129 -0.7521
 3091SOL    HW220733   4.401   4.009  11.347 -0.6139  3.5738 -1.3296
 3092SOL     OW20734   4.265   0.406   7.635 -0.2570 -0.0399  0.2634
 3092SOL    HW120735   4.341   0.349   7.620  0.3751  0.3779  1.8797
 3092SOL    HW220736   4.303   0.486   7.600 -1.2372  0.1201 -0.4342
 3093SOL     OW20737   3.615   2.707   2.786 -0.2406  0.4994 -0.3810
 3093SOL    HW120738   3.533   2.660   2.790 -1.0455  1.9861  0.6784
 3093SOL    HW220739   3.594   2.784   2.734 -0.1474  1.1491  0.5287
 3094SOL     OW20740   1.362   3.227   3.068 -0.1256  0.0983 -0.1722
 3094SOL    HW120741   1.332   3.234   2.977  0.0321  1.9775 -0.0832
 3094SOL    HW220742   1.354   3.316   3.104 -0.0970  1.2307 -2.9899
 3095SOL     OW20743   2.944   3.931   9.128 -0.0801 -0.6718  0.8908
 3095SOL    HW120744   2.941   3.955   9.035  1.4974 -1.6237  0.6030
 3095SOL    HW220745   2.942   4.015   9.173 -3.1023 -0.1112 -0.2528
 3096SOL     OW20746   0.757   4.288   6.421 -0.4793  0.1388  0.0208
 3096SOL    HW120747   0.680   4.241   6.452 -3.3012  2.8088 -2.9040
 3096SOL    HW220748   0.824   4.230   6.457 -1.4591  0.6474  2.6620
 3097SOL     OW20749   4.317   4.473   2.196  0.2163 -0.1258  0.0476
 3097SOL    HW120750   4.347   4.563   2.202 -0.4314  0.1176 -0.4102
 3097SOL    HW220751   4.392   4.423   2.163 -0.4468 -1.3677  0.3983
 3098SOL     OW20752   4.438   3.184   3.081  0.1034 -0.0252  0.5407
 3098SOL    HW120753   4.458   3.165   2.990  0.8494 -0.1828  0.7345
 3098SOL    HW220754   4.400   3.272   3.072 -2.6543 -1.1130  1.6560
 3099SOL     OW20755   0.788   1.790   2.578  0.2765  0.4617  0.1834
 3099SOL    HW120756   0.707   1.839   2.595 -0.6806 -0.4648 -1.7725
 3099SOL    HW220757   0.749   1.709   2.544 -0.1209  0.3188  0.9652
 3100SOL     OW20758   2.127   1.529  16.203 -0.0963  0.3905 -0.1023
 3100SOL    HW120759   2.200   1.468  16.212  0.8540  1.3711 -1.1085
 3100SOL    HW220760   2.123   1.558  16.294 -0.5135  1.8063 -0.5608
 3101SOL     OW20761   0.420   4.270   8.096 -0.1099 -0.3375 -0.0682
 3101SOL    HW120762   0.436   4.301   8.186  0.4256  1.8579 -0.9104
 3101SOL    HW220763   0.325   4.277   8.084 -0.2512 -3.0885 -0.5103
 3102SOL     OW20764   4.483   2.532  13.310 -0.5344  0.4457  0.2812
 3102SOL    HW120765   4.460   2.625  13.316  1.6872  1.0565 -0.7337
 3102SOL    HW220766   4.502   2.507  13.400 -1.2414  0.5378  0.4549
 3103SOL     OW20767   3.578   0.002   5.581 -0.0636 -0.5458 -0.2502
 3103SOL    HW120768   3.550   4.692   5.496  0.8725 -1.7643 -0.0404
 3103SOL    HW220769   3.645   0.065   5.553 -1.4699  1.0126 -0.1229
 3104SOL     OW20770   3.134   1.806   1.395  0.5408 -0.5276  0.5024
 3104SOL    HW120771   3.072   1.764   1.454  0.5715 -0.9578  0.2327
 3104SOL    HW220772   3.084   1.859   1.333  2.2390 -0.3802 -0.7707
 3105SOL     OW20773   1.858   0.064   0.825  0.4830 -0.0768  0.0678
 3105SOL    HW120774   1.874   0.157   0.839 -3.6044  0.2933  2.2528
 3105SOL    HW220775   1.842   0.078   0.732  0.7987 -1.9396 -0.2709
 3106SOL     OW20776   0.717   2.328   0.931 -0.1229 -0.2902 -0.5858
 3106SOL    HW120777   0.643   2.349   0.989 -0.6492  1.7027 -1.9752
 3106SOL    HW220778   0.673   2.321   0.847 -1.7248  0.0511  0.2185
 3107SOL     OW20779   3.349   0.613   0.329 -0.1670 -0.5577  0.1059
 3107SOL    HW120780   3.426   0.658   0.364  0.8905 -0.5823 -2.2073
 3107SOL    HW220781   3.311   0.672   0.265 -0.9197 -0.8940  0.2428
 3108SOL     OW20782   3.075   2.869   5.397 -0.0720  0.3820  0.2767
 3108SOL    HW120783   3.021   2.890   5.473  1.2972  3.6094  0.3613
 3108SOL    HW220784   3.052   2.940   5.337 -1.3972  0.3638  0.7718
 3109SOL     OW20785   1.411   0.087   4.271 -0.3250  0.8368 -0.5931
 3109SOL    HW120786   1.491   0.140   4.274 -0.4003  0.9310 -0.2160
 3109SOL    HW220787   1.411   0.064   4.364 -0.6368 -0.1089 -0.8301
 3110SOL     OW20788   0.432   4.626  16.952  0.1334 -0.3040  0.0424
 3110SOL    HW120789   0.441   4.594  16.862  0.5405  1.1814 -0.4483
 3110SOL    HW220790   0.358   4.686  16.946  0.0353 -0.6388 -2.1357
 3111SOL     OW20791   0.948   3.259   8.431  0.4426 -0.2501  0.2465
 3111SOL    HW120792   0.989   3.245   8.516 -0.8015 -0.2699  0.8381
 3111SOL    HW220793   0.908   3.173   8.422  0.4959 -0.1612 -0.9231
 3112SOL     OW20794   2.391   4.514   7.485 -0.2844 -0.4492  0.0286
 3112SOL    HW120795   2.451   4.458   7.435  0.7188 -0.4019  1.1567
 3112SOL    HW220796   2.430   4.504   7.572 -0.5372  1.4375  0.3627
 3113SOL     OW20797   2.893   3.291   4.096  0.0951  0.1116 -0.6411
 3113SOL    HW120798   2.964   3.243   4.054  0.0241 -1.6648  1.3256
 3113SOL    HW220799   2.856   3.336   4.020 -1.2110 -1.3825 -0.8788
 3114SOL     OW20800   4.032   3.762  15.565 -0.0938 -0.7258  0.2168
 3114SOL    HW120801   4.089   3.830  15.529  0.6504 -0.6658  1.5222
 3114SOL    HW220802   4.027   3.692  15.500 -1.3851 -0.7693  0.3517
 3115SOL     OW20803   1.255   3.749   8.498  0.1082  0.2690 -0.0229
 3115SOL    HW120804   1.223   3.673   8.450 -0.7873 -0.0534  1.0738
 3115SOL    HW220805   1.222   3.825   8.450  0.2592  1.9924  2.5769
 3116SOL     OW20806   2.193   0.846   9.274 -0.0744 -0.4288  0.0629
 3116SOL    HW120807   2.166   0.756   9.291  0.3982 -0.8842 -1.6679
 3116SOL    HW220808   2.143   0.902   9.334 -0.6459 -1.1085  0.2103
 3117SOL     OW20809   0.146   2.379   9.772  0.1850  0.2223  0.2227
 3117SOL    HW120810   0.062   2.341   9.796 -0.6435  1.7516 -0.2680
 3117SOL    HW220811   0.165   2.356   9.681  0.3194  3.6867 -0.6432
 3118SOL     OW20812   2.345   1.095   9.877 -0.4528  0.3579 -0.5508
 3118SOL    HW120813   2.269   1.044   9.903  0.6523  0.1497  2.2976
 3118SOL    HW220814   2.304   1.145   9.807  0.9152 -0.4858 -1.9526
 3119SOL     OW20815   1.395   3.074   2.226  0.3694 -0.5657 -0.4229
 3119SOL    HW120816   1.371   2.992   2.269  1.6871  0.1071  1.5986
 3119SOL    HW220817   1.402   3.131   2.303 -0.0395 -0.2935 -0.5901
 3120SOL     OW20818   1.268   2.504   3.549  0.0070  0.2194  0.5351
 3120SOL    HW120819   1.237   2.481   3.637  0.3692 -2.0792  0.0702
 3120SOL    HW220820   1.211   2.574   3.517 -0.0564  0.1444  0.4841
 3121SOL     OW20821   4.316   3.750   1.889 -0.3375  0.1898 -0.2224
 3121SOL    HW120822   4.365   3.673   1.864 -0.3806  0.6567 -1.7169
 3121SOL    HW220823   4.252   3.751   1.818  0.8410  0.0896 -1.2676
 3122SOL     OW20824   4.657   2.937   5.697 -0.1842 -0.6070  0.3721
 3122SOL    HW120825   0.013   2.982   5.675  0.0819 -0.3556  1.9375
 3122SOL    HW220826   4.627   2.907   5.611  1.0154  1.5275 -0.7816
 3123SOL     OW20827   1.705   1.089   2.895  0.0825 -0.3971  0.0403
 3123SOL    HW120828   1.764   1.142   2.949 -0.7495  1.5376 -0.9631
 3123SOL    HW220829   1.680   1.149   2.825 -2.5978 -2.0595 -0.4156
 3124SOL     OW20830   2.568   2.778   3.634 -0.1494  0.1524 -0.6974
 3124SOL    HW120831   2.520   2.695   3.629  2.6098 -1.5766  1.7148
 3124SOL    HW220832   2.526   2.831   3.566  0.5627  2.0419  0.3496
 3125SOL     OW20833   4.042   3.438   9.886  0.9512  0.4472  0.7857
 3125SOL    HW120834   4.026   3.356   9.840 -1.1534  1.9874 -1.2381
 3125SOL    HW220835   4.132   3.420   9.913  1.1097 -0.3502 -0.2778
 3126SOL     OW20836   1.197   2.723   0.290 -0.0945  0.3855 -0.0221
 3126SOL    HW120837   1.207   2.667   0.213  1.5288 -0.5012  0.8505
 3126SOL    HW220838   1.285   2.746   0.319  0.2197 -2.4525  1.3295
 3127SOL     OW20839   3.843   0.589  16.095 -0.1028  0.2283  0.7243
 3127SOL    HW120840   3.909   0.527  16.126  0.2454  0.2630  0.0326
 3127SOL    HW220841   3.794   0.612  16.174 -0.5324  1.1426  0.1872
 3128SOL     OW20842   2.688   2.598   9.075 -0.4001  0.5631 -0.1990
 3128SOL    HW120843   2.684   2.507   9.103 -3.2676  0.4384 -1.0070
 3128SOL    HW220844   2.612   2.626   9.127  0.9000 -0.3125  2.1966
 3129SOL     OW20845   3.135   0.180   5.244 -0.3482 -0.5933 -0.4035
 3129SOL    HW120846   3.175   0.228   5.173 -1.1578 -0.1584 -0.5667
 3129SOL    HW220847   3.131   0.098   5.194 -2.6514 -0.5634 -0.2672
 3130SOL     OW20848   0.244   4.065   7.779 -0.1931 -0.3250 -0.5766
 3130SOL    HW120849   0.189   4.085   7.703 -0.8095 -0.0938 -0.0699
 3130SOL    HW220850   0.295   3.996   7.737 -0.3798 -1.8060  1.6858
 3131SOL     OW20851   1.256   3.439   1.571 -0.2979  0.5528  0.0348
 3131SOL    HW120852   1.162   3.443   1.551 -0.1719 -3.2507 -1.2987
 3131SOL    HW220853   1.256   3.387   1.652  0.9017 -0.9635 -0.9475
 3132SOL     OW20854   3.315   2.421   6.975  0.1391  0.1369  0.5861
 3132SOL    HW120855   3.335   2.387   6.887  2.0142  0.9925  0.6787
 3132SOL    HW220856   3.389   2.478   6.996  0.5352  0.2139 -0.9797
 3133SOL     OW20857   4.149   3.974   5.807 -0.0461 -0.0427 -0.2201
 3133SOL    HW120858   4.100   3.893   5.787 -1.1397  0.5095  0.1993
 3133SOL    HW220859   4.097   4.037   5.757  0.0757  0.4544  0.2828
 3134SOL     OW20860   4.283   4.169   9.972 -0.4791  0.7372 -0.0940
 3134SOL    HW120861   4.306   4.155  10.064 -1.1675 -1.1093 -0.2032
 3134SOL    HW220862   4.347   4.117   9.923  0.1488  0.0042  1.4844
 3135SOL     OW20863   1.362   2.971   5.106  0.0613  0.3228 -0.4503
 3135SOL    HW120864   1.444   2.940   5.143 -0.2054  1.1404  0.8225
 3135SOL    HW220865   1.340   2.890   5.060 -1.2396  0.6376 -0.4025
 3136SOL     OW20866   1.255   1.769   2.036  0.2076  0.1524  0.1735
 3136SOL    HW120867   1.272   1.709   1.964  1.4021  1.3717 -0.5619
 3136SOL    HW220868   1.319   1.733   2.098 -0.2473 -0.7563  0.1101
 3137SOL     OW20869   2.616   3.034   2.454 -0.3993  0.1213  0.6508
 3137SOL    HW120870   2.656   3.119   2.435 -0.7200  0.3435  0.9633
 3137SOL    HW220871   2.658   3.026   2.540 -1.2687 -2.3416  0.8517
 3138SOL     OW20872   3.651   0.801   7.913  0.6012  0.0164  0.1168
 3138SOL    HW120873   3.706   0.725   7.933  1.0065  0.1525 -0.4939
 3138SOL    HW220874   3.652   0.811   7.818 -1.3622 -1.6545 -0.0726
 3139SOL     OW20875   3.759   1.994   7.106  0.3276  0.0799  0.1280
 3139SOL    HW120876   3.816   2.017   7.033  2.4885 -1.1415  1.4255
 3139SOL    HW220877   3.680   2.042   7.084 -0.3223 -2.0501 -2.1724
 3140SOL     OW20878   0.324   0.481   9.819 -0.0752  0.1754 -0.0857
 3140SOL    HW120879   0.262   0.410   9.836  0.2963  0.1300  1.0794
 3140SOL    HW220880   0.392   0.433   9.773 -0.2075 -0.0905  0.0001
 3141SOL     OW20881   1.125   4.629   5.154 -0.6497 -0.2324 -0.2936
 3141SOL    HW120882   1.069   4.646   5.230  1.1465 -0.2992  1.0420
 3141SOL    HW220883   1.116   4.713   5.108 -0.0811  0.0808  0.1709
 3142SOL     OW20884   0.943   2.018   0.224  0.4696  0.0172 -0.5364
 3142SOL    HW120885   0.998   2.024   0.146  0.6006  0.9458 -0.3682
 3142SOL    HW220886   0.992   2.079   0.280 -2.4610 -0.2790  2.3698
 3143SOL     OW20887   2.808   2.871   8.909  0.2185  0.3918  0.0112
 3143SOL    HW120888   2.840   2.959   8.931 -0.3040  0.7270 -0.5570
 3143SOL    HW220889   2.831   2.877   8.816  4.6443  1.7830  1.2105
 3144SOL     OW20890   1.188   2.398   1.031  0.1567  0.6586  0.2692
 3144SOL    HW120891   1.175   2.409   0.937  0.9339 -0.8283 -0.0196
 3144SOL    HW220892   1.170   2.304   1.032 -0.3001  0.7388 -0.1848
 3145SOL     OW20893   4.512   1.281  15.333  0.1337 -0.0777  0.0747
 3145SOL    HW120894   4.446   1.241  15.277  0.8049  1.3039 -1.6663
 3145SOL    HW220895   4.583   1.299  15.272 -0.4573 -0.0785 -0.6003
 3146SOL     OW20896   0.488   0.581   3.265  0.0016  0.0260 -0.2541
 3146SOL    HW120897   0.551   0.513   3.242 -1.6399 -1.8667  0.8019
 3146SOL    HW220898   0.420   0.536   3.316  0.2979  0.4939  0.5517
 3147SOL     OW20899   0.401   1.473   7.663  0.2934 -0.7078 -0.4235
 3147SOL    HW120900   0.345   1.526   7.720  0.6446 -0.9806  0.1773
 3147SOL    HW220901   0.484   1.467   7.710  0.2716 -0.1615 -0.3154
 3148SOL     OW20902   4.058   2.664   9.245 -0.1990  0.4660  0.1748
 3148SOL    HW120903   4.144   2.624   9.228 -0.3673  0.0918  0.1949
 3148SOL    HW220904   4.084   2.734   9.304 -1.5002  1.9053 -0.9622
 3149SOL     OW20905   4.412   1.600   8.627 -0.2585  0.0284 -0.3879
 3149SOL    HW120906   4.452   1.686   8.625 -0.6474  0.2061 -0.5667
 3149SOL    HW220907   4.330   1.621   8.672  0.1028  1.0241 -0.2015
 3150SOL     OW20908   3.941   2.537   3.455 -0.2420  0.7267 -0.2875
 3150SOL    HW120909   3.969   2.491   3.375  0.7955  0.8053  0.0360
 3150SOL    HW220910   3.949   2.630   3.434  0.8309  1.1817  2.1768
 3151SOL     OW20911   2.275   0.931   8.131 -0.5694  0.0488 -0.5948
 3151SOL    HW120912   2.314   0.930   8.044  0.6817 -1.1087 -0.0269
 3151SOL    HW220913   2.192   0.976   8.116  0.2608  2.1942  1.2269
 3152SOL     OW20914   0.942   3.816  16.715  1.0260  0.9046 -0.0497
 3152SOL    HW120915   0.994   3.736  16.727  0.5558  0.8510  1.5968
 3152SOL    HW220916   0.983   3.853  16.636  3.2191 -1.5273 -0.0705
 3153SOL     OW20917   3.268   4.428   1.457 -0.1180  0.2383 -0.0853
 3153SOL    HW120918   3.209   4.430   1.381 -0.8517 -0.0428  0.4716
 3153SOL    HW220919   3.281   4.333   1.465  0.9112  0.2726 -1.3064
 3154SOL     OW20920   3.392   1.842   7.560  0.0952 -0.0286  0.3032
 3154SOL    HW120921   3.371   1.750   7.549 -0.0172  0.0003  0.2791
 3154SOL    HW220922   3.476   1.847   7.513  0.1777  1.9897  0.6513
 3155SOL     OW20923   2.704   3.635   5.642 -0.3526  0.1172 -0.3482
 3155SOL    HW120924   2.667   3.623   5.555 -0.0763 -0.8861 -0.3254
 3155SOL    HW220925   2.798   3.627   5.623 -0.2065 -1.5952  1.1255
 3156SOL     OW20926   1.622   2.519   4.480 -0.5010  0.2078 -0.4960
 3156SOL    HW120927   1.587   2.575   4.550 -1.1925 -0.7482 -0.0784
 3156SOL    HW220928   1.700   2.494   4.531 -0.0677  1.7503 -0.3989
 3157SOL     OW20929   0.574   0.277   6.118 -0.7604  0.7565  0.1968
 3157SOL    HW120930   0.535   0.208   6.064 -0.6483  1.0558 -0.2657
 3157SOL    HW220931   0.661   0.303   6.087 -0.4289  1.0307  1.3650
 3158SOL     OW20932   0.359   4.110  13.488  0.5110  0.1668 -0.4396
 3158SOL    HW120933   0.415   4.047  13.534  0.5878 -0.2293 -1.0768
 3158SOL    HW220934   0.422   4.151  13.428  1.2832 -0.0352  0.2270
 3159SOL     OW20935   2.576   2.457  14.219 -0.1519 -0.0207  0.4971
 3159SOL    HW120936   2.567   2.365  14.194 -0.8777  0.0997  0.3245
 3159SOL    HW220937   2.657   2.460  14.271 -0.4930  0.3318  1.0065
 3160SOL     OW20938   1.993   0.510   7.670  0.0809  0.2399  0.5851
 3160SOL    HW120939   1.931   0.449   7.709 -1.3315  0.3622 -1.4388
 3160SOL    HW220940   1.997   0.573   7.742 -1.4549  0.4405  0.5089
 3161SOL     OW20941   4.439   1.036   7.876  0.7415  0.3852  0.1469
 3161SOL    HW120942   4.433   0.955   7.825 -0.6400 -0.3434  1.4539
 3161SOL    HW220943   4.370   1.020   7.941  3.7358  0.1524  3.2461
 3162SOL     OW20944   2.713   2.369  15.840  0.3407 -0.1391  0.2459
 3162SOL    HW120945   2.756   2.407  15.916  0.4025 -1.4239  0.8586
 3162SOL    HW220946   2.773   2.314  15.789 -1.6466 -1.9301 -0.1833
 3163SOL     OW20947   1.137   4.613   8.154 -0.3706 -0.4836  0.1384
 3163SOL    HW120948   1.124   4.654   8.068 -0.1272  0.9257  0.7755
 3163SOL    HW220949   1.067   4.643   8.211  1.9082  4.1656  0.5425
 3164SOL     OW20950   0.266   1.359   8.640 -0.0514  0.1072  0.1879
 3164SOL    HW120951   0.198   1.367   8.574 -1.4463 -2.3184  1.3291
 3164SOL    HW220952   0.298   1.449   8.634  1.0961 -0.4000 -1.1476
 3165SOL     OW20953   1.398   4.154   8.997  0.1143 -0.2400  0.0357
 3165SOL    HW120954   1.418   4.188   9.085  0.0882 -0.8726  0.2836
 3165SOL    HW220955   1.421   4.062   9.010  1.5555  0.1804  0.4439
 3166SOL     OW20956   2.214   1.561   1.952 -0.0221 -0.3325  0.3460
 3166SOL    HW120957   2.129   1.540   1.915  0.8727  0.0390 -1.9305
 3166SOL    HW220958   2.233   1.498   2.022 -0.3502 -0.4804  0.3015
 3167SOL     OW20959   1.620   0.858   8.635  0.0320 -0.1304  0.0681
 3167SOL    HW120960   1.682   0.880   8.565  1.7410  0.0338  1.6319
 3167SOL    HW220961   1.540   0.894   8.598  0.6934 -0.3274 -1.5620
 3168SOL     OW20962   3.435   2.497  17.628  0.2670 -0.1467 -0.2733
 3168SOL    HW120963   3.514   2.550  17.639  2.6122 -3.2735 -2.0050
 3168SOL    HW220964   3.453   2.478  17.536 -1.8515  0.6948 -0.8449
 3169SOL     OW20965   3.616   1.877   2.809 -0.1452  0.0276 -0.1010
 3169SOL    HW120966   3.647   1.869   2.719  0.2311 -0.5049  0.0737
 3169SOL    HW220967   3.682   1.930   2.853  0.4095 -0.4671 -0.3364
 3170SOL     OW20968   4.113   2.881   7.436 -0.1193  0.4706  0.1612
 3170SOL    HW120969   4.147   2.970   7.442  1.1869 -0.1053  1.5562
 3170SOL    HW220970   4.192   2.830   7.416 -1.0882 -1.4915  1.3181
 3171SOL     OW20971   2.458   3.252   2.929  0.3701 -0.0842 -0.4694
 3171SOL    HW120972   2.440   3.346   2.930  1.5273  0.1462 -0.7237
 3171SOL    HW220973   2.466   3.236   2.835  1.1984  0.5455 -0.5121
 3172SOL     OW20974   0.113   0.666   4.295 -0.4932  0.1562 -0.1453
 3172SOL    HW120975   0.148   0.668   4.206 -1.1724  0.7230 -0.3991
 3172SOL    HW220976   0.140   0.754   4.319 -4.3572  0.9327  1.2954
 3173SOL     OW20977   4.639   3.099   6.252 -0.3829 -0.0282 -0.3671
 3173SOL    HW120978   4.594   3.028   6.296  0.1482 -0.6816 -0.8610
 3173SOL    HW220979   4.632   3.074   6.159 -4.3487 -0.8281  0.1738
 3174SOL     OW20980   1.701   3.419   3.160 -0.1548  0.0995  0.1245
 3174SOL    HW120981   1.661   3.372   3.234 -0.2243 -1.1895 -0.7313
 3174SOL    HW220982   1.782   3.370   3.150 -0.5371 -0.0564 -2.1484
 3175SOL     OW20983   2.674   0.450  17.219  0.0073 -0.2428  0.3210
 3175SOL    HW120984   2.729   0.470  17.295 -0.6038  1.7378  0.2378
 3175SOL    HW220985   2.637   0.368  17.252 -1.8592 -0.3229 -2.0490
 3176SOL     OW20986   1.127   1.692  15.196  0.1793  0.9472  0.2433
 3176SOL    HW120987   1.180   1.619  15.163  0.0117  0.3204  1.3366
 3176SOL    HW220988   1.055   1.652  15.245  0.2223 -0.1189 -0.5533
 3177SOL     OW20989   0.993   0.768   1.634 -0.0075  0.4196  0.6988
 3177SOL    HW120990   0.966   0.758   1.725 -3.0879 -2.1788 -0.4842
 3177SOL    HW220991   0.971   0.687   1.588  1.6734  0.2398  0.1937
 3178SOL     OW20992   3.828   4.562  10.189  0.1754  0.1114 -0.1644
 3178SOL    HW120993   3.835   4.555  10.284  0.4584 -1.5869 -0.2959
 3178SOL    HW220994   3.776   4.641  10.174  0.0985 -0.0515 -0.7823
 3179SOL     OW20995   0.297   1.980   2.975  0.0788 -0.3312  0.0819
 3179SOL    HW120996   0.236   1.927   2.923  0.0825 -0.4371  0.1856
 3179SOL    HW220997   0.258   1.983   3.062 -1.0364  1.3917 -0.4839
 3180SOL     OW20998   0.051   1.482   5.943 -0.1769 -0.2921  0.2309
 3180SOL    HW120999   0.070   1.429   5.866  1.6727  1.0043 -0.1807
 3180SOL    HW221000   4.693   1.524   5.917 -0.9250 -0.6341  2.0805
 3181SOL     OW21001   0.866   1.426  17.642 -0.3590  0.1652 -0.0899
 3181SOL    HW121002   0.824   1.474  17.570 -1.3480 -1.3995 -0.5504
 3181SOL    HW221003   0.793   1.368  17.666  0.5168 -0.3470  1.3012
 3182SOL     OW21004   0.562   3.066   8.532  0.1505 -0.1108  0.1350
 3182SOL    HW121005   0.630   3.050   8.467  0.5907  0.6980  0.3975
 3182SOL    HW221006   0.610   3.065   8.614 -0.4353  0.9188  0.4905
 3183SOL     OW21007   1.545   0.140   5.388  0.0402 -0.1952  0.2154
 3183SOL    HW121008   1.497   0.181   5.460 -1.9949 -0.0844 -1.2065
 3183SOL    HW221009   1.565   0.210   5.325 -1.4558 -0.4020 -0.4942
 3184SOL     OW21010   2.295   3.991   4.414  0.3590 -0.3737 -0.6679
 3184SOL    HW121011   2.225   4.005   4.477  0.4591 -2.4008 -0.0853
 3184SOL    HW221012   2.344   3.914   4.445  1.3693  0.2387 -0.7607
 3185SOL     OW21013   3.501   1.681   6.763 -0.1179 -0.1514  0.3848
 3185SOL    HW121014   3.486   1.591   6.733  1.6760 -0.5138  0.5865
 3185SOL    HW221015   3.417   1.713   6.795 -0.7393 -1.4790  0.0865
 3186SOL     OW21016   2.191   1.555   7.622 -0.0169  0.6417  0.2012
 3186SOL    HW121017   2.120   1.491   7.633 -1.4765  2.2657  0.2259
 3186SOL    HW221018   2.142   1.595   7.550 -0.5594 -1.3442 -0.5446
 3187SOL     OW21019   2.220   0.035   5.188 -0.0908  0.1961 -0.3454
 3187SOL    HW121020   2.210   0.108   5.249 -2.0888  1.1480 -1.8223
 3187SOL    HW221021   2.154   4.698   5.216 -0.8495  1.1351 -0.0428
 3188SOL     OW21022   2.400   0.791   3.810 -0.2461 -0.3883  0.3039
 3188SOL    HW121023   2.370   0.731   3.741  1.8804 -0.7904 -0.2538
 3188SOL    HW221024   2.486   0.809   3.772 -0.2573 -0.8450  0.0597
 3189SOL     OW21025   0.806   3.989  13.752 -0.5380  0.3407 -0.6824
 3189SOL    HW121026   0.713   3.973  13.736 -0.3321 -0.6138 -0.9490
 3189SOL    HW221027   0.826   3.961  13.842  1.0024  0.1009 -1.0908
 3190SOL     OW21028   0.826   2.135   1.881 -0.6226 -0.0148 -0.8324
 3190SOL    HW121029   0.900   2.109   1.825 -1.1130 -3.3728  0.0795
 3190SOL    HW221030   0.809   2.224   1.851  0.2739  0.3666 -0.1981
 3191SOL     OW21031   4.694   1.526  11.670 -0.2675  0.2601 -0.5109
 3191SOL    HW121032   4.717   1.607  11.625  2.4332 -0.0925  0.2432
 3191SOL    HW221033   4.695   1.561  11.759 -0.8018 -0.5117 -0.2022
 3192SOL     OW21034   4.015   2.280  14.563  0.1126 -0.3584  0.1506
 3192SOL    HW121035   4.082   2.330  14.611 -0.3826  1.0210 -0.5856
 3192SOL    HW221036   4.037   2.192  14.593 -2.0562 -1.1317 -0.5273
 3193SOL     OW21037   1.738   1.654   5.060  0.1161  0.0059  0.1326
 3193SOL    HW121038   1.752   1.748   5.069  0.8729 -0.0863 -0.1125
 3193SOL    HW221039   1.826   1.625   5.084  0.3007 -0.7243 -1.4426
 3194SOL     OW21040   3.939   3.129  13.100  0.6203 -0.1831 -0.1530
 3194SOL    HW121041   4.028   3.143  13.069  0.2933 -0.8583 -1.3797
 3194SOL    HW221042   3.911   3.219  13.117 -0.3798 -1.1456  3.3105
 3195SOL     OW21043   4.115   0.380   5.313  0.1877 -0.1712  0.2608
 3195SOL    HW121044   4.026   0.346   5.300  0.3986 -0.0643 -1.4551
 3195SOL    HW221045   4.169   0.336   5.247 -0.8393 -2.9662  1.2717
 3196SOL     OW21046   1.154   3.245  17.306  0.5177  0.1022  0.0921
 3196SOL    HW121047   1.207   3.308  17.258  0.2841 -0.9149 -1.4821
 3196SOL    HW221048   1.078   3.233  17.250  0.8753  1.8667 -0.7533
 3197SOL     OW21049   0.900   2.840   0.461  0.4145  0.1854 -0.0704
 3197SOL    HW121050   0.855   2.870   0.382  0.5656 -0.8698 -0.5494
 3197SOL    HW221051   0.825   2.801   0.505  0.4659 -1.4307 -1.4124
 3198SOL     OW21052   3.212   3.357   2.113 -0.5039 -0.0644  0.4131
 3198SOL    HW121053   3.291   3.303   2.112 -1.0384 -0.8456  0.5842
 3198SOL    HW221054   3.253   3.438   2.144 -0.6671  1.1574 -2.5433
 3199SOL     OW21055   2.095   0.987   6.234 -0.0145 -0.3689  0.1438
 3199SOL    HW121056   2.127   1.066   6.277 -1.3027  0.7224 -0.8884
 3199SOL    HW221057   2.157   0.974   6.162 -0.6709 -0.5781 -0.3940
 3200SOL     OW21058   4.166   3.477   7.878  0.7906  0.5120 -0.1158
 3200SOL    HW121059   4.181   3.513   7.965  0.9881 -1.3261  0.6082
 3200SOL    HW221060   4.237   3.413   7.874 -0.7446 -1.1092 -1.2706
 3201SOL     OW21061   0.658   4.047   6.261  0.7270  0.0064  0.3308
 3201SOL    HW121062   0.570   4.033   6.228 -0.1898  1.4112  2.2187
 3201SOL    HW221063   0.632   4.065   6.351  0.0875 -0.9084  0.3312
 3202SOL     OW21064   1.734   0.113   2.154 -0.4300  0.2343 -0.2024
 3202SOL    HW121065   1.797   0.145   2.219 -0.3830  2.5470 -1.3706
 3202SOL    HW221066   1.733   0.174   2.080 -2.3554  0.0811 -0.3049
 3203SOL     OW21067   0.514   3.222   2.712 -0.2168  0.2340 -0.5691
 3203SOL    HW121068   0.601   3.192   2.686 -0.7982 -0.9011 -1.1971
 3203SOL    HW221069   0.538   3.283   2.782  2.4829 -2.0756  0.5127
 3204SOL     OW21070   3.039   1.946   9.308 -0.6477 -0.1208  0.7191
 3204SOL    HW121071   3.100   1.892   9.359 -0.9828 -0.9382  0.2400
 3204SOL    HW221072   3.080   2.032   9.293 -1.5369 -0.1155 -1.7680
 3205SOL     OW21073   2.357   0.540   8.248  0.0635  0.0182  0.2118
 3205SOL    HW121074   2.282   0.506   8.200  0.3090  2.1100 -1.6175
 3205SOL    HW221075   2.410   0.589   8.186 -0.5869  1.3030  0.6687
 3206SOL     OW21076   1.634   1.320   5.377 -0.2078 -0.2000 -0.0619
 3206SOL    HW121077   1.718   1.285   5.347 -0.1198  0.5462 -0.6975
 3206SOL    HW221078   1.604   1.380   5.309 -1.8416 -0.4898  0.3987
 3207SOL     OW21079   2.329   3.937   2.017  0.6380  0.2694 -0.2127
 3207SOL    HW121080   2.393   3.994   2.059  0.5857 -1.2260  1.9055
 3207SOL    HW221081   2.253   3.966   2.067  1.6213  2.6248 -0.0691
 3208SOL     OW21082   3.396   4.441   0.289  0.0415 -0.5521  0.2055
 3208SOL    HW121083   3.404   4.414   0.381 -0.9776 -0.0621  0.4395
 3208SOL    HW221084   3.302   4.450   0.276  0.5684  3.9469 -0.4323
 3209SOL     OW21085   0.245   4.292   1.990  0.5212 -0.2400 -0.0660
 3209SOL    HW121086   0.299   4.215   1.973 -2.3058 -2.5707  1.4924
 3209SOL    HW221087   0.245   4.331   1.903  1.2132  0.4499  0.2340
 3210SOL     OW21088   0.788   1.878  16.504 -0.3945  0.3699  0.4691
 3210SOL    HW121089   0.751   1.805  16.453  2.3461 -1.1055  0.5878
 3210SOL    HW221090   0.735   1.871  16.584 -0.5753 -1.8752  0.1629
 3211SOL     OW21091   1.271   4.458   2.497  0.3400 -0.0697  0.4716
 3211SOL    HW121092   1.229   4.376   2.472  0.2118  0.8857 -2.4040
 3211SOL    HW221093   1.188   4.506   2.487 -0.0003 -0.5625  0.8956
 3212SOL     OW21094   3.998   0.251   3.538  0.0740  0.4422 -0.2947
 3212SOL    HW121095   4.036   0.213   3.460  0.4587  0.8963 -0.3270
 3212SOL    HW221096   4.024   0.194   3.610 -2.4482 -0.4780 -0.0904
 3213SOL     OW21097   3.482   2.280   4.930 -0.3885  0.0276 -0.0643
 3213SOL    HW121098   3.434   2.335   4.868  0.4815  0.2425 -0.5451
 3213SOL    HW221099   3.438   2.309   5.010 -0.2955 -0.5563  0.1973
 3214SOL     OW21100   0.145   4.001  10.030  0.1305 -0.1000 -0.2723
 3214SOL    HW121101   0.165   4.031   9.941  1.5048  1.6901  0.6286
 3214SOL    HW221102   0.067   4.052  10.050 -0.7414 -1.7944  0.5767
 3215SOL     OW21103   1.003   1.754   2.783  0.0409 -0.0360  0.1374
 3215SOL    HW121104   0.915   1.783   2.806  0.4614  0.9110  0.5481
 3215SOL    HW221105   0.997   1.742   2.688 -0.4352 -1.0842  0.2949
 3216SOL     OW21106   1.271   1.466   6.895  0.1229  0.4416  0.0704
 3216SOL    HW121107   1.219   1.393   6.928 -0.9251  1.5862  0.9431
 3216SOL    HW221108   1.312   1.428   6.818  0.7055 -1.5435  1.3592
 3217SOL     OW21109   3.438   2.319  12.451  0.0467 -0.4708  0.2753
 3217SOL    HW121110   3.416   2.386  12.385 -0.8937 -0.7787  0.2681
 3217SOL    HW221111   3.379   2.345  12.523  2.0805  1.0970  1.3641
 3218SOL     OW21112   4.152   2.282   6.139  0.5286 -0.5737  0.3863
 3218SOL    HW121113   4.220   2.229   6.181  2.3932  2.1641  0.8161
 3218SOL    HW221114   4.081   2.224   6.169 -0.8080 -0.0518 -1.7600
 3219SOL     OW21115   2.067   0.988   8.820  0.2504 -0.2567 -0.1473
 3219SOL    HW121116   1.980   0.997   8.859 -0.1219 -0.1962 -0.9812
 3219SOL    HW221117   2.122   1.003   8.896 -1.8790  2.0316  0.9486
 3220SOL     OW21118   2.595   2.957  16.545 -0.1071  0.3319 -0.0355
 3220SOL    HW121119   2.672   2.930  16.496 -0.6287  1.6289 -1.5584
 3220SOL    HW221120   2.604   3.052  16.533 -2.1190  0.6859  1.1969
 3221SOL     OW21121   2.863   1.327   3.203  0.2539 -0.3968 -0.5984
 3221SOL    HW121122   2.782   1.287   3.236 -1.5071  2.0216 -2.0329
 3221SOL    HW221123   2.835   1.358   3.117 -0.7963  1.5747  0.4654
 3222SOL     OW21124   1.213   3.304  11.524 -0.2347  0.0899  0.0929
 3222SOL    HW121125   1.265   3.224  11.523  2.0387  1.5532  2.5760
 3222SOL    HW221126   1.276   3.356  11.573  1.0028  0.2970 -1.6870
 3223SOL     OW21127   0.090   0.145   7.233 -0.9003 -0.0497 -0.3613
 3223SOL    HW121128   0.092   0.217   7.170 -2.2201  1.6248  1.5044
 3223SOL    HW221129   0.062   0.197   7.309 -0.7166  0.4602 -0.6473
 3224SOL     OW21130   0.093   3.188  15.367 -0.0163  0.3826 -0.1677
 3224SOL    HW121131   0.068   3.279  15.357 -1.3683  0.1640  1.2183
 3224SOL    HW221132   0.159   3.179  15.298  0.5294  0.6426  0.3228
 3225SOL     OW21133   1.172   1.985   2.734  0.3797 -0.0318 -0.0089
 3225SOL    HW121134   1.122   1.904   2.734  0.9186 -0.3626 -2.4730
 3225SOL    HW221135   1.200   1.979   2.826 -0.5112 -2.6035  0.0862
 3226SOL     OW21136   0.307   4.657  10.887 -0.1886 -0.5443  0.0141
 3226SOL    HW121137   0.325   4.566  10.861  0.9996 -0.1960 -0.3576
 3226SOL    HW221138   0.388   4.689  10.926  0.2345  1.3335 -2.4144
 3227SOL     OW21139   1.694   1.306   7.799 -0.5843 -0.1626 -0.0881
 3227SOL    HW121140   1.715   1.302   7.706  0.9259  0.7304  0.2215
 3227SOL    HW221141   1.651   1.391   7.804 -1.7367 -0.7490 -0.0139
 3228SOL     OW21142   2.802   2.126   2.789  0.9370 -0.3096 -0.0232
 3228SOL    HW121143   2.775   2.053   2.732 -2.4382  2.1185 -1.5034
 3228SOL    HW221144   2.893   2.100   2.801  0.7855 -0.9927 -0.2933
 3229SOL     OW21145   0.688   1.529   3.036 -0.1380 -0.1849  0.3445
 3229SOL    HW121146   0.612   1.580   3.062 -0.9348 -1.4008  0.3727
 3229SOL    HW221147   0.656   1.491   2.954  3.7636 -0.0174 -1.3005
 3230SOL     OW21148   0.385   4.195  10.046  0.8283  0.3761  0.6326
 3230SOL    HW121149   0.342   4.182  10.130  1.3336 -0.2643  0.7940
 3230SOL    HW221150   0.407   4.107  10.014  0.9619  0.6112  0.0814
 3231SOL     OW21151   2.917   2.219   8.677 -0.6054 -0.5172 -0.0349
 3231SOL    HW121152   2.866   2.140   8.699  0.9500 -1.3020  0.7585
 3231SOL    HW221153   2.909   2.260   8.763  1.4504 -1.2865  0.5160
 3232SOL     OW21154   3.437   2.507   0.592 -0.4701 -0.1462  0.0877
 3232SOL    HW121155   3.494   2.431   0.602  0.2510  0.5871  1.5119
 3232SOL    HW221156   3.470   2.568   0.657  1.7622  0.8917 -2.0045
 3233SOL     OW21157   4.568   3.536  14.989 -0.0759 -0.1471 -0.2751
 3233SOL    HW121158   4.513   3.609  14.960  0.3837 -0.1681 -1.1859
 3233SOL    HW221159   4.545   3.538  15.082  0.9515  1.6526 -0.0731
 3234SOL     OW21160   2.862   4.307   8.667  0.1712  0.4266 -0.4249
 3234SOL    HW121161   2.780   4.291   8.714  0.5781 -1.1779 -0.2757
 3234SOL    HW221162   2.840   4.394   8.634 -3.0677 -0.7222 -1.2965
 3235SOL     OW21163   3.628   0.133   3.462  0.3631  0.1745  0.1443
 3235SOL    HW121164   3.571   0.185   3.518  0.7591  1.4198 -0.6150
 3235SOL    HW221165   3.693   0.196   3.431  1.4657 -0.9680  0.1064
 3236SOL     OW21166   2.929   3.760   4.495  0.5577  0.1439  0.6743
 3236SOL    HW121167   2.983   3.704   4.551 -1.2663  0.9389  3.2152
 3236SOL    HW221168   2.988   3.771   4.420 -1.0257  3.0647 -0.1649
 3237SOL     OW21169   3.405   0.115   5.771 -0.3000 -0.0679 -0.5890
 3237SOL    HW121170   3.480   0.131   5.828 -1.0724 -1.3470  0.7814
 3237SOL    HW221171   3.453   0.078   5.697 -0.1810 -2.2205  0.5454
 3238SOL     OW21172   2.051   0.704   8.800  0.1314  0.3715 -0.6665
 3238SOL    HW121173   1.956   0.706   8.795  0.0369 -0.8767  0.5077
 3238SOL    HW221174   2.081   0.795   8.804 -0.9116  0.6647  0.4395
 3239SOL     OW21175   0.968   2.244   6.379  0.5782 -0.1373  0.2330
 3239SOL    HW121176   1.022   2.180   6.333  1.0388  0.9185 -0.6957
 3239SOL    HW221177   0.884   2.221   6.340  0.6520  1.3470 -0.8035
 3240SOL     OW21178   3.383   3.459   3.390 -0.0012 -0.3349 -0.1963
 3240SOL    HW121179   3.421   3.371   3.390  0.4968 -0.1197 -1.2428
 3240SOL    HW221180   3.302   3.447   3.342  0.4163  0.2445 -1.0516
 3241SOL     OW21181   0.788   1.822  16.935  0.0970 -0.0611 -0.8452
 3241SOL    HW121182   0.849   1.799  16.865 -0.4690 -4.7177  0.1926
 3241SOL    HW221183   0.849   1.872  16.989 -1.5203  1.3889 -0.3559
 3242SOL     OW21184   0.016   0.433   5.708  0.5492 -0.0484  0.3750
 3242SOL    HW121185   0.098   0.385   5.710  0.0153 -0.9344  1.0772
 3242SOL    HW221186   0.050   0.512   5.666  0.8783 -0.1430  0.4673
 3243SOL     OW21187   0.215   2.475   2.095  0.5308  0.1767  0.5990
 3243SOL    HW121188   0.235   2.565   2.070 -2.3141  1.3039  2.3407
 3243SOL    HW221189   0.245   2.426   2.018 -1.3310 -2.2138  1.4040
 3244SOL     OW21190   4.529   2.748   4.331 -0.0453 -0.2741  0.0516
 3244SOL    HW121191   4.540   2.662   4.372 -1.3145 -0.7288 -0.5512
 3244SOL    HW221192   4.502   2.793   4.412 -0.0349 -1.9534  0.9948
 3245SOL     OW21193   0.095   0.070   3.112 -0.6685  0.2442  0.1079
 3245SOL    HW121194   0.182   0.062   3.075 -0.9765  0.8788 -0.7540
 3245SOL    HW221195   0.077   4.702   3.118  1.3081 -0.0272  2.1518
 3246SOL     OW21196   4.623   2.776   2.146  0.0242  0.0879 -0.4207
 3246SOL    HW121197   4.540   2.786   2.192  0.2072  0.8160 -0.2483
 3246SOL    HW221198   4.685   2.822   2.203  1.5763 -2.6524  0.0999
 3247SOL     OW21199   1.867   2.022   5.373  0.7076 -0.0848 -0.6333
 3247SOL    HW121200   1.814   2.059   5.444 -0.9878  1.0717 -2.5264
 3247SOL    HW221201   1.937   1.979   5.424 -0.3232  1.7563  2.3275
 3248SOL     OW21202   3.002   1.961   5.250 -0.2194  0.6661 -0.1096
 3248SOL    HW121203   2.981   1.976   5.343  1.1687 -2.0673  0.6240
 3248SOL    HW221204   2.980   2.050   5.220 -3.0466 -1.0511 -3.0941
 3249SOL     OW21205   3.445   0.505   3.209 -0.1455 -0.0743  0.3404
 3249SOL    HW121206   3.425   0.586   3.163  1.4417  0.2236  0.1805
 3249SOL    HW221207   3.478   0.531   3.295  2.2154 -0.4386 -0.4470
 3250SOL     OW21208   1.432   2.317  11.762 -0.3205  0.7598 -0.0822
 3250SOL    HW121209   1.497   2.272  11.708  1.3902  1.4632  1.4062
 3250SOL    HW221210   1.457   2.410  11.755  0.8686  0.4043 -0.5305
 3251SOL     OW21211   1.181   3.412   2.613 -0.2445  0.6166  0.6612
 3251SOL    HW121212   1.130   3.333   2.596  0.4664  0.3890 -0.3795
 3251SOL    HW221213   1.176   3.459   2.530  0.9637 -3.4866 -1.7143
 3252SOL     OW21214   1.503   0.410  11.009  0.3839  0.3393 -0.1959
 3252SOL    HW121215   1.473   0.500  10.999  1.2682  0.3749 -2.5176
 3252SOL    HW221216   1.576   0.422  11.070 -0.2244  1.1522  0.3658
 3253SOL     OW21217   0.988   0.920   6.604 -0.1645  0.0045 -0.1319
 3253SOL    HW121218   1.041   0.995   6.579 -0.2481  0.5995  1.4808
 3253SOL    HW221219   1.061   0.863   6.628 -1.2269 -1.6991 -0.9434
 3254SOL     OW21220   2.088   3.156  17.583  0.0970  0.5823 -0.6896
 3254SOL    HW121221   2.066   3.180  17.493  1.8977  2.7157 -0.5612
 3254SOL    HW221222   2.175   3.194  17.598  0.3657  0.1014 -1.0190
 3255SOL     OW21223   1.450   2.295   8.538  0.1226  0.1419  0.0888
 3255SOL    HW121224   1.364   2.305   8.579  0.2945  0.6938  0.3047
 3255SOL    HW221225   1.448   2.364   8.471 -1.8383 -1.3972 -1.4494
 3256SOL     OW21226   3.728   2.654   7.857 -0.6285  0.4129 -0.4177
 3256SOL    HW121227   3.668   2.580   7.863 -2.4387  1.7026 -2.6893
 3256SOL    HW221228   3.662   2.723   7.857 -0.3811  0.6498 -0.4469
 3257SOL     OW21229   4.588   3.650   1.984  0.1728  0.2995 -0.2336
 3257SOL    HW121230   4.523   3.720   1.987  0.8742  0.9142  0.4449
 3257SOL    HW221231   4.583   3.618   2.074  0.0587 -0.1255 -0.3875
 3258SOL     OW21232   1.711   3.292   8.323 -0.4404 -0.1700  0.5164
 3258SOL    HW121233   1.669   3.367   8.364 -1.0608  0.6083 -1.5133
 3258SOL    HW221234   1.726   3.232   8.395  1.5614  2.6029  2.4267
 3259SOL     OW21235   0.524   1.094   3.996  0.0798 -0.1970  0.1247
 3259SOL    HW121236   0.574   1.012   3.986  0.8271  0.7433 -3.8897
 3259SOL    HW221237   0.583   1.147   4.049  0.6805  0.6365 -1.3636
 3260SOL     OW21238   3.910   1.513   6.809 -0.2446  0.5333  0.3844
 3260SOL    HW121239   3.864   1.551   6.884 -1.6525 -0.5273  0.0605
 3260SOL    HW221240   3.882   1.561   6.731  1.1426 -0.1516 -0.5308
 3261SOL     OW21241   1.546   3.331   8.112  0.1283 -0.7175 -0.1336
 3261SOL    HW121242   1.487   3.280   8.168 -0.3256  0.6905  0.6770
 3261SOL    HW221243   1.624   3.326   8.167 -0.9192 -0.5936  1.3628
 3262SOL     OW21244   0.902   3.553   0.946 -0.3237  0.3229  0.2585
 3262SOL    HW121245   0.928   3.555   1.038 -1.2326  2.6458  0.4763
 3262SOL    HW221246   0.950   3.632   0.920 -2.1705  1.6311  0.7770
 3263SOL     OW21247   3.724   0.628   8.667 -0.3259 -0.4487 -0.1977
 3263SOL    HW121248   3.764   0.553   8.711 -0.4391  0.1939  0.9900
 3263SOL    HW221249   3.795   0.649   8.606 -0.0207  2.6626  1.2809
 3264SOL     OW21250   3.145   2.574   5.501 -0.3159 -0.3805  0.2289
 3264SOL    HW121251   3.212   2.543   5.440  1.1196  0.1265  1.5184
 3264SOL    HW221252   3.131   2.662   5.467  0.3430 -1.4706 -2.8366
 3265SOL     OW21253   1.780   1.593   2.522  0.2330 -0.0632 -0.1193
 3265SOL    HW121254   1.777   1.544   2.440 -0.2351 -1.3009  0.6475
 3265SOL    HW221255   1.842   1.665   2.510 -0.1694  0.3525  0.2379
 3266SOL     OW21256   1.987   2.945  17.010  0.4220 -0.0028  0.1716
 3266SOL    HW121257   2.061   2.886  17.029  0.6037 -0.2769 -1.3536
 3266SOL    HW221258   2.023   3.032  17.027  0.0179  0.5640 -1.8280
 3267SOL     OW21259   3.483   3.166   8.705 -0.0416 -0.0183  0.2014
 3267SOL    HW121260   3.535   3.103   8.754  0.2326  0.4109  0.4583
 3267SOL    HW221261   3.526   3.250   8.721  1.4321 -0.9275  1.0318
 3268SOL     OW21262   4.578   1.186  10.226 -0.0407 -0.4289 -0.2501
 3268SOL    HW121263   4.660   1.196  10.276 -0.3436  1.8220 -0.1950
 3268SOL    HW221264   4.599   1.239  10.149  3.2573  0.6498  1.3659
 3269SOL     OW21265   1.738   3.155   1.193 -0.6445  0.1763 -0.4435
 3269SOL    HW121266   1.822   3.110   1.189 -1.2622 -0.8781 -1.6409
 3269SOL    HW221267   1.725   3.161   1.288  0.8779  0.4254 -0.2652
 3270SOL     OW21268   2.221   0.398   5.637  0.2002 -0.2349  0.3425
 3270SOL    HW121269   2.288   0.348   5.684 -0.3147 -1.9320 -0.7414
 3270SOL    HW221270   2.209   0.350   5.555  0.5084 -1.0765  0.7897
 3271SOL     OW21271   2.844   3.712   7.852  0.1188 -0.0196 -0.6426
 3271SOL    HW121272   2.804   3.626   7.839 -2.4414  0.6037  3.1692
 3271SOL    HW221273   2.832   3.724   7.946  1.1687 -0.8364 -0.4054
 3272SOL     OW21274   4.510   0.903   9.184  0.1994  0.6967 -0.2478
 3272SOL    HW121275   4.536   0.857   9.264  1.0997  1.7621  0.0820
 3272SOL    HW221276   4.475   0.982   9.226  0.0157  1.8056 -2.4938
 3273SOL     OW21277   2.550   0.819   6.681 -0.1100  0.2499  0.1679
 3273SOL    HW121278   2.531   0.799   6.773  0.0937  3.3732  0.8865
 3273SOL    HW221279   2.560   0.730   6.646  0.6169  0.9882 -1.4765
 3274SOL     OW21280   2.220   4.132   8.602  0.1981 -0.2177  0.2413
 3274SOL    HW121281   2.126   4.152   8.600  0.1253 -0.6466 -0.6911
 3274SOL    HW221282   2.263   4.202   8.553 -1.0363 -0.6335 -1.4611
 3275SOL     OW21283   2.018   1.580   3.152 -0.1357 -0.1829 -0.0020
 3275SOL    HW121284   2.056   1.598   3.238 -0.1527 -0.5093  0.0760
 3275SOL    HW221285   2.032   1.658   3.099 -0.5300  0.1349  0.3625
 3276SOL     OW21286   0.359   2.115   7.734  0.0501 -0.4439 -0.3481
 3276SOL    HW121287   0.408   2.163   7.801  0.0521  1.1678 -1.4881
 3276SOL    HW221288   0.368   2.177   7.661 -2.5174 -2.1871 -2.1287
 3277SOL     OW21289   3.074   3.909   8.363  0.1134  0.2669 -0.0897
 3277SOL    HW121290   3.157   3.940   8.398  0.0160  1.5546 -0.9657
 3277SOL    HW221291   3.029   3.987   8.396 -0.5619 -0.2154  0.1216
 3278SOL     OW21292   3.578   2.379   7.808  0.1378 -0.1774 -0.1414
 3278SOL    HW121293   3.627   2.324   7.747 -1.8835 -1.6114 -0.4546
 3278SOL    HW221294   3.547   2.318   7.875  1.7335 -0.6663  0.1637
 3279SOL     OW21295   1.494   3.755  15.091  0.4299  0.2705 -0.0143
 3279SOL    HW121296   1.569   3.699  15.111  0.1363 -0.4684 -0.9807
 3279SOL    HW221297   1.532   3.840  15.115  0.4982  0.6523 -1.4316
 3280SOL     OW21298   0.004   3.158   2.310 -0.0677  0.1292  0.2134
 3280SOL    HW121299   0.007   3.191   2.221 -0.9158  1.3491  0.6353
 3280SOL    HW221300   4.642   3.121   2.315 -0.9659  2.0902 -0.8366
 3281SOL     OW21301   3.397   0.793  15.097 -0.0289 -0.0045  0.2766
 3281SOL    HW121302   3.462   0.812  15.165  1.2811 -0.9612 -0.7012
 3281SOL    HW221303   3.330   0.861  15.107  0.0810  0.3951 -1.6971
 3282SOL     OW21304   4.346   3.582  10.472 -0.5392 -0.2107  0.3653
 3282SOL    HW121305   4.356   3.487  10.469  0.5502 -0.1078  0.8900
 3282SOL    HW221306   4.312   3.596  10.560 -0.3767 -3.7305  0.9682
 3283SOL     OW21307   1.179   3.385   0.327 -0.6233  0.3592  0.3021
 3283SOL    HW121308   1.225   3.437   0.393  1.6904 -0.0710 -0.9971
 3283SOL    HW221309   1.091   3.423   0.329 -0.8436 -0.2130  1.4265
 3284SOL     OW21310   2.383   1.382  13.299 -0.4145 -0.0978  0.3222
 3284SOL    HW121311   2.385   1.320  13.226  1.8127  0.3734 -0.0143
 3284SOL    HW221312   2.465   1.359  13.344 -0.5999  1.8012  1.5899
 3285SOL     OW21313   1.744   2.314   9.984  0.5545 -0.0644 -0.0801
 3285SOL    HW121314   1.740   2.407  10.008 -2.1626 -0.4142  0.7887
 3285SOL    HW221315   1.830   2.291  10.019  0.9499  0.6378 -0.5767
 3286SOL     OW21316   3.079   3.167   6.945 -0.3695 -0.0751  0.1072
 3286SOL    HW121317   3.111   3.190   6.858 -1.4461 -2.7222 -0.9952
 3286SOL    HW221318   3.158   3.176   6.998 -0.1445  0.3093 -0.2916
 3287SOL     OW21319   4.513   0.877   2.543 -0.0659 -0.1409 -0.1562
 3287SOL    HW121320   4.550   0.818   2.610  1.3471 -0.3033 -1.0780
 3287SOL    HW221321   4.575   0.949   2.549  0.7773 -0.5638 -3.8337
 3288SOL     OW21322   0.742   1.102  10.207  0.1092  0.1880 -0.1151
 3288SOL    HW121323   0.774   1.088  10.118 -0.5121  0.5781 -0.4007
 3288SOL    HW221324   0.666   1.044  10.214  1.4514 -1.7558 -1.5988
 3289SOL     OW21325   1.748   3.214  12.423 -0.4322 -0.3205  0.2265
 3289SOL    HW121326   1.809   3.157  12.469  0.9304  0.3394 -0.7578
 3289SOL    HW221327   1.748   3.293  12.478  1.6046 -0.5219  0.5172
 3290SOL     OW21328   1.184   0.109  11.106 -0.9452  0.1861 -0.2187
 3290SOL    HW121329   1.156   0.201  11.097  2.5045  1.2669  0.4156
 3290SOL    HW221330   1.275   0.122  11.129 -1.3125 -0.7603  1.7701
 3291SOL     OW21331   1.222   4.410  10.621 -0.2857  0.0179 -0.6334
 3291SOL    HW121332   1.306   4.367  10.633 -0.9794 -0.8368  1.1017
 3291SOL    HW221333   1.234   4.492  10.669  1.2759  0.6477 -2.1223
 3292SOL     OW21334   1.910   0.902  12.422  0.0633 -1.0269  0.2712
 3292SOL    HW121335   1.878   0.984  12.458  0.5129  0.6584 -3.1354
 3292SOL    HW221336   1.965   0.873  12.495 -0.1405  0.6834  1.1053
 3293SOL     OW21337   3.073   4.575  14.317  0.1884  0.2473 -0.0442
 3293SOL    HW121338   2.988   4.574  14.274  0.0929 -0.7326  0.1638
 3293SOL    HW221339   3.052   4.589  14.410 -0.1383 -0.3906 -0.0206
 3294SOL     OW21340   0.189   0.812   8.056 -0.5500  0.0967 -0.5626
 3294SOL    HW121341   0.184   0.776   8.144  2.8789  0.6973 -0.1558
 3294SOL    HW221342   0.240   0.890   8.077  0.4367 -0.0462 -2.4447
 3295SOL     OW21343   3.529   0.534  14.408  0.3250 -0.3321 -0.3898
 3295SOL    HW121344   3.520   0.551  14.314 -0.2913 -0.7564 -0.4089
 3295SOL    HW221345   3.601   0.471  14.408  0.4127 -0.2193  2.0431
 3296SOL     OW21346   1.823   3.228   5.719  0.2423  0.5480  1.2720
 3296SOL    HW121347   1.833   3.154   5.778 -0.4688 -1.0253 -0.5643
 3296SOL    HW221348   1.845   3.301   5.777  1.0161  0.4370  1.1210
 3297SOL     OW21349   1.146   1.952  17.347  0.0652 -0.1116  0.0684
 3297SOL    HW121350   1.204   1.907  17.286 -0.3820 -0.0100 -0.4308
 3297SOL    HW221351   1.207   1.944  17.420 -0.7601  0.2541  0.8110
 3298SOL     OW21352   4.658   0.482   0.503  0.1098  0.0259 -0.0503
 3298SOL    HW121353   4.602   0.442   0.437  0.4642  2.2322 -1.6561
 3298SOL    HW221354   4.618   0.566   0.526  0.5482  0.9588 -2.8050
 3299SOL     OW21355   3.967   1.956   4.941  0.0386 -0.8004 -0.0664
 3299SOL    HW121356   3.912   2.009   4.883  1.4199 -0.1448 -0.7706
 3299SOL    HW221357   3.904   1.935   5.010 -0.0029  0.1499  0.1915
 3300SOL     OW21358   3.942   2.586   2.275  0.2249  0.4483 -0.2256
 3300SOL    HW121359   3.975   2.542   2.196 -0.6963  0.4795 -0.6199
 3300SOL    HW221360   3.894   2.518   2.321 -1.2092  0.7849 -1.2335
 3301SOL     OW21361   2.864   0.950   4.591 -0.1622  0.0218 -0.0211
 3301SOL    HW121362   2.938   1.004   4.563 -1.1908  1.4383 -0.0240
 3301SOL    HW221363   2.796   1.017   4.587 -0.1152 -0.0515 -2.2785
 3302SOL     OW21364   2.341   1.445   8.248 -0.3624  0.2655  0.1272
 3302SOL    HW121365   2.262   1.420   8.296 -0.4409 -1.2503 -0.7999
 3302SOL    HW221366   2.327   1.382   8.178 -1.9791 -0.3077  0.9845
 3303SOL     OW21367   1.288   0.216  13.299  0.1062 -0.3922  0.0109
 3303SOL    HW121368   1.271   0.164  13.221 -0.2087 -1.6876  0.9363
 3303SOL    HW221369   1.362   0.269  13.270  1.4155 -1.0629  2.1235
 3304SOL     OW21370   3.629   0.720   0.431  0.0971 -0.0528  0.1207
 3304SOL    HW121371   3.708   0.726   0.376  0.0947 -0.6180  0.0640
 3304SOL    HW221372   3.613   0.811   0.456 -0.7553 -0.3904  0.7687
 3305SOL     OW21373   0.921   1.715   5.982  0.3430 -0.1772 -0.0205
 3305SOL    HW121374   0.889   1.627   5.999  0.0775 -0.1876 -0.5702
 3305SOL    HW221375   0.836   1.756   5.963  0.5106  0.6146  0.9064
 3306SOL     OW21376   2.958   3.473   8.631 -0.3700 -0.1717  0.1642
 3306SOL    HW121377   2.870   3.501   8.656 -0.5103 -0.4577 -0.0062
 3306SOL    HW221378   2.992   3.550   8.586  1.8013 -0.3073  1.5593
 3307SOL     OW21379   3.936   2.129  14.859 -0.2457 -0.2600 -0.6513
 3307SOL    HW121380   3.842   2.141  14.866 -0.1473  0.8110 -1.2415
 3307SOL    HW221381   3.961   2.127  14.952 -0.0440  1.1433 -0.6837
 3308SOL     OW21382   2.850   1.322   0.129 -0.0793  0.0177 -0.1941
 3308SOL    HW121383   2.759   1.293   0.134 -0.8818  2.2817 -1.5186
 3308SOL    HW221384   2.892   1.297   0.211 -0.2599  2.5745  0.6813
 3309SOL     OW21385   4.165   4.031   4.691  0.0876 -0.5496  0.3641
 3309SOL    HW121386   4.200   4.020   4.779  1.7181  1.7659 -0.0023
 3309SOL    HW221387   4.241   4.048   4.636 -1.8503  2.6047 -1.3710
 3310SOL     OW21388   3.399   1.433   2.786 -0.1946  0.1258  0.0689
 3310SOL    HW121389   3.366   1.348   2.814 -0.4771 -0.0044 -0.6888
 3310SOL    HW221390   3.449   1.467   2.861  1.1716 -1.4806 -0.1151
 3311SOL     OW21391   0.182   3.658   7.205  0.0629  0.4523  0.5543
 3311SOL    HW121392   0.200   3.587   7.142 -0.8334 -0.9336  1.8660
 3311SOL    HW221393   0.178   3.615   7.290 -1.3119 -1.6154 -0.5458
 3312SOL     OW21394   2.339   2.307   3.510  0.0099 -0.8653 -0.8318
 3312SOL    HW121395   2.351   2.268   3.424  0.1765 -0.1620 -1.1301
 3312SOL    HW221396   2.365   2.235   3.567 -1.2652 -0.4209  0.3023
 3313SOL     OW21397   2.065   1.820   3.038  0.3688 -0.3375 -0.2025
 3313SOL    HW121398   2.054   1.853   2.948  0.6906 -0.2053 -0.1965
 3313SOL    HW221399   2.138   1.872   3.073  0.3337 -1.6650  1.7857
 3314SOL     OW21400   3.290   1.179   9.632 -0.2943 -0.7223 -0.4240
 3314SOL    HW121401   3.248   1.257   9.596 -0.8987 -0.2159  1.3471
 3314SOL    HW221402   3.220   1.114   9.634  0.9381 -2.0317  0.3522
 3315SOL     OW21403   0.187   1.648   5.287 -0.0247  0.2613  0.3943
 3315SOL    HW121404   0.158   1.630   5.376 -1.3758 -1.0579 -0.3222
 3315SOL    HW221405   0.280   1.625   5.290  0.2252  1.4133  1.4465
 3316SOL     OW21406   3.445   4.285   5.825 -0.4110 -0.9109 -0.7328
 3316SOL    HW121407   3.458   4.379   5.810 -0.5298 -0.8430 -0.4171
 3316SOL    HW221408   3.376   4.274   5.759 -0.3941 -0.2902 -0.8560
 3317SOL     OW21409   4.329   4.368   0.023 -0.2613 -0.6441 -0.6380
 3317SOL    HW121410   4.366   4.439  17.673  1.4014 -0.8795  0.2170
 3317SOL    HW221411   4.397   4.376   0.090 -0.5332 -3.5124 -0.0443
 3318SOL     OW21412   0.930   1.792  17.433 -0.6708 -0.1542 -0.4893
 3318SOL    HW121413   0.986   1.866  17.407  1.0026 -0.5601  1.9680
 3318SOL    HW221414   0.978   1.716  17.399  0.5062 -0.2702  1.4064
 3319SOL     OW21415   4.144   0.952   7.897  0.8361 -0.0371  0.5412
 3319SOL    HW121416   4.093   1.030   7.875 -0.6315 -1.1305  0.0692
 3319SOL    HW221417   4.172   0.981   7.983  0.8289  0.1154  0.4908
 3320SOL     OW21418   0.036   1.964   0.401  0.4639 -0.1356  0.5591
 3320SOL    HW121419   0.072   1.895   0.346  2.0348  1.4597 -0.4163
 3320SOL    HW221420   4.672   1.954   0.368  1.3642 -0.1002 -1.8785
 3321SOL     OW21421   0.959   2.350   7.434 -0.6045  0.0496 -0.2320
 3321SOL    HW121422   0.910   2.301   7.367 -0.4553  1.4577 -1.3510
 3321SOL    HW221423   1.044   2.307   7.427 -0.2823  0.5975  0.3276
 3322SOL     OW21424   2.009   4.425   5.541 -0.0213  0.1206  0.1164
 3322SOL    HW121425   1.967   4.339   5.530 -2.0482  0.8203  2.5154
 3322SOL    HW221426   1.948   4.471   5.597 -1.0431 -2.2211  0.9452
 3323SOL     OW21427   2.465   4.392   6.150 -0.1208 -0.0953 -0.1765
 3323SOL    HW121428   2.383   4.346   6.165  1.0715 -1.8975  0.8827
 3323SOL    HW221429   2.498   4.351   6.070 -2.2844  0.7665 -1.4899
 3324SOL     OW21430   4.308   4.464   5.170  0.1706  0.0267  0.2851
 3324SOL    HW121431   4.250   4.540   5.175 -0.7843 -0.6775 -0.0211
 3324SOL    HW221432   4.381   4.510   5.212  1.6336 -0.4390 -1.7457
 3325SOL     OW21433   2.128   1.374   7.215  0.1945 -0.4425  0.2040
 3325SOL    HW121434   2.096   1.343   7.130  0.8130  2.0772 -0.9344
 3325SOL    HW221435   2.222   1.356   7.214  0.3520  0.4011 -0.4631
 3326SOL     OW21436   1.166   0.233   5.059  0.5111  0.3344  0.1040
 3326SOL    HW121437   1.239   0.230   4.997  0.0922 -1.9278 -0.2951
 3326SOL    HW221438   1.088   0.250   5.007  0.9197  1.0176 -0.2864
 3327SOL     OW21439   3.546   0.068  14.076  0.1146 -0.0426  0.0510
 3327SOL    HW121440   3.566   4.701  14.090 -3.3332 -0.6973  0.7934
 3327SOL    HW221441   3.495   0.078  14.156 -0.7115 -0.2683 -0.4461
 3328SOL     OW21442   4.490   0.960   1.543 -0.1022  0.3631  0.4988
 3328SOL    HW121443   4.432   0.884   1.552 -1.0464  1.0380  0.0177
 3328SOL    HW221444   4.532   0.954   1.629  0.2782  1.1633  0.3693
 3329SOL     OW21445   0.524   3.718   5.104  0.2085  0.5412 -0.4546
 3329SOL    HW121446   0.557   3.632   5.077  0.2666  1.4918 -3.4199
 3329SOL    HW221447   0.599   3.767   5.137 -0.0076  0.0559  0.7354
 3330SOL     OW21448   1.632   4.101   8.707  1.0755  0.2296 -0.2952
 3330SOL    HW121449   1.585   4.018   8.695 -1.7371  1.9362 -0.9993
 3330SOL    HW221450   1.561   4.164   8.716 -0.7385 -1.8859  0.3459
 3331SOL     OW21451   4.236   4.014   7.363 -0.4660  0.2694 -0.2727
 3331SOL    HW121452   4.155   4.065   7.354 -2.1190 -2.0158  1.7437
 3331SOL    HW221453   4.202   3.935   7.404 -0.2127  1.1992  1.7355
 3332SOL     OW21454   4.694   4.344   0.943  0.2714 -0.4386  0.1067
 3332SOL    HW121455   4.704   4.265   0.890  0.3101 -0.1432 -0.3211
 3332SOL    HW221456   4.684   4.407   0.872 -0.2558 -0.3160  0.2908
 3333SOL     OW21457   1.889   2.183   6.477 -0.7442  0.1920  0.3300
 3333SOL    HW121458   1.827   2.255   6.467  1.9617  2.8357  2.6329
 3333SOL    HW221459   1.838   2.105   6.499  1.1593 -1.4270 -1.0249
 3334SOL     OW21460   0.417   3.825  14.081 -0.4661 -0.2582  0.3615
 3334SOL    HW121461   0.434   3.741  14.039 -0.6781  0.7424 -1.7618
 3334SOL    HW221462   0.359   3.872  14.021  0.9103  2.6222  1.3016
 3335SOL     OW21463   0.631   1.558   0.397  0.7645 -0.1263  0.0829
 3335SOL    HW121464   0.642   1.608   0.316 -0.3175 -0.7443 -0.4515
 3335SOL    HW221465   0.707   1.502   0.383 -1.4104 -2.8534 -0.8209
 3336SOL     OW21466   1.740   2.217   1.206 -0.8506  0.5156  0.1838
 3336SOL    HW121467   1.792   2.137   1.204 -1.3421  0.2245 -0.6643
 3336SOL    HW221468   1.801   2.288   1.186 -0.3996  0.3817  1.0746
 3337SOL     OW21469   0.553   2.514   1.142 -0.4384  0.0030 -0.0417
 3337SOL    HW121470   0.506   2.551   1.217  0.2435 -3.3750  2.0092
 3337SOL    HW221471   0.486   2.461   1.100 -0.1200 -0.4447  0.0262
 3338SOL     OW21472   4.663   4.671  14.632 -0.1812 -0.2138  0.0881
 3338SOL    HW121473   4.589   4.722  14.600  0.6158 -0.8813 -2.8020
 3338SOL    HW221474   4.606   4.595  14.642  1.8787 -1.7255  0.3840
 3339SOL     OW21475   0.866   1.441   5.963  0.2535  0.4279 -0.1003
 3339SOL    HW121476   0.771   1.437   5.962  0.2664  0.3646 -1.8825
 3339SOL    HW221477   0.880   1.395   6.046 -1.0150 -0.1392 -0.1984
 3340SOL     OW21478   3.576   0.405   2.982 -0.3650 -0.2143 -0.5938
 3340SOL    HW121479   3.657   0.427   3.029 -0.8710 -1.0521  0.6485
 3340SOL    HW221480   3.505   0.429   3.041  0.3591  0.6750 -0.0723
 3341SOL     OW21481   0.211   2.093  13.658 -0.0196  0.3044 -0.1813
 3341SOL    HW121482   0.274   2.143  13.606 -0.1920  1.3805  0.6349
 3341SOL    HW221483   0.128   2.140  13.648  0.5112  0.8458 -2.0882
 3342SOL     OW21484   4.702   0.072   4.102 -0.6939 -0.5625  0.0675
 3342SOL    HW121485   4.627   0.031   4.144 -1.8287 -0.0764 -1.4685
 3342SOL    HW221486   0.019   0.129   4.167 -1.3147  0.6168 -0.5624
 3343SOL     OW21487   4.703   1.528   1.795 -0.1007  0.1888 -0.0309
 3343SOL    HW121488   4.702   1.554   1.887  0.3480  0.2001 -0.0323
 3343SOL    HW221489   4.619   1.482   1.791 -0.7080  1.3887 -1.1919
 3344SOL     OW21490   1.413   1.767   1.583  0.2144 -0.0227  1.0999
 3344SOL    HW121491   1.400   1.694   1.522 -2.1123  0.6751  0.7690
 3344SOL    HW221492   1.321   1.788   1.598 -0.4685 -1.2462 -1.4784
 3345SOL     OW21493   0.066   4.586   6.181 -0.4246  0.5475 -0.4648
 3345SOL    HW121494   4.719   4.587   6.243  1.7041 -0.2185  2.0185
 3345SOL    HW221495   0.118   4.516   6.221 -1.2020  0.9246  1.2046
 3346SOL     OW21496   0.353   2.362   0.403 -0.5189  0.2681 -0.5323
 3346SOL    HW121497   0.272   2.395   0.366 -1.3011 -1.4679 -0.3620
 3346SOL    HW221498   0.324   2.277   0.435  0.1133  1.2916  2.8295
 3347SOL     OW21499   4.546   4.239   6.302  0.3721 -0.2954  0.1320
 3347SOL    HW121500   4.517   4.325   6.272 -0.4466 -0.9161 -0.8543
 3347SOL    HW221501   4.590   4.205   6.225 -2.0730 -2.5329 -0.2954
 3348SOL     OW21502   1.988   4.146  10.516 -0.2257  0.5987  0.7355
 3348SOL    HW121503   1.990   4.202  10.593 -1.8242  1.9479 -0.2005
 3348SOL    HW221504   1.898   4.146  10.484 -0.2273 -0.6929  0.7259
 3349SOL     OW21505   3.311   0.032  13.502  0.5156  0.1116  0.2389
 3349SOL    HW121506   3.242   4.703  13.465  0.3259  1.3399 -1.1954
 3349SOL    HW221507   3.262   0.111  13.525  0.1115 -0.1796  0.3734
 3350SOL     OW21508   0.979   1.024   3.478  0.8907  0.3819  0.8819
 3350SOL    HW121509   1.052   0.977   3.518  0.9693 -1.8549 -1.8613
 3350SOL    HW221510   0.986   0.993   3.387  0.2188 -0.7759  1.2196
 3351SOL     OW21511   0.491   3.354   2.219  0.8809 -0.7184  0.4472
 3351SOL    HW121512   0.443   3.314   2.146  2.2114 -0.7566 -0.4092
 3351SOL    HW221513   0.580   3.323   2.205  0.3859 -1.0506 -2.0562
 3352SOL     OW21514   0.607   1.444   9.581  0.3444 -0.0615 -0.6560
 3352SOL    HW121515   0.586   1.535   9.603 -0.3441 -0.2470 -0.5453
 3352SOL    HW221516   0.700   1.443   9.602  0.6874 -2.3596 -2.2629
 3353SOL     OW21517   3.570   1.542   1.293  0.0102 -0.6038  0.7571
 3353SOL    HW121518   3.515   1.614   1.325  0.3290  0.6453 -1.4834
 3353SOL    HW221519   3.632   1.541   1.365  1.5573  1.9065 -0.5538
 3354SOL     OW21520   0.038   0.001  10.041  0.4086 -0.8481 -0.1978
 3354SOL    HW121521   0.088   0.053  10.102  0.1579  1.5853 -2.0691
 3354SOL    HW221522   4.677   0.040  10.056  2.3425  2.9302  0.8993
 3355SOL     OW21523   3.548   0.796   6.961  0.0454  0.2898  0.5095
 3355SOL    HW121524   3.611   0.732   6.995  0.3958 -0.5307 -1.7196
 3355SOL    HW221525   3.469   0.743   6.966  0.3545 -0.2577 -0.3860
 3356SOL     OW21526   4.073   1.316   2.116  0.4679 -0.4357  0.2928
 3356SOL    HW121527   4.121   1.386   2.071  0.5848  0.1746  1.3624
 3356SOL    HW221528   4.107   1.239   2.070  0.4914  0.3920 -1.0800
 3357SOL     OW21529   3.231   1.489   4.234  0.1866  0.2618  0.3004
 3357SOL    HW121530   3.201   1.538   4.157 -0.2744  0.5465  0.6622
 3357SOL    HW221531   3.271   1.560   4.285  1.3016 -0.3905  0.3401
 3358SOL     OW21532   0.099   3.093  13.910 -0.0866  0.1498  0.3467
 3358SOL    HW121533   0.023   3.117  13.857  1.6741  0.9264 -1.7818
 3358SOL    HW221534   0.057   3.094  13.996  0.0128  0.1087  0.3960
 3359SOL     OW21535   2.857   4.579   6.938  0.0643  0.4589 -0.7130
 3359SOL    HW121536   2.858   4.539   7.025  0.0863  0.0212 -0.9180
 3359SOL    HW221537   2.935   4.542   6.898  0.1456  0.3287 -0.4312
 3360SOL     OW21538   2.938   0.433   4.605 -0.0066  0.2941  0.0143
 3360SOL    HW121539   2.931   0.505   4.668 -0.1963 -0.1009  0.4446
 3360SOL    HW221540   2.915   0.481   4.525  0.3941 -0.0350 -0.2971
 3361SOL     OW21541   4.652   4.699   2.263 -0.2786  0.2077 -0.3605
 3361SOL    HW121542   4.717   0.039   2.291  1.0596 -1.9964  1.7019
 3361SOL    HW221543   4.710   4.625   2.246 -0.3552  0.0855 -0.1082
 3362SOL     OW21544   2.305   0.348   9.416 -0.2930 -0.5292 -0.1737
 3362SOL    HW121545   2.229   0.405   9.430 -1.8346 -1.8826 -3.0737
 3362SOL    HW221546   2.375   0.412   9.401 -1.0789  0.6365  1.0613
 3363SOL     OW21547   0.922   3.538   1.857  0.0104 -0.5165  0.7471
 3363SOL    HW121548   0.933   3.630   1.882 -0.4031 -0.2450 -0.0617
 3363SOL    HW221549   0.912   3.491   1.940  0.3511  0.3035  1.2498
 3364SOL     OW21550   2.127   0.130   9.454  0.1305  0.3892 -0.1632
 3364SOL    HW121551   2.076   0.154   9.377 -0.0138  1.6664  0.3201
 3364SOL    HW221552   2.187   0.204   9.458  2.4078 -1.3418 -2.7642
 3365SOL     OW21553   0.001   4.126  10.346 -0.7951 -0.4243  0.0674
 3365SOL    HW121554   4.668   4.134  10.271  1.0067 -0.8850 -1.3692
 3365SOL    HW221555   0.066   4.193  10.326 -0.0696 -2.1263 -3.2317
 3366SOL     OW21556   3.125   2.007   3.864  0.5171  0.1959  0.5434
 3366SOL    HW121557   3.134   2.082   3.922  0.5345  0.8421 -0.3027
 3366SOL    HW221558   3.179   2.029   3.788  0.9660  0.8000  1.0339
 3367SOL     OW21559   2.525   0.146   9.518  0.3529  0.2429  0.5690
 3367SOL    HW121560   2.558   0.210   9.581  1.4545  0.6655 -0.4379
 3367SOL    HW221561   2.454   0.194   9.475  2.6680  1.8136 -1.5229
 3368SOL     OW21562   4.014   0.313   9.346 -0.2997 -0.7124 -0.2456
 3368SOL    HW121563   4.080   0.244   9.341  0.1123 -0.2031 -1.6481
 3368SOL    HW221564   3.973   0.303   9.260  0.6389 -0.4861 -0.7120
 3369SOL     OW21565   4.522   4.092  10.539  0.2419  0.0560 -0.6157
 3369SOL    HW121566   4.601   4.110  10.488 -0.2015  1.2398 -0.8979
 3369SOL    HW221567   4.553   4.046  10.617 -1.8188  1.9337  1.2966
 3370SOL     OW21568   2.056   1.200  12.932  0.0652 -0.5712 -0.1856
 3370SOL    HW121569   2.134   1.243  12.895  0.2310 -1.1679 -0.5373
 3370SOL    HW221570   2.003   1.164  12.861  0.0938  0.1775 -0.5958
 3371SOL     OW21571   4.059   2.684   6.716  0.0218  0.1256  0.3154
 3371SOL    HW121572   4.029   2.670   6.806  2.0314  2.4795  1.3422
 3371SOL    HW221573   3.979   2.724   6.682  0.2395 -2.0291 -2.7991
 3372SOL     OW21574   0.945   1.092  17.340 -0.2782  0.2943  0.1643
 3372SOL    HW121575   0.879   1.060  17.279 -2.2869 -1.5010  3.2755
 3372SOL    HW221576   0.979   1.015  17.384  1.9679  0.5874 -1.0626
 3373SOL     OW21577   4.534   1.693   3.031 -0.1810 -0.0681 -0.5606
 3373SOL    HW121578   4.578   1.739   3.102  2.2245 -1.0847 -1.3922
 3373SOL    HW221579   4.572   1.606   3.045  0.1483 -0.0953 -1.6496
 3374SOL     OW21580   4.523   4.689   1.142 -0.2413 -0.6036  0.0412
 3374SOL    HW121581   4.490   0.012   1.066 -0.9799 -1.8334 -0.4228
 3374SOL    HW221582   4.450   4.716   1.198  0.0396  0.0623  0.0958
 3375SOL     OW21583   1.821   2.235   2.966 -0.0397  0.1635 -0.3071
 3375SOL    HW121584   1.808   2.281   2.883 -2.4492 -2.2048 -1.2139
 3375SOL    HW221585   1.915   2.247   2.982  0.0877  0.6260 -1.4044
 3376SOL     OW21586   2.747   2.149   5.405  0.7710 -0.1371  0.1240
 3376SOL    HW121587   2.796   2.077   5.444 -0.9032 -0.3081  1.9218
 3376SOL    HW221588   2.814   2.218   5.400 -0.2601  1.0160  2.2851
 3377SOL     OW21589   1.445   1.463   3.945  0.5528 -0.3448 -0.4433
 3377SOL    HW121590   1.516   1.415   3.988  1.2284  1.4603  0.4683
 3377SOL    HW221591   1.437   1.422   3.859 -3.5611 -1.5974  0.5213
 3378SOL     OW21592   1.837   0.565   1.808 -0.2282  0.1551  0.0621
 3378SOL    HW121593   1.795   0.625   1.870  0.7807 -1.5189  2.3804
 3378SOL    HW221594   1.801   0.609   1.731  0.1036 -0.3826 -0.4041
 3379SOL     OW21595   0.400   1.029   5.904  0.0110  0.4506 -0.2172
 3379SOL    HW121596   0.437   1.117   5.905 -1.0497  0.8823  1.1197
 3379SOL    HW221597   0.314   1.048   5.867 -0.2577  0.6992  0.5276
 3380SOL     OW21598   4.296   1.667   0.658 -0.7635  0.3014 -0.4729
 3380SOL    HW121599   4.279   1.575   0.638  1.5845  0.4288 -3.0656
 3380SOL    HW221600   4.370   1.657   0.719 -0.4534 -2.3683 -1.2899
 3381SOL     OW21601   0.238   2.936   1.211 -0.0354  0.8164  0.2498
 3381SOL    HW121602   0.272   2.996   1.277 -0.6214 -0.8386  2.0546
 3381SOL    HW221603   0.147   2.966   1.199 -0.8799 -1.5422  0.8206
 3382SOL     OW21604   2.863   4.340   4.589  0.2746 -0.0456  0.2994
 3382SOL    HW121605   2.796   4.291   4.637  1.5713 -1.4278  0.6950
 3382SOL    HW221606   2.907   4.268   4.543  0.1763  0.6940 -0.9662
 3383SOL     OW21607   4.303   2.631  13.663  0.3510  0.1140  0.1103
 3383SOL    HW121608   4.381   2.587  13.695  0.9177  1.5358  0.6782
 3383SOL    HW221609   4.258   2.549  13.645 -0.3173  0.1971  1.3837
 3384SOL     OW21610   3.857   0.654   5.001  0.3960  0.1694 -0.9157
 3384SOL    HW121611   3.902   0.570   4.996  0.8455  0.3540  0.0675
 3384SOL    HW221612   3.853   0.685   4.910  2.5577 -0.0756 -1.1116
 3385SOL     OW21613   4.704   0.642   1.481 -0.3211 -1.0133  0.0240
 3385SOL    HW121614   4.697   0.552   1.449 -1.1385 -1.7509  2.2714
 3385SOL    HW221615   4.643   0.635   1.554 -0.4253  1.3606  0.1627
 3386SOL     OW21616   1.486   1.038   3.075 -0.3551  0.2445 -0.3582
 3386SOL    HW121617   1.455   1.119   3.035  0.2021 -0.0717 -1.4378
 3386SOL    HW221618   1.559   1.024   3.016  0.8845 -0.7684  1.4324
 3387SOL     OW21619   2.901   1.125   6.736  0.1184  0.9446  0.5753
 3387SOL    HW121620   2.957   1.118   6.658 -0.6903 -0.4448  0.1128
 3387SOL    HW221621   2.822   1.152   6.689 -0.5898 -1.0520  0.5945
 3388SOL     OW21622   1.399   2.945   1.192 -0.5775  0.2522 -0.3840
 3388SOL    HW121623   1.470   2.897   1.236  1.3506  2.1914 -1.4027
 3388SOL    HW221624   1.445   3.019   1.153  0.7338  0.6606  1.9199
 3389SOL     OW21625   2.192   2.242  15.661 -0.5052 -0.2440  0.3548
 3389SOL    HW121626   2.285   2.252  15.640  0.0989 -2.4440  1.9133
 3389SOL    HW221627   2.170   2.187  15.586 -0.6407  1.3924 -0.8116
 3390SOL     OW21628   1.389   0.243   5.586  0.2829  0.2588 -0.3325
 3390SOL    HW121629   1.419   0.158   5.618  0.4059  0.6233  0.5163
 3390SOL    HW221630   1.303   0.249   5.629  0.5195 -0.0922  0.1754
 3391SOL     OW21631   0.095   3.988   5.091  0.0216  0.6365 -0.1771
 3391SOL    HW121632   0.111   3.923   5.159 -0.3245 -1.4436 -2.1089
 3391SOL    HW221633   0.011   4.033   5.101 -0.4815 -0.5381  0.7845
 3392SOL     OW21634   1.689   1.611   4.250  0.4451 -0.1773  0.2443
 3392SOL    HW121635   1.700   1.688   4.306  0.4175  1.4528 -1.9962
 3392SOL    HW221636   1.768   1.562   4.274  1.4516  0.5341 -1.6307
 3393SOL     OW21637   3.625   4.439   6.144 -0.0748  0.5984 -0.1192
 3393SOL    HW121638   3.640   4.457   6.236 -1.6766  1.8236 -0.0750
 3393SOL    HW221639   3.583   4.521   6.116  1.1126  1.6267  1.1121
 3394SOL     OW21640   3.990   4.134   0.809  0.1001  0.2976 -0.3784
 3394SOL    HW121641   4.054   4.135   0.738 -0.0322 -1.8342 -0.5197
 3394SOL    HW221642   3.931   4.204   0.780 -0.7305 -0.2535 -0.0115
 3395SOL     OW21643   0.931   0.396   5.710  0.2618 -0.4465  0.1988
 3395SOL    HW121644   1.002   0.333   5.720 -0.8469 -2.0937 -2.4114
 3395SOL    HW221645   0.975   0.432   5.633 -1.0081 -1.0662 -0.8191
 3396SOL     OW21646   0.798   2.159   4.311 -0.0788 -0.4065 -0.2866
 3396SOL    HW121647   0.750   2.130   4.389 -1.6816 -0.5269 -1.3125
 3396SOL    HW221648   0.840   2.078   4.280  1.6123  0.0671  0.7629
 3397SOL     OW21649   1.423   2.910   7.618 -0.4490  0.4208  0.4334
 3397SOL    HW121650   1.461   2.933   7.702 -0.0863 -0.3161  0.4695
 3397SOL    HW221651   1.453   2.819   7.615  0.8484  0.9112 -1.5182
 3398SOL     OW21652   0.697   1.189   0.123 -0.0873 -0.3169 -0.3447
 3398SOL    HW121653   0.668   1.099   0.140 -2.0384  0.4679  0.4125
 3398SOL    HW221654   0.702   1.175   0.029 -2.7060  0.7900 -0.6456
 3399SOL     OW21655   0.442   1.014   2.226 -0.3543  0.1774 -0.7064
 3399SOL    HW121656   0.445   0.924   2.195  0.5379  0.3466 -1.1156
 3399SOL    HW221657   0.396   1.005   2.310  1.0064 -1.6723 -0.1412
 3400SOL     OW21658   4.681   0.734   9.036 -0.4430  0.0161 -0.2861
 3400SOL    HW121659   4.631   0.806   9.074 -3.5623 -1.7413 -1.1251
 3400SOL    HW221660   0.039   0.775   9.010 -1.2665  0.8010 -1.7160
 3401SOL     OW21661   4.260   3.454   8.852  1.1734 -0.0619  0.3831
 3401SOL    HW121662   4.310   3.536   8.857 -1.5087  1.5697  0.3659
 3401SOL    HW221663   4.177   3.473   8.896  0.5295 -1.2317 -0.3381
 3402SOL     OW21664   2.011   2.915  11.346  0.0542  0.5264  0.2819
 3402SOL    HW121665   1.926   2.938  11.309  0.8728  2.3208 -0.4871
 3402SOL    HW221666   2.072   2.904  11.273  0.3480 -1.1362  0.7781
 3403SOL     OW21667   3.458   4.565   9.938  0.0391  0.5661 -0.5420
 3403SOL    HW121668   3.446   4.660   9.938  0.7211  0.6493 -0.6542
 3403SOL    HW221669   3.369   4.533   9.922  1.8617 -4.7380 -0.0288
 3404SOL     OW21670   2.686   3.687  14.559 -0.0118  0.3372  0.5067
 3404SOL    HW121671   2.772   3.716  14.529  0.4094 -0.7592  0.6500
 3404SOL    HW221672   2.629   3.709  14.485  1.0023  0.8645 -0.1156
 3405SOL     OW21673   2.421   1.527  11.892  0.0258 -0.7205  0.1435
 3405SOL    HW121674   2.481   1.493  11.826  0.8224 -0.9975  1.0007
 3405SOL    HW221675   2.405   1.446  11.942 -1.2045  0.2271  1.2942
 3406SOL     OW21676   4.662   3.292   6.776 -0.4059  0.1208 -0.1200
 3406SOL    HW121677   4.681   3.213   6.725  0.5490  0.0698  0.3140
 3406SOL    HW221678   0.021   3.338   6.771 -0.0841 -0.6741 -1.9771
 3407SOL     OW21679   4.230   2.004   4.936  0.1017  0.0116 -0.0333
 3407SOL    HW121680   4.236   2.050   5.020 -0.5481  1.4314 -0.7686
 3407SOL    HW221681   4.135   1.992   4.931 -0.0715  0.1110  2.7542
 3408SOL     OW21682   4.717   0.561  13.848  0.0692 -0.1764 -0.1765
 3408SOL    HW121683   4.642   0.571  13.907  0.5053  0.3897  0.2791
 3408SOL    HW221684   4.687   0.576  13.758  0.3220 -1.0719 -0.4140
 3409SOL     OW21685   0.328   3.196  14.027  0.7074  0.2465  0.0174
 3409SOL    HW121686   0.250   3.186  13.971  0.4248  0.8635  0.3083
 3409SOL    HW221687   0.289   3.233  14.106 -1.5186  2.1864 -1.9831
 3410SOL     OW21688   0.407   0.142  15.020  0.4195  0.2710 -0.0458
 3410SOL    HW121689   0.400   0.096  14.937 -1.4341  2.1511 -0.9114
 3410SOL    HW221690   0.351   0.218  15.006 -0.2070 -0.1660  0.0763
 3411SOL     OW21691   0.546   0.979   4.755  0.0027 -0.2710  0.3983
 3411SOL    HW121692   0.560   0.942   4.667  0.7789  0.8142  0.0575
 3411SOL    HW221693   0.570   0.899   4.802  0.4986  0.3854  1.2505
 3412SOL     OW21694   0.122   0.721   8.579 -0.0881  0.1929  0.0064
 3412SOL    HW121695   0.026   0.718   8.585 -0.1415 -1.0378 -1.4533
 3412SOL    HW221696   0.144   0.813   8.567  0.3585 -0.1887 -2.0975
 3413SOL     OW21697   0.428   4.032   5.872 -0.3856 -0.3669  0.2682
 3413SOL    HW121698   0.365   4.058   5.805  0.1895 -0.5243 -0.3318
 3413SOL    HW221699   0.505   4.008   5.820 -0.0974 -0.0931  0.5642
 3414SOL     OW21700   1.772   3.246   0.087  0.4383  0.3624 -0.5934
 3414SOL    HW121701   1.758   3.336   0.117  2.7080  0.5187 -0.0001
 3414SOL    HW221702   1.838   3.230   0.154  0.5151  0.3380 -0.6750
 3415SOL     OW21703   1.137   2.169   2.228 -0.9386  0.0870 -0.8981
 3415SOL    HW121704   1.097   2.087   2.257 -0.2566  1.2324  3.2765
 3415SOL    HW221705   1.138   2.222   2.308 -0.7078  0.9506 -1.4697
 3416SOL     OW21706   1.239   2.131   6.621 -0.0959  0.5754  0.1794
 3416SOL    HW121707   1.147   2.147   6.639  0.1762 -0.1997  2.2424
 3416SOL    HW221708   1.245   2.046   6.665 -0.2549  2.5878  4.0368
 3417SOL     OW21709   1.918   2.633  11.706  0.4202  0.2055 -0.0909
 3417SOL    HW121710   1.837   2.678  11.731 -0.5903 -0.6782 -1.8139
 3417SOL    HW221711   1.890   2.542  11.706  0.7867  0.0925  0.0885
 3418SOL     OW21712   0.137   2.965   4.637 -0.2594  0.0610 -0.2247
 3418SOL    HW121713   0.085   3.038   4.671 -0.8770  0.6894 -2.5070
 3418SOL    HW221714   0.228   2.992   4.649 -0.7893  1.7798 -0.0909
 3419SOL     OW21715   3.242   2.244   4.649 -0.1262  0.3512  0.9077
 3419SOL    HW121716   3.157   2.278   4.676 -0.5899 -0.0025 -0.1079
 3419SOL    HW221717   3.304   2.300   4.696  0.2093  0.9245 -0.2253
 3420SOL     OW21718   2.368   3.766   4.545 -0.0639 -0.7539  0.0742
 3420SOL    HW121719   2.293   3.708   4.553 -0.5740 -0.1945 -0.5787
 3420SOL    HW221720   2.433   3.697   4.559  0.9224  0.3759  1.0285
 3421SOL     OW21721   1.399   4.014   3.595 -0.5588  0.3965 -0.4567
 3421SOL    HW121722   1.329   4.079   3.604 -0.2221  0.4123  2.2420
 3421SOL    HW221723   1.449   4.055   3.525 -0.5888  1.4546  0.1377
 3422SOL     OW21724   2.154   2.965   3.567 -0.3945  0.5695  1.1658
 3422SOL    HW121725   2.156   2.878   3.606  0.1912  0.0590  0.0001
 3422SOL    HW221726   2.062   2.968   3.542  0.0333 -0.2300 -0.5247
 3423SOL     OW21727   3.615   0.852   8.487  0.6631  0.6961 -0.1395
 3423SOL    HW121728   3.566   0.891   8.559 -1.1153 -0.7608 -0.5879
 3423SOL    HW221729   3.705   0.880   8.507  0.9419 -0.9633  0.9131
 3424SOL     OW21730   0.204   4.699  14.547  0.0053  0.6478  0.8904
 3424SOL    HW121731   0.212   0.048  14.487  0.1264  1.2712  1.6818
 3424SOL    HW221732   0.110   4.692  14.565 -0.4115  1.2189 -1.0625
 3425SOL     OW21733   4.027   0.763  12.713  0.6000  0.0999 -0.2791
 3425SOL    HW121734   4.079   0.775  12.634 -1.2277 -0.7452 -1.6155
 3425SOL    HW221735   3.993   0.674  12.704  2.6180 -0.4865 -1.9739
 3426SOL     OW21736   0.336   0.043   2.968 -0.1044 -0.4659  0.3916
 3426SOL    HW121737   0.339   0.009   2.879  1.4088  1.3064 -0.2240
 3426SOL    HW221738   0.334   4.685   3.017 -1.0896 -0.7390 -0.1307
 3427SOL     OW21739   1.540   2.981   5.743 -0.2315  0.4828 -0.6448
 3427SOL    HW121740   1.479   3.049   5.772  1.5786  1.1029  1.7508
 3427SOL    HW221741   1.557   2.984   5.649 -1.5643 -1.0867 -0.9386
 3428SOL     OW21742   1.675   1.580   9.021 -0.3676 -0.3697 -0.1994
 3428SOL    HW121743   1.746   1.553   8.963 -0.5517 -1.7715  0.2184
 3428SOL    HW221744   1.594   1.584   8.970 -0.8666 -2.3473  0.4106
 3429SOL     OW21745   0.907   2.757   6.928 -0.2611 -0.0293  0.1379
 3429SOL    HW121746   0.952   2.683   6.970 -0.6858 -0.6892 -0.5800
 3429SOL    HW221747   0.824   2.719   6.899 -0.6999  0.6227  0.5364
 3430SOL     OW21748   3.929   0.139  12.017 -0.3763  0.8697  0.9826
 3430SOL    HW121749   4.009   0.105  11.978 -1.1807  2.2882 -1.8787
 3430SOL    HW221750   3.875   0.060  12.008 -0.7447  1.0949  1.2153
 3431SOL     OW21751   0.059   3.970  12.919  0.0914  0.3118 -0.0443
 3431SOL    HW121752   0.154   3.964  12.915  0.0502 -1.9099  1.9860
 3431SOL    HW221753   0.031   4.034  12.854  0.8767 -0.7635 -1.4236
 3432SOL     OW21754   1.902   3.276   3.039 -0.2275  0.5355 -0.3019
 3432SOL    HW121755   1.896   3.192   2.995 -0.4053  0.2269  0.3158
 3432SOL    HW221756   1.971   3.266   3.104  1.1401  0.0859 -1.8363
 3433SOL     OW21757   3.430   4.442  16.608 -0.2887 -0.6575 -0.1642
 3433SOL    HW121758   3.344   4.477  16.634  1.3094  1.9312  1.6223
 3433SOL    HW221759   3.463   4.415  16.694 -2.0485 -1.3920  0.2940
 3434SOL     OW21760   1.467   1.601   7.328  0.2196 -0.7474  0.0334
 3434SOL    HW121761   1.516   1.673   7.287 -1.0018 -0.2340 -0.5146
 3434SOL    HW221762   1.535   1.548   7.369  1.6102  1.2217  0.3172
 3435SOL     OW21763   4.697   4.337   1.411  0.4610  0.0642 -0.1817
 3435SOL    HW121764   4.642   4.259   1.414 -0.3179  0.5351 -1.8591
 3435SOL    HW221765   4.681   4.377   1.326  0.6459  0.2231 -0.1415
 3436SOL     OW21766   1.814   4.568   2.436 -0.1162 -0.1484  0.1858
 3436SOL    HW121767   1.820   4.660   2.459 -0.3338 -0.2859  0.7917
 3436SOL    HW221768   1.731   4.558   2.390  0.8423  0.5260 -1.7055
 3437SOL     OW21769   1.163   2.558   4.098 -0.1785 -0.1024 -0.0992
 3437SOL    HW121770   1.241   2.502   4.106 -0.6651 -1.0111 -2.0020
 3437SOL    HW221771   1.161   2.588   4.189  0.3027 -1.4326  0.3538
 3438SOL     OW21772   4.116   2.855   2.470 -0.2423 -0.0744 -0.0086
 3438SOL    HW121773   4.141   2.947   2.480  0.9673 -0.5483  1.3753
 3438SOL    HW221774   4.057   2.853   2.395  1.0209  0.3941 -0.9967
 3439SOL     OW21775   2.605   0.705   3.109  0.7052  0.3017 -0.2059
 3439SOL    HW121776   2.634   0.795   3.094 -2.4439  1.1868 -0.8727
 3439SOL    HW221777   2.648   0.657   3.038  2.0558  0.6179  0.3864
 3440SOL     OW21778   2.065   2.623   2.928 -0.4576 -0.3432  0.5610
 3440SOL    HW121779   2.122   2.678   2.873  0.1781 -0.0868  1.4581
 3440SOL    HW221780   2.047   2.549   2.871  2.2463 -0.3523 -0.2957
 3441SOL     OW21781   0.652   0.897   7.286 -0.0022  0.2979  0.3595
 3441SOL    HW121782   0.733   0.847   7.270  0.0731  0.4853  0.1565
 3441SOL    HW221783   0.585   0.829   7.281  1.1135 -0.6910 -1.2510
 3442SOL     OW21784   0.576   1.569   4.093 -0.4777 -0.4510  0.2572
 3442SOL    HW121785   0.506   1.518   4.052 -0.2782 -0.5870  0.0867
 3442SOL    HW221786   0.532   1.653   4.110 -1.5250 -0.6404 -1.5894
 3443SOL     OW21787   0.974   1.753   7.256  0.1272  0.1149  0.7004
 3443SOL    HW121788   0.994   1.816   7.325  0.4856  0.8467 -0.0618
 3443SOL    HW221789   1.065   1.734   7.232  0.6522  0.3813  2.5054
 3444SOL     OW21790   2.692   0.659   3.860 -0.4415 -0.1553  0.2311
 3444SOL    HW121791   2.783   0.638   3.883 -0.1737  1.0900  0.3192
 3444SOL    HW221792   2.700   0.753   3.843  2.6728 -0.1202  1.8535
 3445SOL     OW21793   2.141   1.438  13.401 -0.0448 -0.0017 -0.2829
 3445SOL    HW121794   2.168   1.459  13.490 -1.0620 -0.5543  0.1506
 3445SOL    HW221795   2.227   1.426  13.360 -0.0333  1.2694 -0.6634
 3446SOL     OW21796   0.273   4.365   5.409  0.7547  0.6860 -0.1481
 3446SOL    HW121797   0.239   4.436   5.353 -4.1047 -1.0583  0.6408
 3446SOL    HW221798   0.204   4.303   5.387  1.4160 -0.5905  1.4169
 3447SOL     OW21799   1.099   4.170  12.580  0.5916 -0.3314  0.3141
 3447SOL    HW121800   1.051   4.231  12.637 -1.4144 -0.7531 -0.9418
 3447SOL    HW221801   1.062   4.086  12.604 -0.9056 -0.1800 -1.4683
 3448SOL     OW21802   3.990   2.175   3.125  0.1817  0.0788 -0.3483
 3448SOL    HW121803   4.045   2.252   3.141 -1.0058  0.6137  1.2830
 3448SOL    HW221804   4.048   2.101   3.137 -1.4545 -0.8189  2.0565
 3449SOL     OW21805   4.112   3.410   4.726  0.4735 -0.1283  0.5656
 3449SOL    HW121806   4.092   3.402   4.820  2.0268  3.4190  1.2315
 3449SOL    HW221807   4.079   3.328   4.690  0.8527 -0.2242  0.4356
 3450SOL     OW21808   0.783   3.913   2.175  0.1460  0.1292 -0.3115
 3450SOL    HW121809   0.847   3.852   2.137  0.1814  1.1088 -1.8059
 3450SOL    HW221810   0.814   3.997   2.142 -2.1302  0.2046 -2.2416
 3451SOL     OW21811   2.445   1.517  15.856  0.3675  0.4842 -0.7041
 3451SOL    HW121812   2.501   1.456  15.808  0.4282 -0.5729  0.6811
 3451SOL    HW221813   2.400   1.562  15.785  0.0396  1.2839  0.0060
 3452SOL     OW21814   3.178   1.202   9.333 -0.1291 -0.6084  0.3175
 3452SOL    HW121815   3.105   1.143   9.356  1.2717 -2.4824 -0.0978
 3452SOL    HW221816   3.138   1.281   9.371 -0.6721  0.5387 -2.6390
 3453SOL     OW21817   2.634   2.839   5.306  0.1683 -0.1872 -0.0265
 3453SOL    HW121818   2.637   2.746   5.327 -1.6332 -0.7073 -1.9936
 3453SOL    HW221819   2.671   2.882   5.383 -1.0074 -0.9921  0.9908
 3454SOL     OW21820   2.252   2.187  14.936 -0.0132  0.0963 -0.0537
 3454SOL    HW121821   2.174   2.172  14.883  1.5781 -1.0854 -2.0363
 3454SOL    HW221822   2.312   2.199  14.863 -0.9172 -0.1302 -0.8194
 3455SOL     OW21823   2.696   1.206   6.551  0.4548  0.0874  0.2508
 3455SOL    HW121824   2.673   1.294   6.581  0.2953  0.2172 -0.2564
 3455SOL    HW221825   2.700   1.208   6.455  1.9387 -2.2133  0.2754
 3456SOL     OW21826   0.107   3.963  12.067 -0.1261  0.0763  0.1870
 3456SOL    HW121827   0.033   3.911  12.101  3.1478 -1.7267  4.5357
 3456SOL    HW221828   0.080   4.049  12.099 -1.6752  0.2774 -1.6305
 3457SOL     OW21829   3.830   1.808   6.050 -0.2542 -0.0024  0.3526
 3457SOL    HW121830   3.760   1.743   6.047 -0.1657 -0.2152  2.8866
 3457SOL    HW221831   3.874   1.800   5.966 -1.6618 -0.4048 -0.3472
 3458SOL     OW21832   2.024   3.534  17.498 -0.1531 -0.4422 -0.6589
 3458SOL    HW121833   2.113   3.529  17.464 -0.3095 -0.0274 -1.1321
 3458SOL    HW221834   1.998   3.622  17.471  3.8032  0.9372 -0.0102
 3459SOL     OW21835   1.839   1.778   8.229 -0.2812  0.2877 -0.0749
 3459SOL    HW121836   1.851   1.721   8.305 -0.5667  0.8116  0.3637
 3459SOL    HW221837   1.761   1.831   8.244 -0.6235  0.0294 -0.9381
 3460SOL     OW21838   0.776   0.394   5.218 -0.2041  0.1831 -0.4270
 3460SOL    HW121839   0.766   0.483   5.185 -1.5107 -0.7454 -2.5562
 3460SOL    HW221840   0.785   0.353   5.132  0.5221  2.8589 -1.6136
 3461SOL     OW21841   3.955   3.898   8.449  0.3341  0.1383 -0.0422
 3461SOL    HW121842   4.015   3.849   8.505 -0.0801  1.2851  1.4090
 3461SOL    HW221843   3.979   3.990   8.458 -1.6665  0.6769 -0.3163
 3462SOL     OW21844   3.061   3.160  13.391  0.8897 -0.3152  0.5665
 3462SOL    HW121845   3.044   3.181  13.299 -1.4346  0.7418  1.2254
 3462SOL    HW221846   3.088   3.246  13.424 -1.0665  0.6663 -0.3835
 3463SOL     OW21847   0.855   0.138   1.075  0.8350 -0.2909  0.3689
 3463SOL    HW121848   0.764   0.116   1.056  0.4015  1.3499  0.5217
 3463SOL    HW221849   0.875   0.209   1.014 -1.9639 -2.0634 -2.6569
 3464SOL     OW21850   4.688   4.385   8.799 -0.3236 -0.1215 -0.3650
 3464SOL    HW121851   4.666   4.296   8.825 -1.3323  0.0371 -0.6921
 3464SOL    HW221852   0.044   4.397   8.849  0.3069 -1.4782 -1.0710
 3465SOL     OW21853   3.320   0.593   8.321 -0.1870 -0.6012  0.1714
 3465SOL    HW121854   3.372   0.557   8.250 -0.3706  1.3459 -0.9309
 3465SOL    HW221855   3.380   0.608   8.394 -0.4429 -0.9135  0.4445
 3466SOL     OW21856   1.823   0.678   5.998  0.6761  0.4056 -0.4726
 3466SOL    HW121857   1.853   0.700   5.910  0.5318 -0.2479 -0.6920
 3466SOL    HW221858   1.859   0.748   6.052 -2.2188  0.8848  0.8453
 3467SOL     OW21859   1.035   1.164   9.532 -0.5659 -0.0175  0.2810
 3467SOL    HW121860   1.053   1.072   9.512  0.3396  0.7674 -2.5164
 3467SOL    HW221861   0.977   1.149   9.607 -1.6012  1.1302 -0.2944
 3468SOL     OW21862   3.323   1.551   4.915  0.6537  0.1818  0.0686
 3468SOL    HW121863   3.411   1.565   4.878  0.4957  0.7698 -0.0846
 3468SOL    HW221864   3.322   1.619   4.982 -0.5718  1.5458 -1.3711
 3469SOL     OW21865   0.030   2.189   1.688 -0.5207  0.2622 -0.1032
 3469SOL    HW121866   0.021   2.199   1.593  0.3276 -0.3836 -0.2493
 3469SOL    HW221867   4.664   2.171   1.710 -0.3721  0.7543  0.9084
 3470SOL     OW21868   0.401   2.750   6.230 -0.1033  0.3294 -0.0346
 3470SOL    HW121869   0.381   2.671   6.280 -1.7624 -1.4924 -3.5429
 3470SOL    HW221870   0.436   2.709   6.151 -0.1050 -1.4885  0.9016
 3471SOL     OW21871   1.891   4.597   2.922  0.0769 -0.6368  0.3071
 3471SOL    HW121872   1.862   4.688   2.912  0.6302 -0.6194 -1.0398
 3471SOL    HW221873   1.856   4.562   2.841  2.6880 -2.3097 -0.0878
 3472SOL     OW21874   0.483   2.214  15.317 -0.2455 -0.2008 -0.5593
 3472SOL    HW121875   0.541   2.138  15.306  2.2568  1.9268 -2.0015
 3472SOL    HW221876   0.476   2.210  15.412 -0.4251  1.9193 -0.5030
 3473SOL     OW21877   1.265   2.854   3.997 -0.2680 -0.0255 -0.1292
 3473SOL    HW121878   1.225   2.792   4.058 -2.0861  0.0457 -1.2228
 3473SOL    HW221879   1.359   2.844   4.011 -0.1217  1.1975 -0.2500
 3474SOL     OW21880   3.054   3.561  13.205  0.1251  0.6447  0.2031
 3474SOL    HW121881   2.997   3.575  13.281  0.8786  2.6221  0.4026
 3474SOL    HW221882   2.999   3.598  13.135  0.6993  0.0597 -0.5571
 3475SOL     OW21883   1.811   1.887   3.145  0.6847 -0.1036  0.6156
 3475SOL    HW121884   1.802   1.792   3.142  2.9999 -0.1607 -3.6622
 3475SOL    HW221885   1.889   1.889   3.090 -1.5035 -0.2288 -2.4781
 3476SOL     OW21886   3.086   1.250  10.956 -0.0219  0.8038  0.5140
 3476SOL    HW121887   3.177   1.267  10.932 -0.2423 -2.3330 -2.5056
 3476SOL    HW221888   3.050   1.270  10.869 -0.0713  1.3048  0.6494
 3477SOL     OW21889   2.304   1.891  14.845 -0.6617  0.2198  0.6599
 3477SOL    HW121890   2.266   1.805  14.830  1.7989 -1.1116  2.1934
 3477SOL    HW221891   2.326   1.888  14.938  0.6931 -1.2577  0.2865
 3478SOL     OW21892   4.676   4.032  15.008 -0.3675 -0.4009 -0.0442
 3478SOL    HW121893   0.034   4.035  15.055 -1.1035  0.8162  1.2011
 3478SOL    HW221894   4.695   4.097  14.941 -0.2363 -1.6602 -1.2192
 3479SOL     OW21895   2.998   0.958   8.338  0.2620 -0.1975  0.2211
 3479SOL    HW121896   3.007   0.939   8.245 -0.6501 -0.0569  0.1031
 3479SOL    HW221897   2.937   1.032   8.332  1.0352  0.4767  0.6205
 3480SOL     OW21898   0.537   3.826  16.640 -0.4326 -0.4158 -0.2972
 3480SOL    HW121899   0.500   3.752  16.593 -0.7696 -0.3745 -0.1002
 3480SOL    HW221900   0.526   3.902  16.582  0.6557 -1.7149 -2.1915
 3481SOL     OW21901   3.480   3.795   0.817 -0.0001  0.6358  0.1829
 3481SOL    HW121902   3.455   3.885   0.796 -1.7781  0.4186  1.3539
 3481SOL    HW221903   3.559   3.789   0.763 -0.4675 -2.3551 -0.1535
 3482SOL     OW21904   2.726   3.894   3.128 -0.0547 -0.7687  0.7029
 3482SOL    HW121905   2.701   3.916   3.038 -0.3289 -1.3682  0.6313
 3482SOL    HW221906   2.740   3.983   3.161 -1.4351 -0.6210  0.8896
 3483SOL     OW21907   3.361   0.849   7.965 -0.7263 -0.8430 -0.1054
 3483SOL    HW121908   3.447   0.859   7.926 -0.0144 -1.4271  1.3093
 3483SOL    HW221909   3.370   0.903   8.044 -0.0734  0.7292 -1.2803
 3484SOL     OW21910   4.248   2.177   7.613 -0.7029  0.6009 -0.1942
 3484SOL    HW121911   4.268   2.084   7.600  1.7820  1.0592  0.2931
 3484SOL    HW221912   4.154   2.171   7.626 -0.6276 -0.3235 -0.0018
 3485SOL     OW21913   2.166   3.383   2.853  0.3592  0.1967 -0.2899
 3485SOL    HW121914   2.142   3.395   2.945  1.0970 -1.8880  0.1879
 3485SOL    HW221915   2.242   3.440   2.845 -0.6183  1.3334 -1.4900
 3486SOL     OW21916   4.273   2.954   2.751 -0.4594 -0.0868  0.1556
 3486SOL    HW121917   4.309   2.911   2.829 -1.2661 -3.7559 -1.5322
 3486SOL    HW221918   4.294   2.900   2.675 -1.9456  0.7331 -0.8351
 3487SOL     OW21919   3.958   0.871   2.561 -0.0081 -0.4804  0.0862
 3487SOL    HW121920   3.867   0.879   2.535  0.8872  2.0125 -2.2550
 3487SOL    HW221921   4.002   0.875   2.476 -0.9062 -0.6007 -0.3837
 3488SOL     OW21922   0.016   4.314   1.748 -0.3897 -0.3054  0.5116
 3488SOL    HW121923   4.702   4.342   1.831 -2.7746  1.4745 -1.2130
 3488SOL    HW221924   4.707   4.225   1.740 -0.7063 -0.3328  2.2459
 3489SOL     OW21925   1.152   3.235   5.337 -0.5218  0.1084  0.5224
 3489SOL    HW121926   1.111   3.265   5.419  0.2755  2.2109  0.1427
 3489SOL    HW221927   1.202   3.162   5.374 -0.7635  0.8707  2.3921
 3490SOL     OW21928   3.024   4.469   9.679  0.3954 -0.3074 -0.3999
 3490SOL    HW121929   2.941   4.485   9.725  0.8280  0.8800 -0.0333
 3490SOL    HW221930   3.072   4.552   9.684  1.6284 -0.9099 -2.8171
 3491SOL     OW21931   3.340   2.910   5.103  0.0014 -0.3381  0.0354
 3491SOL    HW121932   3.292   2.944   5.028 -1.7557 -2.0801  0.3629
 3491SOL    HW221933   3.294   2.942   5.181  0.1201  1.0305 -0.4552
 3492SOL     OW21934   1.987   4.391  15.608 -0.1035 -0.7272 -0.0623
 3492SOL    HW121935   2.013   4.411  15.698 -2.2270  0.0605  0.3771
 3492SOL    HW221936   1.898   4.427  15.607 -0.7400 -2.2913  0.4010
 3493SOL     OW21937   0.162   0.210   9.521  0.3929 -0.0256 -0.2958
 3493SOL    HW121938   0.171   0.306   9.516 -2.8004  0.2996  0.3543
 3493SOL    HW221939   0.197   0.199   9.609 -1.3720 -2.2114  0.1225
 3494SOL     OW21940   0.096   1.302   2.349  0.0128 -0.1751  0.4563
 3494SOL    HW121941   0.018   1.343   2.314  1.2651  1.8574  0.0352
 3494SOL    HW221942   0.149   1.374   2.384 -0.7555  0.5342  0.1321
 3495SOL     OW21943   1.544   2.728   2.755 -0.3237 -0.4793 -0.3673
 3495SOL    HW121944   1.477   2.756   2.693  1.1313 -0.9879 -2.1834
 3495SOL    HW221945   1.618   2.770   2.712  0.0774  0.5193  1.3159
 3496SOL     OW21946   2.782   2.337   9.188 -0.6595  0.4080 -0.1852
 3496SOL    HW121947   2.698   2.336   9.233  0.8162  1.1483  2.5916
 3496SOL    HW221948   2.803   2.244   9.202  0.5582  0.8646  1.0555
 3497SOL     OW21949   4.355   0.255  10.919 -0.2059  0.1884  0.3261
 3497SOL    HW121950   4.410   0.264  10.997  0.4608 -0.6250 -0.0472
 3497SOL    HW221951   4.285   0.195  10.944 -1.7505  1.3682 -1.2010
 3498SOL     OW21952   0.767   3.568  15.911 -0.2189 -0.4167 -0.0013
 3498SOL    HW121953   0.853   3.528  15.900 -1.0103 -1.7737 -1.1468
 3498SOL    HW221954   0.755   3.589  16.004  3.4880  2.0501 -0.0478
 3499SOL     OW21955   0.547   0.519   1.988  0.8092  0.2271  0.1232
 3499SOL    HW121956   0.577   0.559   1.907 -0.6319  1.3321  0.1412
 3499SOL    HW221957   0.455   0.544   1.991  0.1524 -2.1216 -0.9890
 3500SOL     OW21958   0.502   3.873   4.013 -0.2736  0.2696  0.3063
 3500SOL    HW121959   0.514   3.923   3.932 -0.7858 -0.2631 -0.1037
 3500SOL    HW221960   0.417   3.911   4.035 -1.9836 -1.6228 -2.9998
 3501SOL     OW21961   3.148   3.558   0.137 -0.7182 -0.3267  0.1625
 3501SOL    HW121962   3.179   3.472   0.165 -0.9534 -0.2706  0.6051
 3501SOL    HW221963   3.110   3.585   0.221 -0.2749 -0.2324  0.3354
 3502SOL     OW21964   2.271   0.451   6.642  0.3115  0.9871  0.0614
 3502SOL    HW121965   2.342   0.403   6.599  0.2551  1.2819 -0.3567
 3502SOL    HW221966   2.228   0.496   6.569 -0.5679  0.1504  0.0588
 3503SOL     OW21967   3.282   2.434  15.105 -0.0239  0.4872  0.0014
 3503SOL    HW121968   3.319   2.481  15.029  1.8614 -0.0487  0.5986
 3503SOL    HW221969   3.187   2.438  15.088 -0.0068  2.3486  0.3309
 3504SOL     OW21970   0.243   4.283   3.118  0.0431 -0.2434  0.1357
 3504SOL    HW121971   0.176   4.278   3.186  0.0180 -0.3954  0.0983
 3504SOL    HW221972   0.191   4.245   3.048  0.7499 -0.1320 -0.4601
 3505SOL     OW21973   0.830   0.531  15.197 -0.9234 -0.0393  0.4492
 3505SOL    HW121974   0.875   0.478  15.263  0.2131 -0.8284 -0.9674
 3505SOL    HW221975   0.876   0.613  15.215 -1.2080  0.4640 -1.0716
 3506SOL     OW21976   0.204   2.295   3.362  0.0022  0.1443  0.5658
 3506SOL    HW121977   0.118   2.321   3.329  0.4722 -0.1516 -0.9027
 3506SOL    HW221978   0.224   2.221   3.305  1.0974 -0.2492  1.4737
 3507SOL     OW21979   0.482   4.419  12.258 -0.1621  0.2730  0.7017
 3507SOL    HW121980   0.548   4.368  12.306 -1.1024 -0.7705  0.8757
 3507SOL    HW221981   0.544   4.473  12.209  1.1252 -3.2114 -1.5291
 3508SOL     OW21982   2.710   0.833   8.364 -0.2988 -0.0256 -0.2017
 3508SOL    HW121983   2.681   0.806   8.451  0.4001  1.0751  0.3738
 3508SOL    HW221984   2.737   0.751   8.321  1.3900 -0.3257  1.4278
 3509SOL     OW21985   2.576   2.322   1.473  0.0185  0.1997  0.3099
 3509SOL    HW121986   2.599   2.374   1.396  0.5552  2.0943  1.7611
 3509SOL    HW221987   2.644   2.255   1.484 -0.4468 -0.4225 -0.5738
 3510SOL     OW21988   2.785   2.760   4.027  0.5184  0.1347 -0.3937
 3510SOL    HW121989   2.727   2.693   3.991  0.0355 -1.0873  2.6280
 3510SOL    HW221990   2.817   2.718   4.107  0.2483  1.9335  0.6616
 3511SOL     OW21991   3.693   3.462   6.368 -0.7313  0.2553  0.5949
 3511SOL    HW121992   3.661   3.416   6.291 -0.7900 -0.0930  0.8303
 3511SOL    HW221993   3.616   3.518   6.360 -0.5725  0.3882 -0.0009
 3512SOL     OW21994   2.637   2.985   3.425 -0.2253 -0.8729  0.3978
 3512SOL    HW121995   2.567   2.927   3.396 -3.6487  2.9637  1.0969
 3512SOL    HW221996   2.606   3.013   3.511 -1.4350  0.0628 -0.3392
 3513SOL     OW21997   4.266   4.146   2.156  0.6258  0.2689  0.0625
 3513SOL    HW121998   4.253   4.051   2.153 -0.8676  0.4888 -0.3422
 3513SOL    HW221999   4.355   4.150   2.122  0.0517  1.9786 -1.2301
 3514SOL     OW22000   2.049   3.725  13.507 -0.2019  0.2511  0.2862
 3514SOL    HW122001   2.023   3.770  13.586 -1.7574  0.7226 -0.5029
 3514SOL    HW222002   2.100   3.651  13.540  1.9144  2.4144  1.8093
 3515SOL     OW22003   4.719   1.428   2.719 -0.3536  0.5974 -0.3296
 3515SOL    HW122004   0.047   1.507   2.705 -0.0389  0.7113  1.4808
 3515SOL    HW222005   4.631   1.467   2.713 -0.7530 -0.0141  1.6440
 3516SOL     OW22006   4.557   0.058   4.433  0.2710  0.4085  0.6723
 3516SOL    HW122007   4.509   0.084   4.354  1.8570 -1.9714 -1.0748
 3516SOL    HW222008   4.484   0.049   4.494 -0.2806 -0.8663 -0.1644
 3517SOL     OW22009   2.764   1.344  16.976 -0.0175 -0.3463 -0.9040
 3517SOL    HW122010   2.670   1.360  16.961 -0.1531  0.2753  0.6050
 3517SOL    HW222011   2.797   1.369  16.890 -0.2610 -0.2359 -0.9670
 3518SOL     OW22012   1.555   2.551   0.169  0.7178 -0.3434 -0.1961
 3518SOL    HW122013   1.625   2.550   0.236 -1.3719 -0.7830  1.9818
 3518SOL    HW222014   1.528   2.642   0.183  1.2847 -0.3446  0.9121
 3519SOL     OW22015   3.848   1.209   4.335  0.2576 -0.8327 -0.0091
 3519SOL    HW122016   3.788   1.192   4.263  0.1546  0.0593 -0.1287
 3519SOL    HW222017   3.911   1.265   4.290  0.3957  0.3516  1.6659
 3520SOL     OW22018   3.167   3.470   5.072 -0.0786  0.1576  0.0235
 3520SOL    HW122019   3.142   3.562   5.065 -0.1627  0.0530 -1.0929
 3520SOL    HW222020   3.110   3.422   5.011  0.3924 -1.4441  0.8311
 3521SOL     OW22021   3.532   0.805  10.559 -0.3006 -0.8652  0.0108
 3521SOL    HW122022   3.548   0.763  10.644 -2.8861 -0.1275  0.8439
 3521SOL    HW222023   3.499   0.888  10.593  1.2403 -0.6506  1.0207
 3522SOL     OW22024   0.294   3.867   9.345  0.4248 -0.1553  0.3472
 3522SOL    HW122025   0.263   3.783   9.378 -1.4958  0.7184  0.7708
 3522SOL    HW222026   0.213   3.916   9.329 -0.0043  0.0148  3.0615
 3523SOL     OW22027   0.238   2.882  11.403 -0.0679  0.3591  0.2407
 3523SOL    HW122028   0.155   2.913  11.366 -1.5538 -2.0129  1.5975
 3523SOL    HW222029   0.287   2.964  11.397  2.2788 -1.1273 -1.2064
 3524SOL     OW22030   0.266   4.401   8.820 -0.4634  0.0136  0.1469
 3524SOL    HW122031   0.333   4.450   8.772 -0.5696  0.8330  0.8375
 3524SOL    HW222032   0.245   4.473   8.880 -0.9830 -1.1736  1.3739
 3525SOL     OW22033   1.193   0.616   6.409  0.2171 -0.0552  0.3810
 3525SOL    HW122034   1.134   0.635   6.336 -2.8341 -0.9860  2.6413
 3525SOL    HW222035   1.130   0.572   6.465 -0.9694  0.0190 -0.8885
 3526SOL     OW22036   1.077   3.558  10.542  0.7392 -0.4173  0.1868
 3526SOL    HW122037   1.016   3.610  10.489 -0.0472 -0.6588  0.8448
 3526SOL    HW222038   1.159   3.597  10.512 -0.8519  2.5255 -0.2896
 3527SOL     OW22039   0.854   1.761   6.378  0.2296  0.0578  0.4255
 3527SOL    HW122040   0.761   1.777   6.391  0.0451 -0.3331 -0.4161
 3527SOL    HW222041   0.861   1.679   6.427  2.4400 -0.8927 -1.4825
 3528SOL     OW22042   1.166   3.294   6.269  0.3808 -0.1711  0.7888
 3528SOL    HW122043   1.185   3.218   6.214 -1.9755  0.4071 -0.7750
 3528SOL    HW222044   1.256   3.309   6.298 -0.0671  2.0790  0.9622
 3529SOL     OW22045   3.248   0.245   2.900  0.0326 -0.0270  0.2051
 3529SOL    HW122046   3.175   0.186   2.883 -0.2067  0.8886 -1.8588
 3529SOL    HW222047   3.307   0.233   2.826 -4.3123 -0.2359 -3.1798
 3530SOL     OW22048   2.183   0.565   4.204  0.1134 -0.3026 -0.0471
 3530SOL    HW122049   2.167   0.582   4.112 -1.1331 -2.4402 -0.2388
 3530SOL    HW222050   2.212   0.652   4.231 -0.8985  0.0151  0.0421
 3531SOL     OW22051   0.133   3.726  15.086  0.1962  0.4429  0.1560
 3531SOL    HW122052   0.163   3.643  15.123 -0.6934  0.4870  0.9796
 3531SOL    HW222053   0.209   3.758  15.038  0.6764 -1.6143 -0.4343
 3532SOL     OW22054   1.020   2.639   8.117 -0.8522  0.0314 -0.1984
 3532SOL    HW122055   1.017   2.701   8.190 -0.3631 -0.4298  0.2052
 3532SOL    HW222056   1.101   2.663   8.072 -0.5390  0.6604  0.7163
 3533SOL     OW22057   0.441   3.881  15.149  0.0025  0.0929 -0.0059
 3533SOL    HW122058   0.476   3.793  15.135  1.0654  0.1980  2.0090
 3533SOL    HW222059   0.521   3.925  15.178  0.6188 -1.1586  0.1851
 3534SOL     OW22060   1.180   0.176  10.695 -0.4325  0.2997  0.6770
 3534SOL    HW122061   1.098   0.214  10.663  0.0129 -0.8555 -1.8996
 3534SOL    HW222062   1.224   0.257  10.721  0.4548 -0.0928  0.4119
 3535SOL     OW22063   1.055   2.973   0.214 -0.0049 -0.1908 -0.4210
 3535SOL    HW122064   0.967   2.936   0.211 -1.9084  4.0872  2.2049
 3535SOL    HW222065   1.094   2.888   0.233 -2.5427 -0.8132  2.0472
 3536SOL     OW22066   1.753   4.553  17.398 -0.2924 -0.3392  0.4713
 3536SOL    HW122067   1.774   4.645  17.413 -1.4327  0.1788 -1.0813
 3536SOL    HW222068   1.839   4.512  17.395 -0.5918 -1.0945  1.9308
 3537SOL     OW22069   3.643   1.179  10.091 -0.2926 -0.2801 -0.0333
 3537SOL    HW122070   3.567   1.183  10.033 -0.4960  1.7979  0.3750
 3537SOL    HW222071   3.643   1.265  10.135 -0.1875 -0.2207 -0.1483
 3538SOL     OW22072   2.228   2.351   4.964 -0.2942 -0.1179  0.1479
 3538SOL    HW122073   2.150   2.381   5.011 -0.0350  1.4664 -0.4519
 3538SOL    HW222074   2.295   2.414   4.989 -0.7537  0.4214  0.0326
 3539SOL     OW22075   2.345   3.412  16.536 -0.1923 -0.4067 -0.3943
 3539SOL    HW122076   2.305   3.392  16.621  0.1550 -1.7987 -0.5474
 3539SOL    HW222077   2.421   3.454  16.575 -2.2355 -0.6975  3.9936
 3540SOL     OW22078   4.613   3.677  10.530 -0.2716  0.2953 -0.5511
 3540SOL    HW122079   4.554   3.628  10.473 -0.0555  1.2921 -1.6136
 3540SOL    HW222080   4.662   3.736  10.474  1.6355  0.3806  1.1947
 3541SOL     OW22081   2.553   1.504  15.055 -0.2989  0.2397 -0.4273
 3541SOL    HW122082   2.594   1.440  15.111 -0.8144  0.9542  0.7620
 3541SOL    HW222083   2.556   1.468  14.966 -2.1091  0.1876 -0.4745
 3542SOL     OW22084   2.782   2.108   4.331  0.1610 -0.1320 -0.5485
 3542SOL    HW122085   2.791   2.016   4.306  0.2527 -0.2661 -0.0147
 3542SOL    HW222086   2.718   2.095   4.401  0.9587 -1.3575 -0.0478
 3543SOL     OW22087   3.559   3.794  10.469 -0.0327  0.3708  0.3396
 3543SOL    HW122088   3.624   3.865  10.464 -1.9565  2.0028 -1.6938
 3543SOL    HW222089   3.619   3.723  10.493  0.9057  0.6669 -1.1160
 3544SOL     OW22090   2.985   1.555   2.134 -0.2908 -0.1906 -0.0539
 3544SOL    HW122091   3.017   1.470   2.164  0.1113 -1.2931 -3.5385
 3544SOL    HW222092   3.063   1.585   2.087 -0.9573  1.5225 -0.0728
 3545SOL     OW22093   3.465   1.397  12.256  0.3614  0.1406  0.2912
 3545SOL    HW122094   3.394   1.443  12.211 -0.6491 -1.0093  0.7150
 3545SOL    HW222095   3.416   1.373  12.334  1.2291  2.3255  1.4936
 3546SOL     OW22096   1.606   2.984   0.755  0.2491  0.7081  0.1333
 3546SOL    HW122097   1.652   2.955   0.834 -1.6628  0.0121  1.0093
 3546SOL    HW222098   1.531   3.036   0.786  0.4262 -0.1493  2.0067
 3547SOL     OW22099   3.463   1.294   8.104  0.6798 -0.2121 -0.3331
 3547SOL    HW122100   3.488   1.216   8.154 -3.0147 -1.4486 -0.4397
 3547SOL    HW222101   3.368   1.284   8.097  0.7841 -0.6918 -1.0736
 3548SOL     OW22102   2.924   3.651  10.854  0.2777 -0.5173  0.0101
 3548SOL    HW122103   2.892   3.707  10.925  0.0079 -0.0728 -0.4646
 3548SOL    HW222104   2.953   3.715  10.789 -3.9014  0.2905 -1.0317
 3549SOL     OW22105   3.311   1.036   6.668  0.2497  0.4122 -0.1760
 3549SOL    HW122106   3.393   1.083   6.654  1.7974 -2.1660  0.2591
 3549SOL    HW222107   3.339   0.959   6.718 -0.1141  3.1584  4.3179
 3550SOL     OW22108   3.851   0.303   9.124  0.4676  0.0862  0.1243
 3550SOL    HW122109   3.779   0.244   9.147  0.6480 -0.1309  0.1321
 3550SOL    HW222110   3.812   0.339   9.044 -1.0348 -1.7550  0.0332
 3551SOL     OW22111   3.908   3.726  11.364 -0.0629 -0.1177 -0.8603
 3551SOL    HW122112   3.923   3.634  11.345 -1.0276 -0.4297 -0.0889
 3551SOL    HW222113   3.990   3.764  11.331 -1.5793  2.0413 -2.1441
 3552SOL     OW22114   2.979   4.190   5.576 -0.2173 -0.0499  0.1905
 3552SOL    HW122115   2.926   4.270   5.575  0.1370  0.1613 -2.7162
 3552SOL    HW222116   3.062   4.229   5.549  0.2930 -0.9904  0.4022
 3553SOL     OW22117   4.212   0.079   5.509  0.0487  0.2967  0.0585
 3553SOL    HW122118   4.180   0.109   5.424 -1.0193 -1.2165 -0.0765
 3553SOL    HW222119   4.255   4.724   5.479  0.2457  0.7812 -0.9734
 3554SOL     OW22120   1.198   3.640   2.407  0.2896  0.1686  0.3373
 3554SOL    HW122121   1.182   3.668   2.317 -2.0268  1.1349  1.0485
 3554SOL    HW222122   1.241   3.708   2.458  0.9881 -0.3644  0.4703
 3555SOL     OW22123   1.412   3.795   1.799 -0.3072 -0.2124  0.2428
 3555SOL    HW122124   1.379   3.784   1.709  0.9598  0.1802 -0.2690
 3555SOL    HW222125   1.362   3.873   1.822 -2.3095 -1.8919  1.6522
 3556SOL     OW22126   0.068   0.244   9.202 -0.4529 -0.0717  0.0565
 3556SOL    HW122127   4.706   0.276   9.177 -0.3598 -0.1509 -0.3801
 3556SOL    HW222128   0.049   0.176   9.266 -1.3513  0.6047  0.5101
 3557SOL     OW22129   4.545   1.253   1.251 -0.5396 -0.0565  0.1394
 3557SOL    HW122130   4.456   1.244   1.218 -0.9805 -1.6050  1.7266
 3557SOL    HW222131   4.571   1.335   1.209 -2.1009  0.9322  1.1075
 3558SOL     OW22132   3.863   3.686   3.857  0.2056  0.1137 -0.1632
 3558SOL    HW122133   3.850   3.753   3.923 -2.8752 -0.7367  0.1022
 3558SOL    HW222134   3.939   3.713   3.805  1.0325  0.1308  1.0640
 3559SOL     OW22135   1.515   4.486  15.213  0.6978  0.1692 -0.4599
 3559SOL    HW122136   1.516   4.582  15.210  1.2206  0.1956  0.7081
 3559SOL    HW222137   1.532   4.485  15.307  0.9537  0.6302 -0.4983
 3560SOL     OW22138   2.710   3.168   2.859 -0.0663 -0.0318 -0.1809
 3560SOL    HW122139   2.620   3.174   2.892 -0.0649 -0.8565 -0.0340
 3560SOL    HW222140   2.712   3.087   2.808 -0.0655  0.2501 -0.6173
 3561SOL     OW22141   4.055   3.642  10.205  0.3144  0.2602 -0.0417
 3561SOL    HW122142   3.987   3.698  10.243  0.7556  0.3382  0.6506
 3561SOL    HW222143   4.100   3.710  10.155  0.2070  0.6124  0.3338
 3562SOL     OW22144   2.819   0.862   0.642 -0.0228  0.0635 -0.5885
 3562SOL    HW122145   2.800   0.827   0.555 -1.0507  1.7270 -1.0493
 3562SOL    HW222146   2.820   0.785   0.699  0.6777  0.8792  0.5160
 3563SOL     OW22147   4.394   0.723   4.228 -0.3424  0.3243  0.2012
 3563SOL    HW122148   4.452   0.799   4.235  0.9226 -0.6540  0.4103
 3563SOL    HW222149   4.382   0.722   4.133  0.2624  0.4233  0.1203
 3564SOL     OW22150   1.396   1.433   0.530  0.4019 -0.1636 -0.3852
 3564SOL    HW122151   1.463   1.367   0.513  0.2456 -0.3977 -0.0951
 3564SOL    HW222152   1.350   1.438   0.447  2.4852 -1.4265 -1.5995
 3565SOL     OW22153   2.797   3.472   7.302 -0.0122  0.0383  0.2823
 3565SOL    HW122154   2.724   3.525   7.333  1.5330  2.1655  0.3210
 3565SOL    HW222155   2.864   3.506   7.361  0.2694  1.4370 -0.8268
 3566SOL     OW22156   0.257   0.409  10.456 -0.3198 -0.3357  0.0584
 3566SOL    HW122157   0.291   0.328  10.417  1.2750 -0.0473  0.8501
 3566SOL    HW222158   0.299   0.467  10.392  1.0740 -0.3033  1.0241
 3567SOL     OW22159   1.706   3.030   4.850 -0.5134  0.1333  0.2203
 3567SOL    HW122160   1.622   3.044   4.806  0.3213  2.8028 -0.5185
 3567SOL    HW222161   1.702   2.936   4.870  1.4491  0.1421  0.6165
 3568SOL     OW22162   4.273   0.694   2.156  0.1282 -0.0240 -0.4353
 3568SOL    HW122163   4.259   0.723   2.066 -0.9130  0.8477  0.0019
 3568SOL    HW222164   4.237   0.606   2.156  0.1159 -0.0148  0.2672
 3569SOL     OW22165   0.133   3.376   3.020 -0.5354  0.0409 -0.4748
 3569SOL    HW122166   0.110   3.301   2.965 -3.3064 -0.3867  1.2438
 3569SOL    HW222167   0.120   3.357   3.113 -0.1205  0.6798 -0.2845
 3570SOL     OW22168   0.711   0.183   7.381 -0.3308  0.1247  0.6951
 3570SOL    HW122169   0.631   0.180   7.434 -0.7866  2.4411  0.1217
 3570SOL    HW222170   0.672   0.162   7.296  2.2787 -0.3014 -0.3883
 3571SOL     OW22171   0.426   1.951   5.961 -0.2159  0.3098 -0.1272
 3571SOL    HW122172   0.365   1.949   5.887 -0.9200 -0.6565  0.4829
 3571SOL    HW222173   0.452   2.043   5.958  0.3701  0.2290  2.3053
 3572SOL     OW22174   2.797   4.470   7.437  0.3137  0.1379 -0.0770
 3572SOL    HW122175   2.707   4.452   7.410 -0.2498 -1.7948  3.0213
 3572SOL    HW222176   2.840   4.392   7.470 -1.4769 -0.2062  1.4733
 3573SOL     OW22177   4.355   4.628  17.228 -0.3436  0.0267  0.0660
 3573SOL    HW122178   4.440   4.592  17.205  0.4459  0.4905  2.2552
 3573SOL    HW222179   4.380   4.692  17.295 -1.3149 -0.9972  1.4146
 3574SOL     OW22180   0.991   2.183  16.892  0.2008  0.0621  0.0780
 3574SOL    HW122181   1.045   2.142  16.825 -0.8050 -1.4913  0.2122
 3574SOL    HW222182   0.966   2.105  16.941 -1.1390  1.0224  0.9235
 3575SOL     OW22183   3.722   1.959  13.789  0.3339 -0.0247  0.1818
 3575SOL    HW122184   3.762   1.890  13.736 -1.0695 -0.7067  0.0236
 3575SOL    HW222185   3.780   2.032  13.767 -0.5877  0.6188 -0.0878
 3576SOL     OW22186   3.790   2.290   7.591 -0.0375  0.2625  0.1707
 3576SOL    HW122187   3.832   2.363   7.637 -2.1647  2.6074 -1.6227
 3576SOL    HW222188   3.848   2.220   7.621  0.4510  0.9737  0.8970
 3577SOL     OW22189   0.791   4.203  13.054  0.2146  0.2662  0.2250
 3577SOL    HW122190   0.835   4.153  12.985 -0.2102  1.3158 -0.7972
 3577SOL    HW222191   0.707   4.193  13.010  0.0262  1.8782  0.2400
 3578SOL     OW22192   4.492   4.015   4.337  0.1224  0.4373  0.2534
 3578SOL    HW122193   4.553   4.037   4.267  1.1798 -2.0614  0.3881
 3578SOL    HW222194   4.477   3.920   4.338 -0.8333  0.6009  1.3666
 3579SOL     OW22195   1.084   2.878  12.078 -0.5230  0.1989  0.1935
 3579SOL    HW122196   1.118   2.797  12.117  2.7980  1.5684  0.1958
 3579SOL    HW222197   1.065   2.928  12.158 -1.2091  1.0062 -0.4827
 3580SOL     OW22198   2.212   2.840   6.433  0.1281 -0.6828  0.0930
 3580SOL    HW122199   2.280   2.898   6.400 -2.3596  0.3534 -3.2042
 3580SOL    HW222200   2.142   2.900   6.461  0.7446 -0.9695  2.2559
 3581SOL     OW22201   1.863   2.255  16.514  0.3099 -0.1782  0.3483
 3581SOL    HW122202   1.901   2.222  16.433  0.4507 -1.6594  1.0335
 3581SOL    HW222203   1.770   2.257  16.493  0.4444  2.5739 -0.0496
 3582SOL     OW22204   2.316   1.238   8.889  0.6577 -0.1045 -0.0866
 3582SOL    HW122205   2.362   1.289   8.956  1.0263 -0.6353  0.0658
 3582SOL    HW222206   2.256   1.189   8.944 -0.5701  0.8456 -0.5774
 3583SOL     OW22207   0.810   0.136   1.706  0.7773 -0.3785  0.6183
 3583SOL    HW122208   0.722   0.174   1.710  1.1443  0.3529  1.6463
 3583SOL    HW222209   0.863   0.215   1.705  2.1908 -1.3640 -1.7364
 3584SOL     OW22210   2.170   2.857   8.008 -0.2698 -0.4981 -0.3261
 3584SOL    HW122211   2.181   2.763   7.991  2.6592  0.0922 -1.6790
 3584SOL    HW222212   2.091   2.849   8.062 -0.1786 -2.2225 -0.4407
 3585SOL     OW22213   4.514   1.372   0.873  0.0435  0.2067  0.0481
 3585SOL    HW122214   4.471   1.298   0.915  0.6503 -0.6893 -0.9213
 3585SOL    HW222215   4.491   1.444   0.932 -0.2168  1.0671 -1.1002
 3586SOL     OW22216   0.569   3.631  14.796 -0.1062 -0.0942  0.3599
 3586SOL    HW122217   0.638   3.620  14.730  0.7382 -1.7994  1.5216
 3586SOL    HW222218   0.620   3.655  14.873 -1.1338  0.7077  0.7996
 3587SOL     OW22219   4.521   0.182  10.067  0.3506  0.1636  0.6808
 3587SOL    HW122220   4.563   0.242  10.129 -0.0380  0.6250  0.4893
 3587SOL    HW222221   4.448   0.146  10.118  0.7166 -1.2190  0.2368
 3588SOL     OW22222   2.683   2.543   5.270 -0.0208  0.0397  0.0070
 3588SOL    HW122223   2.769   2.583   5.285  1.1578 -2.6403  0.3835
 3588SOL    HW222224   2.688   2.508   5.181 -1.5636 -0.1096 -0.0161
 3589SOL     OW22225   3.903   0.212   5.609 -0.1206 -0.6377  0.1807
 3589SOL    HW122226   3.984   0.167   5.635  0.8094  1.4813  0.9235
 3589SOL    HW222227   3.864   0.213   5.696  0.6220  0.0381  0.5089
 3590SOL     OW22228   0.189   2.004   1.469 -0.6316 -0.7957 -0.6770
 3590SOL    HW122229   0.121   2.070   1.484  0.5088  0.5219 -1.2222
 3590SOL    HW222230   0.264   2.051   1.432 -2.1416  2.0812 -0.1014
 3591SOL     OW22231   0.200   4.253   0.407 -0.0670  0.1414 -0.1301
 3591SOL    HW122232   0.203   4.196   0.483 -3.1746  3.1744  2.2404
 3591SOL    HW222233   0.288   4.290   0.405 -0.0896  0.1926 -0.1928
 3592SOL     OW22234   3.063   4.041   5.829 -1.3446 -0.1114  0.2237
 3592SOL    HW122235   3.088   4.060   5.919 -1.9915 -2.2647  0.8583
 3592SOL    HW222236   3.105   4.116   5.786 -0.6638 -0.3819  0.4074
 3593SOL     OW22237   4.229   3.689   5.281  0.0324 -0.2065  0.6552
 3593SOL    HW122238   4.318   3.723   5.284  0.5480 -1.1802 -3.5330
 3593SOL    HW222239   4.253   3.599   5.301  2.3847  0.3176  0.1277
 3594SOL     OW22240   0.304   1.787   9.632 -0.6385 -0.2327  0.1026
 3594SOL    HW122241   0.266   1.729   9.566  2.0812 -1.6406 -0.1994
 3594SOL    HW222242   0.224   1.821   9.673 -0.7738 -0.8481  0.3472
 3595SOL     OW22243   0.345   2.788   2.101  0.0445 -0.1451 -0.2607
 3595SOL    HW122244   0.418   2.848   2.116  0.3814 -0.6114 -0.0374
 3595SOL    HW222245   0.347   2.782   2.006  1.1364  0.6465 -0.2823
 3596SOL     OW22246   1.105   3.583   5.397 -0.0801 -0.0618 -0.7866
 3596SOL    HW122247   1.038   3.554   5.335  0.5575 -0.9560 -1.0524
 3596SOL    HW222248   1.046   3.574   5.471 -0.3396  1.7327 -0.7694
 3597SOL     OW22249   3.360   3.449  15.635 -0.0370 -0.3007  0.0161
 3597SOL    HW122250   3.362   3.354  15.630  0.1252 -0.3339  0.7570
 3597SOL    HW222251   3.344   3.465  15.728  0.2481 -1.9588  0.3364
 3598SOL     OW22252   1.035   0.239   0.030  0.0936  0.1157 -0.5247
 3598SOL    HW122253   1.107   0.269   0.085 -0.5171 -0.1563  0.4149
 3598SOL    HW222254   0.971   0.219   0.098  0.1162 -0.2601 -0.6136
 3599SOL     OW22255   4.089   4.662   3.946  0.1487 -0.6899  0.2260
 3599SOL    HW122256   4.017   4.695   4.000 -0.3909  1.4223 -1.7741
 3599SOL    HW222257   4.166   4.694   3.994 -0.8958  0.8344  0.8951
 3600SOL     OW22258   3.992   1.047   3.045 -0.7448 -0.4664 -0.2431
 3600SOL    HW122259   4.012   1.061   2.952  0.7622  0.7628  0.2616
 3600SOL    HW222260   4.023   1.133   3.074 -2.5450  0.5445 -1.3582
 3601SOL     OW22261   4.007   1.821   2.542 -0.2923 -0.4703 -0.6326
 3601SOL    HW122262   3.915   1.840   2.528 -0.2957 -0.9380 -1.2845
 3601SOL    HW222263   4.045   1.884   2.480 -0.3564 -0.2750 -0.4709
 3602SOL     OW22264   0.329   2.633   1.860 -0.5642  1.1070 -0.8270
 3602SOL    HW122265   0.263   2.564   1.855 -1.0106  1.2998  2.5010
 3602SOL    HW222266   0.356   2.620   1.769 -1.5511  0.4431 -1.0338
 3603SOL     OW22267   3.061   4.244   2.951  0.3002 -0.6970 -0.5927
 3603SOL    HW122268   2.982   4.280   2.910 -1.9157 -2.6171  2.0055
 3603SOL    HW222269   3.039   4.189   3.026 -1.3900  3.6792  2.0838
 3604SOL     OW22270   2.553   2.651  16.063 -0.2219 -0.6878  0.2644
 3604SOL    HW122271   2.539   2.712  15.990  0.7394 -0.3113  0.3905
 3604SOL    HW222272   2.643   2.673  16.088 -0.5985 -0.0426  1.0596
 3605SOL     OW22273   0.003   2.977   1.848 -0.9021 -0.3718  0.1978
 3605SOL    HW122274   4.653   3.025   1.815  0.9764  0.7742 -2.3395
 3605SOL    HW222275   4.688   2.893   1.872  0.0418 -1.0108 -0.4680
 3606SOL     OW22276   4.407   1.033  16.105  0.0012 -0.1298  0.0248
 3606SOL    HW122277   4.462   1.046  16.028  2.2041  0.4063  1.6818
 3606SOL    HW222278   4.428   0.943  16.132 -1.0790 -0.3482  0.1374
 3607SOL     OW22279   4.566   1.299   8.561  0.3349  0.2356  0.0737
 3607SOL    HW122280   4.644   1.335   8.520  0.2790 -0.2483 -0.4496
 3607SOL    HW222281   4.505   1.370   8.582 -0.1577 -0.4325  0.9247
 3608SOL     OW22282   1.692   0.984  15.933 -0.2971  0.3125 -0.0024
 3608SOL    HW122283   1.777   1.027  15.925  1.0934 -2.3770  0.4235
 3608SOL    HW222284   1.670   0.969  15.841  0.6310  0.8270 -0.3157
 3609SOL     OW22285   1.908   0.340   3.059  0.4531 -0.1784 -0.0773
 3609SOL    HW122286   1.961   0.393   3.000  0.6745  0.7075  0.9197
 3609SOL    HW222287   1.819   0.345   3.023  0.6724 -0.9082 -0.7131
 3610SOL     OW22288   2.510   0.510   9.433  0.2144 -0.7399  0.1503
 3610SOL    HW122289   2.496   0.605   9.436  0.5798 -0.6959  0.4522
 3610SOL    HW222290   2.584   0.498   9.375  0.6106  2.1007  0.0390
 3611SOL     OW22291   1.404   3.232  13.045 -0.4865  0.0708  0.0033
 3611SOL    HW122292   1.418   3.149  13.090 -0.5439 -0.6328 -1.2772
 3611SOL    HW222293   1.314   3.248  13.074  0.3256  0.2727  2.4700
 3612SOL     OW22294   4.424   2.104   3.372 -0.3545  0.8012 -0.5156
 3612SOL    HW122295   4.381   2.058   3.444 -2.3401  0.3921 -1.9953
 3612SOL    HW222296   4.517   2.088   3.388 -1.0050  0.2193  2.6296
 3613SOL     OW22297   1.237   3.777   4.935 -0.0614  0.6915 -0.6203
 3613SOL    HW122298   1.306   3.829   4.977 -0.0336  0.2079 -0.0594
 3613SOL    HW222299   1.286   3.696   4.924 -0.8146  0.1403  0.1202
 3614SOL     OW22300   3.132   2.764   6.168  0.0513  0.5635 -0.0584
 3614SOL    HW122301   3.163   2.724   6.249  1.9327  1.0399 -0.5354
 3614SOL    HW222302   3.053   2.800   6.208  0.9270  3.5275 -0.9754
 3615SOL     OW22303   4.237   3.631   6.388 -0.5112  0.2798  0.3854
 3615SOL    HW122304   4.204   3.557   6.338  2.8871 -0.8924 -0.1254
 3615SOL    HW222305   4.163   3.681   6.423  0.2198  2.2716 -0.8740
 3616SOL     OW22306   2.191   4.319  12.153  0.1729 -0.1667 -0.5263
 3616SOL    HW122307   2.189   4.224  12.152  1.2650 -0.1968  0.7495
 3616SOL    HW222308   2.264   4.343  12.097  1.0654  0.0315  0.7277
 3617SOL     OW22309   4.629   2.880   3.724 -0.4386  0.4765 -0.7122
 3617SOL    HW122310   4.722   2.900   3.708 -0.6861  4.2445  2.4005
 3617SOL    HW222311   4.589   2.916   3.645  2.0715  0.1019 -2.1798
 3618SOL     OW22312   3.617   0.933   7.653  0.1943  0.4055  0.7134
 3618SOL    HW122313   3.538   0.986   7.656  0.4149  0.6786  1.9631
 3618SOL    HW222314   3.586   0.848   7.622  2.9104 -0.4997  0.4091
 3619SOL     OW22315   1.369   4.484   8.169 -0.5228  0.3577  0.2727
 3619SOL    HW122316   1.409   4.566   8.197  3.2050 -0.8945 -1.4376
 3619SOL    HW222317   1.277   4.510   8.179  0.0838  2.8482 -0.6747
 3620SOL     OW22318   1.263   0.094  11.575 -0.7946  0.4473  0.3860
 3620SOL    HW122319   1.300   0.067  11.491 -1.1902  1.2956 -0.0660
 3620SOL    HW222320   1.347   0.077  11.619 -0.0708 -0.6511 -1.4242
 3621SOL     OW22321   1.336   2.088   7.203  0.1329 -0.3036  0.4923
 3621SOL    HW122322   1.278   2.015   7.183  0.3443 -0.1374 -0.7297
 3621SOL    HW222323   1.394   2.045   7.266 -1.2791 -1.5123  0.9624
 3622SOL     OW22324   3.780   0.887   2.279  0.1903 -0.0254 -0.1638
 3622SOL    HW122325   3.843   0.897   2.207  0.9369  1.7056  0.7174
 3622SOL    HW222326   3.779   0.966   2.332  0.8991  0.2873 -0.6032
 3623SOL     OW22327   2.601   2.106   4.833  0.3998 -0.0758 -0.2497
 3623SOL    HW122328   2.638   2.020   4.852 -2.7219 -0.6826  3.2430
 3623SOL    HW222329   2.648   2.145   4.907 -2.1674  1.3298  0.6520
 3624SOL     OW22330   1.785   1.192   5.066  0.6093  0.0881 -0.0104
 3624SOL    HW122331   1.816   1.224   5.151 -0.1544 -0.7902  0.6009
 3624SOL    HW222332   1.796   1.100   5.089 -1.7876 -0.5476 -1.4049
 3625SOL     OW22333   3.106   0.804   9.479  0.5165 -0.1092  0.4482
 3625SOL    HW122334   3.172   0.833   9.415 -0.2746  3.0469  1.0493
 3625SOL    HW222335   3.025   0.823   9.430  0.7358  0.3380  0.2550
 3626SOL     OW22336   3.285   0.665   7.156  0.1782 -0.5640 -0.3220
 3626SOL    HW122337   3.358   0.636   7.210 -0.3293 -0.0143  0.6544
 3626SOL    HW222338   3.219   0.696   7.217  0.3069  0.7331 -0.8483
 3627SOL     OW22339   3.638   2.898  15.980  0.0235 -0.2765 -0.2957
 3627SOL    HW122340   3.698   2.824  15.964 -0.7004 -0.6681 -1.2392
 3627SOL    HW222341   3.701   2.964  16.007  1.3890 -1.8916  0.4788
 3628SOL     OW22342   0.960   3.815   4.980  0.5609  0.6900  0.6414
 3628SOL    HW122343   1.052   3.790   4.970  0.4426  0.9496 -1.0141
 3628SOL    HW222344   0.970   3.907   5.002 -2.4603  0.9868  0.7262
 3629SOL     OW22345   4.052   4.646   3.283 -0.8063 -0.1052 -0.0716
 3629SOL    HW122346   3.982   4.646   3.217 -0.1232 -0.3705 -0.7943
 3629SOL    HW222347   4.101   4.567   3.260  0.3138  0.4388  0.4303
 3630SOL     OW22348   4.619   1.535  11.952  0.3523  0.1406 -0.7346
 3630SOL    HW122349   4.665   1.456  11.981  2.6783  1.9563  0.5644
 3630SOL    HW222350   4.646   1.597  12.020 -1.0180  0.6203 -0.6271
 3631SOL     OW22351   2.969   0.324   6.432  0.0238  0.4206 -0.5673
 3631SOL    HW122352   3.001   0.386   6.366  2.7186  0.6758  0.9939
 3631SOL    HW222353   3.048   0.312   6.484 -0.0143  1.1995 -0.3366
 3632SOL     OW22354   0.962   0.778   6.087 -0.0888  0.1728  0.4380
 3632SOL    HW122355   0.889   0.733   6.129 -0.8776  0.7833 -0.2843
 3632SOL    HW222356   1.011   0.702   6.054  0.9877  0.4673  1.3867
 3633SOL     OW22357   2.273   3.862   8.193 -0.4675 -0.4238  0.0986
 3633SOL    HW122358   2.205   3.880   8.258 -0.1303 -3.2470  1.2484
 3633SOL    HW222359   2.291   3.954   8.178 -1.1643 -0.1711  0.8399
 3634SOL     OW22360   4.185   3.149  13.013  0.6564 -0.4234 -0.2205
 3634SOL    HW122361   4.251   3.152  13.082  0.6759 -0.1945 -0.2472
 3634SOL    HW222362   4.225   3.220  12.963  2.9227 -2.5441 -1.4565
 3635SOL     OW22363   3.160   0.410   3.083  0.1163  0.4913 -0.5538
 3635SOL    HW122364   3.248   0.438   3.110 -0.5457 -0.5153  2.6805
 3635SOL    HW222365   3.181   0.337   3.026 -0.1264  0.0603 -0.0894
 3636SOL     OW22366   0.753   3.728   2.758  0.1425  0.2091 -0.4479
 3636SOL    HW122367   0.745   3.743   2.663  0.2626 -0.5331 -0.5705
 3636SOL    HW222368   0.764   3.635   2.777  3.2588  0.6254 -0.2165
 3637SOL     OW22369   4.708   0.686   6.940 -0.3111 -0.1966 -0.1789
 3637SOL    HW122370   4.622   0.723   6.961 -0.1893 -0.3825  0.6283
 3637SOL    HW222371   0.035   0.693   7.019  0.0284  0.3433 -0.4578
 3638SOL     OW22372   4.701   0.414   3.397 -0.1366 -0.1950 -0.3817
 3638SOL    HW122373   0.050   0.353   3.400 -0.0089 -0.1552 -2.8379
 3638SOL    HW222374   4.668   0.393   3.310  2.0893 -1.6484 -0.8887
 3639SOL     OW22375   1.284   1.316   6.464 -0.4807 -0.3517  0.5251
 3639SOL    HW122376   1.316   1.384   6.405  1.2356 -1.5591  0.0589
 3639SOL    HW222377   1.349   1.307   6.535  0.5335 -2.6101 -0.6762
 3640SOL     OW22378   4.529   4.052   2.128 -0.6671  0.0381 -0.1359
 3640SOL    HW122379   4.595   3.991   2.096 -0.3755  1.4777 -2.2922
 3640SOL    HW222380   4.493   4.003   2.202 -2.6673  1.4364 -0.1653
 3641SOL     OW22381   1.178   3.682  14.988  0.7118 -0.4879  0.1413
 3641SOL    HW122382   1.119   3.740  15.036  1.0658 -1.8213  2.2054
 3641SOL    HW222383   1.147   3.596  15.018  1.1839 -0.5069  0.5703
 3642SOL     OW22384   0.542   2.705  10.054 -0.1113  0.1066  0.0143
 3642SOL    HW122385   0.475   2.760  10.013  1.1303  1.0591 -0.7273
 3642SOL    HW222386   0.572   2.652   9.980 -1.7933 -1.2582  0.3040
 3643SOL     OW22387   4.062   0.517   9.527 -0.6232 -0.2076  0.0113
 3643SOL    HW122388   4.105   0.555   9.451 -2.6538  1.4511 -0.3228
 3643SOL    HW222389   4.061   0.426   9.499  2.5685  0.1267 -1.1865
 3644SOL     OW22390   2.384   3.657   6.254  0.2099  0.3231 -0.0470
 3644SOL    HW122391   2.401   3.593   6.323 -0.8187  0.5019  0.3744
 3644SOL    HW222392   2.460   3.715   6.265  1.0365 -0.5036 -1.4426
 3645SOL     OW22393   3.426   3.786   5.060  0.1927 -0.9234 -0.2640
 3645SOL    HW122394   3.446   3.820   4.973  0.3203  1.2245  0.5957
 3645SOL    HW222395   3.514   3.786   5.096 -1.2667 -0.1764  3.3498
 3646SOL     OW22396   0.210   2.510   2.404  0.0855 -0.3121  0.1114
 3646SOL    HW122397   0.186   2.469   2.321 -0.5258  1.1903 -0.4464
 3646SOL    HW222398   0.271   2.577   2.374  0.8758 -1.3006 -0.4716
 3647SOL     OW22399   0.496   4.215   7.809  0.3498 -0.2847 -0.2672
 3647SOL    HW122400   0.410   4.184   7.781  0.6404 -0.5563 -0.8689
 3647SOL    HW222401   0.484   4.214   7.904 -3.6182  0.3416 -0.7559
 3648SOL     OW22402   2.373   0.815   8.818  0.1559 -0.5444  0.1748
 3648SOL    HW122403   2.411   0.873   8.884  1.1560 -0.4196 -0.5005
 3648SOL    HW222404   2.362   0.731   8.862 -1.2804 -0.3400  0.2051
 3649SOL     OW22405   1.365   0.384  14.684 -0.1911  0.0460  0.1904
 3649SOL    HW122406   1.276   0.406  14.657  0.4380  2.2313 -0.1131
 3649SOL    HW222407   1.398   0.474  14.680  1.8388 -0.6929  0.2510
 3650SOL     OW22408   2.980   1.851   6.555 -0.0905  0.6180 -0.5592
 3650SOL    HW122409   2.905   1.808   6.514  0.5544  0.5875 -1.7171
 3650SOL    HW222410   3.047   1.797   6.513  0.3810 -0.0741  1.1101
 3651SOL     OW22411   1.219   1.066  16.536  0.0895  0.2278 -0.5974
 3651SOL    HW122412   1.290   1.031  16.590 -0.5630  0.2159  0.2469
 3651SOL    HW222413   1.270   1.108  16.465 -0.6012  1.4376 -0.3829
 3652SOL     OW22414   1.692   0.171  14.664 -0.1178 -0.3922  0.0055
 3652SOL    HW122415   1.755   0.207  14.602 -0.6791  1.7839  0.7020
 3652SOL    HW222416   1.723   0.080  14.667  2.4185  0.5444  1.5893
 3653SOL     OW22417   0.399   4.597   8.173  0.0573  0.1944  0.1526
 3653SOL    HW122418   0.341   4.658   8.218 -2.1834 -2.1243  0.4425
 3653SOL    HW222419   0.331   4.553   8.121 -1.5703  1.7159  1.0152
 3654SOL     OW22420   0.436   0.274   0.048 -0.0358 -0.4545  0.9303
 3654SOL    HW122421   0.475   0.191   0.073  2.4948  0.5528  0.2957
 3654SOL    HW222422   0.502   0.332   0.085 -1.1013  0.8280  0.8330
 3655SOL     OW22423   0.578   1.603  16.696 -0.2233 -0.2166 -0.1896
 3655SOL    HW122424   0.568   1.696  16.677  0.5775 -0.6257 -2.5363
 3655SOL    HW222425   0.597   1.605  16.790 -0.4318 -0.8369 -0.1358
 3656SOL     OW22426   1.090   3.132   3.142  0.2282 -0.6280  0.3449
 3656SOL    HW122427   1.136   3.196   3.197  0.3757 -0.5740  0.1585
 3656SOL    HW222428   1.148   3.135   3.066 -0.2329 -1.2790 -0.0308
 3657SOL     OW22429   0.764   1.407  10.223  0.0469 -0.0814  0.1136
 3657SOL    HW122430   0.825   1.469  10.263 -1.1752  1.2146 -0.0194
 3657SOL    HW222431   0.785   1.322  10.262 -0.1407  0.5973  1.6973
 3658SOL     OW22432   4.266   1.586  12.666 -0.1132  0.6280  0.0748
 3658SOL    HW122433   4.191   1.567  12.610 -0.0591  2.3156 -0.5733
 3658SOL    HW222434   4.259   1.681  12.674  1.4380  0.6404  1.2337
 3659SOL     OW22435   1.321   0.766  16.336  0.3785  0.3248  0.2381
 3659SOL    HW122436   1.364   0.781  16.252 -0.2828  0.3674 -0.0913
 3659SOL    HW222437   1.387   0.712  16.379  0.4388 -1.2992 -1.9170
 3660SOL     OW22438   0.444   0.404   7.909 -0.1803  0.0567  0.1365
 3660SOL    HW122439   0.360   0.359   7.899 -0.2813  0.7975 -2.2094
 3660SOL    HW222440   0.447   0.441   7.821  2.2643  1.6266  0.8658
 3661SOL     OW22441   1.188   4.519   3.145  0.5039  0.5223 -0.1267
 3661SOL    HW122442   1.221   4.538   3.232 -0.7874 -1.0156  0.7036
 3661SOL    HW222443   1.151   4.604   3.123  0.5610  0.6437  0.2493
 3662SOL     OW22444   0.725   4.504  16.319 -0.2355  0.3595 -0.1561
 3662SOL    HW122445   0.799   4.551  16.280 -0.2144 -0.4478 -1.0822
 3662SOL    HW222446   0.742   4.424  16.269 -2.9453 -0.9646  1.0950
 3663SOL     OW22447   0.256   4.604   5.988 -0.3419 -0.0851  0.9277
 3663SOL    HW122448   0.166   4.595   6.019 -0.6922 -0.3724 -0.1699
 3663SOL    HW222449   0.263   4.699   5.996 -3.8137  0.1473  1.2067
 3664SOL     OW22450   3.742   3.663   6.564  0.0701 -0.2561  0.3172
 3664SOL    HW122451   3.747   3.599   6.493  1.9634 -0.7802  0.9138
 3664SOL    HW222452   3.795   3.620   6.632 -0.0291 -0.7797  0.0627
 3665SOL     OW22453   1.727   3.499   6.095 -0.1491 -0.2961  0.2150
 3665SOL    HW122454   1.721   3.553   6.016 -2.1785 -2.6403 -1.2023
 3665SOL    HW222455   1.700   3.557   6.167  1.9933  0.5790  0.3445
 3666SOL     OW22456   1.200   2.446   8.558  0.0235  0.3007 -0.0498
 3666SOL    HW122457   1.121   2.487   8.595  0.2760 -0.5209  1.4089
 3666SOL    HW222458   1.172   2.434   8.468  2.5563 -2.3609 -0.4880
 3667SOL     OW22459   0.039   2.802   4.845 -0.4182  0.3935  0.0704
 3667SOL    HW122460   0.073   2.845   4.924  1.4661  0.3384 -0.7045
 3667SOL    HW222461   0.036   2.869   4.776 -1.4293 -0.4134 -0.6711
 3668SOL     OW22462   1.533   4.628   9.461 -0.6444  0.5727  0.0931
 3668SOL    HW122463   1.477   4.662   9.392  0.3236  2.4654  0.2165
 3668SOL    HW222464   1.489   4.661   9.539 -0.3647  2.0154 -0.3599
 3669SOL     OW22465   4.715   1.599  14.359 -0.1196  0.2548  0.4328
 3669SOL    HW122466   4.654   1.579  14.430 -0.1766  3.4593  1.2867
 3669SOL    HW222467   4.670   1.546  14.293  0.9960  0.7037 -0.6734
 3670SOL     OW22468   1.207   2.515   4.746  0.0376 -0.4177 -0.4506
 3670SOL    HW122469   1.151   2.585   4.710 -1.4869 -0.9837  0.8157
 3670SOL    HW222470   1.176   2.434   4.705  1.5913 -2.5639  2.5948
 3671SOL     OW22471   0.638   1.886  17.411 -0.1352  0.3443 -0.0894
 3671SOL    HW122472   0.701   1.829  17.367  0.7134 -0.5134  2.2592
 3671SOL    HW222473   0.592   1.833  17.476 -1.5934  2.3763  0.5436
 3672SOL     OW22474   4.620   3.683  14.695 -0.3681 -0.1086  0.6282
 3672SOL    HW122475   4.625   3.690  14.599 -1.5131 -1.3325  0.4979
 3672SOL    HW222476   4.654   3.594  14.702  1.7525  0.7365  1.1000
 3673SOL     OW22477   1.928   0.105  12.953 -0.3489 -0.3300 -0.3300
 3673SOL    HW122478   1.992   0.054  13.003  1.6552  1.3102 -1.1921
 3673SOL    HW222479   1.983   0.178  12.925  0.2920 -0.4901  0.4990
 3674SOL     OW22480   2.580   4.179  10.162 -0.0924  0.1958 -0.0471
 3674SOL    HW122481   2.655   4.126  10.188  0.9151  1.3431 -0.6456
 3674SOL    HW222482   2.569   4.138  10.076 -2.3785  1.1465 -0.2268
 3675SOL     OW22483   4.602   3.311   5.966  0.4278 -0.2706  0.3697
 3675SOL    HW122484   4.696   3.311   5.950 -0.0263 -0.3517 -2.3255
 3675SOL    HW222485   4.572   3.273   5.883 -0.1283  0.2710  0.3196
 3676SOL     OW22486   3.786   1.638   8.193 -0.0877  0.3055  0.2459
 3676SOL    HW122487   3.817   1.552   8.220  0.3090  1.4610  3.4091
 3676SOL    HW222488   3.692   1.636   8.212  0.0805  1.7529  1.2232
 3677SOL     OW22489   0.455   3.385   9.053 -0.6766 -0.4468  0.3138
 3677SOL    HW122490   0.404   3.439   9.114 -1.0582  2.2936 -2.4481
 3677SOL    HW222491   0.544   3.421   9.048 -1.3473  1.2976  0.9527
 3678SOL     OW22492   1.696   3.296   1.704 -0.2540 -0.3269 -0.1714
 3678SOL    HW122493   1.733   3.383   1.689 -0.0052 -0.2222  1.0877
 3678SOL    HW222494   1.613   3.313   1.749  0.1535  1.8637 -0.2405
 3679SOL     OW22495   0.332   3.139  11.168  0.5466  0.1597  0.3373
 3679SOL    HW122496   0.269   3.143  11.240  2.1371  0.1267  1.7356
 3679SOL    HW222497   0.301   3.073  11.107  1.7229  1.8751 -2.1100
 3680SOL     OW22498   4.694   0.004   8.862  0.2362 -0.2768  0.5284
 3680SOL    HW122499   4.705   0.099   8.850  0.0040 -0.5727 -2.1725
 3680SOL    HW222500   0.043   4.702   8.808  0.2761 -0.1126  0.4982
 3681SOL     OW22501   0.238   4.699   2.486 -0.0490  0.3549 -0.2353
 3681SOL    HW122502   0.311   0.035   2.492  0.3582  0.0575 -2.2264
 3681SOL    HW222503   0.173   0.031   2.445  0.3972  0.3428 -0.9597
 3682SOL     OW22504   4.417   4.588   6.709 -0.2605  0.0510  0.0217
 3682SOL    HW122505   4.444   4.513   6.656  0.1813  0.5819 -0.5220
 3682SOL    HW222506   4.354   4.636   6.654  0.6205  1.8171  0.5354
 3683SOL     OW22507   2.178   1.586  15.326  0.2092  0.3071  0.5688
 3683SOL    HW122508   2.152   1.546  15.243 -1.0071  1.0250  0.6033
 3683SOL    HW222509   2.244   1.636  15.279  0.9511 -1.4660 -0.2658
 3684SOL     OW22510   4.036   3.518   4.025 -0.6910  0.3258  0.2653
 3684SOL    HW122511   3.987   3.465   4.088 -1.4980  1.7455  0.8302
 3684SOL    HW222512   3.970   3.576   3.987 -3.2513 -1.4292  2.0867
 3685SOL     OW22513   0.696   0.125   2.600  0.1086  0.6123  0.0505
 3685SOL    HW122514   0.661   0.109   2.688 -1.3480 -1.1705 -0.8268
 3685SOL    HW222515   0.790   0.129   2.618 -0.3655  1.4860  2.2980
 3686SOL     OW22516   3.575   2.711   4.908 -0.5470 -0.0092  0.2595
 3686SOL    HW122517   3.522   2.752   4.840 -0.2125  1.7000  1.0391
 3686SOL    HW222518   3.630   2.654   4.853 -0.1151 -0.6507  1.3705
 3687SOL     OW22519   1.098   2.392   5.543  0.1980  0.1758 -0.1618
 3687SOL    HW122520   1.119   2.365   5.632 -0.4202  1.6092  0.4119
 3687SOL    HW222521   1.181   2.399   5.495  0.4597 -2.3769 -0.1013
 3688SOL     OW22522   4.297   4.686   0.660 -0.7543  0.1693 -0.2431
 3688SOL    HW122523   4.283   0.055   0.677  1.1192  0.0511  1.9270
 3688SOL    HW222524   4.213   4.648   0.685  0.4896 -0.6981  2.6035
 3689SOL     OW22525   3.537   3.973   4.511  0.0969 -0.2334 -0.2449
 3689SOL    HW122526   3.544   3.998   4.419  1.9240  2.5308  0.6405
 3689SOL    HW222527   3.456   4.023   4.522  1.0279  0.8837  1.4682
 3690SOL     OW22528   2.431   1.802   3.510 -0.0269  0.0421  0.3375
 3690SOL    HW122529   2.462   1.715   3.534 -0.5965 -0.3415 -0.3055
 3690SOL    HW222530   2.507   1.855   3.533  0.7177 -0.1532 -1.6706
 3691SOL     OW22531   4.236   2.050   3.135 -0.0618  0.1550 -0.0562
 3691SOL    HW122532   4.297   2.043   3.209  1.4721  2.5390 -1.1238
 3691SOL    HW222533   4.293   2.042   3.059 -1.9715 -1.6162 -1.3054
 3692SOL     OW22534   1.886   0.244   5.389  0.0289  0.1529  0.1458
 3692SOL    HW122535   1.833   0.197   5.454 -0.4944  1.3425  0.5733
 3692SOL    HW222536   1.824   0.295   5.337  2.4215  2.2159 -0.6815
 3693SOL     OW22537   0.638   3.346   7.555  0.5483 -0.5340 -0.1381
 3693SOL    HW122538   0.544   3.352   7.570  0.6639  0.5365  0.1760
 3693SOL    HW222539   0.652   3.434   7.520 -0.2006 -0.0974  0.6803
 3694SOL     OW22540   4.087   2.744   4.461  0.1500  0.0205 -0.2105
 3694SOL    HW122541   4.155   2.685   4.428  2.0867 -0.6978  4.9886
 3694SOL    HW222542   4.024   2.760   4.391  1.9536 -0.2697 -1.8801
 3695SOL     OW22543   3.123   2.276   5.918 -0.4868 -0.4094 -0.3766
 3695SOL    HW122544   3.160   2.202   5.967  0.8495  0.5604  0.0647
 3695SOL    HW222545   3.093   2.331   5.990  0.5675 -1.2608  0.7059
 3696SOL     OW22546   1.511   2.889   4.495 -0.6753  0.0324  0.0525
 3696SOL    HW122547   1.604   2.909   4.481 -0.1635 -1.9207  0.6448
 3696SOL    HW222548   1.485   2.867   4.405 -2.4187  1.0990  0.2889
 3697SOL     OW22549   0.587   4.242   4.908 -0.6228  0.2153 -0.1090
 3697SOL    HW122550   0.640   4.234   4.987 -1.7965 -1.0095  0.5438
 3697SOL    HW222551   0.501   4.219   4.942 -0.6913  1.0722  0.2985
 3698SOL     OW22552   3.594   4.482   7.487  0.0016  0.4760 -0.7612
 3698SOL    HW122553   3.553   4.528   7.414 -0.3522  0.3032 -0.6720
 3698SOL    HW222554   3.546   4.524   7.559  2.6473  1.4241  0.4596
 3699SOL     OW22555   2.926   1.231   4.811 -0.1784 -0.0956  0.1419
 3699SOL    HW122556   2.920   1.323   4.836 -2.2539  0.2660 -1.7095
 3699SOL    HW222557   2.837   1.209   4.783 -0.4602  1.2601 -0.0236
 3700SOL     OW22558   1.474   4.098   4.814  0.1232  0.6105  0.1870
 3700SOL    HW122559   1.487   4.169   4.876 -0.7181  1.3530 -0.4978
 3700SOL    HW222560   1.521   4.021   4.845  0.8683  1.1276  0.3325
 3701SOL     OW22561   3.314   0.860   6.415  0.1781  0.5689  0.3743
 3701SOL    HW122562   3.346   0.916   6.344  0.2638  2.0270  1.5672
 3701SOL    HW222563   3.353   0.896   6.495 -3.1231  2.9040  0.9322
 3702SOL     OW22564   2.622   4.547   5.183 -0.4657 -0.5000 -0.2180
 3702SOL    HW122565   2.699   4.511   5.226 -1.3708 -0.4697  1.4486
 3702SOL    HW222566   2.558   4.570   5.251 -0.8182 -1.2146 -0.3022
 3703SOL     OW22567   3.001   2.166  16.059 -0.3249  0.6268  0.0732
 3703SOL    HW122568   3.033   2.076  16.048  0.4652  1.0659 -1.1178
 3703SOL    HW222569   2.908   2.155  16.077 -1.3129  2.7713 -3.8161
 3704SOL     OW22570   2.075   1.177   2.726 -0.4204 -0.5216 -0.0812
 3704SOL    HW122571   2.086   1.085   2.701 -0.6586 -0.9654  1.4604
 3704SOL    HW222572   1.987   1.168   2.763 -1.8224 -0.3599 -3.4076
 3705SOL     OW22573   2.044   3.981   5.921  0.4379 -0.2345 -0.3821
 3705SOL    HW122574   2.033   4.072   5.893  1.1182  0.0506  0.2870
 3705SOL    HW222575   2.076   3.949   5.837  1.3466 -1.1508  0.3144
 3706SOL     OW22576   1.659   2.879   8.043  0.0393  0.3190  0.1120
 3706SOL    HW122577   1.621   2.918   8.122  0.1035  1.6688 -0.5132
 3706SOL    HW222578   1.581   2.871   7.989  0.0788  1.7811 -0.1816
 3707SOL     OW22579   1.583   2.865   8.685  0.2019  0.2335  0.2510
 3707SOL    HW122580   1.646   2.847   8.615  1.3706  2.9562  0.5995
 3707SOL    HW222581   1.536   2.781   8.681  1.4636 -0.4615 -0.1945
 3708SOL     OW22582   1.485   3.445   3.412  0.2965 -0.5169 -0.7260
 3708SOL    HW122583   1.489   3.354   3.442 -1.7012  0.3136  2.0788
 3708SOL    HW222584   1.391   3.463   3.411  0.1406 -1.3322 -1.2046
 3709SOL     OW22585   2.693   0.624   3.360 -0.3640 -0.2530 -0.2215
 3709SOL    HW122586   2.674   0.534   3.336  1.0065 -0.4894 -0.4223
 3709SOL    HW222587   2.712   0.670   3.279 -0.6788  2.1727  1.0812
 3710SOL     OW22588   0.839   3.934   9.349  0.1673  0.3545 -0.0686
 3710SOL    HW122589   0.784   3.869   9.392 -0.9508  1.5804  0.3722
 3710SOL    HW222590   0.926   3.897   9.334  0.7307  1.4196  0.5645
 3711SOL     OW22591   2.863   3.427   6.761  0.1314  0.2420  0.2401
 3711SOL    HW122592   2.805   3.500   6.782 -0.9907 -0.1852 -1.3870
 3711SOL    HW222593   2.927   3.447   6.829  1.4098  1.4550 -1.3123
 3712SOL     OW22594   1.984   1.013   4.902 -0.3048 -0.1252  0.0057
 3712SOL    HW122595   1.927   0.947   4.862  2.2304 -2.0879 -0.4079
 3712SOL    HW222596   1.951   1.094   4.864  0.1502 -0.2024 -0.5653
 3713SOL     OW22597   2.458   0.686   4.826  0.1683 -0.0477 -0.0618
 3713SOL    HW122598   2.369   0.674   4.793 -1.0961  3.9650  1.9466
 3713SOL    HW222599   2.488   0.598   4.800 -1.9430 -1.1532  1.2917
 3714SOL     OW22600   3.765   2.201   5.486 -0.1748  0.1316 -0.2864
 3714SOL    HW122601   3.754   2.274   5.546 -1.2705  0.2937 -0.6864
 3714SOL    HW222602   3.843   2.161   5.525  0.1204  0.7752 -0.2203
 3715SOL     OW22603   0.246   4.297  11.013 -0.2774  0.9641 -0.4860
 3715SOL    HW122604   0.193   4.344  11.077 -0.0973 -0.4466  0.7016
 3715SOL    HW222605   0.240   4.206  11.043  1.0977  0.9125 -0.3690
 3716SOL     OW22606   1.047   2.621   5.819  0.3755  0.6085 -0.0221
 3716SOL    HW122607   0.994   2.585   5.890  3.4805 -1.2286  1.4135
 3716SOL    HW222608   1.082   2.542   5.778 -2.1233 -0.1704 -0.5990
 3717SOL     OW22609   0.843   0.342   3.832 -0.0077  0.2051  0.2329
 3717SOL    HW122610   0.858   0.287   3.909  0.1784 -0.0486  0.0151
 3717SOL    HW222611   0.785   0.407   3.873 -0.8625 -1.2603  1.3674
 3718SOL     OW22612   4.103   1.372   4.815  0.2703  0.0059 -0.1732
 3718SOL    HW122613   4.080   1.288   4.775 -1.3805  0.2285  0.3070
 3718SOL    HW222614   4.012   1.399   4.826 -0.1812 -1.7614  0.3289
 3719SOL     OW22615   1.161   0.559   8.584  0.1143 -0.5461  0.0911
 3719SOL    HW122616   1.120   0.519   8.507 -0.2438  0.0008 -0.0010
 3719SOL    HW222617   1.256   0.563   8.568  0.5223  0.5371  2.9126
 3720SOL     OW22618   1.625   2.238   5.798  0.3878 -0.3740  0.0055
 3720SOL    HW122619   1.696   2.291   5.835 -0.4524  0.6220  0.1905
 3720SOL    HW222620   1.596   2.190   5.875 -0.3703  3.8821  2.3479
 3721SOL     OW22621   2.058   1.087  15.109 -0.1650 -0.3060 -0.1190
 3721SOL    HW122622   2.109   1.129  15.039  0.2799 -0.3829  0.1558
 3721SOL    HW222623   1.978   1.056  15.069  0.7957 -3.3452  0.3627
 3722SOL     OW22624   1.710   2.630   6.128  0.3494 -1.1072 -0.0186
 3722SOL    HW122625   1.705   2.684   6.050 -0.2936 -1.7854 -0.4472
 3722SOL    HW222626   1.636   2.570   6.115  0.8155 -1.3773 -1.4106
 3723SOL     OW22627   1.031   3.765   3.940  0.2172 -0.2236  0.0202
 3723SOL    HW122628   1.079   3.702   3.994  1.1377  0.1814 -0.3274
 3723SOL    HW222629   0.956   3.788   3.995  0.2778 -0.2238  0.1042
 3724SOL     OW22630   3.012   2.953   2.691  0.4678  0.1398  0.7886
 3724SOL    HW122631   3.050   2.993   2.770 -2.2021  0.9976  1.6484
 3724SOL    HW222632   3.049   3.002   2.617 -1.5937  1.4197  0.6071
 3725SOL     OW22633   4.540   3.454   1.042  0.1920  0.0972 -0.0259
 3725SOL    HW122634   4.563   3.544   1.064  0.7176 -0.0516  0.0536
 3725SOL    HW222635   4.628   3.417   1.055  0.0288 -0.9131 -1.8029
 3726SOL     OW22636   3.746   0.049  13.565  0.3547 -0.1970 -0.1933
 3726SOL    HW122637   3.732   0.133  13.609 -0.4501  0.0548 -0.9100
 3726SOL    HW222638   3.772   0.095  13.485  1.1770  0.3364  0.3871
 3727SOL     OW22639   2.674   1.438   7.789 -0.1667  0.3817 -0.5828
 3727SOL    HW122640   2.601   1.471   7.738  0.3810  1.0043 -0.9644
 3727SOL    HW222641   2.631   1.431   7.874 -0.4248  0.5194 -0.7038
 3728SOL     OW22642   0.956   0.297   6.018  0.4747 -0.2981  0.2975
 3728SOL    HW122643   0.934   0.309   5.925 -0.4174  1.1129  0.7019
 3728SOL    HW222644   0.923   0.380   6.052 -0.1804  0.1442 -1.3658
 3729SOL     OW22645   3.041   3.944   2.152  0.0899 -0.2401  0.6214
 3729SOL    HW122646   3.104   3.944   2.080  0.0320  0.8969  0.5719
 3729SOL    HW222647   3.096   3.961   2.228  0.6205 -1.4964  0.5256
 3730SOL     OW22648   3.205   0.978  11.643  0.5929 -0.0635 -0.3229
 3730SOL    HW122649   3.124   0.956  11.597  0.0649  0.4962  0.3313
 3730SOL    HW222650   3.239   0.893  11.673 -0.9333 -0.3954  0.4764
 3731SOL     OW22651   2.790   1.185   6.051  0.3020 -0.3111 -0.4001
 3731SOL    HW122652   2.789   1.117   5.984  2.1728 -1.4233  0.7142
 3731SOL    HW222653   2.883   1.203   6.061  0.0217  0.2034  1.4297
 3732SOL     OW22654   3.835   1.274   8.200  0.3314  0.4935 -0.2051
 3732SOL    HW122655   3.830   1.178   8.208  0.8977  0.5572  0.8130
 3732SOL    HW222656   3.832   1.282   8.104  1.5961  0.3052 -0.2684
 3733SOL     OW22657   0.853   3.482   6.642  0.2715  0.3775 -0.0481
 3733SOL    HW122658   0.855   3.575   6.617 -1.9793  0.2200 -0.7465
 3733SOL    HW222659   0.948   3.468   6.636  0.4786  1.2004  1.3097
 3734SOL     OW22660   4.572   4.445   2.926 -0.0872  0.0387  0.2006
 3734SOL    HW122661   4.629   4.445   2.849  0.0797 -0.3525  0.3234
 3734SOL    HW222662   4.560   4.350   2.937  1.2985 -0.4538 -2.5460
 3735SOL     OW22663   2.238   2.890   4.977 -0.1101 -0.5167 -0.0122
 3735SOL    HW122664   2.301   2.832   5.021  0.9529 -0.3246 -1.2973
 3735SOL    HW222665   2.257   2.869   4.886 -0.2154 -1.2857  0.1399
 3736SOL     OW22666   0.813   3.905   3.801  0.3848 -0.1142 -0.1962
 3736SOL    HW122667   0.908   3.894   3.797  0.4200  0.9763 -2.2121
 3736SOL    HW222668   0.789   3.826   3.849  0.8037 -0.4411 -0.5161
 3737SOL     OW22669   2.235   2.784  13.062  0.0003 -0.0037  0.1074
 3737SOL    HW122670   2.282   2.766  12.980  1.3243 -0.3674  0.9405
 3737SOL    HW222671   2.192   2.700  13.079  3.9390 -1.8427  1.1795
 3738SOL     OW22672   0.910   2.889  13.924 -0.3521 -0.1909 -0.8040
 3738SOL    HW122673   0.952   2.832  13.859 -1.8741 -2.0973 -0.1181
 3738SOL    HW222674   0.935   2.841  14.003  0.5235 -1.0431 -1.5893
 3739SOL     OW22675   0.490   0.554  10.010 -0.1569 -0.1085  0.0368
 3739SOL    HW122676   0.515   0.465  10.036  1.7134  0.0046 -1.4008
 3739SOL    HW222677   0.438   0.526   9.934  0.7734 -2.1406  0.1326
 3740SOL     OW22678   4.371   1.249   9.403 -0.0147 -0.0753 -0.1098
 3740SOL    HW122679   4.309   1.271   9.334 -1.3333  0.2945  1.1887
 3740SOL    HW222680   4.431   1.319   9.376 -0.5321  1.7761  3.4868
 3741SOL     OW22681   4.042   2.012   5.911 -0.2381 -0.3130 -0.3743
 3741SOL    HW122682   4.046   1.933   5.857 -1.7768 -1.4274  1.1807
 3741SOL    HW222683   4.066   1.976   5.996 -1.3400 -1.7146 -0.6775
 3742SOL     OW22684   0.985   1.842   4.979 -0.9516  0.7395  0.0661
 3742SOL    HW122685   1.044   1.782   5.024 -0.5546  0.1963 -1.2023
 3742SOL    HW222686   1.015   1.837   4.888  0.5356  0.4081  0.5820
 3743SOL     OW22687   0.198   0.762   2.444  0.0091  0.1644 -1.5968
 3743SOL    HW122688   0.188   0.781   2.537  0.0986 -2.7258 -0.9953
 3743SOL    HW222689   0.246   0.680   2.451 -0.7659 -0.0710  0.9503
 3744SOL     OW22690   4.466   2.466  11.802 -0.0692  0.6146  0.1985
 3744SOL    HW122691   4.394   2.519  11.835  0.8760 -0.3317  3.7926
 3744SOL    HW222692   4.448   2.389  11.855 -3.6642  0.7618 -0.8289
 3745SOL     OW22693   1.096   1.101   2.593  0.6414  0.5860  0.0465
 3745SOL    HW122694   1.030   1.053   2.644 -0.3091  0.9080 -0.8885
 3745SOL    HW222695   1.054   1.187   2.592  1.0857  0.7816 -0.8959
 3746SOL     OW22696   4.556   4.034   8.586 -0.5405 -0.4043  0.2433
 3746SOL    HW122697   4.583   3.967   8.522  0.0957  2.6585 -2.6916
 3746SOL    HW222698   4.517   4.102   8.531 -0.3989 -2.8150 -2.8547
 3747SOL     OW22699   1.264   2.009   8.273  0.0629  0.6132 -0.2754
 3747SOL    HW122700   1.211   1.963   8.208  1.6002  1.1765 -1.9058
 3747SOL    HW222701   1.296   1.937   8.328 -1.7821  1.1496  1.5117
 3748SOL     OW22702   2.577   1.171  12.403  0.1936 -0.1463  0.5100
 3748SOL    HW122703   2.561   1.245  12.462 -0.7632 -0.3778  0.5489
 3748SOL    HW222704   2.492   1.163  12.358  0.7831 -1.6053 -0.3577
 3749SOL     OW22705   0.580   1.869  12.965 -0.2469  0.2196  0.1285
 3749SOL    HW122706   0.575   1.889  12.872 -0.3747 -0.5446 -0.0266
 3749SOL    HW222707   0.647   1.801  12.977  1.8652  2.3194  0.0844
 3750SOL     OW22708   1.006   1.538  12.277  0.4849  0.6229  0.1843
 3750SOL    HW122709   1.020   1.632  12.269  0.4763  0.7889  2.2896
 3750SOL    HW222710   0.991   1.536  12.371 -2.2049  0.4029 -0.2371
 3751SOL     OW22711   0.352   2.119   8.186 -0.8112  0.2294 -0.2354
 3751SOL    HW122712   0.313   2.188   8.239  1.2397  1.1731  0.0411
 3751SOL    HW222713   0.391   2.167   8.113 -1.4891 -0.1937 -0.8802
 3752SOL     OW22714   2.599   0.352   9.688 -0.3627 -0.2673 -0.1371
 3752SOL    HW122715   2.526   0.340   9.748  0.2736  0.5757  0.8189
 3752SOL    HW222716   2.569   0.429   9.641  1.5615 -0.4082 -1.6500
 3753SOL     OW22717   4.345   3.664  15.426  0.4213 -0.1759  0.1607
 3753SOL    HW122718   4.324   3.713  15.347 -0.3644  1.5067  1.3976
 3753SOL    HW222719   4.261   3.618  15.426  0.1472  0.3383 -1.8506
 3754SOL     OW22720   0.994   4.401   9.486  0.0614 -0.0752  0.1239
 3754SOL    HW122721   1.021   4.401   9.577 -1.7594 -0.7441  0.6652
 3754SOL    HW222722   1.006   4.306   9.478  1.4947  0.1713 -0.6376
 3755SOL     OW22723   3.873   0.960   1.561  0.2335 -0.1041  0.3922
 3755SOL    HW122724   3.897   0.933   1.650 -1.5425 -1.1720  0.5340
 3755SOL    HW222725   3.796   0.905   1.546 -0.4060  1.0997 -0.7324
 3756SOL     OW22726   2.467   3.767   6.559 -0.4810  0.1059  0.3007
 3756SOL    HW122727   2.407   3.709   6.606 -2.1757  2.3356  0.9013
 3756SOL    HW222728   2.445   3.851   6.599 -0.9463 -0.8116  1.9535
 3757SOL     OW22729   4.258   2.968   9.217 -0.1456  0.1234  0.8243
 3757SOL    HW122730   4.335   3.024   9.211 -1.6950  2.2117  0.5726
 3757SOL    HW222731   4.292   2.900   9.159  0.0170  1.3656 -0.5630
 3758SOL     OW22732   0.008   1.568  12.760 -0.7884 -0.0687 -0.1484
 3758SOL    HW122733   4.711   1.480  12.727 -1.0797 -0.3119  0.6898
 3758SOL    HW222734   4.710   1.562  12.852 -0.5315 -1.6193 -0.1685
 3759SOL     OW22735   1.572   4.691   2.951  0.9640  0.4975 -0.2395
 3759SOL    HW122736   1.575   4.607   2.996  0.9254  0.9173  0.5490
 3759SOL    HW222737   1.653   0.001   2.988  1.2599 -0.2128 -0.2119
 3760SOL     OW22738   2.151   4.370   8.039  0.0864  0.5724 -0.2925
 3760SOL    HW122739   2.177   4.416   7.959 -0.1295 -0.4512 -0.9379
 3760SOL    HW222740   2.095   4.314   7.986 -0.5957  1.0393 -0.0661
 3761SOL     OW22741   0.348   2.357   8.394 -0.2717 -0.2596 -0.1652
 3761SOL    HW122742   0.438   2.375   8.420 -0.4121  1.4060 -0.8022
 3761SOL    HW222743   0.298   2.425   8.441  1.4199 -0.4093  1.8318
 3762SOL     OW22744   2.751   1.246  11.163  0.2806 -0.2542  0.3079
 3762SOL    HW122745   2.682   1.185  11.135  1.2567 -1.3782  0.3621
 3762SOL    HW222746   2.804   1.188  11.216  1.5595  0.9365  0.3129
 3763SOL     OW22747   3.685   2.156   3.634  0.1977  0.1178 -0.0131
 3763SOL    HW122748   3.595   2.170   3.663 -1.2366  0.0264 -4.4194
 3763SOL    HW222749   3.703   2.225   3.570  0.4545 -0.4872 -0.6012
 3764SOL     OW22750   3.078   3.633   3.776 -0.5263  0.0069 -0.0771
 3764SOL    HW122751   3.034   3.623   3.691 -2.9887 -0.9317  1.2876
 3764SOL    HW222752   3.010   3.642   3.843  1.2135  0.8543  1.5708
 3765SOL     OW22753   2.633   0.395   8.801 -0.1351 -0.1303  0.0655
 3765SOL    HW122754   2.540   0.369   8.800 -0.1768 -0.0163  1.2244
 3765SOL    HW222755   2.662   0.369   8.714  3.1151 -1.0051  1.4192
 3766SOL     OW22756   2.911   0.989   4.189 -0.6450  0.1724  0.7326
 3766SOL    HW122757   2.968   1.066   4.188 -0.9886  0.3705 -2.0118
 3766SOL    HW222758   2.955   0.924   4.133  0.0233  0.5385  0.8285
 3767SOL     OW22759   2.682   1.425   5.938  0.4210  0.4918 -0.2869
 3767SOL    HW122760   2.705   1.350   5.993  1.3976  0.7156 -0.3846
 3767SOL    HW222761   2.600   1.452   5.981  0.1855  1.0987 -1.1234
 3768SOL     OW22762   4.483   1.410   8.123  0.3089 -0.6142 -0.3297
 3768SOL    HW122763   4.497   1.486   8.180 -0.3607 -0.2876 -0.6010
 3768SOL    HW222764   4.543   1.424   8.050  0.3534 -1.0169 -0.3705
 3769SOL     OW22765   2.309   1.628   0.312 -0.1555  0.4501 -0.1025
 3769SOL    HW122766   2.304   1.697   0.245 -2.0226 -0.6895 -1.1340
 3769SOL    HW222767   2.244   1.570   0.274 -0.2612  0.8713 -0.5594
 3770SOL     OW22768   4.700   1.651   2.070 -0.0110 -0.1437  0.3042
 3770SOL    HW122769   0.065   1.669   2.095  0.2219  0.3676 -0.8939
 3770SOL    HW222770   4.671   1.728   2.021 -0.6562 -2.0266 -2.3264
 3771SOL     OW22771   0.812   2.852  17.650 -0.0059 -0.0746  0.3109
 3771SOL    HW122772   0.892   2.812  17.683  0.4774  0.8259  0.2165
 3771SOL    HW222773   0.837   2.941  17.628 -0.5976  0.1060  0.3674
 3772SOL     OW22774   2.416   2.757   3.881  0.0000 -0.7871 -0.3231
 3772SOL    HW122775   2.436   2.666   3.901  0.9361  0.0965  2.7471
 3772SOL    HW222776   2.469   2.766   3.802  0.6733  3.5833  0.6091
 3773SOL     OW22777   0.188   4.362   4.459  0.0277  0.6114  0.4681
 3773SOL    HW122778   0.241   4.431   4.419 -0.4685  2.1266  2.4029
 3773SOL    HW222779   0.246   4.317   4.521 -1.1614 -0.4618  0.7896
 3774SOL     OW22780   3.109   0.185  11.883 -0.0727 -0.2690  0.2765
 3774SOL    HW122781   3.199   0.156  11.871  0.8077  1.5322  2.5698
 3774SOL    HW222782   3.114   0.270  11.840 -1.0709 -0.0559  0.5738
 3775SOL     OW22783   0.783   3.669  11.158  0.6806 -0.3064 -0.0664
 3775SOL    HW122784   0.879   3.667  11.152  0.5336  2.1202 -3.5660
 3775SOL    HW222785   0.773   3.578  11.131 -2.4113 -0.1681  0.6086
 3776SOL     OW22786   3.379   3.185   4.814  0.1131 -0.0167  0.4214
 3776SOL    HW122787   3.466   3.157   4.842  0.7662  0.6789 -0.9272
 3776SOL    HW222788   3.404   3.277   4.808 -1.9508  0.4537 -1.1639
 3777SOL     OW22789   0.936   4.203   5.553 -0.2153 -0.3960 -0.1009
 3777SOL    HW122790   0.930   4.297   5.572  1.7506  0.2278 -2.4427
 3777SOL    HW222791   1.024   4.189   5.518  0.0372  1.1374 -0.1029
 3778SOL     OW22792   1.004   0.935   2.960  0.0340 -0.2989 -0.1500
 3778SOL    HW122793   1.038   1.024   2.960  1.4870 -0.8321  1.4914
 3778SOL    HW222794   0.941   0.957   2.892  1.2843 -2.6717 -2.0876
 3779SOL     OW22795   4.408   2.889   5.842 -0.4543  0.2292  0.0723
 3779SOL    HW122796   4.470   2.950   5.802  1.1290 -0.8221  0.9596
 3779SOL    HW222797   4.335   2.951   5.850 -1.0810 -0.5231  0.1238
 3780SOL     OW22798   2.357   2.679   7.545 -0.0283  0.0985  0.3731
 3780SOL    HW122799   2.271   2.659   7.508 -0.0863  0.0743  0.5212
 3780SOL    HW222800   2.409   2.603   7.519  0.2488  0.7625 -1.0202
 3781SOL     OW22801   0.314   0.165  11.445  0.0314  0.2171 -0.3972
 3781SOL    HW122802   0.224   0.157  11.414  0.3360 -1.7519 -0.7539
 3781SOL    HW222803   0.308   0.233  11.512  0.6678 -0.0930 -0.0310
 3782SOL     OW22804   4.043   1.744   5.800 -0.2578  0.3311  0.5020
 3782SOL    HW122805   3.953   1.741   5.768  0.1873  0.4615 -0.7437
 3782SOL    HW222806   4.021   1.685   5.872  1.6940 -1.4907 -0.4165
 3783SOL     OW22807   1.310   3.120  14.002 -0.4653 -0.3923 -0.1614
 3783SOL    HW122808   1.283   3.032  13.976 -0.6204 -0.0388 -1.1758
 3783SOL    HW222809   1.352   3.096  14.085 -0.8848  2.7167  0.9297
 3784SOL     OW22810   3.513   4.080  11.933  0.7893 -0.4289 -0.0252
 3784SOL    HW122811   3.609   4.082  11.938  0.6689  1.9228  1.3326
 3784SOL    HW222812   3.498   4.006  11.991  0.9108  1.0263  1.8627
 3785SOL     OW22813   2.662   1.862   1.530  0.1828 -0.1421  0.3686
 3785SOL    HW122814   2.583   1.876   1.584  2.1135 -0.5884  3.3147
 3785SOL    HW222815   2.614   1.826   1.456  2.6484 -1.5985 -0.4866
 3786SOL     OW22816   4.229   1.923   0.681 -0.3141 -0.0838 -0.2921
 3786SOL    HW122817   4.166   1.883   0.741 -0.3604 -0.4528 -0.5858
 3786SOL    HW222818   4.288   1.849   0.672  1.2470  0.9367  1.5152
 3787SOL     OW22819   2.203   2.019  14.169  0.5549 -0.0530  0.2713
 3787SOL    HW122820   2.202   1.933  14.126  0.3607 -0.4732  1.1252
 3787SOL    HW222821   2.274   2.070  14.128  0.9011  0.0542  1.0019
 3788SOL     OW22822   4.178   3.125   2.487 -0.3961 -0.2066 -0.0947
 3788SOL    HW122823   4.248   3.140   2.551  0.7489 -2.4866 -0.7960
 3788SOL    HW222824   4.184   3.207   2.438 -0.8149  0.2889  0.6806
 3789SOL     OW22825   2.780   0.229  13.071  0.5227  0.0903  0.2564
 3789SOL    HW122826   2.752   0.165  13.006 -1.0752  2.1691 -1.0698
 3789SOL    HW222827   2.723   0.300  13.042 -1.2594 -0.7376  1.7321
 3790SOL     OW22828   1.163   3.082   8.042  0.2565  0.0486 -0.2729
 3790SOL    HW122829   1.189   3.144   7.974  1.7366 -2.4553 -1.9732
 3790SOL    HW222830   1.227   3.081   8.114  0.3993  0.0394 -0.4007
 3791SOL     OW22831   3.986   0.841   9.543  0.1106  0.5272 -0.0026
 3791SOL    HW122832   3.915   0.832   9.479  1.9309 -0.8615 -1.8335
 3791SOL    HW222833   4.010   0.933   9.537 -0.3488  0.6195 -0.4004
 3792SOL     OW22834   2.052   0.693  11.609 -0.4311  0.0947  0.3179
 3792SOL    HW122835   2.095   0.665  11.528 -0.2823  0.6496  0.2042
 3792SOL    HW222836   2.132   0.710  11.659  0.9451 -0.3014 -1.7486
 3793SOL     OW22837   0.854   3.058   9.439 -0.5887  0.3268 -0.8373
 3793SOL    HW122838   0.803   2.983   9.468 -0.6988  0.5925 -0.3437
 3793SOL    HW222839   0.934   3.047   9.490 -0.1895  1.5991 -1.2026
 3794SOL     OW22840   3.012   3.197   8.565  0.7011  0.1312 -0.1031
 3794SOL    HW122841   2.979   3.284   8.586 -0.7624 -0.8965  1.8541
 3794SOL    HW222842   3.032   3.207   8.472  1.4617 -1.5134 -0.1214
 3795SOL     OW22843   0.595   0.176   2.867  0.5214 -0.0302 -0.3015
 3795SOL    HW122844   0.500   0.167   2.876  0.4613  0.3392 -0.6004
 3795SOL    HW222845   0.611   0.083   2.882  0.8583  0.6302  3.4123
 3796SOL     OW22846   0.541   0.794   4.261  0.4862 -0.6622 -0.6071
 3796SOL    HW122847   0.517   0.765   4.173  1.8662  0.4876 -1.3549
 3796SOL    HW222848   0.491   0.876   4.252  1.3705 -0.4882 -4.0837
 3797SOL     OW22849   2.800   0.865   1.741  0.1147 -0.4290 -0.0995
 3797SOL    HW122850   2.709   0.887   1.761 -0.4712 -0.3136 -2.9259
 3797SOL    HW222851   2.815   0.914   1.660  2.1401 -0.0414  0.5061
 3798SOL     OW22852   3.726   1.994  11.121 -0.2482 -0.4862  0.3818
 3798SOL    HW122853   3.712   2.047  11.199 -0.4778 -1.7723  1.2123
 3798SOL    HW222854   3.797   1.940  11.154  1.7918  1.9527  0.0215
 3799SOL     OW22855   3.606   3.038   4.942  0.0688  0.0259 -0.3495
 3799SOL    HW122856   3.633   2.987   5.018  0.9921 -0.1631 -0.8043
 3799SOL    HW222857   3.589   2.973   4.874 -2.1990 -0.5471  0.7463
 3800SOL     OW22858   2.957   0.333   8.355  0.0927 -0.1591 -0.1507
 3800SOL    HW122859   2.879   0.311   8.305  0.0626  0.0620 -0.2020
 3800SOL    HW222860   2.947   0.271   8.427  2.3300 -2.0013 -1.4041
 3801SOL     OW22861   2.561   2.328   0.967 -0.0525 -0.3275 -0.1132
 3801SOL    HW122862   2.629   2.262   0.981 -0.4619 -0.6476  0.3581
 3801SOL    HW222863   2.623   2.399   0.947  0.8420 -1.5036 -1.5062
 3802SOL     OW22864   0.467   3.075   8.943  0.2733 -0.0043 -0.6569
 3802SOL    HW122865   0.457   3.170   8.950 -1.5205 -0.2325 -0.2545
 3802SOL    HW222866   0.562   3.067   8.932  0.5380  3.1425 -0.5780
 3803SOL     OW22867   0.920   2.732  15.164  0.0753  0.4569 -0.7608
 3803SOL    HW122868   0.917   2.728  15.259  0.7528 -1.9693 -0.8356
 3803SOL    HW222869   0.861   2.661  15.138  1.1043  0.2356 -2.5036
 3804SOL     OW22870   3.424   1.578  16.310 -0.0439 -0.0123 -0.3677
 3804SOL    HW122871   3.506   1.605  16.267  0.3935  2.9830  2.3877
 3804SOL    HW222872   3.387   1.529  16.237  1.3672  2.0766 -2.4965
 3805SOL     OW22873   1.201   1.776  16.078  0.7625  0.4221  0.5113
 3805SOL    HW122874   1.111   1.806  16.090  0.6970  0.3222  0.2718
 3805SOL    HW222875   1.175   1.685  16.064  2.1056  0.2665 -1.0572
 3806SOL     OW22876   0.494   0.642   2.899 -0.2216  0.5344  0.5494
 3806SOL    HW122877   0.453   0.572   2.949  4.1538 -0.8188  2.2439
 3806SOL    HW222878   0.420   0.702   2.908 -1.1855 -0.5103 -0.3279
 3807SOL     OW22879   3.948   3.267   2.879  0.4006  0.4015  0.0964
 3807SOL    HW122880   3.971   3.174   2.889  0.9626  0.3900 -1.3309
 3807SOL    HW222881   3.865   3.263   2.832 -0.5545  0.7005  1.7460
 3808SOL     OW22882   2.008   3.656   7.339 -0.6046  0.3010 -0.5254
 3808SOL    HW122883   1.933   3.626   7.287  0.3503 -1.9706 -0.6143
 3808SOL    HW222884   1.974   3.725   7.395  1.8397 -0.3993  1.8413
 3809SOL     OW22885   2.746   1.771   8.551  0.0601 -0.0562 -0.1878
 3809SOL    HW122886   2.758   1.762   8.457  0.0134  2.4063 -0.4328
 3809SOL    HW222887   2.714   1.684   8.574 -2.1144  0.2089 -2.2744
 3810SOL     OW22888   0.376   0.834  13.069 -0.3191 -0.0379 -0.2113
 3810SOL    HW122889   0.374   0.769  12.998  0.0075  0.7539 -0.9547
 3810SOL    HW222890   0.284   0.828  13.091 -0.0313 -2.5162  0.3188
 3811SOL     OW22891   1.254   3.299   4.353 -0.4170  0.3042 -0.3991
 3811SOL    HW122892   1.310   3.377   4.350 -0.0986  0.1393  1.5939
 3811SOL    HW222893   1.171   3.341   4.373 -1.9823 -3.6878  1.4435
 3812SOL     OW22894   4.531   1.463   5.510  0.1624  0.0095 -0.1152
 3812SOL    HW122895   4.510   1.502   5.595 -0.0965 -1.0095  0.2888
 3812SOL    HW222896   4.511   1.373   5.535 -2.7261  0.0615 -2.1225
 3813SOL     OW22897   2.889   4.091  11.156  0.2275 -0.3391  0.1721
 3813SOL    HW122898   2.835   4.100  11.234  1.2049  0.2942  0.7619
 3813SOL    HW222899   2.976   4.073  11.190  1.0786 -0.7176 -2.1777
 3814SOL     OW22900   1.457   4.219   0.248  0.0026  0.5528  0.0223
 3814SOL    HW122901   1.501   4.303   0.241 -0.3140  0.6636 -0.7082
 3814SOL    HW222902   1.422   4.216   0.337  2.2287 -1.9790  0.8056
 3815SOL     OW22903   4.720   2.912   6.460 -0.0509  0.0031  0.0857
 3815SOL    HW122904   0.002   2.986   6.519 -0.1590  0.4312 -0.4389
 3815SOL    HW222905   0.044   2.846   6.509 -0.3022 -1.3567 -1.4839
 3816SOL     OW22906   4.105   2.184   2.662  0.3932  0.9067 -0.2461
 3816SOL    HW122907   4.037   2.181   2.595 -0.9462  0.9541  1.1040
 3816SOL    HW222908   4.062   2.246   2.722  0.5793  0.0231  0.7949
 3817SOL     OW22909   0.422   2.482  10.916 -0.0778 -0.3131 -0.0018
 3817SOL    HW122910   0.410   2.572  10.946  0.6582 -0.8322  1.8398
 3817SOL    HW222911   0.485   2.448  10.979 -0.7586 -0.2592  0.7071
 3818SOL     OW22912   1.031   2.706   7.529 -0.4824 -0.1476  0.2389
 3818SOL    HW122913   0.945   2.736   7.499  0.9423  2.1841 -1.4211
 3818SOL    HW222914   1.068   2.779   7.577  0.3760 -0.9670  0.8225
 3819SOL     OW22915   1.893   2.389   2.730  0.1507 -0.2392  0.5614
 3819SOL    HW122916   1.863   2.454   2.667 -0.0803 -1.4622 -0.5957
 3819SOL    HW222917   1.981   2.377   2.694 -0.1020 -0.7725  0.1127
 3820SOL     OW22918   4.229   4.013   3.890  0.3505 -0.1448 -0.4768
 3820SOL    HW122919   4.276   3.945   3.939  0.6886  0.1195 -0.4395
 3820SOL    HW222920   4.256   4.093   3.935  0.6308 -0.1831 -0.5792
 3821SOL     OW22921   0.261   2.666   3.961 -0.0035  0.2994  0.4102
 3821SOL    HW122922   0.187   2.647   3.903  0.5796  0.3238 -0.3581
 3821SOL    HW222923   0.318   2.589   3.947 -0.0085  0.6772 -1.7836
 3822SOL     OW22924   0.572   1.387   2.326 -0.3344  0.5245 -0.1439
 3822SOL    HW122925   0.586   1.433   2.244 -0.4109 -0.3144 -0.6317
 3822SOL    HW222926   0.477   1.399   2.320 -0.6478 -1.4822  0.5506
 3823SOL     OW22927   2.112   1.930   7.374  0.4145 -0.3490  0.4243
 3823SOL    HW122928   2.094   1.923   7.281  1.2458  0.5454  0.1952
 3823SOL    HW222929   2.202   1.897   7.374  0.7153  0.5133 -2.1946
 3824SOL     OW22930   3.122   2.035   6.977 -0.1360 -0.1315  0.3114
 3824SOL    HW122931   3.217   2.041   6.967 -0.3681 -0.1707 -1.8130
 3824SOL    HW222932   3.100   2.127   6.970  1.5958  0.2627  0.2470
 3825SOL     OW22933   3.543   0.240  10.303 -0.4809  0.6752 -0.0884
 3825SOL    HW122934   3.537   0.328  10.340 -0.0560  1.6338 -2.3346
 3825SOL    HW222935   3.471   0.210  10.358  0.4824 -1.1303  0.1822
 3826SOL     OW22936   4.037   0.080   9.567 -0.0658  0.3397 -0.7015
 3826SOL    HW122937   4.075   4.721   9.543 -1.2472 -0.6378  0.8166
 3826SOL    HW222938   4.117   0.130   9.587  0.1525  0.2896 -1.4427
 3827SOL     OW22939   1.097   3.738   7.295  0.3738  0.4726  0.0998
 3827SOL    HW122940   1.050   3.670   7.247  0.0390  0.7571  0.0246
 3827SOL    HW222941   1.038   3.749   7.369  1.0313  2.0852  0.3909
 3828SOL     OW22942   0.752   2.106   0.702 -0.3174  0.1481  0.5560
 3828SOL    HW122943   0.736   2.045   0.630 -3.0059 -2.0254  2.9867
 3828SOL    HW222944   0.845   2.128   0.696 -0.8446  2.0235 -0.5623
 3829SOL     OW22945   1.307   1.010   4.655 -0.1926 -0.5004  0.1521
 3829SOL    HW122946   1.222   1.003   4.610  0.9559  0.2128 -2.0997
 3829SOL    HW222947   1.345   0.925   4.632  0.4396  0.7193 -3.3334
 3830SOL     OW22948   1.547   3.556   9.140  0.3195 -0.0340  0.0734
 3830SOL    HW122949   1.544   3.611   9.218 -0.0671 -0.9970  0.7320
 3830SOL    HW222950   1.478   3.490   9.145  0.6753 -0.5513 -1.9298
 3831SOL     OW22951   0.439   3.812   7.253 -0.3717  0.6565  0.3603
 3831SOL    HW122952   0.366   3.832   7.194 -0.4513 -0.2648  0.1425
 3831SOL    HW222953   0.507   3.873   7.226 -0.8607  0.5112 -1.2083
 3832SOL     OW22954   3.326   3.228   6.164 -0.2733 -0.0607  0.0575
 3832SOL    HW122955   3.344   3.159   6.228  1.8856 -0.0032 -0.4842
 3832SOL    HW222956   3.271   3.178   6.104  2.3575  0.6472 -2.9145
 3833SOL     OW22957   1.789   0.565   3.547 -0.4668 -0.5631 -0.1612
 3833SOL    HW122958   1.811   0.487   3.599 -1.3962 -0.3996  0.4783
 3833SOL    HW222959   1.770   0.525   3.462 -2.5749  2.0568 -0.9109
 3834SOL     OW22960   4.583   3.061  15.108  0.3236  0.2861 -0.2936
 3834SOL    HW122961   4.625   3.145  15.126 -3.0724  1.5980  1.5089
 3834SOL    HW222962   4.652   2.998  15.129  0.2699  1.1749  2.5621
 3835SOL     OW22963   3.414   0.220  12.662  0.2613 -0.1151  0.3191
 3835SOL    HW122964   3.421   0.168  12.742  1.8008  1.1503  1.0232
 3835SOL    HW222965   3.335   0.272  12.677 -0.6533 -0.9810 -1.5358
 3836SOL     OW22966   0.309   0.767   3.831 -0.0288  0.4096 -0.0621
 3836SOL    HW122967   0.328   0.846   3.780 -0.5960  2.1821  2.4648
 3836SOL    HW222968   0.330   0.712   3.756 -0.1624 -0.9841  0.9157
 3837SOL     OW22969   1.320   4.249   8.324  0.6180 -0.8974 -0.7287
 3837SOL    HW122970   1.331   4.340   8.352 -0.4768 -0.4239 -1.8749
 3837SOL    HW222971   1.228   4.247   8.298  0.8187  0.6230 -1.5655
 3838SOL     OW22972   0.216   0.131   6.046 -0.5447  0.0111  0.0120
 3838SOL    HW122973   0.145   0.148   6.107  0.4251  0.0193  1.1358
 3838SOL    HW222974   0.252   0.217   6.025 -3.1722  1.4592  1.5408
 3839SOL     OW22975   4.386   1.612  13.222 -0.4849  0.0865  0.1853
 3839SOL    HW122976   4.390   1.673  13.296  1.4826  2.0763 -1.5609
 3839SOL    HW222977   4.380   1.528  13.268  1.8462  2.1462  4.2439
 3840SOL     OW22978   0.572   2.529   5.253 -0.8085 -0.5769 -0.1254
 3840SOL    HW122979   0.583   2.593   5.183 -2.1677  0.9966  1.0911
 3840SOL    HW222980   0.628   2.562   5.323  2.3245 -0.8157 -2.5354
 3841SOL     OW22981   0.952   4.107   7.027  1.0342 -0.5212 -0.6613
 3841SOL    HW122982   0.967   4.197   6.997 -1.0745 -0.2205 -0.8594
 3841SOL    HW222983   0.857   4.094   7.023  0.8664  0.7771 -0.8977
 3842SOL     OW22984   4.702   4.190   6.083 -0.2171 -0.1401 -0.0482
 3842SOL    HW122985   0.034   4.159   6.013  0.8213 -0.3171  0.8781
 3842SOL    HW222986   0.044   4.231   6.137 -0.2717 -1.1819  0.8112
 3843SOL     OW22987   1.784   2.895   4.352  0.6225 -0.0422  0.4274
 3843SOL    HW122988   1.764   2.812   4.309  3.3051 -0.1722 -0.5963
 3843SOL    HW222989   1.840   2.866   4.425 -0.5228  0.2099  1.3995
 3844SOL     OW22990   1.887   1.657   7.085 -0.0860 -0.5202 -0.2971
 3844SOL    HW122991   1.899   1.610   7.002  0.0830 -1.8267  0.4598
 3844SOL    HW222992   1.969   1.630   7.128 -0.6636 -1.9369 -0.0734
 3845SOL     OW22993   2.809   1.085   7.073  0.1361  0.4224  0.1869
 3845SOL    HW122994   2.777   1.138   7.000 -2.6174 -1.1123  0.2793
 3845SOL    HW222995   2.821   1.004   7.024  2.9293  0.6185  0.5610
 3846SOL     OW22996   1.888   0.267   4.912  0.1548 -0.1585  0.3122
 3846SOL    HW122997   1.819   0.226   4.965 -0.2399  0.1153  0.0094
 3846SOL    HW222998   1.836   0.336   4.871 -0.2939 -0.0362  1.0824
 3847SOL     OW22999   4.094   3.318   2.136  0.9505  0.3328 -0.2144
 3847SOL    HW123000   4.010   3.273   2.150  1.1701  0.1446  0.4639
 3847SOL    HW223001   4.098   3.374   2.213  0.5948  0.7670 -0.5139
 3848SOL     OW23002   2.782   2.877   8.077  0.0041 -0.2212 -0.1931
 3848SOL    HW123003   2.720   2.939   8.038 -0.4147 -0.5984 -0.1236
 3848SOL    HW223004   2.746   2.791   8.057  1.1019 -0.9252  0.8271
 3849SOL     OW23005   3.234   1.452   5.487 -0.2013  0.6504 -0.2166
 3849SOL    HW123006   3.151   1.429   5.445 -0.3001  0.0132  0.3265
 3849SOL    HW223007   3.220   1.531   5.538  1.0701  0.1959  0.8419
 3850SOL     OW23008   0.699   1.725  17.186  0.4353 -0.0974 -0.1613
 3850SOL    HW123009   0.723   1.768  17.103 -0.3106  1.9388  0.6829
 3850SOL    HW223010   0.625   1.675  17.153  0.0466 -1.0162  2.1272
 3851SOL     OW23011   1.310   0.305   8.659  0.0632  0.7283  0.5389
 3851SOL    HW123012   1.256   0.274   8.587  1.6240 -0.2827 -0.1842
 3851SOL    HW223013   1.240   0.318   8.724  0.4239  0.0027  1.0675
 3852SOL     OW23014   4.129   0.013   2.175 -0.3676  0.1287 -0.2686
 3852SOL    HW123015   4.221   0.015   2.202  0.2678  0.2083 -2.4975
 3852SOL    HW223016   4.116   0.106   2.190  1.8473 -0.0199  2.6022
 3853SOL     OW23017   0.907   4.697   8.282 -0.4627 -0.2068 -0.1934
 3853SOL    HW123018   0.885   0.057   8.244 -1.7999 -0.3123  0.3657
 3853SOL    HW223019   0.822   4.655   8.286 -0.7451  0.5480  2.2903
 3854SOL     OW23020   0.595   1.613  12.649  0.4357 -0.0252 -0.7515
 3854SOL    HW123021   0.606   1.702  12.684 -0.7733 -0.1097 -0.1835
 3854SOL    HW223022   0.560   1.568  12.725 -0.1763  1.4018 -0.1882
 3855SOL     OW23023   3.063   1.730  12.359 -0.6846 -0.1884 -0.7855
 3855SOL    HW123024   3.090   1.727  12.267  0.4435  2.2172 -0.5220
 3855SOL    HW223025   3.099   1.646  12.388 -0.9182 -0.4101 -1.1299
 3856SOL     OW23026   3.802   1.918   4.173 -0.0802  0.1933 -0.6486
 3856SOL    HW123027   3.853   1.842   4.143 -2.2131 -1.3046 -0.4690
 3856SOL    HW223028   3.798   1.964   4.090 -1.0002 -0.6542 -1.0703
 3857SOL     OW23029   0.864   0.209   5.430  0.1911  0.1510 -0.0332
 3857SOL    HW123030   0.829   0.247   5.350 -2.3991 -1.3111  0.3708
 3857SOL    HW223031   0.950   0.250   5.426 -0.8636  2.2700 -1.0674
 3858SOL     OW23032   0.348   2.634   5.784 -0.3019  0.0560 -0.5054
 3858SOL    HW123033   0.263   2.639   5.829  0.2853  1.7596  0.4151
 3858SOL    HW223034   0.408   2.668   5.850 -1.3738 -0.7836  0.9188
 3859SOL     OW23035   3.839   4.644   7.516  0.3750 -0.3988  0.2901
 3859SOL    HW123036   3.889   4.648   7.434  2.0435 -1.7951  1.2418
 3859SOL    HW223037   3.773   4.576   7.501 -0.0837  0.0317  0.3452
 3860SOL     OW23038   0.774   0.263   9.002 -0.4965 -0.0039 -0.0626
 3860SOL    HW123039   0.695   0.262   9.057  1.2039  2.4338  2.4088
 3860SOL    HW223040   0.806   0.353   9.001  3.2348 -1.3236 -0.3779
 3861SOL     OW23041   0.369   4.136   5.064  0.0314  0.0363 -0.2394
 3861SOL    HW123042   0.398   4.062   5.117  0.4197  0.5746  0.2892
 3861SOL    HW223043   0.278   4.106   5.072  0.1536 -0.9513 -2.4787
 3862SOL     OW23044   3.695   3.923   9.876  0.0033  0.5875  0.3652
 3862SOL    HW123045   3.668   3.975   9.952 -2.0021 -0.3092  0.2529
 3862SOL    HW223046   3.782   3.959   9.858  0.0243 -0.0369 -0.7507
 3863SOL     OW23047   3.153   0.306   4.810 -0.1412 -1.3178  0.3622
 3863SOL    HW123048   3.122   0.334   4.724  2.0789 -0.1207 -0.0560
 3863SOL    HW223049   3.193   0.225   4.778  1.3236 -0.3134 -0.3605
 3864SOL     OW23050   1.866   1.672  11.346 -0.8056  0.0723  0.8264
 3864SOL    HW123051   1.899   1.677  11.436 -0.1082 -1.9584  0.6975
 3864SOL    HW223052   1.781   1.633  11.364 -0.8031  0.8704  2.6535
 3865SOL     OW23053   2.975   2.918  13.477  0.1441 -0.4779 -0.0949
 3865SOL    HW123054   3.005   2.996  13.430 -1.7863  1.2214  1.4920
 3865SOL    HW223055   3.042   2.851  13.458 -0.5526 -1.1180 -0.2900
 3866SOL     OW23056   2.709   0.565   8.532 -0.6343  0.1214 -0.1241
 3866SOL    HW123057   2.650   0.501   8.492  0.9576 -0.9114 -0.7722
 3866SOL    HW223058   2.797   0.531   8.517 -0.5360  0.0054  0.7543
 3867SOL     OW23059   1.865   4.454  15.975  0.2048 -0.4786 -0.2652
 3867SOL    HW123060   1.786   4.506  15.965  1.3639  1.5638  1.0172
 3867SOL    HW223061   1.831   4.379  16.025  0.5233 -0.7476 -0.4538
 3868SOL     OW23062   0.416   3.332  15.391  0.1072  0.4259 -0.4234
 3868SOL    HW123063   0.384   3.413  15.352 -2.9734 -0.5675  0.0024
 3868SOL    HW223064   0.359   3.272  15.343 -1.0928  0.4309  1.0145
 3869SOL     OW23065   4.382   2.617   8.643 -0.1645 -0.3110 -0.2899
 3869SOL    HW123066   4.397   2.587   8.553 -1.1559  0.2539 -0.6489
 3869SOL    HW223067   4.364   2.535   8.689  0.1627 -0.2937 -0.1277
 3870SOL     OW23068   1.415   2.196  17.298 -0.1460  0.4250  0.1314
 3870SOL    HW123069   1.498   2.236  17.324 -1.1895  1.7191  1.5184
 3870SOL    HW223070   1.453   2.123  17.249  2.1965  1.3622  0.5394
 3871SOL     OW23071   1.346   2.046  15.222  0.5902 -0.3365  0.0983
 3871SOL    HW123072   1.401   1.969  15.236 -0.5192 -1.2904 -0.9003
 3871SOL    HW223073   1.374   2.093  15.301  0.1278 -0.7666  0.5140
 3872SOL     OW23074   4.270   1.757   2.601 -0.3469 -0.2357 -0.2920
 3872SOL    HW123075   4.285   1.851   2.618 -0.8438 -0.2559  0.2691
 3872SOL    HW223076   4.175   1.760   2.593 -0.3121 -2.4683 -1.3973
 3873SOL     OW23077   2.325   2.672   3.202 -0.2458 -0.0077 -0.1906
 3873SOL    HW123078   2.231   2.651   3.209 -0.7493  2.8246  1.4060
 3873SOL    HW223079   2.349   2.580   3.194 -2.5849 -0.7121  0.6592
 3874SOL     OW23080   2.171   2.344  11.607  0.1892 -0.5145 -0.1806
 3874SOL    HW123081   2.102   2.330  11.543  1.3346 -1.0198 -1.3048
 3874SOL    HW223082   2.200   2.256  11.628  1.9794  0.2428  0.5726
 3875SOL     OW23083   2.176   3.926  12.320 -0.5595  0.3459 -0.6532
 3875SOL    HW123084   2.205   3.856  12.262  0.0752  0.3091 -0.2844
 3875SOL    HW223085   2.244   3.951  12.383  0.0130  0.8774 -1.4746
 3876SOL     OW23086   2.430   2.232   7.570 -0.2674 -0.3255  0.0828
 3876SOL    HW123087   2.495   2.169   7.537 -0.2881 -0.4828  0.3423
 3876SOL    HW223088   2.415   2.191   7.656  0.7320 -1.9693 -0.5147
 3877SOL     OW23089   0.589   2.879  11.213 -0.0717  0.3351  0.0853
 3877SOL    HW123090   0.623   2.889  11.124  0.3800  1.4713  0.3887
 3877SOL    HW223091   0.517   2.818  11.196  0.3479  0.6556 -2.7958
 3878SOL     OW23092   4.127   2.691  17.339  0.0690 -0.6046 -0.6828
 3878SOL    HW123093   4.212   2.726  17.367 -0.8603 -0.0236  1.3979
 3878SOL    HW223094   4.052   2.732  17.381 -0.5666 -2.5268  0.0643
 3879SOL     OW23095   0.115   4.114   5.884  0.3519 -0.8464 -0.3769
 3879SOL    HW123096   0.145   4.026   5.906  1.8897 -0.5419 -1.2798
 3879SOL    HW223097   0.048   4.089   5.821 -0.9845 -0.1392  0.7431
 3880SOL     OW23098   1.079   3.220   5.600 -1.2569 -0.2662 -0.5141
 3880SOL    HW123099   1.022   3.156   5.642  0.6405  0.2480  2.7826
 3880SOL    HW223100   1.023   3.297   5.611 -1.2909 -0.6720  2.0622
 3881SOL     OW23101   4.287   3.129  10.917 -0.7810 -0.1440  0.4778
 3881SOL    HW123102   4.307   3.073  10.843  0.4408  1.0919 -0.1336
 3881SOL    HW223103   4.305   3.213  10.875  1.0844 -0.7338  0.0735
 3882SOL     OW23104   1.077   3.303   5.926 -0.4320  0.2085  0.2441
 3882SOL    HW123105   1.028   3.373   5.969 -0.3065  0.0359  0.6734
 3882SOL    HW223106   1.026   3.288   5.846  1.2615 -4.4793  0.0467
 3883SOL     OW23107   0.157   2.943   2.749 -0.6181  0.2250 -0.0594
 3883SOL    HW123108   0.190   2.853   2.760 -0.4252  0.0013 -2.3889
 3883SOL    HW223109   0.227   2.991   2.792  0.9858 -2.3631  0.2436
 3884SOL     OW23110   3.703   1.417   6.200 -0.3288 -0.4313 -0.8825
 3884SOL    HW123111   3.630   1.355   6.198 -0.6622  0.0180 -2.5234
 3884SOL    HW223112   3.715   1.430   6.106  1.9429 -1.9925 -0.7876
 3885SOL     OW23113   4.629   3.313   3.241 -0.1577 -0.1080  0.2794
 3885SOL    HW123114   4.594   3.276   3.160 -1.1575 -0.5888  0.9367
 3885SOL    HW223115   4.591   3.401   3.234  0.0956 -0.0731 -0.6553
 3886SOL     OW23116   0.041   2.120   5.725  0.0351  0.9938 -0.3680
 3886SOL    HW123117   0.020   2.141   5.815  0.5072 -0.9355  0.1925
 3886SOL    HW223118   4.680   2.088   5.695  0.9279 -1.2702 -0.5841
 3887SOL     OW23119   3.219   2.264   8.670 -0.4747  0.2752 -0.4330
 3887SOL    HW123120   3.137   2.247   8.625  0.3359 -2.5686 -0.8278
 3887SOL    HW223121   3.222   2.209   8.749  1.6875  1.0769  0.0684
 3888SOL     OW23122   2.545   2.932  13.743 -0.3370  0.2655  0.1682
 3888SOL    HW123123   2.475   2.947  13.679  0.0503  2.0862  0.1716
 3888SOL    HW223124   2.628   2.935  13.695 -0.7328 -1.8628 -0.6639
 3889SOL     OW23125   2.970   3.890   3.559  0.0978 -0.3162  0.3613
 3889SOL    HW123126   3.053   3.927   3.528 -0.2599  1.2685  1.3118
 3889SOL    HW223127   2.918   3.964   3.589 -0.7028 -0.8024  0.1608
 3890SOL     OW23128   0.583   3.619   7.876  0.1929 -0.7458  0.6864
 3890SOL    HW123129   0.579   3.625   7.780  0.0058 -2.4441  0.5897
 3890SOL    HW223130   0.548   3.706   7.897  3.4063  0.2503  1.8437
 3891SOL     OW23131   2.885   1.210  11.866  1.5174 -0.7200 -0.0456
 3891SOL    HW123132   2.806   1.239  11.912  2.0097 -1.7485  1.4527
 3891SOL    HW223133   2.865   1.259  11.787  0.0689 -2.1154 -0.5579
 3892SOL     OW23134   2.834   1.390   4.213 -0.3117 -0.1917 -0.2542
 3892SOL    HW123135   2.839   1.458   4.145 -2.2812 -0.0199 -0.2508
 3892SOL    HW223136   2.748   1.348   4.202 -0.3248 -0.2309  0.0045
 3893SOL     OW23137   1.967   4.245   5.077  0.3942 -0.3175  0.1321
 3893SOL    HW123138   2.024   4.276   5.146 -0.5395  0.2441  0.6450
 3893SOL    HW223139   1.896   4.217   5.134  0.0689 -2.5773 -1.3679
 3894SOL     OW23140   4.398   1.512   4.340  0.5362 -0.5694  0.4185
 3894SOL    HW123141   4.392   1.446   4.409 -1.8698 -1.4527 -0.6429
 3894SOL    HW223142   4.308   1.543   4.342  0.1504 -1.6553  0.0460
 3895SOL     OW23143   2.307   2.046   4.219 -0.2407 -0.5555 -0.4432
 3895SOL    HW123144   2.359   2.123   4.241 -0.2590 -0.2315 -1.5138
 3895SOL    HW223145   2.237   2.055   4.283  1.8437  0.2963  1.6740
 3896SOL     OW23146   1.262   0.799   9.038  0.0507 -0.5285  0.1967
 3896SOL    HW123147   1.198   0.795   8.967 -2.4788 -1.3100  2.5446
 3896SOL    HW223148   1.341   0.822   8.988 -0.8074 -1.5796 -1.6438
 3897SOL     OW23149   0.131   2.710   4.230  0.3053  0.5752 -0.0019
 3897SOL    HW123150   0.206   2.680   4.178  0.8230  2.8986 -0.5879
 3897SOL    HW223151   0.053   2.675   4.186  0.7630 -1.1611  0.5513
 3898SOL     OW23152   1.570   3.547   2.670  0.0430 -0.1204  0.1430
 3898SOL    HW123153   1.475   3.554   2.675  0.1165  2.1843 -1.4972
 3898SOL    HW223154   1.582   3.581   2.759  0.8727  0.0725 -0.0441
 3899SOL     OW23155   4.538   4.684   3.056  0.0592 -0.1218 -0.1576
 3899SOL    HW123156   4.560   4.606   3.005  2.6896  0.0634  0.7023
 3899SOL    HW223157   4.609   4.688   3.121  1.8533 -0.1246 -2.1409
 3900SOL     OW23158   2.372   0.218   6.367 -0.2574 -0.5169 -0.2672
 3900SOL    HW123159   2.417   0.234   6.450 -0.5496  0.0269 -0.2143
 3900SOL    HW223160   2.373   0.122   6.366  2.7121 -0.4818 -1.6424
 3901SOL     OW23161   0.495   1.705   8.378  0.7357  0.1264  0.1801
 3901SOL    HW123162   0.503   1.649   8.301 -1.5100  2.1651 -1.5467
 3901SOL    HW223163   0.476   1.790   8.338  1.1870 -0.3757 -1.1367
 3902SOL     OW23164   0.451   3.958   4.613 -0.1435 -0.5273  0.2558
 3902SOL    HW123165   0.404   3.880   4.584 -1.8381 -0.4393  2.7169
 3902SOL    HW223166   0.465   3.934   4.705 -1.5046  0.3081  0.6789
 3903SOL     OW23167   2.355   1.886  11.644  0.8732  0.0567  0.1579
 3903SOL    HW123168   2.411   1.962  11.661 -0.7673  1.4206 -0.5669
 3903SOL    HW223169   2.386   1.859  11.558 -1.0345  0.8025 -0.7748
 3904SOL     OW23170   4.488   3.254   8.892  0.5255  0.5983 -0.1475
 3904SOL    HW123171   4.521   3.209   8.970  1.0156  1.0404 -0.1069
 3904SOL    HW223172   4.412   3.300   8.927 -1.3008 -1.7464 -1.0112
 3905SOL     OW23173   0.206   4.724   8.685  0.0154  0.5380 -0.4794
 3905SOL    HW123174   0.281   4.673   8.716 -0.1350 -0.3433 -1.5825
 3905SOL    HW223175   0.252   0.067   8.636 -0.1169  1.8242  1.1697
 3906SOL     OW23176   3.608   3.547   5.920 -0.2512 -1.1027 -0.1504
 3906SOL    HW123177   3.668   3.607   5.875 -0.0775 -1.6080 -0.5935
 3906SOL    HW223178   3.529   3.601   5.926  0.3862  0.0218 -1.8693
 3907SOL     OW23179   2.869   0.830   5.180 -0.0397 -0.0335 -0.2105
 3907SOL    HW123180   2.801   0.837   5.112  0.7259  0.6997 -0.8976
 3907SOL    HW223181   2.919   0.910   5.191 -0.6535  0.3785 -0.3990
 3908SOL     OW23182   3.537   2.795   6.817  0.1943 -0.4541  0.0057
 3908SOL    HW123183   3.459   2.779   6.870 -0.9026 -2.2480 -2.1614
 3908SOL    HW223184   3.526   2.887   6.790  0.3918 -0.8416 -1.4235
 3909SOL     OW23185   3.102   2.240   6.607  0.7206  0.0075  0.6599
 3909SOL    HW123186   3.026   2.284   6.570 -0.3178 -0.2869  2.4780
 3909SOL    HW223187   3.070   2.150   6.619  0.1521  0.2022  0.5761
 3910SOL     OW23188   1.639   0.901  15.264  0.1509  0.5202 -0.0692
 3910SOL    HW123189   1.550   0.873  15.286 -0.2925  2.4958  0.6866
 3910SOL    HW223190   1.687   0.881  15.345  0.8665 -0.7475 -0.8120
 3911SOL     OW23191   3.519   1.802  13.407  0.5647 -0.1084 -0.8811
 3911SOL    HW123192   3.568   1.850  13.340  1.0614 -2.6050 -2.3130
 3911SOL    HW223193   3.559   1.715  13.407  0.9857  0.0871 -2.2947
 3912SOL     OW23194   1.768   2.223   4.105  0.0952  0.1612  0.0881
 3912SOL    HW123195   1.723   2.308   4.098 -0.3721 -0.0707  0.3034
 3912SOL    HW223196   1.695   2.164   4.122 -0.1157 -0.2353 -2.1983
 3913SOL     OW23197   2.163   1.139   4.057 -0.2604  0.3850  0.7519
 3913SOL    HW123198   2.183   1.052   4.021 -1.4108  0.3970  0.1017
 3913SOL    HW223199   2.218   1.140   4.136  1.5127  0.5339 -0.4705
 3914SOL     OW23200   1.277   2.861  13.944  0.8497  0.3153 -0.5565
 3914SOL    HW123201   1.211   2.820  13.888  0.5550 -0.5239  0.4034
 3914SOL    HW223202   1.314   2.788  13.994 -0.3758  0.2187  0.2287
 3915SOL     OW23203   0.632   2.478   3.269 -0.2047 -0.2728 -0.3961
 3915SOL    HW123204   0.679   2.547   3.222 -0.0928  0.5060  0.8797
 3915SOL    HW223205   0.576   2.532   3.324 -0.1399  1.6299 -2.1608
 3916SOL     OW23206   2.665   3.873  10.865  0.4322  0.4091 -0.2685
 3916SOL    HW123207   2.734   3.855  10.928 -0.1618  0.8691  0.5125
 3916SOL    HW223208   2.711   3.925  10.799  0.9871 -1.8752 -1.6461
 3917SOL     OW23209   0.536   4.391   9.278 -0.3965 -0.4029 -0.0074
 3917SOL    HW123210   0.618   4.440   9.288 -2.0785  2.5622 -0.5723
 3917SOL    HW223211   0.566   4.332   9.210  3.6291 -1.5524  2.8048
 3918SOL     OW23212   2.244   1.535  15.030 -0.5226  0.6499 -0.0431
 3918SOL    HW123213   2.211   1.577  14.951 -0.4081  0.8368  0.0092
 3918SOL    HW223214   2.339   1.544  15.026 -0.7565  3.0073 -0.2867
 3919SOL     OW23215   4.629   1.991   0.101  0.1582  0.2322 -0.5360
 3919SOL    HW123216   4.641   2.086   0.093 -1.5340  0.6653  2.0676
 3919SOL    HW223217   4.662   1.959   0.017  2.4028 -0.8615  0.7358
 3920SOL     OW23218   4.252   3.003  14.490  0.1966 -0.0674 -0.2649
 3920SOL    HW123219   4.311   3.079  14.493  0.6404 -0.3821 -0.9961
 3920SOL    HW223220   4.304   2.933  14.450  0.5972 -0.8705  1.6682
 3921SOL     OW23221   3.603   3.409   8.827  0.0166 -0.1725 -0.5933
 3921SOL    HW123222   3.638   3.478   8.883 -1.0142  1.5717 -2.1311
 3921SOL    HW223223   3.686   3.370   8.797  1.3246  0.7072  1.8398
 3922SOL     OW23224   2.661   0.095  14.784  0.1952  0.1074 -0.1601
 3922SOL    HW123225   2.612   0.041  14.846 -0.3681 -0.6313 -1.2444
 3922SOL    HW223226   2.641   0.181  14.820 -0.3951 -0.5296  1.0408
 3923SOL     OW23227   0.124   0.506   1.894 -0.0274 -0.2369  0.3825
 3923SOL    HW123228   0.029   0.500   1.898 -0.0837  1.2154  1.0634
 3923SOL    HW223229   0.146   0.463   1.811 -0.0813  3.7308 -1.6934
 3924SOL     OW23230   2.188   2.864   8.447  0.2096  0.1357 -0.4078
 3924SOL    HW123231   2.248   2.789   8.449 -0.4381 -0.2879  2.3356
 3924SOL    HW223232   2.147   2.862   8.533  0.3548  2.7622 -0.2678
 3925SOL     OW23233   2.270   3.759   2.966 -0.1115  0.3498  0.0099
 3925SOL    HW123234   2.198   3.806   2.924 -1.3191 -2.1614 -0.7323
 3925SOL    HW223235   2.277   3.810   3.047 -2.9451  1.3203 -0.3682
 3926SOL     OW23236   0.190   3.826   3.246  0.1281  0.6170 -0.5073
 3926SOL    HW123237   0.255   3.891   3.272 -0.9735  1.2143  0.7714
 3926SOL    HW223238   0.225   3.739   3.264 -2.2603 -0.1626  0.3998
 3927SOL     OW23239   3.573   0.443   0.262  0.4754 -0.5422  0.2910
 3927SOL    HW123240   3.496   0.486   0.299 -0.1333 -0.6859 -0.8136
 3927SOL    HW223241   3.630   0.418   0.335  0.6463 -3.7094 -0.9463
 3928SOL     OW23242   4.089   0.957   4.822  0.5372  0.5881 -0.1240
 3928SOL    HW123243   4.049   1.042   4.801  1.0363  0.2197 -2.5210
 3928SOL    HW223244   4.100   0.963   4.917 -0.8141 -2.7097  0.2217
 3929SOL     OW23245   4.614   3.679   1.168  0.0350 -0.3438 -0.3168
 3929SOL    HW123246   4.585   3.751   1.223  4.3080  1.1519 -0.0206
 3929SOL    HW223247   4.681   3.722   1.114  0.7857  1.0351  1.7080
 3930SOL     OW23248   1.869   3.154   5.183  0.7135  0.3860  0.0051
 3930SOL    HW123249   1.777   3.173   5.167  0.7226 -0.4720 -1.0519
 3930SOL    HW223250   1.858   3.177   5.275 -0.5400 -3.7073  0.8759
 3931SOL     OW23251   2.875   4.693   2.220  0.1565 -0.2813 -0.2076
 3931SOL    HW123252   2.909   0.051   2.187  0.5215 -0.0957  0.6287
 3931SOL    HW223253   2.885   4.644   2.138 -1.6495 -2.5955  0.9784
 3932SOL     OW23254   1.732   2.604  11.221 -0.2767 -0.3832  0.2032
 3932SOL    HW123255   1.665   2.567  11.279 -0.1467 -0.5389  0.2524
 3932SOL    HW223256   1.807   2.545  11.228 -0.9904 -1.3640 -0.4032
 3933SOL     OW23257   1.306   3.881  10.623 -0.2959 -0.1827 -0.1605
 3933SOL    HW123258   1.262   3.912  10.544  1.1031  3.2122  0.3893
 3933SOL    HW223259   1.236   3.908  10.682 -0.8475 -1.0348 -0.4306
 3934SOL     OW23260   1.949   1.620   2.060  0.3459  0.1392 -0.3495
 3934SOL    HW123261   1.929   1.706   2.024  3.0983  0.4013 -1.2600
 3934SOL    HW223262   1.886   1.568   2.010  3.4820 -3.8433 -0.1767
 3935SOL     OW23263   3.041   4.223  13.370  0.2126  0.5359  0.6267
 3935SOL    HW123264   2.991   4.298  13.338 -0.8901  0.0507  1.2254
 3935SOL    HW223265   3.025   4.159  13.300 -0.2314  1.3343  0.0054
 3936SOL     OW23266   3.782   2.338  10.571  0.2716 -0.0402  0.1791
 3936SOL    HW123267   3.829   2.408  10.617  1.2023 -1.6578  1.7049
 3936SOL    HW223268   3.691   2.358  10.591  0.3554  0.5288  0.0223
 3937SOL     OW23269   4.710   4.319   7.244 -0.4418  0.1997  0.2240
 3937SOL    HW123270   4.650   4.392   7.227 -1.1276 -0.3330  0.3506
 3937SOL    HW223271   4.645   4.256   7.275  1.3032 -1.5838  0.1998
 3938SOL     OW23272   2.072   1.172   5.974 -0.4464 -0.6131  0.5136
 3938SOL    HW123273   1.976   1.177   5.973 -0.3446  1.9734  5.2690
 3938SOL    HW223274   2.096   1.154   6.065  4.6687 -0.9756 -0.9166
 3939SOL     OW23275   4.605   2.135   7.156 -0.0102  0.4242  0.1567
 3939SOL    HW123276   4.519   2.152   7.119  0.3763 -0.6225 -1.2746
 3939SOL    HW223277   4.661   2.205   7.123  2.0236 -0.8185  0.9587
 3940SOL     OW23278   4.639   3.135  11.131  0.0188  0.7619  0.3955
 3940SOL    HW123279   4.544   3.134  11.131  0.0245  0.3809  1.1671
 3940SOL    HW223280   4.668   3.211  11.181  0.2454  0.3138  0.9530
 3941SOL     OW23281   2.682   0.403   6.333  0.2044  0.1819 -0.0638
 3941SOL    HW123282   2.738   0.342   6.381 -0.0629  0.1401  0.1937
 3941SOL    HW223283   2.727   0.404   6.249  2.5216 -0.5122  1.1890
 3942SOL     OW23284   4.198   0.709   8.231  0.0187 -0.4178 -0.4260
 3942SOL    HW123285   4.265   0.760   8.276 -0.5137 -0.2646  0.1994
 3942SOL    HW223286   4.193   0.620   8.266  1.1737 -1.9501 -4.1300
 3943SOL     OW23287   3.645   3.865   5.620  0.4916  0.0985  0.3653
 3943SOL    HW123288   3.695   3.808   5.562  1.8084  1.5015  0.1193
 3943SOL    HW223289   3.622   3.937   5.561 -1.4252 -0.4231  0.4817
 3944SOL     OW23290   2.128   2.048   2.392 -0.1812 -0.1285  0.4470
 3944SOL    HW123291   2.156   2.025   2.303 -0.7614 -0.7394  0.4244
 3944SOL    HW223292   2.208   2.083   2.431  1.7894 -2.2274 -1.7210
 3945SOL     OW23293   0.765   0.329  15.999  0.9038 -0.2232  0.0266
 3945SOL    HW123294   0.732   0.398  16.057 -0.4070  0.6622 -1.7772
 3945SOL    HW223295   0.688   0.279  15.971  0.5759 -0.7287  1.8168
 3946SOL     OW23296   3.493   0.496  10.387  0.0755 -0.7461 -0.1878
 3946SOL    HW123297   3.428   0.533  10.447 -0.5356 -1.0941 -0.6280
 3946SOL    HW223298   3.469   0.537  10.304 -1.5972 -0.1620  0.5844
 3947SOL     OW23299   3.761   3.119   8.235  0.1052  0.9904 -0.1296
 3947SOL    HW123300   3.748   3.208   8.267 -0.6968  0.1554  1.8763
 3947SOL    HW223301   3.702   3.112   8.160  1.3702 -1.4257 -0.9112
 3948SOL     OW23302   4.267   2.912  11.843 -0.1410  0.2027 -0.0355
 3948SOL    HW123303   4.193   2.968  11.868 -0.8419  0.1364 -1.9114
 3948SOL    HW223304   4.319   2.920  11.922 -0.5811 -1.4379  0.4223
 3949SOL     OW23305   0.299   0.527   4.604  0.4450  0.3404 -0.0561
 3949SOL    HW123306   0.383   0.534   4.648 -0.4670  1.7145  1.4669
 3949SOL    HW223307   0.246   0.543   4.683  1.4828 -0.8215  0.8773
 3950SOL     OW23308   2.349   1.907   0.263 -0.3319 -0.3268  0.0218
 3950SOL    HW123309   2.335   1.878   0.353 -1.6307  0.9406  0.2195
 3950SOL    HW223310   2.278   1.970   0.255 -0.2862 -0.1387  1.2124
 3951SOL     OW23311   2.765   1.913  15.359  0.2148  0.5642  0.1993
 3951SOL    HW123312   2.687   1.895  15.410 -0.2068  0.8420 -0.3475
 3951SOL    HW223313   2.737   1.978  15.293 -1.3501 -1.3769 -1.0495
 3952SOL     OW23314   3.361   3.066   7.555  0.4207  0.1583 -1.2314
 3952SOL    HW123315   3.330   3.047   7.643 -1.5795  0.2373 -1.9214
 3952SOL    HW223316   3.379   2.978   7.521 -4.1889 -1.3533  0.1461
 3953SOL     OW23317   2.601   3.322   7.549 -0.3319 -0.2960 -0.6391
 3953SOL    HW123318   2.558   3.238   7.566  2.7589 -1.7927 -0.1737
 3953SOL    HW223319   2.691   3.296   7.572 -0.6899 -0.9671 -0.0047
 3954SOL     OW23320   2.885   2.634   7.213  0.1146 -0.0542 -0.0575
 3954SOL    HW123321   2.919   2.558   7.166 -0.1173  0.0508 -0.3924
 3954SOL    HW223322   2.890   2.702   7.146 -3.8432  3.0978  2.8533
 3955SOL     OW23323   4.708   4.578   5.773 -0.0787  0.0828 -0.5957
 3955SOL    HW123324   4.685   4.549   5.861 -0.4912  2.4267  0.0489
 3955SOL    HW223325   0.048   4.510   5.754  0.5238 -0.2087  2.6422
 3956SOL     OW23326   2.661   1.523   6.287 -0.3340  0.0510  0.0439
 3956SOL    HW123327   2.728   1.533   6.355 -0.8952 -0.6904  0.6999
 3956SOL    HW223328   2.718   1.511   6.211  0.9917  1.5304  0.7955
 3957SOL     OW23329   4.234   1.411   0.526 -0.1492 -0.0696  0.5107
 3957SOL    HW123330   4.249   1.359   0.605  1.9050  0.6477  0.5907
 3957SOL    HW223331   4.301   1.379   0.466 -0.3911 -0.0042  0.2086
 3958SOL     OW23332   2.166   3.814   5.620 -0.1671  0.6996 -0.3715
 3958SOL    HW123333   2.198   3.746   5.561  0.1258  1.2612 -0.8652
 3958SOL    HW223334   2.235   3.801   5.685  0.9133 -1.2801 -1.9019
 3959SOL     OW23335   2.887   1.068   7.568 -0.6792 -0.3644 -0.4500
 3959SOL    HW123336   2.861   1.019   7.490 -2.8163  1.0463 -0.6319
 3959SOL    HW223337   2.923   0.996   7.620 -1.2282 -0.3467 -0.0491
 3960SOL     OW23338   2.956   0.389   3.755  0.5170  0.3306 -0.0091
 3960SOL    HW123339   2.948   0.471   3.804  1.2926 -0.2646  1.1259
 3960SOL    HW223340   2.886   0.333   3.790 -0.7722  0.8245 -1.8068
 3961SOL     OW23341   4.410   1.307   4.514  0.0555 -0.3751 -0.1823
 3961SOL    HW123342   4.385   1.324   4.605 -2.2395  1.3970 -1.1483
 3961SOL    HW223343   4.482   1.245   4.526  1.1746  0.8681 -0.4682
 3962SOL     OW23344   3.257   3.446   7.459 -0.0170  0.0764 -0.8558
 3962SOL    HW123345   3.332   3.393   7.430  0.3476  0.2026 -0.1518
 3962SOL    HW223346   3.277   3.449   7.553 -0.5842  1.0342 -0.7641
 3963SOL     OW23347   3.467   0.757  16.175  0.6945 -0.3563 -0.2154
 3963SOL    HW123348   3.495   0.830  16.119 -0.7100 -0.0883 -0.5491
 3963SOL    HW223349   3.475   0.685  16.111  0.4800 -0.8068  0.2697
 3964SOL     OW23350   4.059   2.726   0.351 -0.8808  0.1460 -0.4429
 3964SOL    HW123351   4.137   2.731   0.295 -0.5173  0.8257  0.1308
 3964SOL    HW223352   4.009   2.798   0.314 -0.0064  0.4208 -1.0770
 3965SOL     OW23353   2.306   1.352  17.434 -0.8736  0.3341  0.3990
 3965SOL    HW123354   2.257   1.284  17.481 -0.2358 -1.2115 -1.1826
 3965SOL    HW223355   2.368   1.305  17.379 -0.9182  1.2263 -0.3991
 3966SOL     OW23356   1.942   4.109   3.438 -1.0864 -0.3173  0.0892
 3966SOL    HW123357   1.875   4.167   3.474 -2.0667  0.2363 -2.5938
 3966SOL    HW223358   1.924   4.105   3.344 -0.8529 -0.5140  0.0547
 3967SOL     OW23359   4.376   3.102   8.326 -0.6497 -0.0711  0.4381
 3967SOL    HW123360   4.341   3.054   8.251  1.1005 -2.0544  0.8910
 3967SOL    HW223361   4.344   3.191   8.310  2.1134  0.4236 -2.6073
 3968SOL     OW23362   4.365   0.189   0.993  0.2999 -0.4111  0.2668
 3968SOL    HW123363   4.278   0.155   0.973  0.4889 -1.1026  0.6121
 3968SOL    HW223364   4.343   0.250   1.063  0.3342 -0.0179 -0.0688
 3969SOL     OW23365   1.469   0.010   8.882  0.2406 -0.2365 -0.2787
 3969SOL    HW123366   1.479   4.695   8.968  1.3485 -2.2117 -1.3328
 3969SOL    HW223367   1.382   4.699   8.867 -0.5732  0.9094  1.7440
 3970SOL     OW23368   3.538   2.038   4.616 -0.4139 -0.1715 -0.4941
 3970SOL    HW123369   3.593   2.112   4.642 -0.9209 -0.6196  1.9138
 3970SOL    HW223370   3.449   2.057   4.647 -0.3153 -1.0075  0.2878
 3971SOL     OW23371   1.443   4.352   3.780  0.3909  0.0890 -0.0322
 3971SOL    HW123372   1.450   4.306   3.863 -0.6360  2.6232  1.4563
 3971SOL    HW223373   1.483   4.289   3.721  0.0669 -1.3502  1.2871
 3972SOL     OW23374   1.036   3.268   7.024  0.2546  0.2164 -0.2007
 3972SOL    HW123375   1.018   3.184   7.066 -1.1135  1.3472  1.4466
 3972SOL    HW223376   0.976   3.266   6.949 -0.9646  1.5980  0.7466
 3973SOL     OW23377   0.819   3.202   7.738  0.7867 -0.2168 -1.1519
 3973SOL    HW123378   0.833   3.281   7.791  1.6386 -0.2128 -1.3932
 3973SOL    HW223379   0.815   3.135   7.806 -1.0063  1.5997  0.5773
 3974SOL     OW23380   3.641   1.473  13.207 -0.0260 -0.3378  0.5165
 3974SOL    HW123381   3.625   1.499  13.297 -0.1286 -1.2373  0.7554
 3974SOL    HW223382   3.677   1.554  13.170 -1.2268  0.4060  0.9735
 3975SOL     OW23383   2.847   4.108   3.661 -0.0367  0.0121 -0.4997
 3975SOL    HW123384   2.760   4.090   3.625 -0.6723  0.3178  0.8950
 3975SOL    HW223385   2.875   4.191   3.623  0.5486 -0.2300 -0.5940
 3976SOL     OW23386   4.724   3.602   7.436  0.1489 -0.3762 -0.4897
 3976SOL    HW123387   0.067   3.612   7.503 -0.0168 -0.2294 -0.3439
 3976SOL    HW223388   4.657   3.666   7.460  0.2918 -0.0625 -0.9309
 3977SOL     OW23389   4.217   0.079   7.041  0.3619  0.5158 -0.0587
 3977SOL    HW123390   4.225   4.709   7.048 -2.5084  0.0960 -2.2639
 3977SOL    HW223391   4.221   0.109   7.132 -1.3419 -1.4436  0.6612
 3978SOL     OW23392   1.014   1.062  16.309 -0.2091  0.1361  0.8897
 3978SOL    HW123393   1.086   1.042  16.369  1.8476  0.7989 -1.3587
 3978SOL    HW223394   0.956   0.988  16.327 -3.5354  2.5534  0.0392
 3979SOL     OW23395   2.328   4.623  10.335  0.3699  0.6572 -0.5898
 3979SOL    HW123396   2.403   4.577  10.298 -0.0675  0.1278 -0.8132
 3979SOL    HW223397   2.325   4.597  10.426 -1.0055  0.7892 -0.5920
 3980SOL     OW23398   0.904   4.130   9.525  0.2418  0.6838 -0.1903
 3980SOL    HW123399   0.941   4.059   9.577 -0.5791  0.3767 -0.0264
 3980SOL    HW223400   0.878   4.072   9.454  0.9663 -0.4097  0.4514
 3981SOL     OW23401   0.029   3.740  10.115  0.2119 -0.7807  0.6008
 3981SOL    HW123402   0.020   3.829  10.080  0.6147 -1.9788 -2.5170
 3981SOL    HW223403   0.039   3.756  10.209  1.3835  0.3321  0.2971
 3982SOL     OW23404   0.135   0.690   5.595  0.2063  0.7138 -0.6833
 3982SOL    HW123405   0.231   0.684   5.587  0.2106 -0.3461  0.1127
 3982SOL    HW223406   0.134   0.725   5.684  0.0589 -3.5919  0.9892
 3983SOL     OW23407   0.434   1.237   9.616 -0.4184  0.9032 -0.0435
 3983SOL    HW123408   0.520   1.200   9.633 -0.5494  0.3421 -0.6140
 3983SOL    HW223409   0.455   1.328   9.595  1.9115  0.3382 -0.0545
 3984SOL     OW23410   1.749   1.403  16.851 -0.6830 -0.5399 -0.9284
 3984SOL    HW123411   1.747   1.380  16.944 -3.9631 -1.4260 -1.2152
 3984SOL    HW223412   1.759   1.498  16.856  0.1766 -0.6724 -0.0203
 3985SOL     OW23413   1.683   4.092   2.120  0.1885  0.5759 -0.7541
 3985SOL    HW123414   1.646   4.120   2.036  1.5194  0.5364 -1.3497
 3985SOL    HW223415   1.642   4.161   2.172  0.0890  0.5697 -0.8227
 3986SOL     OW23416   4.186   1.899   4.330  0.4984  0.0587 -0.3611
 3986SOL    HW123417   4.231   1.928   4.410  0.4578 -0.6313 -0.0888
 3986SOL    HW223418   4.252   1.870   4.268  1.5551 -1.1495  1.3097
 3987SOL     OW23419   0.069   4.279   3.327 -0.6896 -0.1194 -0.2707
 3987SOL    HW123420   0.022   4.197   3.344  0.6256 -0.3247  2.3730
 3987SOL    HW223421   0.092   4.304   3.416  0.7491 -0.1039 -0.6441
 3988SOL     OW23422   0.561   3.774  12.651 -0.5327 -0.0858 -0.0486
 3988SOL    HW123423   0.616   3.731  12.717 -0.0074 -2.1642 -1.8546
 3988SOL    HW223424   0.475   3.741  12.679 -1.2038  2.3884  0.8760
 3989SOL     OW23425   2.326   2.551  13.679 -0.1242  0.1068 -0.3276
 3989SOL    HW123426   2.321   2.504  13.595  2.9857 -0.8399  0.0358
 3989SOL    HW223427   2.241   2.594  13.687 -0.1394  0.0592 -0.2290
 3990SOL     OW23428   3.187   2.934  15.692  0.4838 -0.1183 -0.3935
 3990SOL    HW123429   3.174   2.924  15.598 -0.2813  1.5850 -0.4649
 3990SOL    HW223430   3.168   2.848  15.729  1.8527 -1.1799 -2.1866
 3991SOL     OW23431   2.795   0.973   1.473  0.0588 -0.0105  0.0624
 3991SOL    HW123432   2.767   0.888   1.438  2.6821 -0.8418 -0.0480
 3991SOL    HW223433   2.743   1.041   1.430 -0.9119  1.1409  3.0691
 3992SOL     OW23434   4.613   1.870   7.057  0.0078  0.4980  0.2830
 3992SOL    HW123435   4.642   1.958   7.031  0.7802 -0.2635 -1.4038
 3992SOL    HW223436   4.519   1.882   7.041 -0.3478  0.2445  2.1804
 3993SOL     OW23437   1.914   0.781   5.775 -0.2888  0.2779  0.2905
 3993SOL    HW123438   1.992   0.833   5.792  1.7707 -2.9985  1.0444
 3993SOL    HW223439   1.931   0.773   5.681 -3.9533  0.5506 -0.3955
 3994SOL     OW23440   2.442   1.366  15.428  0.0229  0.7466  0.3160
 3994SOL    HW123441   2.350   1.346  15.447  0.2437 -1.4981 -0.9335
 3994SOL    HW223442   2.461   1.296  15.366 -0.6007 -0.1634  1.1528
 3995SOL     OW23443   0.107   4.219   7.032  0.2673  0.0036 -0.2009
 3995SOL    HW123444   0.071   4.258   7.112 -1.1825 -0.3632 -0.6616
 3995SOL    HW223445   0.033   4.164   7.008 -1.4303  1.4828  1.5261
 3996SOL     OW23446   3.316   2.711   3.279  0.3279  0.6378  0.3145
 3996SOL    HW123447   3.297   2.769   3.204  1.2105 -0.9820 -1.1546
 3996SOL    HW223448   3.243   2.649   3.270  1.6882 -1.0387  0.9053
 3997SOL     OW23449   2.720   3.465   7.834 -0.8218  0.1248 -0.2018
 3997SOL    HW123450   2.674   3.465   7.750  0.2475  0.1794 -0.7798
 3997SOL    HW223451   2.778   3.389   7.837  1.1927  1.6789 -0.4298
 3998SOL     OW23452   0.024   4.218   3.979 -0.1967 -0.4055 -0.4800
 3998SOL    HW123453   0.094   4.163   3.944  0.1404  0.5143 -1.2608
 3998SOL    HW223454   0.015   4.176   4.064 -4.7042  0.2513 -0.6241
 3999SOL     OW23455   2.546   2.283  16.111  0.7054  0.0200 -0.2169
 3999SOL    HW123456   2.542   2.347  16.041  1.0188  1.3302  0.9653
 3999SOL    HW223457   2.502   2.333  16.179  2.9232 -0.4025  1.5452
 4000SOL     OW23458   1.761   0.472   2.205  0.0450  0.3589  0.2528
 4000SOL    HW123459   1.689   0.478   2.143  1.2524  0.8753 -1.1096
 4000SOL    HW223460   1.841   0.496   2.158 -0.3128 -0.0807 -0.5654
 4001SOL     OW23461   4.041   1.636   4.727 -0.6497 -0.3803 -0.2312
 4001SOL    HW123462   4.079   1.550   4.746  0.2062 -0.1966 -1.1409
 4001SOL    HW223463   4.111   1.700   4.721 -1.3286  0.2596 -1.2515
 4002SOL     OW23464   0.810   0.573   8.740  0.0259  0.4811  0.2564
 4002SOL    HW123465   0.804   0.665   8.766 -0.0837  0.4115  0.4758
 4002SOL    HW223466   0.719   0.551   8.719  0.4895 -1.5173  0.3538
 4003SOL     OW23467   0.512   0.255   5.686 -0.0896  0.2454 -0.8644
 4003SOL    HW123468   0.509   0.168   5.726 -0.2696  0.6011 -0.0953
 4003SOL    HW223469   0.422   0.283   5.704  0.6363  0.9310  1.7021
 4004SOL     OW23470   3.923   1.698   2.166 -0.1522  0.0269  0.0621
 4004SOL    HW123471   3.853   1.697   2.102 -0.5543 -0.3518  0.5036
 4004SOL    HW223472   3.879   1.688   2.251  0.0718  3.4962  0.5959
 4005SOL     OW23473   3.068   4.683   8.340 -0.3169 -0.2383 -0.4362
 4005SOL    HW123474   2.978   4.673   8.309 -0.5519 -0.4929  0.3022
 4005SOL    HW223475   3.121   4.670   8.261  1.1787 -0.0525  0.5230
 4006SOL     OW23476   4.219   1.405   8.141  0.2131 -0.0400  0.4423
 4006SOL    HW123477   4.308   1.408   8.105 -0.2998  0.4268 -0.7921
 4006SOL    HW223478   4.191   1.320   8.106  0.2450  0.5248 -0.9332
 4007SOL     OW23479   2.147   2.771  11.846 -0.5521  0.3634  0.0595
 4007SOL    HW123480   2.133   2.695  11.902  1.5541 -0.2925 -0.3129
 4007SOL    HW223481   2.089   2.741  11.775  1.5528 -1.3384 -0.9238
 4008SOL     OW23482   0.782   1.525  13.401 -0.0219 -0.3506  0.4320
 4008SOL    HW123483   0.688   1.521  13.385 -0.0662 -3.0595  1.4089
 4008SOL    HW223484   0.803   1.596  13.340  0.8093 -1.1288 -0.1972
 4009SOL     OW23485   3.593   1.874   7.360  0.0288 -0.2700  0.0391
 4009SOL    HW123486   3.613   1.965   7.385 -1.2297 -0.5324  2.0026
 4009SOL    HW223487   3.509   1.874   7.315  0.1422  1.8189 -0.1663
 4010SOL     OW23488   1.910   4.653   6.517 -0.3787  0.0444 -0.5693
 4010SOL    HW123489   1.835   4.697   6.477 -0.6123 -1.5988 -1.9545
 4010SOL    HW223490   1.868   4.574   6.551  0.0944  1.2614  2.8067
 4011SOL     OW23491   3.620   0.214  13.817  0.1411  0.4018 -0.0289
 4011SOL    HW123492   3.573   0.178  13.893 -0.1662 -1.1941 -0.9704
 4011SOL    HW223493   3.708   0.198  13.851 -0.4374 -0.6355  0.9888
 4012SOL     OW23494   1.750   2.605   2.119  0.3527 -0.1815 -1.0696
 4012SOL    HW123495   1.775   2.524   2.076 -1.8413 -1.4464  0.0558
 4012SOL    HW223496   1.829   2.612   2.172 -1.6649 -2.9015  2.3144
 4013SOL     OW23497   2.589   4.224   6.743  0.0197  0.0050 -0.2258
 4013SOL    HW123498   2.643   4.267   6.676 -0.0459 -1.9457 -1.5487
 4013SOL    HW223499   2.507   4.274   6.746  0.4687  0.6989  0.3550
 4014SOL     OW23500   0.716   1.268  14.694 -0.2005  0.0375  0.5009
 4014SOL    HW123501   0.731   1.338  14.758  0.3856  0.2202  0.1572
 4014SOL    HW223502   0.745   1.205  14.761 -0.0193  0.3988  0.7597
 4015SOL     OW23503   2.975   1.736  15.376  0.8294 -0.6096 -0.1744
 4015SOL    HW123504   2.992   1.750  15.469 -0.3816  0.0352 -0.0429
 4015SOL    HW223505   2.887   1.775  15.367  0.9712 -0.1310  0.4994
 4016SOL     OW23506   4.078   1.699   4.096  0.3422  0.0326  0.0028
 4016SOL    HW123507   4.071   1.608   4.125 -0.0023 -0.3149 -1.1788
 4016SOL    HW223508   4.137   1.730   4.165  0.5254  1.4449 -0.7706
 4017SOL     OW23509   0.947   2.353   8.077  0.0360 -0.2733  0.5702
 4017SOL    HW123510   1.043   2.350   8.078  0.1229  1.3384 -1.1644
 4017SOL    HW223511   0.927   2.428   8.132 -0.1861  0.3696 -0.3784
 4018SOL     OW23512   1.250   3.799  12.830  0.8492  0.2035 -0.4591
 4018SOL    HW123513   1.198   3.837  12.759  0.3614  0.6801  0.1511
 4018SOL    HW223514   1.252   3.858  12.906  2.5652 -0.7322  0.2032
 4019SOL     OW23515   0.540   4.148   2.505  0.5067  0.1153  0.2470
 4019SOL    HW123516   0.617   4.102   2.470  1.5391  0.5425  1.8987
 4019SOL    HW223517   0.499   4.071   2.546 -3.6531  1.6937 -0.9788
 4020SOL     OW23518   3.587   3.635   2.272 -0.6204  0.0647 -0.3374
 4020SOL    HW123519   3.588   3.607   2.181 -1.2844  1.4916 -0.7751
 4020SOL    HW223520   3.639   3.715   2.262  0.1272 -0.1423  1.6992
 4021SOL     OW23521   3.051   0.886   8.075 -0.2075  0.0469  0.7944
 4021SOL    HW123522   3.012   0.943   8.009 -1.4525 -1.5596  0.1533
 4021SOL    HW223523   3.135   0.889   8.029  0.6976  0.3187  2.4491
 4022SOL     OW23524   2.639   3.352  10.387 -0.4277  0.0139  0.0393
 4022SOL    HW123525   2.630   3.443  10.416  0.9428  0.8789 -2.2280
 4022SOL    HW223526   2.721   3.327  10.428 -0.7621  0.4433  0.9600
 4023SOL     OW23527   4.374   0.105  11.219 -0.2776  0.5020  0.3408
 4023SOL    HW123528   4.444   0.088  11.157  1.0770  2.9557  1.2088
 4023SOL    HW223529   4.359   0.016  11.250  0.9877  0.1343 -0.1051
 4024SOL     OW23530   4.152   3.162  11.352 -0.8511  0.5539 -0.3811
 4024SOL    HW123531   4.111   3.204  11.427  1.4984 -0.5276  1.5035
 4024SOL    HW223532   4.079   3.142  11.294 -0.1318  0.2404 -1.1792
 4025SOL     OW23533   2.705   1.484   4.780  0.0513  0.8988  0.1390
 4025SOL    HW123534   2.642   1.554   4.764 -1.3651  0.0492  1.9655
 4025SOL    HW223535   2.742   1.488   4.692  1.9473 -1.7941  0.8237
 4026SOL     OW23536   0.926   1.499  14.626 -0.1375 -0.5144  0.6100
 4026SOL    HW123537   0.994   1.464  14.683  3.0587  1.0262 -2.2029
 4026SOL    HW223538   0.976   1.501  14.544 -0.3646  0.9761  0.5111
 4027SOL     OW23539   0.180   3.363   6.667 -0.0698 -0.3928  0.1747
 4027SOL    HW123540   0.199   3.455   6.651  1.3555 -0.8567 -0.8283
 4027SOL    HW223541   0.155   3.336   6.578  0.8016  3.2581 -1.1475
 4028SOL     OW23542   1.574   1.051   7.000 -0.4012  0.2064 -0.3904
 4028SOL    HW123543   1.496   1.105   7.011  0.8389  2.0935 -0.9637
 4028SOL    HW223544   1.557   0.990   7.072 -0.2819 -0.6938 -1.1114
 4029SOL     OW23545   3.689   3.674   4.378 -0.4787  0.4222 -0.4480
 4029SOL    HW123546   3.729   3.733   4.315  0.4869 -0.1248 -0.3458
 4029SOL    HW223547   3.599   3.680   4.344 -0.1159 -0.7936 -1.6204
 4030SOL     OW23548   3.707   0.749   2.547  0.0041 -0.3841  0.3726
 4030SOL    HW123549   3.682   0.772   2.636  0.5896  2.1589 -0.1294
 4030SOL    HW223550   3.763   0.671   2.554  1.4326  0.6962  0.9981
 4031SOL     OW23551   3.730   4.182   9.455 -0.5113 -0.3732 -0.0123
 4031SOL    HW123552   3.658   4.170   9.392 -1.1088  3.0748 -0.0074
 4031SOL    HW223553   3.682   4.189   9.538 -0.4164  1.1418 -0.0781
 4032SOL     OW23554   4.425   1.088   3.408  0.4083  0.3388  0.0858
 4032SOL    HW123555   4.357   1.152   3.427 -1.7935 -1.7476 -0.8210
 4032SOL    HW223556   4.376   1.007   3.417 -0.3105  0.8838  1.0943
 4033SOL     OW23557   1.191   1.259   7.729  0.2130  0.2258 -0.2490
 4033SOL    HW123558   1.139   1.327   7.772  1.1379  1.8562 -1.7156
 4033SOL    HW223559   1.269   1.258   7.784 -0.3649  2.5677  0.5953
 4034SOL     OW23560   1.098   4.558   4.096  0.4481 -0.6126 -0.6204
 4034SOL    HW123561   1.170   4.564   4.033  0.8175  0.1838 -0.1186
 4034SOL    HW223562   1.025   4.540   4.037 -0.2949 -2.6599  0.9188
 4035SOL     OW23563   1.747   2.578   9.999 -0.3216 -0.1152 -0.1295
 4035SOL    HW123564   1.744   2.642  10.070  0.9676  0.4349 -0.5768
 4035SOL    HW223565   1.653   2.574   9.978 -0.8202  0.9582  1.9220
 4036SOL     OW23566   4.353   3.306   2.047 -0.2192 -0.1430 -0.2329
 4036SOL    HW123567   4.375   3.333   2.136  1.5883  0.0156 -0.7397
 4036SOL    HW223568   4.258   3.311   2.061  0.3579  1.3469  3.1209
 4037SOL     OW23569   1.012   4.272  16.826 -0.1833  0.0323  0.1554
 4037SOL    HW123570   0.987   4.213  16.897  3.5626 -3.6927 -1.5979
 4037SOL    HW223571   0.925   4.291  16.791  0.5796 -1.5339 -2.5909
 4038SOL     OW23572   1.395   1.340   6.044 -0.0091  0.0094 -0.0048
 4038SOL    HW123573   1.421   1.430   6.022 -0.3823  0.2000  0.3352
 4038SOL    HW223574   1.419   1.297   5.962  0.7933 -1.2419  0.8894
 4039SOL     OW23575   4.225   0.871   5.794 -0.6352 -0.1354 -0.2206
 4039SOL    HW123576   4.141   0.827   5.781 -0.6747  0.3811 -1.6937
 4039SOL    HW223577   4.274   0.838   5.718 -0.6259 -1.9618  0.5831
 4040SOL     OW23578   4.292   3.423   5.349  0.4519  0.3325  0.2797
 4040SOL    HW123579   4.327   3.407   5.437  0.9792 -0.1833 -0.0176
 4040SOL    HW223580   4.220   3.360   5.346 -0.1595  1.0814 -0.6077
 4041SOL     OW23581   3.321   0.939   2.049  0.0906 -0.1900 -0.1823
 4041SOL    HW123582   3.352   0.974   2.133 -0.4028  0.4310 -0.2557
 4041SOL    HW223583   3.234   0.979   2.048  0.6671  1.0663 -0.7601
 4042SOL     OW23584   3.044   0.600   8.143  0.0439 -0.1634  0.7506
 4042SOL    HW123585   3.051   0.695   8.152  1.6725 -0.2065  0.0168
 4042SOL    HW223586   3.111   0.573   8.080 -0.9309  0.1489 -0.4381
 4043SOL     OW23587   1.040   2.367  10.181 -0.5039 -0.4555 -0.6225
 4043SOL    HW123588   1.109   2.300  10.182 -0.5342 -0.4818  0.5860
 4043SOL    HW223589   0.973   2.308  10.146 -0.7852  0.5027 -1.7025
 4044SOL     OW23590   3.458   1.444   8.546 -0.0685 -0.7509  0.0388
 4044SOL    HW123591   3.452   1.360   8.591  0.4104 -0.7775  0.0509
 4044SOL    HW223592   3.538   1.427   8.496 -0.9904  0.9147 -2.0255
 4045SOL     OW23593   3.572   4.234   7.948 -0.1269  0.1031 -0.6619
 4045SOL    HW123594   3.519   4.160   7.978  2.1470 -1.0184  0.5296
 4045SOL    HW223595   3.644   4.230   8.010 -1.5485  1.1116  1.0692
 4046SOL     OW23596   2.369   3.642   0.706 -0.0684  0.3856  0.2312
 4046SOL    HW123597   2.455   3.602   0.713  0.6904  2.1625  0.9128
 4046SOL    HW223598   2.311   3.588   0.759  2.1123 -1.9261  0.2435
 4047SOL     OW23599   2.567   4.609   9.352 -0.0117  0.2299  0.3815
 4047SOL    HW123600   2.522   4.655   9.422 -1.4413  0.2587 -0.5689
 4047SOL    HW223601   2.648   4.590   9.399  1.4231  1.0394 -1.7518
 4048SOL     OW23602   2.392   1.719   6.329 -0.3490 -0.1039 -0.2508
 4048SOL    HW123603   2.488   1.722   6.329 -0.3957  1.6037 -0.0336
 4048SOL    HW223604   2.381   1.780   6.256  0.9117  2.5274  1.7466
 4049SOL     OW23605   4.011   1.589  15.305  0.1824  0.0861  0.2727
 4049SOL    HW123606   3.946   1.615  15.241  0.5665 -0.8242 -0.4952
 4049SOL    HW223607   4.067   1.666  15.316 -0.8634  0.9625 -0.6079
 4050SOL     OW23608   0.955   0.411   8.341 -0.1841  0.5599 -0.0020
 4050SOL    HW123609   0.967   0.440   8.251  1.2576  0.6705  0.2305
 4050SOL    HW223610   0.861   0.390   8.346 -0.0537 -0.2630 -0.8588
 4051SOL     OW23611   0.199   1.360  12.312 -0.5757 -0.1522  0.1515
 4051SOL    HW123612   0.209   1.407  12.395 -0.2866  0.1008 -0.0287
 4051SOL    HW223613   0.273   1.396  12.263  0.6335  0.2488  2.2665
 4052SOL     OW23614   3.853   3.098   8.646  0.2682 -0.2028 -0.5491
 4052SOL    HW123615   3.783   3.163   8.639 -1.0706 -1.5858 -0.0937
 4052SOL    HW223616   3.809   3.022   8.684  0.1865  0.1225  0.0118
 4053SOL     OW23617   2.923   4.246   7.528  0.2783 -0.4781 -0.2867
 4053SOL    HW123618   2.956   4.167   7.484  1.3105 -0.6233  0.7222
 4053SOL    HW223619   2.938   4.219   7.619  0.4083  2.4167  0.5346
 4054SOL     OW23620   0.044   4.626   0.054  0.0368 -0.6638  0.0712
 4054SOL    HW123621   0.051   4.614   0.148  1.8964  1.6953  0.2315
 4054SOL    HW223622   0.121   4.579   0.021 -0.9307  0.0948 -3.2450
 4055SOL     OW23623   1.476   3.552   7.970  0.5838  0.0120 -0.3284
 4055SOL    HW123624   1.508   3.487   8.033 -0.1719 -0.5679 -0.5371
 4055SOL    HW223625   1.515   3.521   7.888 -0.9657 -0.2104 -0.9761
 4056SOL     OW23626   2.620   0.002   4.957 -0.2135 -0.2399  0.1416
 4056SOL    HW123627   2.598   4.680   4.876 -0.2845 -1.5106  0.9011
 4056SOL    HW223628   2.630   4.655   5.019  0.7264 -1.1818 -1.0975
 4057SOL     OW23629   1.212   3.348   3.787  0.5270  0.0094  0.2331
 4057SOL    HW123630   1.221   3.411   3.859  0.4876 -0.2978  0.5095
 4057SOL    HW223631   1.191   3.268   3.836 -0.7689  0.9180  1.1667
 4058SOL     OW23632   1.472   2.639   7.612 -0.3926  0.1330 -0.2253
 4058SOL    HW123633   1.414   2.611   7.684 -0.4427  0.1631 -0.2537
 4058SOL    HW223634   1.451   2.582   7.538  1.3511  0.8882 -1.3024
 4059SOL     OW23635   1.401   3.922   9.850 -0.5919  0.1947 -0.0271
 4059SOL    HW123636   1.455   3.970   9.913 -1.0980 -2.2222  2.2378
 4059SOL    HW223637   1.444   3.941   9.767 -1.5766  3.5036  0.2153
 4060SOL     OW23638   4.274   0.968   0.561 -0.1452  0.0438 -0.0406
 4060SOL    HW123639   4.211   1.019   0.612 -1.1283  0.3321 -1.5536
 4060SOL    HW223640   4.215   0.941   0.492 -2.0887  0.1791  1.5621
 4061SOL     OW23641   1.637   0.027   8.673 -0.2678  0.3066  0.3640
 4061SOL    HW123642   1.597   4.685   8.617  0.8331  1.7561 -2.1817
 4061SOL    HW223643   1.591   0.006   8.754 -0.3729  2.8373  0.9584
 4062SOL     OW23644   4.359   2.086   3.663  0.0677  0.1080 -0.9028
 4062SOL    HW123645   4.286   2.106   3.722 -0.2907 -1.2224 -0.8959
 4062SOL    HW223646   4.434   2.103   3.721  0.1558  0.3632 -1.0911
 4063SOL     OW23647   4.699   1.964   8.788 -0.1847 -0.0240  0.1161
 4063SOL    HW123648   4.617   2.012   8.804 -0.5306 -1.2713  2.0917
 4063SOL    HW223649   4.649   1.904   8.733 -1.9584  1.3025  0.2807
 4064SOL     OW23650   2.501   2.879   7.722  0.0207 -0.5832  0.4150
 4064SOL    HW123651   2.454   2.820   7.665 -0.7921  0.4969 -0.0335
 4064SOL    HW223652   2.592   2.855   7.705  0.1382  0.6238 -0.6164
 4065SOL     OW23653   1.162   2.506  11.413 -1.4028  0.2926  0.2961
 4065SOL    HW123654   1.101   2.474  11.479 -2.0639 -2.0620 -1.4855
 4065SOL    HW223655   1.189   2.589  11.453 -2.5268  0.2775  1.0679
 4066SOL     OW23656   4.219   4.495   7.457  0.3325  0.0817  0.1824
 4066SOL    HW123657   4.300   4.490   7.408  0.4283  0.6653  0.2778
 4066SOL    HW223658   4.166   4.433   7.407 -0.8104  1.1399  0.0656
 4067SOL     OW23659   4.640   4.484   6.860  1.0615  0.6919 -0.2121
 4067SOL    HW123660   4.635   4.538   6.939  1.9477  0.1680  0.2089
 4067SOL    HW223661   4.560   4.510   6.815  1.1317  1.2958  0.0166
 4068SOL     OW23662   1.254   0.699   4.534 -0.5422 -0.2928 -0.7561
 4068SOL    HW123663   1.275   0.625   4.591 -0.9263  0.0937 -0.0981
 4068SOL    HW223664   1.193   0.648   4.482 -0.1181  1.3451 -2.8384
 4069SOL     OW23665   0.159   0.083   1.923  0.2462  0.4714  0.1393
 4069SOL    HW123666   0.202   0.010   1.968  0.4867 -0.8053 -2.1824
 4069SOL    HW223667   0.231   0.122   1.874 -0.5900 -0.3865 -1.7509
 4070SOL     OW23668   1.224   1.927  15.459  0.6546  0.5888 -0.4328
 4070SOL    HW123669   1.270   1.946  15.541  0.8467  1.9995 -0.8747
 4070SOL    HW223670   1.290   1.913  15.391  0.7740 -0.3368 -0.1229
 4071SOL     OW23671   2.795   0.246  11.047  0.2030 -0.1880  0.0477
 4071SOL    HW123672   2.706   0.281  11.038  0.3722  0.1424 -0.2885
 4071SOL    HW223673   2.779   0.218  11.137 -0.4003  0.6889  0.2148
 4072SOL     OW23674   1.983   0.959   3.814 -0.1431 -0.2817  0.3952
 4072SOL    HW123675   1.916   0.994   3.873  1.3349  1.1650  1.2268
 4072SOL    HW223676   1.957   0.868   3.798  1.4056 -0.5822 -0.4097
 4073SOL     OW23677   4.561   4.052   2.836 -0.3336 -0.5017 -0.2198
 4073SOL    HW123678   4.491   4.061   2.770  1.1894  0.1640 -1.7501
 4073SOL    HW223679   4.507   4.001   2.896 -2.0323  0.9979 -0.4349
 4074SOL     OW23680   3.197   1.856   4.736 -0.1725 -0.0447 -0.6857
 4074SOL    HW123681   3.143   1.924   4.695  1.0752 -0.1110 -2.4433
 4074SOL    HW223682   3.238   1.913   4.801 -3.8954  3.0047 -0.9906
 4075SOL     OW23683   1.372   1.543   4.857  0.5362  0.5625 -0.2186
 4075SOL    HW123684   1.317   1.564   4.781  0.1247  3.1255  0.8055
 4075SOL    HW223685   1.458   1.581   4.836  0.6956  0.9469  1.1643
 4076SOL     OW23686   0.097   1.549  15.236  0.0147 -0.2169  0.0676
 4076SOL    HW123687   0.079   1.456  15.223  1.2533 -0.2945 -1.1750
 4076SOL    HW223688   0.184   1.555  15.195 -0.2464  4.5633  0.2205
 4077SOL     OW23689   0.760   0.512   2.314  0.0274  0.6813  0.1878
 4077SOL    HW123690   0.717   0.429   2.332  1.6871 -0.6459 -2.0207
 4077SOL    HW223691   0.709   0.565   2.375  0.2596 -0.1902  1.1360
 4078SOL     OW23692   2.512   1.749   4.707 -0.4536  0.5801 -1.0400
 4078SOL    HW123693   2.426   1.782   4.679  0.7715  3.5092 -1.3320
 4078SOL    HW223694   2.496   1.727   4.798  2.3009 -0.0764 -0.7319
 4079SOL     OW23695   1.842   1.777   7.368  0.0414 -0.1869 -0.0692
 4079SOL    HW123696   1.909   1.726   7.321 -0.9227 -0.3798 -1.2289
 4079SOL    HW223697   1.864   1.757   7.459 -0.4735 -2.6752 -0.4956
 4080SOL     OW23698   3.091   0.525  12.357  0.5307  0.4114 -0.0085
 4080SOL    HW123699   3.037   0.464  12.306 -0.9664  0.2054  1.8221
 4080SOL    HW223700   3.081   0.501  12.449  1.7043 -3.0677 -0.8179
 4081SOL     OW23701   1.534   2.565  11.712  0.2417  0.0826 -0.3009
 4081SOL    HW123702   1.576   2.616  11.781  0.1690 -0.4314  0.1274
 4081SOL    HW223703   1.512   2.627  11.643  0.5070  0.7315  0.2000
 4082SOL     OW23704   2.037   0.476   2.831  0.0206  0.6017 -0.2230
 4082SOL    HW123705   2.056   0.457   2.739  1.3195  1.4796 -0.1262
 4082SOL    HW223706   1.983   0.554   2.822 -0.6308  0.0971 -0.7948
 4083SOL     OW23707   3.296   4.106   5.144 -0.3029 -0.1339 -0.5815
 4083SOL    HW123708   3.380   4.115   5.098 -0.4046 -2.7272 -1.2722
 4083SOL    HW223709   3.250   4.159   5.079  1.2049  1.6362 -0.2176
 4084SOL     OW23710   3.142   3.904  11.176  0.5321  0.2182  0.1299
 4084SOL    HW123711   3.133   3.862  11.261 -0.5484 -0.3888 -0.2913
 4084SOL    HW223712   3.233   3.892  11.147 -0.3076 -1.6585 -1.6474
 4085SOL     OW23713   2.267   2.496   2.133  0.6539  0.8718 -0.2869
 4085SOL    HW123714   2.350   2.501   2.182  0.6729  0.3835 -0.2642
 4085SOL    HW223715   2.280   2.568   2.072 -1.5759  1.0219 -0.5606
 4086SOL     OW23716   3.126   3.914  13.694 -0.2553  0.0880 -0.6018
 4086SOL    HW123717   3.177   3.870  13.626 -1.2895 -1.8614 -0.1085
 4086SOL    HW223718   3.124   4.002  13.657  0.9694  0.4392  0.1670
 4087SOL     OW23719   4.686   2.680   2.755  0.4403  0.3994 -0.1128
 4087SOL    HW123720   4.702   2.594   2.717  1.2652 -0.3650  1.9613
 4087SOL    HW223721   0.050   2.714   2.752 -0.1642  2.1231  1.1992
 4088SOL     OW23722   2.677   0.644  15.499 -0.2724  0.7396 -0.2211
 4088SOL    HW123723   2.595   0.691  15.506 -1.1900 -0.7356 -1.0523
 4088SOL    HW223724   2.691   0.597  15.416  1.0141  0.1110  0.3508
 4089SOL     OW23725   0.133   0.709  13.104 -0.3458  0.4048  0.0146
 4089SOL    HW123726   0.131   0.620  13.141  0.6660  0.1522 -0.5479
 4089SOL    HW223727   0.103   0.703  13.014 -0.6415 -0.3755  0.1674
 4090SOL     OW23728   0.445   0.566   5.145 -0.7969 -0.5758 -0.1630
 4090SOL    HW123729   0.457   0.517   5.226 -0.7295  0.0729  0.2191
 4090SOL    HW223730   0.351   0.582   5.148 -1.3733 -3.8011 -0.5465
 4091SOL     OW23731   4.414   1.007  13.070  0.0456 -0.6530  0.0755
 4091SOL    HW123732   4.502   0.979  13.096 -1.5200 -3.2383  2.6876
 4091SOL    HW223733   4.426   1.095  13.036 -0.6738 -1.1409 -1.4543
 4092SOL     OW23734   2.524   3.930   4.192 -0.0581  0.4163 -0.3217
 4092SOL    HW123735   2.433   3.959   4.198  0.6138  1.3717  5.3158
 4092SOL    HW223736   2.557   3.992   4.257  2.1347 -0.5201 -0.5411
 4093SOL     OW23737   1.599   2.895   3.968 -0.0903  0.1122 -0.4976
 4093SOL    HW123738   1.682   2.902   4.014 -1.0299 -0.0100  1.1850
 4093SOL    HW223739   1.641   2.933   3.890 -2.8253  1.9427 -1.0817
 4094SOL     OW23740   2.393   4.285   8.407  0.1671 -0.1471  0.7201
 4094SOL    HW123741   2.450   4.361   8.411 -1.1735  0.8595  0.7702
 4094SOL    HW223742   2.314   4.330   8.437  2.3673  1.9585  3.3105
 4095SOL     OW23743   0.196   3.081  11.793  0.5204  0.1671 -0.3531
 4095SOL    HW123744   0.199   3.138  11.715  0.2635  1.1225  0.3393
 4095SOL    HW223745   0.249   3.003  11.777  0.1636  0.1655 -1.5199
 4096SOL     OW23746   3.901   0.633   2.144 -0.3704 -0.1987 -0.0838
 4096SOL    HW123747   3.938   0.714   2.109  1.2317 -0.8123  0.2057
 4096SOL    HW223748   3.985   0.589   2.158  0.0116  0.4412 -0.3530
 4097SOL     OW23749   0.755   3.588   2.404  0.3339  0.0923 -0.4403
 4097SOL    HW123750   0.812   3.652   2.448  0.5436  1.2886 -2.4232
 4097SOL    HW223751   0.766   3.518   2.468 -0.1950  1.5096  1.1792
 4098SOL     OW23752   0.000   2.273   3.680 -0.2624  0.0574 -0.4130
 4098SOL    HW123753   0.078   2.324   3.656  0.2855 -0.5314  0.1066
 4098SOL    HW223754   4.717   2.295   3.772  0.9284  1.5378 -0.6587
 4099SOL     OW23755   2.319   3.554  15.954  0.2803 -0.1753 -1.0732
 4099SOL    HW123756   2.282   3.527  16.038 -2.4744  1.4054 -1.7758
 4099SOL    HW223757   2.369   3.632  15.977  0.0625 -0.2869 -0.2072
 4100SOL     OW23758   3.503   4.561   5.813 -0.2715  0.1643 -0.0502
 4100SOL    HW123759   3.472   4.584   5.901 -0.7235 -0.3246 -0.0794
 4100SOL    HW223760   3.519   4.653   5.793 -0.1581  0.3117  0.6943
 4101SOL     OW23761   4.466   1.920  10.345 -0.1371  0.0599 -0.0141
 4101SOL    HW123762   4.411   1.997  10.362 -0.7393  0.0256 -1.7883
 4101SOL    HW223763   4.431   1.895  10.259  1.2393  0.4229 -0.6758
 4102SOL     OW23764   0.396   1.317   8.984 -0.4617  0.1187 -0.1186
 4102SOL    HW123765   0.480   1.330   9.027 -1.1568  1.6690  0.7669
 4102SOL    HW223766   0.389   1.402   8.941 -3.4624 -0.1568 -0.2179
 4103SOL     OW23767   3.227   0.371   5.757 -0.0038 -0.0589  0.1531
 4103SOL    HW123768   3.267   0.448   5.717  1.0760  0.3470  2.0500
 4103SOL    HW223769   3.294   0.305   5.735  1.5037  1.8502 -1.0238
 4104SOL     OW23770   3.928   4.090  12.323 -0.2418 -0.2110  0.4728
 4104SOL    HW123771   3.880   4.045  12.253 -0.8439 -2.2076  2.1905
 4104SOL    HW223772   3.858   4.144  12.360  0.0403  0.4416  0.0655
 4105SOL     OW23773   0.826   3.221  11.177 -0.3083 -0.4728 -0.3384
 4105SOL    HW123774   0.840   3.270  11.095  1.5064 -1.0995 -0.4006
 4105SOL    HW223775   0.895   3.251  11.236 -1.4009  2.1645 -0.4013
 4106SOL     OW23776   2.228   1.385   2.156 -0.8210  0.1167  0.0330
 4106SOL    HW123777   2.149   1.334   2.173  0.6135 -1.5447  1.7350
 4106SOL    HW223778   2.297   1.325   2.182  2.1440  4.1185  1.4402
 4107SOL     OW23779   2.419   0.398   4.430  0.2093 -0.1981 -0.1953
 4107SOL    HW123780   2.330   0.381   4.398 -0.4405 -0.2558  1.6718
 4107SOL    HW223781   2.471   0.391   4.350  1.5902 -0.1681  0.7053
 4108SOL     OW23782   3.847   1.403   5.858  0.3250  0.4538  0.3907
 4108SOL    HW123783   3.752   1.401   5.867  0.2281  0.5687 -0.5455
 4108SOL    HW223784   3.856   1.407   5.763 -1.2418 -3.2069  0.1186
 4109SOL     OW23785   2.754   4.681   4.490 -0.1034 -0.3244  0.1774
 4109SOL    HW123786   2.678   4.641   4.533  0.7704 -1.3089  0.8010
 4109SOL    HW223787   2.743   0.045   4.521  2.3683 -0.2774  0.9112
 4110SOL     OW23788   4.522   3.805  17.429 -0.1668 -0.2606  0.1680
 4110SOL    HW123789   4.543   3.893  17.396  0.7917 -0.1850  0.9931
 4110SOL    HW223790   4.562   3.798  17.515  0.4258  2.2096  0.1130
 4111SOL     OW23791   0.094   2.850   2.473  0.0782  0.4793 -0.2790
 4111SOL    HW123792   0.126   2.918   2.532  1.9613 -0.4674 -0.1957
 4111SOL    HW223793   0.002   2.844   2.498  0.1377  0.1690 -0.1328
 4112SOL     OW23794   1.921   1.260   3.763  0.2011 -0.0715 -0.1746
 4112SOL    HW123795   1.977   1.185   3.782  2.8709  2.2266  0.8742
 4112SOL    HW223796   1.870   1.222   3.691 -1.3433 -0.6966  1.2319
 4113SOL     OW23797   1.501   2.159  15.452 -0.0674 -0.0053  0.0004
 4113SOL    HW123798   1.531   2.073  15.480 -1.3858 -0.3312  0.3979
 4113SOL    HW223799   1.575   2.186  15.396 -2.8502 -1.8884 -4.5995
 4114SOL     OW23800   4.123   1.373   7.619 -0.3888 -0.3534  0.1752
 4114SOL    HW123801   4.187   1.315   7.661 -0.0540  2.7234  3.8449
 4114SOL    HW223802   4.141   1.451   7.670 -1.0886  0.4097 -0.7414
 4115SOL     OW23803   4.209   3.987   4.242 -0.2367  0.4015 -0.1445
 4115SOL    HW123804   4.238   3.945   4.161  0.5795  0.1261  0.3005
 4115SOL    HW223805   4.292   3.987   4.289 -0.2312 -0.1928 -0.1534
 4116SOL     OW23806   1.907   2.375  16.783 -1.0028  0.0717  0.3071
 4116SOL    HW123807   1.962   2.298  16.801 -2.9325 -1.5966 -1.0018
 4116SOL    HW223808   1.862   2.343  16.705  0.9792 -0.4991 -0.6065
 4117SOL     OW23809   3.045   3.890   2.587 -0.4891  0.1613  0.1426
 4117SOL    HW123810   3.086   3.961   2.635  2.3986 -1.0598 -0.4951
 4117SOL    HW223811   2.979   3.934   2.534 -2.1889 -2.8052 -0.2210
 4118SOL     OW23812   1.950   3.579   8.314 -0.1476 -0.6709  0.6500
 4118SOL    HW123813   1.882   3.571   8.248 -1.3532 -0.6393  1.8942
 4118SOL    HW223814   2.029   3.599   8.263 -0.5889  1.8854  0.9473
 4119SOL     OW23815   3.040   2.723   3.772  0.1350 -0.0551  0.0243
 4119SOL    HW123816   3.017   2.742   3.863 -0.2313 -0.7586  0.0790
 4119SOL    HW223817   2.987   2.787   3.723 -3.4029 -2.8858  0.1440
 4120SOL     OW23818   0.806   1.850  10.520 -0.2880 -0.3162  0.0905
 4120SOL    HW123819   0.885   1.904  10.523 -0.4746 -0.0005 -0.5991
 4120SOL    HW223820   0.789   1.843  10.614 -0.1443 -0.2868  0.1200
 4121SOL     OW23821   2.259   1.607  17.469  0.1270 -0.7079 -0.7028
 4121SOL    HW123822   2.238   1.515  17.484 -1.4169 -0.2862 -0.3084
 4121SOL    HW223823   2.255   1.605  17.374  0.7482 -0.6218 -0.7337
 4122SOL     OW23824   1.135   2.465  16.837 -0.4096  0.4518  0.6653
 4122SOL    HW123825   1.093   2.460  16.751 -0.2020  0.2490  0.5759
 4122SOL    HW223826   1.210   2.517  16.808 -2.1286  1.0218 -2.8285
 4123SOL     OW23827   0.520   1.141   7.971 -0.0644  0.5557  0.2285
 4123SOL    HW123828   0.465   1.086   7.915 -0.3758 -0.8708  1.9306
 4123SOL    HW223829   0.587   1.083   8.006 -0.0097  0.5433  0.1028
 4124SOL     OW23830   0.477   1.017  14.159 -0.3389 -0.1741 -0.5335
 4124SOL    HW123831   0.417   1.061  14.219  0.5500 -0.0010  0.2288
 4124SOL    HW223832   0.552   1.067  14.190  0.5618 -1.9252  0.0971
 4125SOL     OW23833   4.439   2.202  13.898 -0.5564  0.2371 -0.3175
 4125SOL    HW123834   4.442   2.183  13.805 -1.1142 -1.1746 -0.0420
 4125SOL    HW223835   4.446   2.110  13.923 -1.3454 -0.5183 -2.8557
 4126SOL     OW23836   3.687   0.707   3.107  0.1837 -0.1002 -0.1651
 4126SOL    HW123837   3.780   0.725   3.093 -0.2235  0.2922 -2.3938
 4126SOL    HW223838   3.654   0.729   3.020  1.9541  3.8445  0.1685
 4127SOL     OW23839   3.613   0.462   5.805 -0.0159 -0.8745  0.4701
 4127SOL    HW123840   3.605   0.370   5.781 -0.5855 -0.6516 -0.1779
 4127SOL    HW223841   3.561   0.498   5.733  2.8523  0.3997 -0.9726
 4128SOL     OW23842   3.586   3.822  16.046  0.4210  0.3874  0.2382
 4128SOL    HW123843   3.638   3.867  16.113  0.5709  0.3544  0.1443
 4128SOL    HW223844   3.551   3.758  16.107  1.4158 -0.5391 -0.1688
 4129SOL     OW23845   3.652   3.351   4.211 -0.3248  0.0198  0.3272
 4129SOL    HW123846   3.646   3.360   4.307  0.3310 -0.7569  0.4415
 4129SOL    HW223847   3.729   3.297   4.193 -0.9745 -0.7690 -0.0454
 4130SOL     OW23848   3.193   2.362   1.940  0.1708 -0.1092 -0.5692
 4130SOL    HW123849   3.240   2.436   1.902 -0.1613  0.0301 -0.7031
 4130SOL    HW223850   3.118   2.394   1.991 -0.6243 -1.5232 -0.8354
 4131SOL     OW23851   3.866   2.351   1.532 -0.1441 -0.1397 -0.1311
 4131SOL    HW123852   3.786   2.365   1.483  0.8256  0.3265 -1.5886
 4131SOL    HW223853   3.935   2.409   1.499 -0.2850 -0.5724 -1.1848
 4132SOL     OW23854   0.862   2.398   7.086 -0.2378 -0.3032  0.6463
 4132SOL    HW123855   0.946   2.444   7.084 -1.5092  2.1332  3.1704
 4132SOL    HW223856   0.819   2.460   7.027  0.4964 -1.0825 -0.7321
 4133SOL     OW23857   2.592   0.372   4.203  0.1959  0.0818  0.0582
 4133SOL    HW123858   2.679   0.375   4.243  0.5379 -1.9342 -0.5000
 4133SOL    HW223859   2.572   0.464   4.191  0.2786 -0.2047 -2.3836
 4134SOL     OW23860   3.964   4.584   2.873  0.1326 -0.5247 -0.0973
 4134SOL    HW123861   4.048   4.551   2.904  0.0828 -0.9443 -0.4164
 4134SOL    HW223862   3.954   4.649   2.943  1.7413 -1.5873  1.1348
 4135SOL     OW23863   1.428   2.292   2.235  0.3336 -0.0477 -0.4517
 4135SOL    HW123864   1.461   2.228   2.172 -0.5287 -0.4429 -0.5059
 4135SOL    HW223865   1.369   2.235   2.286  0.0321  2.0221  1.4950
 4136SOL     OW23866   1.424   3.311  11.288 -0.7364 -0.2671 -0.2295
 4136SOL    HW123867   1.422   3.243  11.355  0.2667  1.1036  1.2008
 4136SOL    HW223868   1.360   3.277  11.225  0.0647 -1.3573 -0.4446
 4137SOL     OW23869   2.408   2.632  14.116  0.0417 -0.3233 -0.0856
 4137SOL    HW123870   2.437   2.624  14.025 -0.8324 -1.1102 -0.2839
 4137SOL    HW223871   2.475   2.573  14.151 -0.1091 -0.3997  0.0680
 4138SOL     OW23872   2.881   3.214   4.380 -0.2773  0.4233  0.1506
 4138SOL    HW123873   2.791   3.245   4.374 -0.0378  1.1145  0.1300
 4138SOL    HW223874   2.905   3.227   4.288  1.3849  1.6046  0.7641
 4139SOL     OW23875   3.056   0.511   1.661  0.8112  0.3662  0.3103
 4139SOL    HW123876   3.070   0.422   1.629  1.9209  0.7271 -0.2045
 4139SOL    HW223877   3.031   0.550   1.578  0.1828 -0.5325  0.0820
 4140SOL     OW23878   3.054   1.045  14.232 -0.0619 -0.0069 -0.0190
 4140SOL    HW123879   2.971   1.064  14.275 -0.8414  1.9387 -2.4463
 4140SOL    HW223880   3.045   0.950  14.226 -0.4757 -0.3020  5.3449
 4141SOL     OW23881   0.436   3.858   6.939  0.2078  0.3500  0.1088
 4141SOL    HW123882   0.407   3.858   6.848  1.2902  0.0726 -0.2414
 4141SOL    HW223883   0.397   3.941   6.964 -1.3967 -0.8047  1.4195
 4142SOL     OW23884   0.084   4.083  13.604  0.5637  0.5384 -0.2777
 4142SOL    HW123885   0.170   4.089  13.562  0.5457 -1.2192 -0.5957
 4142SOL    HW223886   0.065   4.176  13.603  0.3438  0.5058  0.7468
 4143SOL     OW23887   2.858   1.452   0.437 -0.5809  0.3157 -0.7751
 4143SOL    HW123888   2.784   1.398   0.465 -0.0319 -0.4583 -0.8097
 4143SOL    HW223889   2.926   1.391   0.410 -0.2795 -0.8048  2.5674
 4144SOL     OW23890   2.116   0.121   6.580  0.0855 -0.2010 -0.0515
 4144SOL    HW123891   2.129   0.162   6.494  1.3468 -1.7954 -0.6307
 4144SOL    HW223892   2.057   0.052   6.551 -1.3690  1.5667 -1.3142
 4145SOL     OW23893   0.425   3.187   6.351  0.4411 -0.1271  0.1800
 4145SOL    HW123894   0.404   3.280   6.344 -3.9769 -0.8288  3.8004
 4145SOL    HW223895   0.519   3.200   6.336  0.1948  0.4811 -0.8055
 4146SOL     OW23896   0.497   1.040   7.460 -0.0349  1.4075 -0.0076
 4146SOL    HW123897   0.541   0.993   7.390  0.0023  0.8489  0.3891
 4146SOL    HW223898   0.569   1.031   7.522 -0.4518 -1.8813  0.0122
 4147SOL     OW23899   1.800   0.065   3.060  0.2880  0.5322  0.6931
 4147SOL    HW123900   1.765   0.051   3.148  1.5361  0.0306  1.1185
 4147SOL    HW223901   1.802   0.161   3.056 -2.5884  0.5217 -0.4847
 4148SOL     OW23902   1.204   2.697   2.405  0.1394 -0.0449 -0.0689
 4148SOL    HW123903   1.166   2.649   2.331  0.4604 -0.2568 -0.0994
 4148SOL    HW223904   1.162   2.665   2.485  1.7690  0.7981  1.1260
 4149SOL     OW23905   2.614   1.185   3.176 -0.3214  0.6065  0.0939
 4149SOL    HW123906   2.525   1.182   3.211 -0.0611  1.0907  0.8087
 4149SOL    HW223907   2.601   1.207   3.084  0.5855  0.9846  0.0616
 4150SOL     OW23908   1.404   4.083   1.912 -0.1320 -0.5269  0.3709
 4150SOL    HW123909   1.336   4.137   1.954 -0.6160 -0.2138 -0.8299
 4150SOL    HW223910   1.480   4.140   1.925 -1.4815  1.5819 -0.8796
 4151SOL     OW23911   1.250   3.332  14.852  0.0147 -0.2296 -0.2402
 4151SOL    HW123912   1.174   3.334  14.793  1.5990  1.6988 -2.2609
 4151SOL    HW223913   1.214   3.386  14.922 -0.3590 -0.2638 -0.4046
 4152SOL     OW23914   3.751   1.069   9.205  0.7328 -0.2191 -0.6178
 4152SOL    HW123915   3.827   1.061   9.147  2.1041 -0.5655  1.2181
 4152SOL    HW223916   3.707   0.989   9.179  1.4886 -1.0147  0.5559
 4153SOL     OW23917   4.291   2.125   5.231  0.1482  0.2287  0.7877
 4153SOL    HW123918   4.205   2.152   5.199  0.9792  0.6379 -1.1455
 4153SOL    HW223919   4.329   2.210   5.255 -0.7139  0.8861 -0.1348
 4154SOL     OW23920   1.877   2.100  15.530  1.1264  0.6609  0.0576
 4154SOL    HW123921   1.834   2.106  15.615  0.1078  0.1750 -0.4153
 4154SOL    HW223922   1.860   2.191  15.503  0.4121  0.5852  0.2349
 4155SOL     OW23923   2.845   4.050   9.674 -0.1702  0.4563 -0.1922
 4155SOL    HW123924   2.912   3.995   9.632  0.4283  0.3411  0.8898
 4155SOL    HW223925   2.772   4.031   9.615 -0.7775  1.6496  0.1830
 4156SOL     OW23926   3.495   1.792   5.036  0.7666 -0.4451 -0.0950
 4156SOL    HW123927   3.514   1.773   5.128  0.0421 -0.1834  0.1058
 4156SOL    HW223928   3.441   1.871   5.037 -1.1978 -1.8072  1.7287
 4157SOL     OW23929   3.969   0.410   0.311  0.6861 -0.2703 -0.2945
 4157SOL    HW123930   4.009   0.323   0.320  0.9714 -0.1313 -0.2234
 4157SOL    HW223931   3.882   0.394   0.347  0.9789  1.1789  1.0581
 4158SOL     OW23932   0.068   3.176   2.034  0.5039 -0.2026 -0.6968
 4158SOL    HW123933   0.082   3.104   1.973 -1.6396 -0.5785 -0.7336
 4158SOL    HW223934   0.003   3.225   1.984 -1.1263 -1.1431  0.5119
 4159SOL     OW23935   3.343   0.367   5.450 -0.2860 -0.0803 -0.1844
 4159SOL    HW123936   3.324   0.419   5.371 -0.3552 -0.8820 -0.6948
 4159SOL    HW223937   3.430   0.337   5.423 -0.0094  0.1809  0.4285
 4160SOL     OW23938   1.369   0.852  15.312 -0.2930  0.1480 -0.6661
 4160SOL    HW123939   1.342   0.764  15.287  3.9790 -0.7889 -1.9486
 4160SOL    HW223940   1.338   0.855  15.402  0.8813  0.7323 -0.2744
 4161SOL     OW23941   2.021   0.277   2.570  0.4735  0.3838  0.0447
 4161SOL    HW123942   2.055   0.294   2.483  1.2496 -0.6964  0.1302
 4161SOL    HW223943   2.093   0.219   2.597 -0.2830 -0.2756  0.6536
 4162SOL     OW23944   4.514   0.207   6.209  0.3454 -0.1451  0.8110
 4162SOL    HW123945   4.434   0.160   6.233 -1.2225  1.6583 -0.9170
 4162SOL    HW223946   4.464   0.277   6.167  0.3495 -1.9466 -2.1528
 4163SOL     OW23947   2.413   1.912   1.648 -0.0449  0.3441 -0.3349
 4163SOL    HW123948   2.389   2.000   1.675 -0.1131  0.5653 -1.1024
 4163SOL    HW223949   2.340   1.869   1.693  0.5318 -0.9217 -0.5972
 4164SOL     OW23950   2.897   2.759  12.355 -0.0598  0.0265 -0.1385
 4164SOL    HW123951   2.878   2.845  12.318 -1.0451 -0.3708 -0.5513
 4164SOL    HW223952   2.899   2.770  12.450 -0.7495 -0.6333 -0.0479
 4165SOL     OW23953   3.798   4.637   7.924 -0.6748  0.4855 -0.1819
 4165SOL    HW123954   3.890   4.639   7.951 -0.0768  2.8694 -2.4068
 4165SOL    HW223955   3.797   4.568   7.858  0.0482 -1.3469  1.7269
 4166SOL     OW23956   1.513   1.176   4.980 -0.6629 -0.5934 -0.2691
 4166SOL    HW123957   1.604   1.185   5.008 -0.1922 -0.0692 -1.9859
 4166SOL    HW223958   1.519   1.150   4.888 -0.2353  0.8942 -0.6607
 4167SOL     OW23959   0.310   1.022   1.617 -0.0012 -0.7167 -0.2250
 4167SOL    HW123960   0.357   1.036   1.699 -0.5529 -2.9450  0.4839
 4167SOL    HW223961   0.293   0.928   1.609  0.8497 -0.8426 -0.5989
 4168SOL     OW23962   2.233   4.528  13.589  0.1248 -0.2497  0.1137
 4168SOL    HW123963   2.139   4.510  13.586  0.1608 -0.4409  0.1044
 4168SOL    HW223964   2.264   4.450  13.543 -1.4731  0.7958 -2.7136
 4169SOL     OW23965   2.660   0.696   7.139  0.4021  0.2705  0.3680
 4169SOL    HW123966   2.751   0.705   7.169  0.7323 -2.5026  0.2004
 4169SOL    HW223967   2.654   0.742   7.056 -3.0544 -0.4173  0.2530
 4170SOL     OW23968   3.450   1.641  15.696  0.1284  0.2197 -0.2084
 4170SOL    HW123969   3.470   1.693  15.619  0.3051 -0.1745 -0.4265
 4170SOL    HW223970   3.404   1.566  15.658 -2.1473  1.3757  0.2129
 4171SOL     OW23971   1.520   4.283   2.246  0.4094  0.4624  0.0425
 4171SOL    HW123972   1.511   4.285   2.341  1.6099  0.6082  0.1515
 4171SOL    HW223973   1.531   4.378   2.239 -3.1634  0.7827 -1.2010
 4172SOL     OW23974   0.060   1.299   3.901  0.1662  0.3641 -0.2581
 4172SOL    HW123975   0.075   1.204   3.905 -2.3587  0.0192  1.0941
 4172SOL    HW223976   0.069   1.313   3.807  1.9248  0.8271 -0.0143
 4173SOL     OW23977   1.137   0.007   4.822  0.2250  0.3379 -0.7973
 4173SOL    HW123978   1.083   4.678   4.765  1.0243  1.9755 -3.1052
 4173SOL    HW223979   1.125   4.700   4.911  2.4441  1.7531  0.0256
 4174SOL     OW23980   1.248   1.594   5.723 -0.2257  0.4890  0.5491
 4174SOL    HW123981   1.282   1.654   5.657  0.4722  1.2834  1.6392
 4174SOL    HW223982   1.193   1.536   5.670 -1.0638  0.3210  1.6040
 4175SOL     OW23983   4.127   1.770   7.157 -0.0085 -0.1274  0.1584
 4175SOL    HW123984   4.178   1.839   7.199 -0.8490  0.4917  0.1472
 4175SOL    HW223985   4.041   1.810   7.157  0.3428  0.6563 -1.7862
 4176SOL     OW23986   4.096   2.527  10.030 -0.4938  0.3739 -0.8118
 4176SOL    HW123987   4.068   2.600   9.975  0.8716  2.9895  2.0127
 4176SOL    HW223988   4.104   2.581  10.108 -2.4027 -0.8195  0.2116
 4177SOL     OW23989   0.341   1.498   6.429  0.0556 -0.0618  0.0348
 4177SOL    HW123990   0.334   1.440   6.354  0.3857  1.7453 -1.3829
 4177SOL    HW223991   0.385   1.449   6.499  0.9668 -2.4574 -2.2416
 4178SOL     OW23992   0.763   3.437   9.132  0.5550 -0.2161 -0.2088
 4178SOL    HW123993   0.739   3.514   9.183  0.4607 -1.6980  2.0032
 4178SOL    HW223994   0.859   3.444   9.130  0.4997  0.5302 -0.1652
 4179SOL     OW23995   2.408   2.988   0.162  0.0617 -0.1676  0.0865
 4179SOL    HW123996   2.503   2.978   0.165 -0.0803 -1.3768  0.7110
 4179SOL    HW223997   2.377   2.935   0.088 -2.5560 -0.4792  1.4155
 4180SOL     OW23998   0.468   2.343   1.908 -0.2020 -0.1526  0.2817
 4180SOL    HW123999   0.548   2.335   1.856 -0.5194  2.2700 -0.5790
 4180SOL    HW224000   0.396   2.348   1.845 -0.0928  0.3212  0.1889
 4181SOL     OW24001   3.367   1.918   6.417 -0.2429  0.1291 -0.0216
 4181SOL    HW124002   3.423   1.909   6.494  0.2671  2.3906 -0.1113
 4181SOL    HW224003   3.394   2.010   6.410 -0.7277  0.3002  0.2994
 4182SOL     OW24004   4.289   2.030  16.173 -0.1918 -0.2961  0.0880
 4182SOL    HW124005   4.371   2.069  16.143  0.2165 -1.4610 -0.3043
 4182SOL    HW224006   4.229   2.102  16.152  1.3052  0.7275 -0.5932
 4183SOL     OW24007   0.821   0.380   9.372 -0.3438  0.5652 -0.4538
 4183SOL    HW124008   0.878   0.433   9.429 -2.9478  4.0582 -1.0895
 4183SOL    HW224009   0.739   0.424   9.394 -0.2895  1.3758 -1.8833
 4184SOL     OW24010   4.368   1.611   9.160  0.2406  0.1442 -0.2183
 4184SOL    HW124011   4.366   1.655   9.245  1.8347  1.9250 -1.1121
 4184SOL    HW224012   4.340   1.680   9.100 -2.4028 -0.1885  0.6336
 4185SOL     OW24013   4.233   0.163  10.187  0.3763  0.8145 -0.1715
 4185SOL    HW124014   4.185   0.115  10.254  0.0839  0.0747 -0.9074
 4185SOL    HW224015   4.258   0.239  10.239 -0.8071 -0.7772  2.7150
 4186SOL     OW24016   0.907   3.496   2.825 -0.4064 -0.3199 -0.0535
 4186SOL    HW124017   1.002   3.506   2.828 -0.6480  2.0939 -0.5044
 4186SOL    HW224018   0.887   3.467   2.914  0.5707  1.4175  0.7441
 4187SOL     OW24019   4.397   2.216  10.022  0.2204 -0.6291  0.1149
 4187SOL    HW124020   4.385   2.207  10.117  0.7124  1.3257  0.3691
 4187SOL    HW224021   4.447   2.136  10.005  0.1503 -0.3967 -1.1571
 4188SOL     OW24022   2.776   2.541   6.165  0.0557 -0.5233 -0.2116
 4188SOL    HW124023   2.769   2.462   6.112  1.1924 -0.1762 -0.8874
 4188SOL    HW224024   2.863   2.537   6.205  0.2521 -0.5732 -0.6468
 4189SOL     OW24025   0.628   0.328   4.010  0.2939  0.3751  0.0721
 4189SOL    HW124026   0.564   0.276   3.961  0.5638 -0.3768  0.5170
 4189SOL    HW224027   0.578   0.340   4.091 -1.7731  0.7704 -1.2578
 4190SOL     OW24028   3.249   0.544   0.570  0.1186 -0.1608  0.3321
 4190SOL    HW124029   3.262   0.546   0.475  0.9335 -0.1474  0.4406
 4190SOL    HW224030   3.251   0.449   0.581 -1.0275 -0.3181 -0.8598
 4191SOL     OW24031   3.787   2.745  12.046  0.4051 -0.4340 -0.6602
 4191SOL    HW124032   3.777   2.797  12.126  0.0070 -2.2806  0.4729
 4191SOL    HW224033   3.699   2.713  12.027  0.5731 -1.2472 -0.0742
 4192SOL     OW24034   0.431   1.441  16.527  0.2129  0.5576 -0.2743
 4192SOL    HW124035   0.352   1.485  16.559  0.5685  2.1470 -1.5386
 4192SOL    HW224036   0.488   1.487  16.589  0.7406  1.6880 -1.5709
 4193SOL     OW24037   4.109   2.336  14.243 -0.1962  0.0993  0.6954
 4193SOL    HW124038   4.033   2.365  14.292 -0.1030  0.7426  0.4515
 4193SOL    HW224039   4.070   2.290  14.168 -0.9700  2.1591 -0.1559
 4194SOL     OW24040   2.296   1.485   3.517  0.4663  0.3222  0.4316
 4194SOL    HW124041   2.359   1.416   3.538  0.4306  0.7572  1.9049
 4194SOL    HW224042   2.262   1.499   3.605 -0.1280  0.0182  0.2485
 4195SOL     OW24043   0.869   1.997  11.467 -0.0926 -0.1580  0.5381
 4195SOL    HW124044   0.812   1.931  11.506 -0.1710  0.6758  1.8494
 4195SOL    HW224045   0.907   2.048  11.539  0.7858 -1.5822  1.0809
 4196SOL     OW24046   4.170   1.969   7.861 -0.3065  0.1204  0.7384
 4196SOL    HW124047   4.086   2.015   7.858 -0.4924 -0.4246 -2.6237
 4196SOL    HW224048   4.165   1.928   7.774 -1.2733  0.1258  0.7854
 4197SOL     OW24049   4.325   4.192   3.128 -0.0597 -0.3776 -0.1306
 4197SOL    HW124050   4.395   4.129   3.148 -1.8306 -1.9740  0.9954
 4197SOL    HW224051   4.258   4.136   3.087  0.6152 -0.9823 -0.4176
 4198SOL     OW24052   3.875   0.173  13.880  0.4637  0.5595  0.0020
 4198SOL    HW124053   3.917   0.089  13.894  0.6179  0.9933  2.2015
 4198SOL    HW224054   3.958   0.217  13.861  0.0382  1.3053 -0.1225
 4199SOL     OW24055   1.113   3.294  13.901  0.0539  0.3028  0.1685
 4199SOL    HW124056   1.155   3.211  13.923 -0.5647 -0.1040 -0.1903
 4199SOL    HW224057   1.023   3.273  13.927  0.0893 -2.4369 -1.9540
 4200SOL     OW24058   1.504   4.304   5.644  0.7644  0.5665  0.0395
 4200SOL    HW124059   1.518   4.388   5.688  1.2126 -0.3051  1.5839
 4200SOL    HW224060   1.509   4.247   5.721  0.3719  2.6967  1.6318
 4201SOL     OW24061   3.961   4.211   9.307  0.5852 -0.1400  0.2419
 4201SOL    HW124062   3.870   4.212   9.336 -0.6647  0.4832 -3.7139
 4201SOL    HW224063   3.959   4.302   9.277 -2.1635 -0.7247 -1.3543
 4202SOL     OW24064   2.092   1.884  17.357  0.5719  0.2544 -0.2244
 4202SOL    HW124065   2.146   1.807  17.340  1.2550  1.0787 -1.8344
 4202SOL    HW224066   2.148   1.921  17.425 -0.1443 -2.9020  2.0721
 4203SOL     OW24067   2.831   0.552  12.825 -0.7416  0.5250 -0.1110
 4203SOL    HW124068   2.771   0.614  12.867  1.4073  1.4938  1.5088
 4203SOL    HW224069   2.873   0.511  12.900 -1.0915  2.2417  1.0160
 4204SOL     OW24070   4.264   3.582   3.374 -0.6137 -0.0418 -0.3801
 4204SOL    HW124071   4.288   3.491   3.360  0.5004  0.2743 -0.5120
 4204SOL    HW224072   4.181   3.584   3.326  0.7541  2.7459 -2.6545
 4205SOL     OW24073   4.570   2.064   3.856 -0.6146 -0.0087  0.2095
 4205SOL    HW124074   4.636   2.124   3.891  1.5520 -2.0100 -0.4768
 4205SOL    HW224075   4.531   2.042   3.940  0.4215 -1.0604  0.4173
 4206SOL     OW24076   4.211   4.400   3.256  0.0475  0.1757 -0.9549
 4206SOL    HW124077   4.128   4.388   3.210 -1.0569  1.5055  0.6825
 4206SOL    HW224078   4.260   4.323   3.228 -1.8807 -1.4822  0.2451
 4207SOL     OW24079   4.311   2.919  10.092 -0.0796 -0.2261 -0.2566
 4207SOL    HW124080   4.389   2.885  10.135 -0.2947 -0.9554 -0.4442
 4207SOL    HW224081   4.322   2.894  10.000  1.1449  0.8203 -0.3964
 4208SOL     OW24082   2.465   2.414   3.194  0.0854 -0.6277  0.1273
 4208SOL    HW124083   2.447   2.406   3.100 -1.4748 -0.8042  0.4459
 4208SOL    HW224084   2.458   2.323   3.222 -0.2116 -0.0541  1.9179
 4209SOL     OW24085   0.323   3.160   2.083 -0.4839 -0.6586 -0.1280
 4209SOL    HW124086   0.300   3.089   2.143  0.6682 -0.7307  0.2260
 4209SOL    HW224087   0.235   3.184   2.054  0.4366  0.8936 -1.6114
 4210SOL     OW24088   1.164   3.269  15.340 -0.1886 -0.2145 -0.6739
 4210SOL    HW124089   1.109   3.213  15.395  2.4994 -0.7034  1.5333
 4210SOL    HW224090   1.208   3.199  15.292  0.9430  0.4238 -0.5708
 4211SOL     OW24091   1.766   2.611   3.957 -0.1476 -0.1404  0.4395
 4211SOL    HW124092   1.784   2.574   3.871  2.6567  0.6615  0.6783
 4211SOL    HW224093   1.820   2.690   3.961  0.6799 -0.7311  1.1990
 4212SOL     OW24094   1.888   1.433  13.538 -0.3091 -0.9337  0.1295
 4212SOL    HW124095   1.955   1.467  13.597  1.8635 -1.7848 -1.8484
 4212SOL    HW224096   1.831   1.507  13.516  0.9424 -0.0691 -0.2255
 4213SOL     OW24097   2.053   0.179   3.493 -0.4912 -0.2972 -0.1134
 4213SOL    HW124098   1.964   0.151   3.515 -1.1272  1.5868 -0.2931
 4213SOL    HW224099   2.081   0.201   3.582  0.4575 -1.0999 -0.2082
 4214SOL     OW24100   1.763   0.346   8.400 -0.3630  0.0025  0.5125
 4214SOL    HW124101   1.671   0.326   8.416 -0.8217  1.3335 -0.3932
 4214SOL    HW224102   1.803   0.276   8.451  0.8968  0.0427 -0.4119
 4215SOL     OW24103   1.225   3.694   8.078  0.2221 -0.2195  0.0183
 4215SOL    HW124104   1.249   3.602   8.079  0.8432 -0.0569  0.5787
 4215SOL    HW224105   1.209   3.705   7.985 -1.0546  1.0751  0.3855
 4216SOL     OW24106   1.361   3.135   8.213  0.1435  0.1775  0.0712
 4216SOL    HW124107   1.359   3.198   8.284  0.0501  0.7600 -0.4534
 4216SOL    HW224108   1.403   3.056   8.248  0.3672  0.6740  0.9063
 4217SOL     OW24109   1.261   3.940  11.504 -0.3997 -0.0510  0.3540
 4217SOL    HW124110   1.221   3.892  11.431  1.2949  1.0362 -1.2755
 4217SOL    HW224111   1.344   3.978  11.476 -1.0375  0.0624 -1.3757
 4218SOL     OW24112   0.316   1.605  12.860  0.2615 -0.0510  0.2450
 4218SOL    HW124113   0.236   1.650  12.887 -1.2250 -1.7545 -1.2468
 4218SOL    HW224114   0.274   1.546  12.797 -1.1411  0.6380  0.5307
 4219SOL     OW24115   3.063   3.175  10.043 -0.4356  0.3020  0.3593
 4219SOL    HW124116   3.010   3.149   9.967  1.3732 -0.6765 -0.5483
 4219SOL    HW224117   3.094   3.088  10.069 -2.0724 -0.0492  1.1554
 4220SOL     OW24118   3.853   0.220   2.515 -0.5867  0.7983 -0.5579
 4220SOL    HW124119   3.857   0.311   2.546  2.2905  0.2637  0.6043
 4220SOL    HW224120   3.760   0.209   2.494 -0.9621 -0.3715  1.6995
 4221SOL     OW24121   4.500   0.189   2.863  0.1819 -0.6862 -0.6313
 4221SOL    HW124122   4.499   0.103   2.904 -1.4031 -0.5309 -0.3750
 4221SOL    HW224123   4.464   0.169   2.777 -2.6206  1.4258  0.0819
 4222SOL     OW24124   1.373   4.218   6.183  0.4150 -0.1033 -0.3133
 4222SOL    HW124125   1.468   4.221   6.187  0.2559  1.1672  2.1357
 4222SOL    HW224126   1.363   4.128   6.151 -1.5857 -0.5707  1.6287
 4223SOL     OW24127   1.562   2.181  13.591 -0.2434 -0.1374 -0.0305
 4223SOL    HW124128   1.628   2.115  13.613 -0.7388 -1.1972 -1.7415
 4223SOL    HW224129   1.493   2.120  13.565 -0.7328 -0.2155  1.4183
 4224SOL     OW24130   2.195   0.964   8.587 -0.1687 -0.0439 -0.2371
 4224SOL    HW124131   2.134   1.031   8.558 -0.4939  0.2626  1.1994
 4224SOL    HW224132   2.173   0.963   8.680  1.0547  0.5160  0.0603
 4225SOL     OW24133   2.274   1.660   9.978 -0.3074 -0.0731 -0.1865
 4225SOL    HW124134   2.347   1.707   9.938  0.7901 -1.7623 -0.1395
 4225SOL    HW224135   2.282   1.579   9.928  3.0061 -0.8574  1.5904
 4226SOL     OW24136   3.379   3.328  13.267  0.0296  0.3747 -0.0899
 4226SOL    HW124137   3.425   3.399  13.312  1.5823 -0.7508  0.1143
 4226SOL    HW224138   3.290   3.349  13.296 -0.3186 -2.3408  0.8913
 4227SOL     OW24139   0.978   0.087   9.045 -0.7554 -0.2890  0.9567
 4227SOL    HW124140   0.985   0.111   9.137 -0.4336 -2.8229  1.5691
 4227SOL    HW224141   0.894   0.128   9.026  0.6572  1.4694 -1.5854
 4228SOL     OW24142   4.694   2.799   5.468 -0.7363  0.5812 -0.1982
 4228SOL    HW124143   4.725   2.711   5.491 -4.0211 -0.3262  0.6966
 4228SOL    HW224144   0.046   2.836   5.425 -0.3166 -1.6688 -1.3914
 4229SOL     OW24145   4.226   1.153   6.557 -0.1338 -0.0153  0.4887
 4229SOL    HW124146   4.208   1.242   6.587 -0.7591 -0.1762  0.6007
 4229SOL    HW224147   4.194   1.110   6.636 -1.2525 -1.3449 -0.6652
 4230SOL     OW24148   4.205   1.033   7.102 -0.0286  0.0775  0.3027
 4230SOL    HW124149   4.120   0.998   7.074  0.2386  0.2889 -0.8077
 4230SOL    HW224150   4.253   0.951   7.107 -2.0150 -1.0646  0.5838
 4231SOL     OW24151   3.612   3.288   4.490  0.1886 -0.5863 -0.1397
 4231SOL    HW124152   3.679   3.229   4.525  0.5049  0.0833  0.4013
 4231SOL    HW224153   3.642   3.360   4.545 -0.7752  0.7797 -1.4054
 4232SOL     OW24154   2.116   0.765  15.370 -0.2204  0.9662  0.2038
 4232SOL    HW124155   2.142   0.730  15.455  0.3351  1.4832  0.2488
 4232SOL    HW224156   2.172   0.714  15.312  1.6145 -0.6809  3.3828
 4233SOL     OW24157   3.496   3.530   8.405  0.0743  0.5183 -0.2836
 4233SOL    HW124158   3.435   3.544   8.478  1.6243 -0.1252  1.1484
 4233SOL    HW224159   3.468   3.612   8.364  0.2859  0.4830 -0.4951
 4234SOL     OW24160   2.777   2.242   7.339  0.4449 -0.1532 -0.2043
 4234SOL    HW124161   2.715   2.305   7.301 -1.5466 -1.7855  0.3036
 4234SOL    HW224162   2.834   2.225   7.264 -2.1062  0.3869 -2.2901
 4235SOL     OW24163   1.451   2.536   5.684 -0.3560 -0.0483 -0.1474
 4235SOL    HW124164   1.521   2.591   5.720 -2.2017  1.2641  1.4731
 4235SOL    HW224165   1.507   2.493   5.620 -0.3933 -0.1874 -0.0862
 4236SOL     OW24166   4.086   1.902  16.360  0.4144 -0.0168 -0.1634
 4236SOL    HW124167   4.094   1.926  16.452  1.3424 -0.4719 -0.1188
 4236SOL    HW224168   4.174   1.922  16.326 -0.0275 -0.0537 -1.3146
 4237SOL     OW24169   1.471   2.144   3.710 -0.2695 -0.2515  0.2467
 4237SOL    HW124170   1.422   2.080   3.658 -0.4662 -1.3783  1.8046
 4237SOL    HW224171   1.463   2.095   3.792 -0.9190 -1.7662 -0.7194
 4238SOL     OW24172   1.856   0.677  15.302 -0.7067 -0.4037  0.3952
 4238SOL    HW124173   1.842   0.596  15.350 -0.2107 -0.5743  0.2579
 4238SOL    HW224174   1.947   0.704  15.317 -0.4063 -0.6131 -1.0341
 4239SOL     OW24175   3.518   3.247   6.969 -0.0990 -0.2970 -0.0183
 4239SOL    HW124176   3.500   3.226   7.061 -1.2574  1.3966  0.1481
 4239SOL    HW224177   3.468   3.329   6.975 -0.8531 -0.7669  0.2460
 4240SOL     OW24178   4.694   0.907   3.599  0.1265  0.5928  0.2053
 4240SOL    HW124179   4.711   0.822   3.641  2.3703  0.6769 -0.5293
 4240SOL    HW224180   4.677   0.870   3.513  1.8035 -0.8284  0.4856
 4241SOL     OW24181   4.542   0.553   8.267 -0.5532 -0.0128  0.8922
 4241SOL    HW124182   4.551   0.460   8.286 -1.1324 -0.5462 -1.4449
 4241SOL    HW224183   4.592   0.594   8.338  0.7631  0.7044 -0.4545
 4242SOL     OW24184   0.565   0.415   9.716  0.0137  0.4185  0.3148
 4242SOL    HW124185   0.642   0.471   9.708  0.1386  0.0744 -0.9505
 4242SOL    HW224186   0.618   0.340   9.744 -0.8670 -0.0693  0.6871
 4243SOL     OW24187   4.656   2.998   9.663 -0.1058  0.1473  0.2000
 4243SOL    HW124188   4.618   2.914   9.641 -3.5083  1.4101  1.3239
 4243SOL    HW224189   4.629   3.051   9.588 -0.4113  1.3123  1.1278
 4244SOL     OW24190   3.379   3.813  10.689  0.6005 -0.0942  0.0342
 4244SOL    HW124191   3.423   3.813  10.604 -0.5573  0.0822 -0.5601
 4244SOL    HW224192   3.396   3.906  10.705  1.5184 -0.2577  0.0052
 4245SOL     OW24193   2.163   2.436   2.624 -0.0763  0.5117  0.3538
 4245SOL    HW124194   2.252   2.420   2.656  0.3900 -1.3367 -1.8251
 4245SOL    HW224195   2.170   2.394   2.538 -0.3356  3.5021 -1.1002
 4246SOL     OW24196   3.230   0.404   8.512 -0.1011  0.1957  0.2182
 4246SOL    HW124197   3.244   0.432   8.602  1.1081 -1.4850  0.5532
 4246SOL    HW224198   3.261   0.314   8.502  1.3844  0.6553  0.7646
 4247SOL     OW24199   4.152   0.199   0.394  0.3344 -0.2905 -0.0670
 4247SOL    HW124200   4.150   0.238   0.481 -0.2769 -0.4804  0.0065
 4247SOL    HW224201   4.106   0.116   0.405  0.1448 -0.0499  0.9655
 4248SOL     OW24202   4.105   1.778   6.145 -0.6394  0.4327  0.3186
 4248SOL    HW124203   4.142   1.720   6.213  3.0104 -0.8832 -2.7781
 4248SOL    HW224204   4.040   1.721   6.103  2.0508 -0.9056 -2.0294
 4249SOL     OW24205   4.354   2.425  14.331 -0.4165 -0.1622  0.4966
 4249SOL    HW124206   4.294   2.392  14.264 -2.0226  1.8609  0.9456
 4249SOL    HW224207   4.289   2.453  14.396 -0.9366 -0.6150  0.1683
 4250SOL     OW24208   2.397   4.423  15.732  0.3374 -0.2386  0.0625
 4250SOL    HW124209   2.438   4.492  15.785 -0.7043  1.6637 -1.5994
 4250SOL    HW224210   2.465   4.373  15.686 -0.2135 -0.4403 -0.5420
 4251SOL     OW24211   1.749   0.120   3.845  0.2944 -0.2006  0.2474
 4251SOL    HW124212   1.657   0.148   3.843  0.3262 -0.1141  0.0755
 4251SOL    HW224213   1.740   0.044   3.903 -0.7414 -0.4909 -0.2911
 4252SOL     OW24214   1.732   3.137  16.704  0.0558  0.2889  0.6436
 4252SOL    HW124215   1.808   3.117  16.648 -0.0623 -0.8568  0.8937
 4252SOL    HW224216   1.735   3.080  16.780  0.5522 -0.5241  0.0202
 4253SOL     OW24217   2.040   1.656  15.583 -0.8701  0.0318 -0.5013
 4253SOL    HW124218   2.042   1.740  15.629 -2.1454  0.2859 -0.8972
 4253SOL    HW224219   2.061   1.677  15.492 -0.1155  1.8517  0.0888
 4254SOL     OW24220   1.746   3.366   0.652 -0.1730  0.1842 -0.3452
 4254SOL    HW124221   1.825   3.385   0.702  0.3365 -0.2381 -0.9844
 4254SOL    HW224222   1.677   3.396   0.711 -1.2215 -0.5619 -1.1819
 4255SOL     OW24223   2.769   2.105   3.909  0.4984  0.2158  0.0438
 4255SOL    HW124224   2.803   2.169   3.972 -0.4243  0.5278  0.2286
 4255SOL    HW224225   2.792   2.145   3.825  0.6643 -1.0212 -0.4981
 4256SOL     OW24226   0.175   1.386  11.300  0.1179  0.4846 -0.3891
 4256SOL    HW124227   0.110   1.322  11.328  2.4047 -2.1516 -1.1140
 4256SOL    HW224228   0.206   1.421  11.383  0.0329 -0.1167 -0.1053
 4257SOL     OW24229   2.032   3.348   3.929 -0.2468 -0.2302  0.4293
 4257SOL    HW124230   1.962   3.393   3.975 -1.6616 -0.9688 -1.0130
 4257SOL    HW224231   2.001   3.258   3.928  0.9750 -0.6668  2.3282
 4258SOL     OW24232   0.098   1.708   0.258 -0.5893 -0.0766 -0.2797
 4258SOL    HW124233   0.071   1.668   0.340  2.0060 -0.1044  0.5647
 4258SOL    HW224234   0.042   1.664   0.194  0.4111 -0.9708 -0.5566
 4259SOL     OW24235   2.926   3.586  13.443  0.2636 -0.1212  0.3185
 4259SOL    HW124236   2.932   3.526  13.517  0.2539 -0.5328 -0.0148
 4259SOL    HW224237   2.910   3.670  13.486  0.1777  0.4296 -0.7825
 4260SOL     OW24238   3.269   1.689   5.633 -0.4604 -0.2561  0.2014
 4260SOL    HW124239   3.353   1.671   5.591 -1.4172 -1.1056 -1.3693
 4260SOL    HW224240   3.301   1.703   5.722 -1.2574 -1.6522  0.7111
 4261SOL     OW24241   3.776   0.990  15.462 -0.6251 -0.4537  0.0934
 4261SOL    HW124242   3.797   0.956  15.549  2.5923 -0.8354 -0.8422
 4261SOL    HW224243   3.856   1.032  15.433  0.3348 -1.1579  1.6936
 4262SOL     OW24244   1.141   4.215   2.484  0.0282  0.0080 -0.4220
 4262SOL    HW124245   1.144   4.181   2.573  1.1431 -0.4342 -0.6294
 4262SOL    HW224246   1.066   4.168   2.445  0.4180 -1.7827  0.9825
 4263SOL     OW24247   2.293   0.202   3.321 -0.2194  0.5863 -0.4794
 4263SOL    HW124248   2.201   0.179   3.331  0.6596 -2.0291  1.2924
 4263SOL    HW224249   2.305   0.258   3.398 -0.2896 -1.0637  0.7213
 4264SOL     OW24250   0.337   0.725  13.501 -0.0317  0.0117 -0.6539
 4264SOL    HW124251   0.419   0.762  13.468  0.1908  1.9918  2.1305
 4264SOL    HW224252   0.322   0.777  13.579  0.4688 -0.8983  0.0488
 4265SOL     OW24253   3.849   2.749  10.807 -0.7594 -0.3409 -0.7219
 4265SOL    HW124254   3.754   2.743  10.799 -0.7547 -1.2846 -0.1016
 4265SOL    HW224255   3.859   2.779  10.897  0.0624 -0.8982 -0.6228
 4266SOL     OW24256   0.604   3.603  14.310  0.2106  0.6196  0.1418
 4266SOL    HW124257   0.584   3.521  14.356 -1.8664 -0.0944 -2.0279
 4266SOL    HW224258   0.699   3.605  14.307  0.1846  0.7298 -0.6712
 4267SOL     OW24259   3.346   3.839   4.742 -0.1249 -0.2906  0.8090
 4267SOL    HW124260   3.331   3.929   4.712 -0.6164  0.3185  2.8318
 4267SOL    HW224261   3.436   3.828   4.712 -0.3937 -0.5261  0.0868
 4268SOL     OW24262   0.697   0.182  11.423  0.1119 -0.1029  0.3208
 4268SOL    HW124263   0.734   0.149  11.342 -3.7793 -0.6929 -1.2221
 4268SOL    HW224264   0.655   0.266  11.404  1.4812  0.7900  1.2237
 4269SOL     OW24265   4.632   0.105   5.946  0.0417 -0.4339  0.3850
 4269SOL    HW124266   4.572   0.169   5.986  0.4504 -0.1019  0.4679
 4269SOL    HW224267   4.681   0.152   5.879  0.3931 -1.6842 -0.2388
 4270SOL     OW24268   4.000   3.438   5.745  0.2067 -0.1212 -0.4376
 4270SOL    HW124269   3.947   3.359   5.735 -0.0701 -0.0417  0.4674
 4270SOL    HW224270   3.933   3.505   5.754  0.7177 -0.0750  2.9479
 4271SOL     OW24271   2.748   0.953  11.881 -0.6955  0.2170  0.1305
 4271SOL    HW124272   2.806   0.916  11.947 -0.5749  0.7417  0.3212
 4271SOL    HW224273   2.794   1.036  11.864 -0.4510 -0.1300 -0.8832
 4272SOL     OW24274   1.689   2.113   6.181 -0.1612 -0.4461 -0.3018
 4272SOL    HW124275   1.606   2.113   6.135  0.3958 -0.6547 -1.2940
 4272SOL    HW224276   1.688   2.183   6.247  1.2382  1.9101 -2.8076
 4273SOL     OW24277   3.199   4.169   2.574 -0.2361 -0.2879 -0.8214
 4273SOL    HW124278   3.109   4.179   2.606 -0.0527 -1.2901  0.0105
 4273SOL    HW224279   3.243   4.184   2.658  0.6105  1.0141 -1.4933
 4274SOL     OW24280   2.220   3.428   5.015 -0.1901 -0.2476 -0.1431
 4274SOL    HW124281   2.157   3.363   4.984 -1.5507  0.6367  0.8002
 4274SOL    HW224282   2.292   3.371   5.040 -0.4795 -0.2390  0.7095
 4275SOL     OW24283   4.269   1.086   2.098 -0.4733 -0.3667 -0.0401
 4275SOL    HW124284   4.326   1.059   2.026 -0.6602 -0.8362 -0.0093
 4275SOL    HW224285   4.315   1.050   2.174 -0.7814 -0.4431  0.1108
 4276SOL     OW24286   1.701   0.806   2.871  0.3024 -0.2918 -0.0537
 4276SOL    HW124287   1.616   0.763   2.883  0.0443 -0.4415 -2.3454
 4276SOL    HW224288   1.685   0.897   2.846 -0.8647 -0.2091  1.0521
 4277SOL     OW24289   4.399   3.580   3.853 -0.3106  0.2557  0.6128
 4277SOL    HW124290   4.416   3.528   3.931 -1.3455 -0.5373  0.3116
 4277SOL    HW224291   4.472   3.558   3.795 -1.3859 -2.0998  0.1679
 4278SOL     OW24292   1.008   1.501   6.314 -0.4435 -0.0510  0.1761
 4278SOL    HW124293   1.022   1.539   6.400 -1.0635  0.4061  0.0785
 4278SOL    HW224294   1.089   1.454   6.297 -0.0323  1.0210 -0.8891
 4279SOL     OW24295   3.456   4.049  11.234 -0.1457  0.3021  0.5397
 4279SOL    HW124296   3.442   3.955  11.246  2.3998 -0.3591 -1.7902
 4279SOL    HW224297   3.500   4.046  11.149 -1.2800  0.2805 -0.0481
 4280SOL     OW24298   0.973   2.974   6.015 -0.0014 -0.5533 -0.4205
 4280SOL    HW124299   0.914   2.899   6.012 -0.0996 -0.5109  0.4873
 4280SOL    HW224300   0.996   2.978   6.108 -0.4279 -1.1553 -0.2896
 4281SOL     OW24301   0.794   3.882   1.831  0.0999 -0.2246 -0.3553
 4281SOL    HW124302   0.756   3.954   1.881 -1.6078 -2.9478  2.2952
 4281SOL    HW224303   0.811   3.923   1.747  0.5881  0.4108  0.0562
 4282SOL     OW24304   0.661   3.163   5.919 -0.1142  0.2791 -0.5424
 4282SOL    HW124305   0.654   3.235   5.981  1.1785  0.5002 -0.6659
 4282SOL    HW224306   0.665   3.088   5.979 -0.7572 -0.8900 -1.9433
 4283SOL     OW24307   0.109   2.755   0.744 -0.4454 -0.1740  0.1004
 4283SOL    HW124308   0.107   2.824   0.810 -1.1434  0.5933 -0.7145
 4283SOL    HW224309   0.086   2.808   0.668  0.4962 -2.4527 -1.7767
 4284SOL     OW24310   3.591   2.546  16.200 -0.3488  0.4393 -0.2013
 4284SOL    HW124311   3.508   2.573  16.160 -1.0497 -1.8225 -0.2537
 4284SOL    HW224312   3.553   2.478  16.255 -1.3079  0.5936 -0.6782
 4285SOL     OW24313   2.781   1.092   3.901 -0.0830 -0.2342  0.0633
 4285SOL    HW124314   2.779   1.175   3.853 -3.7582  0.0436  0.7020
 4285SOL    HW224315   2.861   1.051   3.869  0.7001  2.9516 -2.1086
 4286SOL     OW24316   2.813   3.939  12.596  0.3703 -0.4227 -0.7173
 4286SOL    HW124317   2.906   3.929  12.615 -0.2091  0.5224  2.4972
 4286SOL    HW224318   2.798   3.910  12.506  0.8006 -0.4594 -0.7759
 4287SOL     OW24319   2.117   2.398  16.494 -0.6871 -0.8944  1.0195
 4287SOL    HW124320   2.031   2.372  16.528 -1.4171 -0.6342 -0.6035
 4287SOL    HW224321   2.081   2.450  16.422  3.2960  2.2156  1.2859
 4288SOL     OW24322   4.110   1.062   6.773 -0.3408 -0.4562 -0.5525
 4288SOL    HW124323   4.166   1.006   6.828  0.9369 -0.1504 -1.5347
 4288SOL    HW224324   4.112   1.140   6.828 -2.3511 -0.7590 -0.0502
 4289SOL     OW24325   1.288   0.366   4.556 -0.3233 -0.3903  0.4318
 4289SOL    HW124326   1.269   0.272   4.565  0.1863 -0.4852  0.5151
 4289SOL    HW224327   1.198   0.393   4.537  0.4788  2.4338  0.7947
 4290SOL     OW24328   4.498   1.122   0.681 -0.6118  0.6628  0.2073
 4290SOL    HW124329   4.403   1.120   0.685 -0.7253  1.1807 -2.2860
 4290SOL    HW224330   4.518   1.034   0.650 -2.5038  0.4702 -0.4229
 4291SOL     OW24331   3.786   1.697   5.710 -0.2376 -0.2243 -0.3079
 4291SOL    HW124332   3.752   1.764   5.651  1.5630  1.8714  1.0026
 4291SOL    HW224333   3.710   1.693   5.769  0.4304 -1.0877  0.4972
 4292SOL     OW24334   1.041   2.473   6.269  0.2532 -0.3832  0.2220
 4292SOL    HW124335   1.076   2.519   6.345 -2.4959  0.2208  1.1400
 4292SOL    HW224336   0.995   2.406   6.319 -1.1304 -1.3010 -2.2762
 4293SOL     OW24337   1.539   2.180   0.562  0.0644  0.2770 -0.1408
 4293SOL    HW124338   1.488   2.240   0.616 -0.2316 -0.4782  0.4084
 4293SOL    HW224339   1.541   2.098   0.612  0.0654  1.5912  1.9972
 4294SOL     OW24340   0.057   3.860  11.376  0.3548 -0.4695  0.8759
 4294SOL    HW124341   0.127   3.903  11.425  0.1829 -0.1201  0.8104
 4294SOL    HW224342   0.073   3.883  11.285  1.6791 -0.1300  1.1857
 4295SOL     OW24343   2.956   0.900   6.175 -0.1788 -0.2777 -0.4311
 4295SOL    HW124344   2.983   0.814   6.207 -1.5119  0.3684  2.4463
 4295SOL    HW224345   2.885   0.866   6.121  0.5208 -0.4680 -1.2179
 4296SOL     OW24346   3.150   4.156   6.052 -0.0787 -0.4296 -0.0891
 4296SOL    HW124347   3.089   4.214   6.097  0.8389  0.0284  0.5611
 4296SOL    HW224348   3.231   4.207   6.054 -0.9033  0.8850 -0.0519
 4297SOL     OW24349   0.101   0.454  13.193 -0.2408  0.0557 -0.3682
 4297SOL    HW124350   0.190   0.433  13.165 -0.6339  0.3077 -1.7907
 4297SOL    HW224351   0.068   0.398  13.264 -0.1614  0.4849  0.0092
 4298SOL     OW24352   2.734   1.817   0.022  0.2124  0.2979  0.0323
 4298SOL    HW124353   2.647   1.792  17.694  0.2403  1.6478 -1.1607
 4298SOL    HW224354   2.735   1.767   0.104 -0.3503 -0.3641 -0.3677
 4299SOL     OW24355   3.616   0.222  17.503 -0.5997 -0.4897 -0.3010
 4299SOL    HW124356   3.638   0.289  17.567  1.9456 -0.8358 -0.7799
 4299SOL    HW224357   3.532   0.248  17.466 -0.7094  0.7591  0.8217
 4300SOL     OW24358   1.968   1.969   2.811 -0.3161  0.6649 -0.4582
 4300SOL    HW124359   1.914   1.922   2.747  0.3261  0.0704 -0.5638
 4300SOL    HW224360   1.957   2.055   2.769  1.5182  1.4922  0.7556
 4301SOL     OW24361   0.513   1.268   3.356 -0.2281  0.0753 -0.1099
 4301SOL    HW124362   0.434   1.213   3.357 -0.1295 -0.0518  1.0525
 4301SOL    HW224363   0.580   1.213   3.314  1.9068  2.5590  0.1007
 4302SOL     OW24364   4.236   3.583   0.425  0.3218  0.5964 -0.5579
 4302SOL    HW124365   4.316   3.534   0.405 -0.3677 -1.0306  0.6637
 4302SOL    HW224366   4.229   3.547   0.513  1.2022  2.0702  0.1124
 4303SOL     OW24367   4.505   1.796   1.362 -0.3319 -0.5514  0.2260
 4303SOL    HW124368   4.599   1.812   1.353 -0.8153  1.5638 -1.0872
 4303SOL    HW224369   4.502   1.705   1.391 -0.6538 -0.6752 -0.1911
 4304SOL     OW24370   1.953   2.258   3.832  0.3256 -0.3430 -0.5757
 4304SOL    HW124371   1.877   2.248   3.889  1.6310  2.1682  1.6389
 4304SOL    HW224372   1.940   2.202   3.756  1.6550 -0.8441 -0.4374
 4305SOL     OW24373   3.754   1.928   5.153  0.0761 -0.0891 -0.1915
 4305SOL    HW124374   3.734   2.012   5.110  0.0536 -0.6241 -1.2399
 4305SOL    HW224375   3.677   1.919   5.208  0.6498  3.4687  1.2286
 4306SOL     OW24376   2.392   1.972   0.014 -0.3566 -0.2286  0.1955
 4306SOL    HW124377   2.395   2.065   0.035  1.0963  0.4357 -2.9703
 4306SOL    HW224378   2.378   1.937   0.102  0.0118  1.5613  0.9491
 4307SOL     OW24379   1.799   3.256   4.730 -0.0897  0.1850  0.5660
 4307SOL    HW124380   1.765   3.180   4.777  0.0069  0.8992  1.7926
 4307SOL    HW224381   1.822   3.208   4.651  0.4418  1.5143 -0.1025
 4308SOL     OW24382   0.006   2.948   9.295 -0.2111  0.5491 -0.4216
 4308SOL    HW124383   4.696   3.022   9.344  0.5242  0.6766 -0.0850
 4308SOL    HW224384   0.093   2.944   9.335 -0.7136  0.2086  0.6112
 4309SOL     OW24385   2.194   0.985   7.068  0.1184  0.6625  0.0073
 4309SOL    HW124386   2.100   1.005   7.074 -0.1485 -0.8906  1.0885
 4309SOL    HW224387   2.200   0.890   7.058  0.1869  0.4719  1.8868
 4310SOL     OW24388   1.195   2.547  17.108  0.0512 -0.3900 -0.5404
 4310SOL    HW124389   1.234   2.587  17.030 -1.2257  1.3001 -0.3229
 4310SOL    HW224390   1.199   2.621  17.170  1.5609 -0.8114 -0.1471
 4311SOL     OW24391   1.923   1.960   6.860 -0.1435  0.1677  0.1039
 4311SOL    HW124392   1.908   1.934   6.769  1.8104 -3.2346  0.7572
 4311SOL    HW224393   1.884   2.047   6.862 -2.2466 -0.7658  0.1873
 4312SOL     OW24394   0.969   3.969   2.988 -0.1932  0.1862  0.2367
 4312SOL    HW124395   1.002   3.966   3.078  1.2260  1.8205 -0.2204
 4312SOL    HW224396   0.949   3.876   2.983 -2.6628  0.7814 -0.7542
 4313SOL     OW24397   3.446   0.794   4.558  0.1509  0.4544  0.2869
 4313SOL    HW124398   3.447   0.732   4.485  0.5441  0.5374  0.2237
 4313SOL    HW224399   3.356   0.827   4.554 -0.4917 -1.3452 -0.1420
 4314SOL     OW24400   2.363   3.438   6.490  0.0857 -0.6180 -0.6725
 4314SOL    HW124401   2.400   3.374   6.551 -1.1620  0.7114  1.4794
 4314SOL    HW224402   2.287   3.391   6.455 -1.1755 -0.1405  1.4242
 4315SOL     OW24403   0.365   0.624   1.757  0.0331  0.2454 -0.3403
 4315SOL    HW124404   0.325   0.710   1.749 -1.9638 -0.6530 -0.2305
 4315SOL    HW224405   0.283   0.574   1.765  2.1278 -3.2389 -0.6839
 4316SOL     OW24406   2.394   2.853   3.401 -0.5193 -0.1899 -0.3440
 4316SOL    HW124407   2.351   2.809   3.328 -0.2430 -1.1942  0.0900
 4316SOL    HW224408   2.333   2.924   3.419  3.3087  2.6384  1.6026
 4317SOL     OW24409   3.683   2.521  16.612  0.5066  0.1466 -0.1970
 4317SOL    HW124410   3.762   2.568  16.639  1.1891 -0.4981 -1.0442
 4317SOL    HW224411   3.708   2.486  16.526  1.5533  1.7861 -0.5607
 4318SOL     OW24412   3.528   2.031  13.964  0.5316  0.3227  1.0667
 4318SOL    HW124413   3.460   2.065  13.907  0.8575 -0.9163 -0.0654
 4318SOL    HW224414   3.577   1.991  13.892 -1.8182 -0.7282  0.0422
 4319SOL     OW24415   0.093   3.031   8.956  0.0554  0.0214  0.3947
 4319SOL    HW124416   0.141   2.948   8.948 -1.2104 -0.6482 -0.2305
 4319SOL    HW224417   0.003   3.003   8.937 -0.1886  2.3039 -1.8912
 4320SOL     OW24418   4.206   2.151   1.547  0.1578  0.2233 -0.4385
 4320SOL    HW124419   4.259   2.073   1.530  1.8102  0.9990  1.1188
 4320SOL    HW224420   4.135   2.112   1.497  0.0731 -0.6771  0.3783
 4321SOL     OW24421   2.533   0.619   5.393  0.0308  0.7646  0.3078
 4321SOL    HW124422   2.524   0.687   5.327  0.3551  0.3847 -0.1291
 4321SOL    HW224423   2.456   0.633   5.447  0.6132 -2.2050  1.8750
 4322SOL     OW24424   0.052   0.083   8.028  0.5158  0.2008  0.8425
 4322SOL    HW124425   0.084   0.036   8.105 -1.7434  1.2246  2.4176
 4322SOL    HW224426   4.721   0.146   8.073 -0.5242  0.2270 -0.4872
 4323SOL     OW24427   3.126   0.968  10.326  0.6660  0.5226  0.7344
 4323SOL    HW124428   3.083   1.036  10.275  1.0249 -0.5041 -0.9281
 4323SOL    HW224429   3.208   1.011  10.350  1.6089 -1.0959  0.4594
 4324SOL     OW24430   3.803   0.415   8.439  0.3539 -0.8673 -0.1782
 4324SOL    HW124431   3.729   0.415   8.500  0.0314  0.5246 -0.5640
 4324SOL    HW224432   3.843   0.498   8.465 -1.2726  0.5527 -2.2264
 4325SOL     OW24433   2.409   1.195   7.528 -0.3229  0.1810 -0.2422
 4325SOL    HW124434   2.383   1.114   7.485  1.9085 -1.5642  1.7307
 4325SOL    HW224435   2.474   1.172   7.594  0.8772  0.7106 -1.2301
 4326SOL     OW24436   4.168   0.955   3.750  0.2423 -0.1422 -0.0345
 4326SOL    HW124437   4.085   0.914   3.730  0.2134 -0.2713  0.3471
 4326SOL    HW224438   4.224   0.930   3.676 -1.1156 -1.4874 -0.5952
 4327SOL     OW24439   4.494   1.050  11.216  0.7234  0.0473 -0.3588
 4327SOL    HW124440   4.552   1.095  11.278 -1.6893 -1.1204  2.7464
 4327SOL    HW224441   4.442   1.120  11.178  0.5363 -0.9200 -1.8881
 4328SOL     OW24442   0.027   0.868   5.388  0.0074 -0.2081  0.9569
 4328SOL    HW124443   0.102   0.926   5.379  1.4143 -1.9352  1.5536
 4328SOL    HW224444   0.044   0.816   5.467  0.7804  0.3858  1.1817
 4329SOL     OW24445   2.647   1.722   5.209 -0.4942  0.1988 -0.6787
 4329SOL    HW124446   2.615   1.798   5.160 -0.1985 -1.5747 -3.5981
 4329SOL    HW224447   2.650   1.750   5.300 -0.3420 -1.8527 -0.0536
 4330SOL     OW24448   3.840   4.194   0.153 -0.1576 -0.7377  0.5005
 4330SOL    HW124449   3.930   4.225   0.147 -0.6154  0.5760  0.4271
 4330SOL    HW224450   3.824   4.204   0.247 -1.8941 -1.8256  0.3269
 4331SOL     OW24451   1.062   1.258   5.810  0.2586 -0.5802  0.3722
 4331SOL    HW124452   0.972   1.234   5.832 -0.6221  2.3935  0.0172
 4331SOL    HW224453   1.109   1.218   5.883  0.5407  2.3261  1.7671
 4332SOL     OW24454   1.893   3.459  10.364 -0.2551 -0.0006 -0.6000
 4332SOL    HW124455   1.893   3.407  10.445  2.8134 -1.2342 -1.3752
 4332SOL    HW224456   1.974   3.508  10.377 -0.1664 -0.9738  2.7068
 4333SOL     OW24457   3.861   3.160   5.479  0.0135  0.3717 -0.1023
 4333SOL    HW124458   3.830   3.139   5.568  1.0626 -0.5227  0.0539
 4333SOL    HW224459   3.801   3.103   5.431  2.2779 -1.1066 -1.1361
 4334SOL     OW24460   2.135   4.014   2.196  0.3001  0.0548 -0.5085
 4334SOL    HW124461   2.172   3.992   2.282 -0.5546 -1.0253 -0.4131
 4334SOL    HW224462   2.041   4.018   2.214  0.4914 -1.3501  0.8068
 4335SOL     OW24463   2.714   0.463  13.352  0.2964  0.0229  0.2308
 4335SOL    HW124464   2.664   0.545  13.352 -0.5014 -0.4819 -1.9766
 4335SOL    HW224465   2.693   0.425  13.267  0.8104 -1.0531  0.5941
 4336SOL     OW24466   1.552   4.181   3.458 -0.0100 -0.0641  0.1099
 4336SOL    HW124467   1.519   4.179   3.368 -1.2594  2.4497  0.5241
 4336SOL    HW224468   1.621   4.244   3.440  0.0997 -0.0843  0.4659
 4337SOL     OW24469   1.521   4.384   2.499 -0.0154  0.0992 -0.3399
 4337SOL    HW124470   1.432   4.409   2.526  0.3522 -0.7051  1.6277
 4337SOL    HW224471   1.564   4.413   2.580 -1.6949 -1.1210  0.9963
 4338SOL     OW24472   1.144   1.203  14.967 -0.0691  0.1221  0.0753
 4338SOL    HW124473   1.217   1.258  14.938  0.7268 -0.9188  0.0976
 4338SOL    HW224474   1.097   1.186  14.885  0.1514  1.7901 -0.3958
 4339SOL     OW24475   3.758   3.839   0.724 -0.1851  0.6581 -0.0508
 4339SOL    HW124476   3.821   3.853   0.794 -0.3447 -3.2925  0.9217
 4339SOL    HW224477   3.768   3.918   0.672  1.0356  0.4278 -0.1568
 4340SOL     OW24478   1.049   0.285   6.810  0.6270  0.3016 -0.0017
 4340SOL    HW124479   1.107   0.361   6.820 -0.5173  1.0745  0.6755
 4340SOL    HW224480   0.976   0.307   6.867  0.1742  1.0631 -0.8720
 4341SOL     OW24481   1.749   1.873   4.754  0.3159  0.2693  0.7527
 4341SOL    HW124482   1.710   1.869   4.667  0.8595 -0.3207  0.5346
 4341SOL    HW224483   1.773   1.965   4.763 -2.1172  1.0244 -0.5893
 4342SOL     OW24484   0.645   4.617   2.872 -1.3649  0.4752 -0.4800
 4342SOL    HW124485   0.678   4.553   2.935 -0.3158  0.0383 -1.4595
 4342SOL    HW224486   0.598   4.555   2.815  0.5911 -0.7099 -0.8263
 4343SOL     OW24487   1.471   3.652   1.229 -0.1297  0.2129 -0.5703
 4343SOL    HW124488   1.538   3.710   1.194  1.0247  0.1943  1.6577
 4343SOL    HW224489   1.394   3.699   1.199 -1.7194 -0.8503  1.8042
 4344SOL     OW24490   4.502   2.511   2.385 -0.2197 -0.1242 -0.2152
 4344SOL    HW124491   4.417   2.544   2.354  0.0807  0.3951 -0.4938
 4344SOL    HW224492   4.541   2.495   2.299  0.7447  0.1995  0.1694
 4345SOL     OW24493   4.692   4.564   4.355  0.1066  0.1266  0.2691
 4345SOL    HW124494   4.668   4.640   4.408 -0.1023  0.7631 -0.7347
 4345SOL    HW224495   4.661   4.500   4.419  0.0611 -1.1471 -1.0208
 4346SOL     OW24496   4.440   3.399   4.037 -0.3008  0.1922  1.0472
 4346SOL    HW124497   4.502   3.406   4.109 -1.7040 -0.6771  2.3554
 4346SOL    HW224498   4.363   3.375   4.088 -0.1771  0.0206  1.1524
 4347SOL     OW24499   4.024   2.246   1.746 -0.1336  0.8503 -0.5422
 4347SOL    HW124500   4.099   2.205   1.703  0.4413 -0.5814  1.8324
 4347SOL    HW224501   3.960   2.253   1.675  2.7007  1.3928 -3.0501
 4348SOL     OW24502   1.689   1.797  11.120 -0.1216 -0.0628  0.5911
 4348SOL    HW124503   1.655   1.735  11.185 -3.4564  1.0260 -0.1159
 4348SOL    HW224504   1.626   1.868  11.121  0.7171  0.7235 -2.5166
 4349SOL     OW24505   0.592   2.983   0.442  0.1129 -0.4207 -0.7025
 4349SOL    HW124506   0.511   3.034   0.435  0.2457 -0.1671 -0.4169
 4349SOL    HW224507   0.567   2.892   0.427 -3.6070  0.6952 -1.3533
 4350SOL     OW24508   4.106   4.395  14.409  0.7896  0.0295 -0.5976
 4350SOL    HW124509   4.062   4.454  14.348 -0.7639  0.6622  1.1141
 4350SOL    HW224510   4.080   4.309  14.376  0.4784 -0.7721  1.7145
 4351SOL     OW24511   0.359   2.705  14.775 -0.4723 -0.1722 -0.2295
 4351SOL    HW124512   0.305   2.779  14.804 -0.2654  0.1171 -0.5851
 4351SOL    HW224513   0.293   2.644  14.743  1.1281 -2.3390  0.6044
 4352SOL     OW24514   3.887   0.782   4.764  0.3430 -0.5068 -0.3478
 4352SOL    HW124515   3.822   0.843   4.729 -0.4693 -1.6037 -0.7424
 4352SOL    HW224516   3.964   0.834   4.790 -1.6660  0.7707  3.0217
 4353SOL     OW24517   0.984   4.105   2.082 -0.0280 -0.0193 -0.1306
 4353SOL    HW124518   0.946   4.124   1.996 -1.6732 -2.1612  0.0895
 4353SOL    HW224519   1.050   4.173   2.084 -1.7258  1.6678 -1.5561
 4354SOL     OW24520   3.609   1.502   4.317  0.0434  0.1918  0.2458
 4354SOL    HW124521   3.617   1.549   4.400 -0.1593 -1.4848  1.2133
 4354SOL    HW224522   3.559   1.556   4.256 -0.2360  0.3859  0.6464
 4355SOL     OW24523   4.141   1.291   1.155 -0.1471 -0.2486  0.2580
 4355SOL    HW124524   4.117   1.265   1.244  0.1240  0.9198  0.6689
 4355SOL    HW224525   4.058   1.333   1.134  0.5610  1.3350  0.6348
 4356SOL     OW24526   2.620   3.706   9.453 -0.1712 -0.0195 -0.0921
 4356SOL    HW124527   2.675   3.687   9.376  2.4424 -0.3321  1.8547
 4356SOL    HW224528   2.532   3.719   9.416 -0.5177  1.3406  1.2240
 4357SOL     OW24529   3.523   4.137   9.297 -0.7228 -0.0018  0.1242
 4357SOL    HW124530   3.436   4.108   9.326 -1.0768 -0.2740 -1.2138
 4357SOL    HW224531   3.535   4.070   9.230  0.6253  1.1083 -0.7253
 4358SOL     OW24532   2.214   4.558  16.081 -0.3714  0.2427  0.0492
 4358SOL    HW124533   2.278   4.621  16.046  1.1203 -0.5722  1.2878
 4358SOL    HW224534   2.240   4.555  16.173  1.3241  0.9985 -0.3980
 4359SOL     OW24535   2.982   2.278   6.892 -0.1433  0.7009  0.0690
 4359SOL    HW124536   3.038   2.355   6.880 -2.5861  2.4135 -0.3994
 4359SOL    HW224537   2.993   2.237   6.806  0.9105 -0.9578  0.9976
 4360SOL     OW24538   0.530   4.347   6.841  0.4735 -0.2090  0.3297
 4360SOL    HW124539   0.578   4.423   6.875 -0.6986  0.1094  1.2941
 4360SOL    HW224540   0.485   4.372   6.760 -1.7052  1.5129  2.0416
 4361SOL     OW24541   3.663   4.142  17.653 -0.4642  0.2132  0.1338
 4361SOL    HW124542   3.734   4.147   0.016  0.0213 -0.7668 -0.3230
 4361SOL    HW224543   3.596   4.178   0.009 -0.2945  0.2311  0.3238
 4362SOL     OW24544   4.170   3.864   8.187 -0.2055 -0.3136  0.2352
 4362SOL    HW124545   4.098   3.909   8.232 -0.0079  0.6749 -0.4447
 4362SOL    HW224546   4.235   3.873   8.257  0.5349 -2.5572 -0.1489
 4363SOL     OW24547   4.408   2.336   2.951  0.1391  0.5435 -0.6175
 4363SOL    HW124548   4.389   2.426   2.976  0.5909 -0.0624  1.9103
 4363SOL    HW224549   4.502   2.344   2.936  0.4518 -2.6158 -0.3250
 4364SOL     OW24550   1.178   3.410  15.103  0.3000  0.1075  0.4785
 4364SOL    HW124551   1.184   3.385  15.195  2.3028  2.2175  0.9087
 4364SOL    HW224552   1.089   3.390  15.073  0.1239 -0.1446  1.1687
 4365SOL     OW24553   0.221   0.663  10.569 -0.2209  0.1351  0.0842
 4365SOL    HW124554   0.223   0.594  10.503 -1.6415 -0.5466  0.7641
 4365SOL    HW224555   0.249   0.632  10.655  0.4676  0.4759 -0.0193
 4366SOL     OW24556   0.481   1.343  14.592 -0.0737  0.8628  0.4113
 4366SOL    HW124557   0.519   1.342  14.505  0.6787 -3.3908  0.7642
 4366SOL    HW224558   0.557   1.307  14.638 -0.2004  4.0858  3.1502
 4367SOL     OW24559   2.340   1.320   3.190 -0.2507  0.0321 -0.2473
 4367SOL    HW124560   2.327   1.415   3.185  2.8935  0.5344  0.7962
 4367SOL    HW224561   2.284   1.305   3.265  1.1705  0.5153  0.9116
 4368SOL     OW24562   4.235   1.144   8.394 -0.1696  0.0488 -0.2189
 4368SOL    HW124563   4.316   1.126   8.442  0.1647 -1.0135 -1.1872
 4368SOL    HW224564   4.238   1.239   8.401  2.3846 -0.0342 -0.3546
 4369SOL     OW24565   3.791   0.375   8.147 -0.7010  0.0419 -0.1218
 4369SOL    HW124566   3.872   0.331   8.122 -0.0115  1.3558 -0.1632
 4369SOL    HW224567   3.797   0.384   8.242  0.5438  1.2073 -0.3101
 4370SOL     OW24568   2.920   2.096   5.760  0.5985  0.0447 -0.5672
 4370SOL    HW124569   2.906   2.015   5.809 -1.4691 -0.1105 -1.4177
 4370SOL    HW224570   2.971   2.143   5.826 -1.1802  0.0154  0.8521
 4371SOL     OW24571   4.154   1.577   6.309  0.8825 -0.4595 -0.1953
 4371SOL    HW124572   4.216   1.591   6.381  0.6261 -0.7066  0.0756
 4371SOL    HW224573   4.073   1.574   6.361  0.1923 -0.6046 -1.2826
 4372SOL     OW24574   4.408   3.221  14.538 -0.5264 -0.1043  0.4921
 4372SOL    HW124575   4.449   3.253  14.618 -1.4680  0.1487  0.8780
 4372SOL    HW224576   4.435   3.290  14.477 -1.6495  0.0155  0.1338
 4373SOL     OW24577   1.077   1.477   3.966  0.1341  0.6138 -0.0857
 4373SOL    HW124578   1.019   1.529   4.021 -0.8814 -0.0705 -0.4894
 4373SOL    HW224579   1.031   1.393   3.965 -1.6511  1.5964 -0.0272
 4374SOL     OW24580   1.802   3.317   0.989  0.6142  0.8276 -0.1798
 4374SOL    HW124581   1.774   3.268   1.067  0.4883 -1.1025 -1.4361
 4374SOL    HW224582   1.713   3.330   0.957 -0.1293 -2.3399  0.6055
 4375SOL     OW24583   0.031   4.630   7.645 -0.4229  0.1211 -0.0136
 4375SOL    HW124584   0.069   4.542   7.643 -0.1209  0.1851  3.0227
 4375SOL    HW224585   4.692   4.631   7.573  0.8237 -0.4281 -1.1320
 4376SOL     OW24586   2.394   0.169   2.276  0.0170  0.5196  0.2745
 4376SOL    HW124587   2.474   0.171   2.329  0.7011 -0.8999 -0.6898
 4376SOL    HW224588   2.376   0.076   2.290 -1.0591  0.5661 -0.7823
 4377SOL     OW24589   4.601   4.009   0.115 -0.2037  1.0631 -0.4310
 4377SOL    HW124590   4.509   3.998   0.091 -0.3108  2.4386 -0.6450
 4377SOL    HW224591   4.582   4.030   0.207  1.2116  0.0170  0.1037
 4378SOL     OW24592   3.589   2.480   5.379  0.4126  0.2477  0.1497
 4378SOL    HW124593   3.517   2.541   5.396  1.6961  1.8191 -0.0350
 4378SOL    HW224594   3.630   2.464   5.464 -0.6834 -0.3011  0.5768
 4379SOL     OW24595   1.036   2.310   9.694 -0.0061 -0.2045 -0.2343
 4379SOL    HW124596   1.019   2.397   9.657 -0.1437  0.2599  0.9209
 4379SOL    HW224597   1.103   2.279   9.633  0.9224  4.3498 -1.4882
 4380SOL     OW24598   3.989   2.274   3.691 -0.4170  0.2118  0.3572
 4380SOL    HW124599   3.893   2.274   3.682 -0.4454  0.3143  0.6631
 4380SOL    HW224600   4.015   2.268   3.599 -1.9589  1.0307 -0.1492
 4381SOL     OW24601   3.577   4.113  15.743 -0.4517  0.2414 -0.2536
 4381SOL    HW124602   3.658   4.086  15.700  0.4069  1.0578  0.8253
 4381SOL    HW224603   3.614   4.107  15.832  0.7714 -1.3117 -0.8647
 4382SOL     OW24604   4.255   3.388  14.839  0.4318 -0.2838  0.3723
 4382SOL    HW124605   4.269   3.442  14.917  0.0551 -0.2170  0.3914
 4382SOL    HW224606   4.344   3.392  14.803  0.2394 -0.0782 -0.0714
 4383SOL     OW24607   1.877   0.655   7.226  0.5185 -0.0257  0.3775
 4383SOL    HW124608   1.842   0.586   7.171  0.3858 -0.5814  1.1500
 4383SOL    HW224609   1.917   0.710   7.159 -1.6581 -1.7732 -2.3414
 4384SOL     OW24610   1.539   0.118   7.485 -0.1006  0.4360  0.2810
 4384SOL    HW124611   1.519   0.155   7.399 -0.6680  0.1723  0.2956
 4384SOL    HW224612   1.632   0.138   7.487 -0.4099  2.0605 -2.4214
 4385SOL     OW24613   2.957   0.964   3.644 -0.2934  0.0018  0.6745
 4385SOL    HW124614   3.032   1.022   3.656 -0.9582  0.7061  1.4288
 4385SOL    HW224615   2.991   0.881   3.678  1.1565  0.2760 -0.0915
 4386SOL     OW24616   0.943   2.742   4.055 -0.2196  0.0310  0.9722
 4386SOL    HW124617   1.009   2.677   4.078  0.5086  1.0080  1.6226
 4386SOL    HW224618   0.907   2.705   3.975 -0.5895 -1.2579  1.7427
 4387SOL     OW24619   2.439   3.796   6.991  0.4359  0.8766 -0.2399
 4387SOL    HW124620   2.444   3.887   7.021 -0.5004  0.1735  2.0947
 4387SOL    HW224621   2.355   3.769   7.029  0.8870  0.9283  0.7850
 4388SOL     OW24622   2.795   1.813   6.850 -0.6186  0.2353 -0.0544
 4388SOL    HW124623   2.767   1.905   6.854 -1.3251 -0.0341  1.3899
 4388SOL    HW224624   2.865   1.814   6.916 -2.2503  4.9329  1.6308
 4389SOL     OW24625   1.043   1.367   8.065  0.4540 -0.3101 -0.6918
 4389SOL    HW124626   1.021   1.304   7.995 -0.0964 -0.1680 -0.6468
 4389SOL    HW224627   0.995   1.332   8.139  0.2809  1.4245  0.0058
 4390SOL     OW24628   1.731   3.261  15.148  0.5800 -0.1121 -0.7845
 4390SOL    HW124629   1.730   3.331  15.213 -0.9396 -0.4227 -0.4819
 4390SOL    HW224630   1.650   3.217  15.172 -0.1635  1.6578 -0.0127
 4391SOL     OW24631   1.534   0.472   5.876 -0.5148 -0.5061  0.0671
 4391SOL    HW124632   1.605   0.445   5.817  1.9411  1.7894  1.9439
 4391SOL    HW224633   1.460   0.491   5.819  1.3478 -1.3487 -2.6719
 4392SOL     OW24634   0.217   0.382  14.172 -0.0706  0.8396  0.0977
 4392SOL    HW124635   0.129   0.414  14.151 -0.4944 -0.5590 -0.2804
 4392SOL    HW224636   0.244   0.391  14.081  1.6632 -1.8611  0.3619
 4393SOL     OW24637   1.403   0.917   7.817 -0.6312 -0.2329  0.1492
 4393SOL    HW124638   1.471   0.951   7.875 -1.1034 -3.0757  2.3764
 4393SOL    HW224639   1.458   0.865   7.757  0.4189 -0.1430  1.0463
 4394SOL     OW24640   0.330   0.732   6.909  0.0647  0.2997  0.0889
 4394SOL    HW124641   0.328   0.720   6.814  0.6320  0.3370  0.0730
 4394SOL    HW224642   0.417   0.696   6.924 -0.2057 -1.2082 -1.9043
 4395SOL     OW24643   0.928   1.919   2.350  0.2682  0.3875  0.2026
 4395SOL    HW124644   0.939   1.849   2.414 -0.6152  0.1035  0.0498
 4395SOL    HW224645   0.919   1.997   2.404  1.5236 -0.1380  1.1724
 4396SOL     OW24646   3.329   1.060  11.118 -0.7681  0.4916  0.4988
 4396SOL    HW124647   3.347   1.039  11.210  1.7782 -0.7246 -0.2953
 4396SOL    HW224648   3.357   1.152  11.112  0.4646  0.0457 -0.5598
 4397SOL     OW24649   3.157   4.312   7.746 -0.8043  0.1618 -0.3104
 4397SOL    HW124650   3.243   4.276   7.725 -0.1157  0.8831  1.3010
 4397SOL    HW224651   3.155   4.295   7.840 -1.2573 -0.1133 -0.3675
 4398SOL     OW24652   2.884   4.367   8.118 -0.0065  0.1361 -0.4385
 4398SOL    HW124653   2.910   4.408   8.035 -0.2296 -0.9629 -1.0512
 4398SOL    HW224654   2.893   4.437   8.183  0.4265  0.5419 -0.9328
 4399SOL     OW24655   1.868   0.373   9.089  0.0665 -0.2492  0.0381
 4399SOL    HW124656   1.775   0.371   9.110 -0.6060  1.7293 -2.7648
 4399SOL    HW224657   1.866   0.355   8.995 -0.0292  1.3595 -0.2752
 4400SOL     OW24658   1.560   1.109  11.280 -0.0344 -0.6244 -0.6824
 4400SOL    HW124659   1.475   1.070  11.300  0.2148 -1.4092 -1.1535
 4400SOL    HW224660   1.601   1.025  11.260 -1.3094 -2.0088  2.5166
 4401SOL     OW24661   1.610   4.265   6.759  0.1843 -0.6581  0.2051
 4401SOL    HW124662   1.599   4.170   6.761 -1.2354 -0.4519  1.3932
 4401SOL    HW224663   1.615   4.278   6.854  1.7979  1.2433 -0.1304
 4402SOL     OW24664   2.457   0.904   7.915  0.1056  0.3001  0.2152
 4402SOL    HW124665   2.520   0.955   7.863  0.3566  0.4868  0.7041
 4402SOL    HW224666   2.420   0.853   7.843 -0.1326  1.8980 -0.7950
 4403SOL     OW24667   1.473   1.199   5.801 -0.1879  0.1268  0.5304
 4403SOL    HW124668   1.555   1.150   5.794 -0.8268 -0.5586 -2.0231
 4403SOL    HW224669   1.415   1.154   5.740  1.4822  0.1154 -1.0274
 4404SOL     OW24670   4.035   0.822   4.168  0.2733  0.1541 -0.1091
 4404SOL    HW124671   3.977   0.852   4.238  1.4495  0.6942  0.6233
 4404SOL    HW224672   4.060   0.741   4.212 -1.0648 -0.3542 -0.2641
 4405SOL     OW24673   1.367   4.542   5.485 -0.1456  0.0221 -0.1895
 4405SOL    HW124674   1.368   4.453   5.451  1.4205 -0.9525  2.4588
 4405SOL    HW224675   1.318   4.573   5.409 -3.1172 -3.3700  0.3670
 4406SOL     OW24676   3.132   1.745  15.008 -0.2051  0.4718  0.0398
 4406SOL    HW124677   3.091   1.685  15.070  0.1050  3.5232  3.1573
 4406SOL    HW224678   3.065   1.812  15.006  0.6606  1.3582  0.7696
 4407SOL     OW24679   2.055   4.589   6.907 -0.1592 -0.3630 -0.5700
 4407SOL    HW124680   2.064   4.516   6.846  0.4468  0.4084 -1.4122
 4407SOL    HW224681   1.962   4.611   6.897 -0.2714 -1.3934 -1.7479
 4408SOL     OW24682   1.619   4.556  17.044  0.3136  0.4661 -0.3088
 4408SOL    HW124683   1.578   4.636  17.078 -2.5579 -1.0466 -0.2498
 4408SOL    HW224684   1.662   4.582  16.962  3.1507 -1.4279  0.5825
 4409SOL     OW24685   3.049   0.682   8.451 -0.1276  0.3771  0.6476
 4409SOL    HW124686   2.979   0.678   8.517 -4.1002 -1.5051 -3.6832
 4409SOL    HW224687   3.032   0.770   8.417  0.7984 -0.0189 -0.8277
 4410SOL     OW24688   1.880   2.231  11.506 -0.5676  0.5698  0.2091
 4410SOL    HW124689   1.924   2.284  11.439  0.9786 -0.1497  0.6600
 4410SOL    HW224690   1.873   2.151  11.455  0.9524  0.7407 -0.2892
 4411SOL     OW24691   3.317   1.337   6.869  0.1729 -0.3499 -0.2222
 4411SOL    HW124692   3.300   1.259   6.921 -0.4375  0.5587  0.9261
 4411SOL    HW224693   3.363   1.378   6.941 -2.2005 -0.8098  1.5678
 4412SOL     OW24694   3.940   2.325   4.336  0.1256 -0.3000 -0.1051
 4412SOL    HW124695   4.015   2.347   4.391 -0.4919  2.9218 -0.5680
 4412SOL    HW224696   3.928   2.231   4.351 -0.8190 -0.0825  0.4625
 4413SOL     OW24697   0.321   1.319  13.090 -0.5130 -0.1207 -0.1702
 4413SOL    HW124698   0.273   1.402  13.085 -0.6284 -0.1012  1.4637
 4413SOL    HW224699   0.408   1.351  13.068 -0.6948 -0.8920 -2.0326
 4414SOL     OW24700   3.371   2.578   1.865  0.0827  0.0056  0.0781
 4414SOL    HW124701   3.353   2.647   1.802  0.0230 -1.1423 -1.1589
 4414SOL    HW224702   3.345   2.631   1.940 -1.6986 -0.9840  0.1606
 4415SOL     OW24703   3.020   3.943  10.435  0.2506  0.0204  0.1811
 4415SOL    HW124704   3.015   3.892  10.515 -1.4202 -0.8386 -0.4848
 4415SOL    HW224705   3.074   3.885  10.382 -1.6145 -0.0446 -1.6285
 4416SOL     OW24706   4.215   0.913   9.120  0.2414  0.2302 -0.1659
 4416SOL    HW124707   4.302   0.917   9.082 -0.2417  1.0485 -1.1785
 4416SOL    HW224708   4.244   0.904   9.211 -2.7087  1.5359  0.9282
 4417SOL     OW24709   0.946   3.328  12.248 -0.3656  0.0576  0.1699
 4417SOL    HW124710   0.957   3.305  12.155  0.0466 -0.3150  0.3101
 4417SOL    HW224711   0.854   3.345  12.266 -0.4467  1.2435 -1.4042
 4418SOL     OW24712   0.175   2.076  14.230  0.4254 -0.1631 -0.5345
 4418SOL    HW124713   0.105   2.110  14.174  0.0033 -0.3653 -0.1276
 4418SOL    HW224714   0.229   2.155  14.230 -1.0559  0.8696  1.9935
 4419SOL     OW24715   2.118   2.676   3.681  0.1315 -0.5392 -0.4394
 4419SOL    HW124716   2.092   2.679   3.774  2.9630 -1.8105  0.4011
 4419SOL    HW224717   2.063   2.603   3.652 -0.9392  0.1465 -0.1514
 4420SOL     OW24718   2.392   2.906  10.538  0.0351 -0.1661 -0.1216
 4420SOL    HW124719   2.405   2.977  10.476  4.0224 -1.3422 -0.6325
 4420SOL    HW224720   2.342   2.840  10.490 -2.6057 -0.3518  2.8923
 4421SOL     OW24721   2.790   2.236  16.577  0.0991 -0.2301 -0.5496
 4421SOL    HW124722   2.776   2.221  16.483 -0.1333  0.4498 -0.6216
 4421SOL    HW224723   2.721   2.179  16.611 -1.2177  1.3487 -0.5931
 4422SOL     OW24724   4.699   2.265  13.341  0.1342  0.1017  0.2449
 4422SOL    HW124725   0.001   2.335  13.400 -1.0988  0.7091  0.0918
 4422SOL    HW224726   0.048   2.261  13.281 -0.2913 -1.9877 -0.1422
 4423SOL     OW24727   2.550   0.976   1.788 -0.0012  0.1927 -0.5760
 4423SOL    HW124728   2.547   0.937   1.700  0.8111  0.1130 -0.5723
 4423SOL    HW224729   2.534   0.896   1.838  1.4524  0.2758  0.0268
 4424SOL     OW24730   4.123   3.770   6.027  0.2062  0.1127 -0.1459
 4424SOL    HW124731   4.136   3.679   6.000  1.5006 -0.7516  3.4851
 4424SOL    HW224732   4.160   3.816   5.952 -2.9852 -0.6443 -2.2102
 4425SOL     OW24733   3.766   4.566   0.574 -1.1517 -0.5187 -0.0775
 4425SOL    HW124734   3.729   4.646   0.611 -0.7794  0.5608 -2.0262
 4425SOL    HW224735   3.723   4.559   0.488 -0.8068 -0.0761 -0.2866
 4426SOL     OW24736   2.008   4.515   5.822  0.2735 -0.0954 -0.0414
 4426SOL    HW124737   2.095   4.553   5.812 -0.0142  0.5393 -0.1830
 4426SOL    HW224738   1.952   4.593   5.830  1.4852  1.0874 -2.8882
 4427SOL     OW24739   3.876   0.357  14.163  0.1852 -0.0603 -0.2820
 4427SOL    HW124740   3.902   0.436  14.211  0.7085 -0.5522  0.2620
 4427SOL    HW224741   3.873   0.391  14.074 -0.1055  0.1323 -0.1990
 4428SOL     OW24742   0.832   2.995   4.964 -0.2300  0.0591 -0.5796
 4428SOL    HW124743   0.737   3.000   4.967 -0.2892 -1.4920 -0.2230
 4428SOL    HW224744   0.842   2.976   5.057 -1.4706  1.7702 -0.0966
 4429SOL     OW24745   1.209   0.157   4.079  0.0417 -0.3072 -0.1880
 4429SOL    HW124746   1.277   0.101   4.115 -0.4298 -1.8422 -1.7008
 4429SOL    HW224747   1.188   0.202   4.161  2.7385  1.5445 -0.4956
 4430SOL     OW24748   4.244   2.339   6.535  0.1915  0.1999  0.2787
 4430SOL    HW124749   4.292   2.272   6.486  0.3940  0.5463  0.0033
 4430SOL    HW224750   4.152   2.329   6.509  1.1183  1.9789 -3.7517
 4431SOL     OW24751   4.125   4.275   7.891 -0.7903  0.0846  0.7371
 4431SOL    HW124752   4.212   4.289   7.855 -1.9741 -2.3679 -3.0891
 4431SOL    HW224753   4.139   4.182   7.907  0.0307  0.3708  1.6758
 4432SOL     OW24754   2.328   1.767   4.292  0.9103  0.0429 -0.0689
 4432SOL    HW124755   2.287   1.721   4.219 -0.0230  1.1954 -0.2700
 4432SOL    HW224756   2.335   1.854   4.252  0.2769  0.4503  0.6981
 4433SOL     OW24757   1.444   3.346  14.663 -0.0735 -0.1125 -0.4693
 4433SOL    HW124758   1.391   3.301  14.729  0.6179  0.0004  0.1655
 4433SOL    HW224759   1.515   3.284  14.646  1.2480  1.4097 -0.5253
 4434SOL     OW24760   2.324   4.504  10.581 -0.0704  0.1460  0.4129
 4434SOL    HW124761   2.253   4.540  10.633  0.8752 -0.6596  2.2613
 4434SOL    HW224762   2.328   4.412  10.608  0.8196  0.2636  0.7037
 4435SOL     OW24763   2.801   0.023   8.940 -0.1375  0.5423  0.2158
 4435SOL    HW124764   2.727   0.030   9.000  0.6852 -1.1471  1.4045
 4435SOL    HW224765   2.760   4.696   8.871 -0.7954  1.0391  0.2310
 4436SOL     OW24766   0.699   1.841  13.418  0.0158  0.0742  0.2365
 4436SOL    HW124767   0.677   1.816  13.507 -0.5355 -1.4946 -0.3442
 4436SOL    HW224768   0.670   1.932  13.408 -1.5136 -0.4409  0.0496
 4437SOL     OW24769   1.699   3.629  15.191  0.2586 -0.1532  0.5476
 4437SOL    HW124770   1.771   3.577  15.226 -1.0953 -1.9495  0.6396
 4437SOL    HW224771   1.716   3.695  15.258 -1.0995  0.8386 -0.0855
 4438SOL     OW24772   0.814   2.526   3.668  0.1299 -0.0766  0.2531
 4438SOL    HW124773   0.891   2.569   3.706 -0.3306 -1.0053  2.2651
 4438SOL    HW224774   0.851   2.472   3.599 -2.4167 -0.9499 -0.4130
 4439SOL     OW24775   2.413   2.350   3.945 -0.1062  0.4210 -0.1911
 4439SOL    HW124776   2.409   2.255   3.949 -0.8890  0.4420 -0.4508
 4439SOL    HW224777   2.336   2.372   3.893  1.1476  2.7222 -1.1019
 4440SOL     OW24778   3.849   3.594  17.299  0.3860  0.3906 -0.3673
 4440SOL    HW124779   3.877   3.595  17.207  1.3226  0.0802 -0.0866
 4440SOL    HW224780   3.932   3.578  17.343  0.5087 -0.2420 -0.8357
 4441SOL     OW24781   0.929   3.316  10.817  0.7013  0.1844  0.0473
 4441SOL    HW124782   0.918   3.307  10.723 -1.3241 -0.0151  0.2905
 4441SOL    HW224783   1.023   3.311  10.829  0.8317  0.8608 -0.7529
 4442SOL     OW24784   2.129   1.978   8.359 -0.7242  0.0810 -0.7162
 4442SOL    HW124785   2.059   1.987   8.423 -0.6298  0.5396 -0.6745
 4442SOL    HW224786   2.202   1.990   8.420  0.0045  1.2807 -1.8075
 4443SOL     OW24787   4.219   3.047  17.501 -0.1336 -0.2704 -0.3560
 4443SOL    HW124788   4.314   3.046  17.518  0.4075 -1.7630 -3.4367
 4443SOL    HW224789   4.225   3.045  17.406 -0.4031  1.6639 -0.4022
 4444SOL     OW24790   3.905   4.043  10.784  0.1146 -0.1027  0.3863
 4444SOL    HW124791   3.938   3.976  10.725 -0.1752 -1.1423  1.4074
 4444SOL    HW224792   3.985   4.097  10.782 -0.7810  1.2174  0.0490
 4445SOL     OW24793   4.299   1.257   7.773 -0.2527 -0.7319 -0.7699
 4445SOL    HW124794   4.362   1.322   7.802 -0.9206 -0.1382 -0.6366
 4445SOL    HW224795   4.343   1.173   7.783  3.4524  0.9646 -2.6095
 4446SOL     OW24796   3.833   2.886   0.839  0.7509  0.3532  0.3033
 4446SOL    HW124797   3.899   2.827   0.803 -0.2172 -1.3510  1.3543
 4446SOL    HW224798   3.775   2.833   0.893  1.0957 -1.5226 -1.1796
 4447SOL     OW24799   3.908   0.225  12.848  0.3561 -0.0076 -0.3113
 4447SOL    HW124800   3.992   0.202  12.808  0.3991  0.0815 -0.2741
 4447SOL    HW224801   3.839   0.188  12.794 -1.1772  1.6537  0.5002
 4448SOL     OW24802   4.020   0.435   2.422  0.5578 -0.5390  0.2259
 4448SOL    HW124803   4.045   0.443   2.330  1.4915  0.0209  0.5255
 4448SOL    HW224804   4.103   0.433   2.470  1.0660 -1.3686 -0.6806
 4449SOL     OW24805   2.931   0.273   8.636 -0.3070  0.0265  0.6350
 4449SOL    HW124806   2.970   0.340   8.693 -1.5696 -0.6628  2.3115
 4449SOL    HW224807   2.976   0.196   8.672 -2.2601 -0.9570  0.9489
 4450SOL     OW24808   2.129   3.009   3.062 -0.1672 -0.0099  0.4978
 4450SOL    HW124809   2.100   3.091   3.102 -0.5304 -0.1966  0.6179
 4450SOL    HW224810   2.216   2.999   3.101  0.5650  3.1867 -0.3029
 4451SOL     OW24811   1.615   3.376  10.936 -0.3548 -0.2896  0.3886
 4451SOL    HW124812   1.528   3.395  10.900 -0.6459  0.5980  1.5518
 4451SOL    HW224813   1.656   3.325  10.866 -2.1548  1.0518 -1.6216
 4452SOL     OW24814   2.453   2.329   2.934 -0.4722 -0.3873 -0.2189
 4452SOL    HW124815   2.510   2.253   2.939 -0.2020 -0.0534  1.6480
 4452SOL    HW224816   2.493   2.355   2.851 -0.3657 -2.2832 -0.7691
 4453SOL     OW24817   3.753   1.049   7.950 -0.2102 -0.3397 -0.3939
 4453SOL    HW124818   3.767   1.038   8.044 -0.3026  1.0125 -0.2137
 4453SOL    HW224819   3.734   0.958   7.929 -1.5667 -0.0904 -0.2064
 4454SOL     OW24820   3.696   1.197   4.114  0.2749  0.2870  0.0656
 4454SOL    HW124821   3.618   1.168   4.068  2.2867 -0.9484 -2.5698
 4454SOL    HW224822   3.671   1.289   4.127 -0.0015  0.2921 -0.5260
 4455SOL     OW24823   0.800   1.869   1.148  0.2648 -0.7494 -0.4419
 4455SOL    HW124824   0.753   1.915   1.078  0.1832 -0.0220  0.0888
 4455SOL    HW224825   0.805   1.783   1.107  2.4262 -1.4951  1.3980
 4456SOL     OW24826   0.789   1.637   5.480  0.6468 -0.6008  0.2296
 4456SOL    HW124827   0.826   1.597   5.558 -0.1970 -2.0075 -0.0948
 4456SOL    HW224828   0.838   1.719   5.486  0.5875 -0.6405  1.1706
 4457SOL     OW24829   1.249   0.971   4.967  0.5548  0.0413 -0.4875
 4457SOL    HW124830   1.268   1.051   4.919 -0.3615 -0.1359 -1.1378
 4457SOL    HW224831   1.155   0.975   4.982  0.9325 -0.7414  2.0463
 4458SOL     OW24832   4.181   3.596  10.745  0.4464  0.6563  0.9568
 4458SOL    HW124833   4.135   3.614  10.827 -0.4652  3.0136 -0.0792
 4458SOL    HW224834   4.233   3.676  10.750 -4.2058  3.7958 -0.2397
 4459SOL     OW24835   2.167   0.405  15.079 -0.0805  0.2623 -0.1103
 4459SOL    HW124836   2.137   0.446  14.998 -1.4315 -0.0140  0.2583
 4459SOL    HW224837   2.251   0.444  15.101 -0.3473  1.4900 -1.2817
 4460SOL     OW24838   4.239   2.000   7.268 -0.3535  0.1966 -0.7289
 4460SOL    HW124839   4.316   1.984   7.323 -1.7699 -1.6614  0.7407
 4460SOL    HW224840   4.260   2.082   7.224  0.5321  0.1358 -0.4198
 4461SOL     OW24841   2.844   1.635   7.256 -0.4353  0.0362 -0.0251
 4461SOL    HW124842   2.858   1.709   7.198  0.7957 -0.5660 -0.5085
 4461SOL    HW224843   2.855   1.565   7.191  1.3507 -0.4926  0.8394
 4462SOL     OW24844   3.718   2.426   5.620 -0.0966 -0.1882 -0.3319
 4462SOL    HW124845   3.712   2.430   5.716  1.3405  1.6695 -0.3175
 4462SOL    HW224846   3.814   2.422   5.620 -0.1386 -1.4503  0.5829
 4463SOL     OW24847   1.565   2.306   3.918  0.4836  0.1207  0.1205
 4463SOL    HW124848   1.527   2.248   3.852  2.6705  0.8493 -1.8319
 4463SOL    HW224849   1.620   2.363   3.863 -2.8560  0.7882 -2.5588
 4464SOL     OW24850   4.151   0.058   9.912  0.2118  0.2195  0.1295
 4464SOL    HW124851   4.212   0.104   9.970 -1.4543 -0.3537  2.3381
 4464SOL    HW224852   4.097   0.133   9.891  0.1445 -0.4189 -1.9598
 4465SOL     OW24853   1.650   0.268  10.520  0.5312 -0.1042  0.0965
 4465SOL    HW124854   1.653   0.283  10.615 -3.2921 -1.2922  0.3924
 4465SOL    HW224855   1.730   0.318  10.506 -0.0037  0.1782 -1.8731
 4466SOL     OW24856   2.330   1.789  10.472 -0.4688 -0.4597 -0.4579
 4466SOL    HW124857   2.298   1.875  10.496  0.0900 -0.8842  1.8261
 4466SOL    HW224858   2.405   1.787  10.532  0.4047 -2.2725 -1.6183
 4467SOL     OW24859   4.717   1.764  15.119  0.2041  0.0404 -0.0111
 4467SOL    HW124860   4.713   1.685  15.173 -0.7561  0.2876  0.2696
 4467SOL    HW224861   0.073   1.804  15.149  1.6595 -3.0797  0.2136
 4468SOL     OW24862   2.763   0.927   2.181  0.0366  0.2209  0.4423
 4468SOL    HW124863   2.676   0.965   2.193  0.3649  1.6450 -1.5768
 4468SOL    HW224864   2.803   1.013   2.172 -1.4056  0.7338 -1.1469
 4469SOL     OW24865   0.449   2.110  10.194 -0.0114  0.3861  0.4941
 4469SOL    HW124866   0.486   2.022  10.186 -2.2235 -0.6132  1.0796
 4469SOL    HW224867   0.474   2.143  10.108  1.3358 -0.8410  0.4213
 4470SOL     OW24868   4.550   1.000   2.045  0.0950  0.3695 -0.1276
 4470SOL    HW124869   4.611   1.073   2.033  1.8680 -0.9712  0.8633
 4470SOL    HW224870   4.594   0.954   2.117 -2.0628  0.9594  1.5781
 4471SOL     OW24871   4.604   2.285  17.078  0.8338  0.4652  0.2398
 4471SOL    HW124872   4.561   2.237  17.148 -2.3326  0.3419 -1.7559
 4471SOL    HW224873   4.680   2.319  17.125 -0.1719 -0.6288  2.6565
 4472SOL     OW24874   2.886   1.723   1.512 -0.1580 -0.2420 -0.3090
 4472SOL    HW124875   2.855   1.679   1.433 -1.6615 -0.3697  0.3560
 4472SOL    HW224876   2.820   1.791   1.520 -0.2101 -0.2474 -0.7147
 4473SOL     OW24877   2.749   3.729   3.501 -0.0641 -0.3401  0.0135
 4473SOL    HW124878   2.789   3.642   3.507 -0.0857 -0.4143 -0.7866
 4473SOL    HW224879   2.823   3.783   3.526 -0.3653  0.5972 -1.1203
 4474SOL     OW24880   0.072   0.098   5.002  0.8911  0.1378  0.5513
 4474SOL    HW124881   4.707   0.070   4.986  1.4472 -0.4285 -1.5813
 4474SOL    HW224882   0.062   0.135   5.090  0.0118  0.0140  0.5076
 4475SOL     OW24883   0.511   4.125   6.469  0.0021 -0.6535 -0.3590
 4475SOL    HW124884   0.446   4.099   6.535 -0.2593 -0.7165 -0.6379
 4475SOL    HW224885   0.451   4.126   6.395 -0.3536 -1.0167 -0.0747
 4476SOL     OW24886   1.617   4.264   1.900 -0.3955  0.0856  0.0095
 4476SOL    HW124887   1.668   4.310   1.834  3.0350 -2.8611  0.6423
 4476SOL    HW224888   1.612   4.325   1.975  0.9955 -1.5245  1.4148
 4477SOL     OW24889   2.789   1.475   8.073  0.4830  0.1665  0.5559
 4477SOL    HW124890   2.700   1.445   8.089  0.1738  0.7637 -0.0528
 4477SOL    HW224891   2.823   1.501   8.159  4.5424  1.3212 -1.3596
 4478SOL     OW24892   3.228   3.583  10.630 -0.2391  0.0114  0.2647
 4478SOL    HW124893   3.225   3.607  10.538  3.0555 -0.6234  0.0113
 4478SOL    HW224894   3.274   3.659  10.666 -0.3411 -1.3214  3.2817
 4479SOL     OW24895   2.787   3.707   9.248  0.4828 -0.1443 -0.2153
 4479SOL    HW124896   2.837   3.787   9.262 -0.9339  0.9110 -1.2560
 4479SOL    HW224897   2.801   3.691   9.155  0.8364 -0.7168 -0.0666
 4480SOL     OW24898   1.756   0.951   4.420  0.7226  0.3048  0.2952
 4480SOL    HW124899   1.758   1.040   4.456 -2.2905 -0.0216  1.2733
 4480SOL    HW224900   1.702   0.903   4.483  2.4504  0.3611  1.8227
 4481SOL     OW24901   4.038   0.493   4.553  0.0796  0.3128  0.2516
 4481SOL    HW124902   3.969   0.557   4.534 -0.1845  0.0014  0.1770
 4481SOL    HW224903   4.099   0.529   4.489 -1.4051  0.1194 -1.2603
 4482SOL     OW24904   3.341   1.684   2.334  0.0452  0.1725 -0.0423
 4482SOL    HW124905   3.358   1.656   2.423  1.5370  0.1385 -0.3350
 4482SOL    HW224906   3.245   1.687   2.332 -0.0452 -1.9480  1.8024
 4483SOL     OW24907   0.511   3.981  13.247  0.2149 -0.4458 -0.3092
 4483SOL    HW124908   0.542   3.937  13.168  0.4521 -1.1554  0.1816
 4483SOL    HW224909   0.592   4.006  13.292  2.0018 -1.5731 -2.9445
 4484SOL     OW24910   2.509   0.523   2.166 -0.2906  0.1136  0.1588
 4484SOL    HW124911   2.586   0.570   2.135 -0.0119 -0.8829 -0.6376
 4484SOL    HW224912   2.504   0.558   2.255  2.0898  0.5892  0.1003
 4485SOL     OW24913   4.158   1.186   7.329 -0.4245  0.3267  0.0912
 4485SOL    HW124914   4.227   1.163   7.391  1.2234  0.4570 -1.6790
 4485SOL    HW224915   4.199   1.156   7.247 -2.2007  2.9696 -1.7901
 4486SOL     OW24916   1.169   0.267   8.989 -0.2582  0.5091 -0.0494
 4486SOL    HW124917   1.120   0.317   8.924  1.2107  1.4541 -0.4491
 4486SOL    HW224918   1.106   0.196   9.001  1.6233 -1.1657 -0.0664
 4487SOL     OW24919   4.575   1.123   6.230 -0.1124  0.0246 -0.1140
 4487SOL    HW124920   4.644   1.188   6.212 -0.3242  0.4581  0.6366
 4487SOL    HW224921   4.516   1.166   6.292  0.7469 -0.6328  1.1554
 4488SOL     OW24922   1.801   4.470   2.686  0.2221  0.2058  0.0328
 4488SOL    HW124923   1.709   4.455   2.707  0.4187  0.9250  1.4184
 4488SOL    HW224924   1.801   4.494   2.594  2.6290 -1.3839 -0.3948
 4489SOL     OW24925   1.055   0.520  10.486  0.0239 -0.5844 -0.2846
 4489SOL    HW124926   1.087   0.520  10.395 -0.3890  1.2770 -0.4151
 4489SOL    HW224927   0.985   0.583  10.468  1.0826 -0.5929 -4.4435
 4490SOL     OW24928   4.573   3.736   8.440 -0.2578 -0.1070 -0.1827
 4490SOL    HW124929   4.649   3.786   8.471 -2.1902  1.8505  1.4509
 4490SOL    HW224930   4.567   3.675   8.514  0.4004 -1.1986 -1.0354
 4491SOL     OW24931   1.714   4.496   9.287  0.0593  0.0590  0.1272
 4491SOL    HW124932   1.637   4.526   9.337  2.4026  3.7047  1.5777
 4491SOL    HW224933   1.778   4.555   9.328 -1.4781  2.3183 -0.7210
 4492SOL     OW24934   4.445   1.276   3.878 -0.2345  0.5090 -0.4845
 4492SOL    HW124935   4.449   1.181   3.877 -0.8428  0.4794 -0.3446
 4492SOL    HW224936   4.488   1.296   3.795  1.4725  1.3051  0.6039
 4493SOL     OW24937   1.238   3.788   1.195  0.1083 -0.4773 -0.5085
 4493SOL    HW124938   1.146   3.793   1.167  0.2316  1.3027 -0.6509
 4493SOL    HW224939   1.238   3.873   1.240  0.0895 -0.7404 -0.0112
 4494SOL     OW24940   0.689   3.761   9.477  0.2540 -0.1239 -0.2052
 4494SOL    HW124941   0.603   3.803   9.479  0.9277  1.1476  2.7917
 4494SOL    HW224942   0.689   3.728   9.567 -0.7134  0.4731  0.0217
 4495SOL     OW24943   2.057   1.699   1.523  0.0555  0.6423  0.4981
 4495SOL    HW124944   2.097   1.613   1.534 -1.3917 -0.3522 -2.1847
 4495SOL    HW224945   2.104   1.753   1.587  3.1801  0.2114 -1.4690
 4496SOL     OW24946   1.852   3.099   7.269 -0.1312 -0.5179 -0.4906
 4496SOL    HW124947   1.864   3.039   7.342 -1.5683 -0.1306  0.0681
 4496SOL    HW224948   1.780   3.055   7.224 -0.7033 -1.4809  1.3649
 4497SOL     OW24949   2.108   2.739   9.378 -0.6436  0.1485  0.1124
 4497SOL    HW124950   2.145   2.657   9.409  2.8641  2.5742  2.4196
 4497SOL    HW224951   2.074   2.783   9.456 -1.5112  1.4144 -0.9725
 4498SOL     OW24952   0.276   0.001   5.432  0.1591  0.4432  0.0372
 4498SOL    HW124953   0.236   4.686   5.355 -0.1738 -0.0347  0.4647
 4498SOL    HW224954   0.252   0.091   5.411  2.1333  0.9979  0.1456
 4499SOL     OW24955   0.654   1.182   2.177  0.1702 -0.0024 -0.3594
 4499SOL    HW124956   0.633   1.253   2.238  0.4756  1.7931 -2.3608
 4499SOL    HW224957   0.593   1.110   2.195 -0.0804  0.8236  2.0966
 4500SOL     OW24958   3.368   1.305   6.397  0.4709  0.6269 -0.3622
 4500SOL    HW124959   3.326   1.291   6.483  1.0600  0.4382 -0.1065
 4500SOL    HW224960   3.292   1.351   6.362  0.1249  0.6591  0.4102
 4501SOL     OW24961   3.318   4.576   4.470 -0.2159  0.1522 -0.7006
 4501SOL    HW124962   3.257   4.631   4.421  0.4608  1.6454  0.1291
 4501SOL    HW224963   3.344   4.523   4.394 -1.0215 -1.8877  0.4570
 4502SOL     OW24964   3.616   1.701   3.187 -0.3586 -0.0879  0.5411
 4502SOL    HW124965   3.631   1.761   3.260 -2.3573 -0.6857  1.4419
 4502SOL    HW224966   3.702   1.677   3.152 -0.8500 -0.5322 -0.3574
 4503SOL     OW24967   1.555   0.854  14.100  0.2978 -0.0604  0.0461
 4503SOL    HW124968   1.610   0.922  14.061  0.2654 -0.9721 -1.5986
 4503SOL    HW224969   1.546   0.796  14.024  0.8398  0.5962 -0.5170
 4504SOL     OW24970   2.126   3.594   1.492 -0.5670 -0.5862 -0.0254
 4504SOL    HW124971   2.080   3.570   1.412 -1.3857 -0.2757  0.3554
 4504SOL    HW224972   2.133   3.689   1.484  2.2419 -0.5972  2.4505
 4505SOL     OW24973   1.688   2.592   2.390  0.2803 -0.1364  0.4386
 4505SOL    HW124974   1.599   2.627   2.396  0.7604  1.3167 -0.6945
 4505SOL    HW224975   1.734   2.656   2.445  2.4512 -1.6235  0.3516
 4506SOL     OW24976   2.562   4.677   2.138 -0.0926  0.3394  0.7635
 4506SOL    HW124977   2.570   0.017   2.068  2.3042 -0.4115  0.3357
 4506SOL    HW224978   2.609   4.711   2.214  0.4182 -0.8568  0.9848
 4507SOL     OW24979   0.666   4.616   1.943  0.6581 -0.1375 -0.4400
 4507SOL    HW124980   0.705   4.688   1.994 -0.0203 -0.2959  0.3025
 4507SOL    HW224981   0.576   4.604   1.973  0.3488  2.4192 -0.3557
 4508SOL     OW24982   4.702   0.691   7.923  0.1547 -0.2892  0.2993
 4508SOL    HW124983   4.617   0.684   7.966  0.1452  1.3930  0.5172
 4508SOL    HW224984   0.018   0.738   7.995  0.5202  0.0150 -0.1041
 4509SOL     OW24985   0.673   4.573   2.551  0.1576  0.2688  0.4436
 4509SOL    HW124986   0.756   4.577   2.599 -0.5697  1.5627  1.6131
 4509SOL    HW224987   0.657   4.668   2.549  0.7915  0.3848  0.6330
 4510SOL     OW24988   3.836   2.739   0.542  0.0178  0.3601 -0.0444
 4510SOL    HW124989   3.931   2.737   0.531 -0.1777  0.2551 -1.7376
 4510SOL    HW224990   3.803   2.685   0.471  3.2355 -1.6914  0.0102
 4511SOL     OW24991   2.097   3.594   8.766 -0.2019 -0.1865 -0.1610
 4511SOL    HW124992   2.029   3.599   8.833  0.5732  0.2500  0.5875
 4511SOL    HW224993   2.125   3.685   8.753 -1.0237 -0.0896 -1.2156
 4512SOL     OW24994   0.885   2.200   1.179 -0.0254  0.1302 -0.2713
 4512SOL    HW124995   0.891   2.287   1.140  1.7624 -0.2427 -0.7994
 4512SOL    HW224996   0.911   2.141   1.109 -1.4770  1.0904 -1.6255
 4513SOL     OW24997   2.832   4.422   9.156  0.3376  0.0896 -0.0990
 4513SOL    HW124998   2.865   4.479   9.226  0.9630 -0.9394  0.4343
 4513SOL    HW224999   2.912   4.415   9.106  0.1536 -0.9916 -0.2248
 4514SOL     OW25000   1.248   1.675   4.319  0.4323  0.9957 -0.6083
 4514SOL    HW125001   1.229   1.584   4.295  2.1293  0.4159  0.1940
 4514SOL    HW225002   1.329   1.687   4.269 -0.7046 -2.0956 -3.2534
 4515SOL     OW25003   2.221   4.248   6.274 -0.0664  0.2166 -0.0512
 4515SOL    HW125004   2.205   4.154   6.263 -2.9306  0.6641  0.3387
 4515SOL    HW225005   2.304   4.242   6.321 -0.2293  2.3022  0.4612
 4516SOL     OW25006   4.413   3.051  12.123  0.7162 -0.0856  0.9998
 4516SOL    HW125007   4.433   2.958  12.112 -1.4356 -0.2018 -1.8175
 4516SOL    HW225008   4.474   3.087  12.058  0.1418 -0.3274  0.3228
 4517SOL     OW25009   2.422   0.103   3.811 -0.3509 -0.4368 -0.3632
 4517SOL    HW125010   2.353   0.128   3.873  0.5499 -0.2094  0.5313
 4517SOL    HW225011   2.496   0.140   3.859  0.0811 -2.3822  0.4967
 4518SOL     OW25012   0.815   3.023   1.578  0.2487  0.1508 -0.0044
 4518SOL    HW125013   0.826   3.115   1.553  0.1338 -0.3357 -1.8474
 4518SOL    HW225014   0.868   2.978   1.512  1.4452  2.4008 -0.5909
 4519SOL     OW25015   0.082   3.819  13.718 -0.1970 -0.2524  0.0647
 4519SOL    HW125016   0.090   3.898  13.665  0.4492  1.3349  2.5306
 4519SOL    HW225017   4.713   3.806  13.720 -0.7033  3.4314 -1.5344
 4520SOL     OW25018   1.051   4.570  13.251 -0.8206 -0.1175  0.3466
 4520SOL    HW125019   0.967   4.616  13.260 -1.4301 -0.5933 -2.8724
 4520SOL    HW225020   1.101   4.607  13.324 -2.2631  1.4455  0.5470
 4521SOL     OW25021   4.206   0.778   4.638 -0.3807  0.0658 -0.2377
 4521SOL    HW125022   4.238   0.716   4.704 -1.5111  2.6270  2.7019
 4521SOL    HW225023   4.172   0.843   4.699  1.2872  1.0239 -0.3353
 4522SOL     OW25024   2.608   4.246   5.980 -0.5800 -0.0265 -0.0600
 4522SOL    HW125025   2.646   4.167   5.941 -1.0121 -1.5021  2.5001
 4522SOL    HW225026   2.634   4.307   5.911 -2.3692  0.2087 -0.5186
 4523SOL     OW25027   1.782   1.999   3.394 -0.4632  0.4331  0.5445
 4523SOL    HW125028   1.766   1.960   3.308 -0.3697  2.8444 -0.5825
 4523SOL    HW225029   1.737   1.936   3.450 -0.9552 -0.6655 -1.0957
 4524SOL     OW25030   2.651   4.239   8.843 -0.2291 -0.2270  0.6371
 4524SOL    HW125031   2.581   4.185   8.807  0.0126 -2.1855  3.1583
 4524SOL    HW225032   2.606   4.301   8.898 -1.9169 -0.2364 -0.7425
 4525SOL     OW25033   2.609   3.801   6.326 -0.3974  0.1080  0.6705
 4525SOL    HW125034   2.543   3.782   6.393 -0.6365 -0.0178  0.4032
 4525SOL    HW225035   2.591   3.892   6.301  2.9146 -0.0280 -2.1574
 4526SOL     OW25036   1.406   1.711   0.284 -0.1054  0.1954 -0.1230
 4526SOL    HW125037   1.415   1.748   0.196 -1.0883 -1.9187 -1.1132
 4526SOL    HW225038   1.372   1.626   0.257 -2.8917  0.5430  2.2895
 4527SOL     OW25039   4.573   2.797   2.553  0.1962 -0.6761  0.0969
 4527SOL    HW125040   4.610   2.777   2.639 -1.0389  1.1484  1.0744
 4527SOL    HW225041   4.486   2.761   2.572  0.5823 -1.1859  0.8903
 4528SOL     OW25042   1.100   4.616  11.708 -0.0151 -1.0476 -0.4788
 4528SOL    HW125043   1.134   4.677  11.643 -1.9931 -0.1367 -0.6573
 4528SOL    HW225044   1.079   4.542  11.651  0.5206 -0.5878 -1.2726
 4529SOL     OW25045   0.216   0.662   4.829 -0.1226  0.0464  0.5240
 4529SOL    HW125046   0.131   0.632   4.861 -1.1680  0.0987 -2.1766
 4529SOL    HW225047   0.261   0.665   4.913  3.1404  0.6263 -1.2271
 4530SOL     OW25048   2.119   3.608  13.251 -0.5175  0.0458 -0.0590
 4530SOL    HW125049   2.182   3.538  13.267  0.0317  0.8072  1.0925
 4530SOL    HW225050   2.106   3.645  13.338  1.3409 -0.0162  0.2408
 4531SOL     OW25051   0.482   2.888   7.072 -0.1236  0.3944  0.8621
 4531SOL    HW125052   0.415   2.821   7.061  0.9526 -0.3820 -1.1951
 4531SOL    HW225053   0.434   2.953   7.122 -2.4737 -1.3965  0.9192
 4532SOL     OW25054   2.963   0.602   3.915 -0.0308  0.4493 -0.0795
 4532SOL    HW125055   2.979   0.696   3.916 -0.0921  0.4405  2.6501
 4532SOL    HW225056   2.975   0.585   4.009 -0.4647  1.9677  0.2457
 4533SOL     OW25057   4.581   1.381   7.764  0.3660 -0.3499 -0.7171
 4533SOL    HW125058   4.631   1.418   7.837  1.8626 -2.8637 -0.4514
 4533SOL    HW225059   4.605   1.449   7.701  0.2069 -0.0001 -0.4013
 4534SOL     OW25060   1.885   0.593   2.489  0.7392 -0.7138 -0.3478
 4534SOL    HW125061   1.969   0.551   2.468  3.0282  3.2826  0.9340
 4534SOL    HW225062   1.832   0.566   2.413  0.4424 -1.0010 -0.0374
 4535SOL     OW25063   1.794   3.730   3.126 -0.1961 -0.7050 -0.2842
 4535SOL    HW125064   1.862   3.755   3.189 -1.9531  0.2819  1.2089
 4535SOL    HW225065   1.851   3.674   3.074  1.6563  0.2286  0.7360
 4536SOL     OW25066   0.310   1.471  11.072 -0.0807 -0.3081  0.3474
 4536SOL    HW125067   0.248   1.451  11.142 -0.5275  1.1455  0.3740
 4536SOL    HW225068   0.253   1.522  11.014 -0.9617 -0.6113  0.9476
 4537SOL     OW25069   0.116   1.966   7.650  0.6735 -0.3331 -0.3339
 4537SOL    HW125070   0.109   2.011   7.566  0.1755 -1.0604 -0.6872
 4537SOL    HW225071   0.205   1.973   7.683  0.9973  0.0361 -1.2925
 4538SOL     OW25072   4.377   4.131   4.552  0.0308  0.0798 -0.0882
 4538SOL    HW125073   4.392   4.117   4.458 -2.2348  0.4530 -0.5295
 4538SOL    HW225074   4.465   4.136   4.589  0.5319 -2.1338 -0.9579
 4539SOL     OW25075   1.555   3.869   3.779 -0.6344  0.2726  0.8232
 4539SOL    HW125076   1.512   3.921   3.711 -0.5647 -2.1280 -1.0430
 4539SOL    HW225077   1.479   3.842   3.831 -2.0292  1.4648 -0.5579
 4540SOL     OW25078   4.512   3.537  15.262  0.3131 -0.3710 -0.0535
 4540SOL    HW125079   4.459   3.558  15.339 -0.2734  1.0011 -0.8273
 4540SOL    HW225080   4.591   3.501  15.302  0.2512  0.6183  0.9899
 4541SOL     OW25081   1.353   1.773   2.863 -0.8531 -0.3802 -0.5330
 4541SOL    HW125082   1.289   1.791   2.932 -1.4353  0.6449 -1.3392
 4541SOL    HW225083   1.369   1.859   2.823 -2.3044  0.3071  0.3520
 4542SOL     OW25084   3.405   0.603   9.193 -0.0680 -0.4256 -0.7590
 4542SOL    HW125085   3.446   0.529   9.237  1.1914  0.0783 -1.0835
 4542SOL    HW225086   3.322   0.567   9.160 -0.5688  0.8715 -0.9266
 4543SOL     OW25087   0.294   0.598   2.069  0.6012  0.1320  0.2741
 4543SOL    HW125088   0.250   0.683   2.067 -0.9774 -0.6554  0.9886
 4543SOL    HW225089   0.236   0.556   2.005 -1.4421 -0.2239  2.3477
 4544SOL     OW25090   3.072   3.340   3.835  0.5818  0.4301  0.9037
 4544SOL    HW125091   3.163   3.346   3.806 -1.0959  1.2152 -4.1739
 4544SOL    HW225092   3.025   3.408   3.787  0.5264  0.0805  0.4635
 4545SOL     OW25093   4.080   3.215   7.175  0.2260 -0.4219 -0.6099
 4545SOL    HW125094   4.008   3.174   7.222  0.5977 -0.5403 -0.1412
 4545SOL    HW225095   4.156   3.193   7.229 -0.0415 -0.0666 -0.0839
 4546SOL     OW25096   0.829   2.343  14.336  0.1555  0.8696 -0.0339
 4546SOL    HW125097   0.831   2.402  14.412  2.1738  2.5613 -1.3991
 4546SOL    HW225098   0.893   2.383  14.278  3.3576 -2.2106  1.3954
 4547SOL     OW25099   0.509   0.726   1.528  0.3428  0.3220  0.1758
 4547SOL    HW125100   0.439   0.672   1.491 -0.3463  1.9044 -0.8176
 4547SOL    HW225101   0.520   0.667   1.604  2.8979 -1.9147 -1.9132
 4548SOL     OW25102   2.652   3.335   8.459  0.1637  0.2802  0.7443
 4548SOL    HW125103   2.640   3.430   8.460  3.0796  0.6820 -3.4598
 4548SOL    HW225104   2.670   3.327   8.552 -1.5972 -2.4753  0.8433
 4549SOL     OW25105   4.499   3.686   5.173 -0.2795 -0.2898  0.1627
 4549SOL    HW125106   4.443   3.665   5.098  1.6239 -1.3499 -0.9786
 4549SOL    HW225107   4.586   3.661   5.141 -0.2739  2.5832 -2.0339
 4550SOL     OW25108   0.880   2.329  10.567 -0.5037 -0.2620 -0.0262
 4550SOL    HW125109   0.974   2.329  10.545 -0.4471  0.6116  0.2036
 4550SOL    HW225110   0.851   2.403  10.514 -0.0896  0.2181  0.4184
 4551SOL     OW25111   2.099   4.419  15.859 -0.4059  0.5395 -0.4981
 4551SOL    HW125112   2.038   4.440  15.930  0.3447 -2.5854  1.1015
 4551SOL    HW225113   2.175   4.466  15.894 -1.2786  1.3945  0.2494
 4552SOL     OW25114   1.333   4.541   2.237 -0.2635 -0.7986  0.6909
 4552SOL    HW125115   1.327   4.537   2.332  2.4993  1.7040  0.9786
 4552SOL    HW225116   1.250   4.500   2.213 -0.6509  1.0537 -1.1671
 4553SOL     OW25117   2.999   1.175  10.206  0.0532  0.2141 -0.1694
 4553SOL    HW125118   2.967   1.101  10.154 -1.8713 -0.0629  1.4208
 4553SOL    HW225119   2.919   1.209  10.245  0.1337  0.0662  0.1262
 4554SOL     OW25120   2.028   0.968   3.457 -0.7767  0.1346 -0.4699
 4554SOL    HW125121   2.020   0.912   3.534 -0.9499 -0.1378 -0.6880
 4554SOL    HW225122   2.024   0.908   3.383 -0.2921 -2.0106  1.2620
 4555SOL     OW25123   0.502   3.968   5.318  0.4855  0.6784 -0.6547
 4555SOL    HW125124   0.555   4.046   5.335  0.6021  0.5592 -0.4734
 4555SOL    HW225125   0.568   3.899   5.310 -0.6353 -0.3962 -0.5658
 4556SOL     OW25126   4.641   0.146   2.012  0.4121 -0.3160  0.1727
 4556SOL    HW125127   4.625   0.052   2.018  2.9417 -0.8083 -1.0725
 4556SOL    HW225128   0.008   0.134   1.990  0.0954 -0.4432 -1.0710
 4557SOL     OW25129   0.188   2.350   7.322  0.2326  0.0281  0.2728
 4557SOL    HW125130   0.267   2.340   7.268  0.6460 -0.1556  0.9069
 4557SOL    HW225131   0.125   2.381   7.258  1.3626 -0.8891 -1.2995
 4558SOL     OW25132   1.709   3.808   1.137 -0.0067  0.2248 -0.2406
 4558SOL    HW125133   1.764   3.756   1.079 -1.3846 -1.9459  0.3811
 4558SOL    HW225134   1.769   3.882   1.135 -1.7670  1.7522  3.8094
 4559SOL     OW25135   1.718   1.070   3.682  0.3366 -0.4828  0.3542
 4559SOL    HW125136   1.734   1.053   3.774  1.4498 -2.4972 -0.2246
 4559SOL    HW225137   1.697   0.983   3.648 -1.3839 -0.0209  0.2732
 4560SOL     OW25138   1.517   0.231   9.566 -0.2645 -0.0433  0.3034
 4560SOL    HW125139   1.575   0.175   9.618 -0.2668 -0.1921  0.1438
 4560SOL    HW225140   1.530   0.313   9.615 -0.9280 -0.2480  0.8325
 4561SOL     OW25141   1.497   1.795  16.764 -0.0797 -0.6863  0.3359
 4561SOL    HW125142   1.486   1.700  16.757 -0.7411 -0.6436  0.7516
 4561SOL    HW225143   1.572   1.809  16.707 -1.7784 -1.8443 -2.1530
 4562SOL     OW25144   1.055   4.173   8.930 -0.0727 -0.0838 -0.5092
 4562SOL    HW125145   1.116   4.118   8.881 -2.3574 -0.9918 -2.3296
 4562SOL    HW225146   1.009   4.108   8.983 -1.3946  0.2451 -1.2585
 4563SOL     OW25147   0.228   2.532  13.743  0.0380  0.2478 -0.5970
 4563SOL    HW125148   0.285   2.571  13.810 -1.0498  0.6694  0.0855
 4563SOL    HW225149   0.143   2.571  13.762 -0.5983 -2.1158  1.3957
 4564SOL     OW25150   3.494   1.130  12.711  0.0595 -0.0726  0.2946
 4564SOL    HW125151   3.451   1.089  12.635 -0.2085  0.7861 -0.0135
 4564SOL    HW225152   3.586   1.142  12.688 -0.1467  1.4262  0.2377
 4565SOL     OW25153   3.187   1.469   5.169 -0.7457 -0.0343 -0.2466
 4565SOL    HW125154   3.140   1.552   5.156 -1.1946  0.0003  1.5643
 4565SOL    HW225155   3.124   1.431   5.231 -1.1836  0.8585 -0.1424
 4566SOL     OW25156   1.472   1.297   2.960  0.6596  0.4606 -0.3828
 4566SOL    HW125157   1.531   1.298   2.885  1.6035  0.8613  0.3731
 4566SOL    HW225158   1.416   1.372   2.939 -0.5701 -0.8337 -1.7017
 4567SOL     OW25159   1.574   3.490   7.238 -0.0036 -0.6762 -0.6554
 4567SOL    HW125160   1.586   3.575   7.197 -0.9126 -0.1480  0.1717
 4567SOL    HW225161   1.479   3.492   7.250  0.0599 -0.7687 -0.1399
 4568SOL     OW25162   4.270   2.498   7.973  0.1476 -0.0378  0.1471
 4568SOL    HW125163   4.312   2.414   7.989  0.4603  0.2305  0.7417
 4568SOL    HW225164   4.180   2.471   7.990  0.8703 -1.4951  1.6523
 4569SOL     OW25165   4.696   1.248  11.648  0.2853  0.6329 -0.2362
 4569SOL    HW125166   0.021   1.321  11.683  0.3532  0.2870  0.3724
 4569SOL    HW225167   4.609   1.278  11.674  0.2263 -0.4171  0.7795
 4570SOL     OW25168   2.238   3.298   6.030  0.1789 -0.0144  0.1280
 4570SOL    HW125169   2.318   3.293   5.978 -0.5045  0.4553 -0.9738
 4570SOL    HW225170   2.249   3.391   6.052 -1.6512 -0.2175  1.8242
 4571SOL     OW25171   1.752   4.698  16.827 -0.0809 -0.4092 -0.3253
 4571SOL    HW125172   1.784   4.632  16.765 -0.9072 -1.7446  0.6841
 4571SOL    HW225173   1.819   0.041  16.818  1.0920 -1.4493  0.4839
 4572SOL     OW25174   3.523   1.363   7.364  0.0749 -0.2229 -0.6896
 4572SOL    HW125175   3.484   1.322   7.440 -0.4538 -1.0644 -1.4141
 4572SOL    HW225176   3.613   1.332   7.376 -0.1323 -0.4914  0.1685
 4573SOL     OW25177   3.735   2.272   3.141 -0.1001 -0.4750  0.0473
 4573SOL    HW125178   3.747   2.295   3.234 -0.2980  0.9640 -0.2831
 4573SOL    HW225179   3.823   2.236   3.132 -0.6399 -2.0979  1.2401
 4574SOL     OW25180   2.031   0.362  12.854 -0.2142  0.0384  0.5133
 4574SOL    HW125181   2.045   0.438  12.911 -2.7030 -0.7972  2.2040
 4574SOL    HW225182   2.110   0.377  12.801  0.1963  0.9520  1.3724
 4575SOL     OW25183   3.360   1.347  10.870  0.8571 -0.3252  0.0516
 4575SOL    HW125184   3.453   1.364  10.882  0.6727  0.2778  0.6076
 4575SOL    HW225185   3.356   1.365  10.776 -1.0926 -3.0313 -0.3795
 4576SOL     OW25186   3.217   2.979   4.373  0.1355  0.4127  0.5882
 4576SOL    HW125187   3.240   3.072   4.367  0.8721  0.0746 -1.6791
 4576SOL    HW225188   3.305   2.943   4.364 -0.2330 -0.0219 -1.1404
 4577SOL     OW25189   3.642   3.735   9.222  0.6008 -0.1442  0.2574
 4577SOL    HW125190   3.667   3.768   9.309 -2.1387  1.6671  0.3419
 4577SOL    HW225191   3.557   3.699   9.246 -0.1216  1.4417  0.0251
 4578SOL     OW25192   0.789   3.961   0.183  0.0700  0.2034  0.3231
 4578SOL    HW125193   0.876   3.967   0.143 -0.5797 -1.6174 -1.3472
 4578SOL    HW225194   0.776   4.055   0.190  3.8824  0.5731  2.8730
 4579SOL     OW25195   4.054   2.495   1.394 -0.0090  0.1644 -0.3927
 4579SOL    HW125196   4.032   2.537   1.311 -1.8658  1.4381  0.7285
 4579SOL    HW225197   4.029   2.566   1.454  0.4060  2.1357 -2.5468
 4580SOL     OW25198   1.002   2.048  11.240  0.3145 -0.4758 -0.5565
 4580SOL    HW125199   0.952   2.046  11.322  0.8327  1.3013 -0.2130
 4580SOL    HW225200   0.975   2.139  11.231 -0.6830 -0.7498 -0.3477
 4581SOL     OW25201   0.742   4.147  11.573  0.4626 -0.2795 -0.9664
 4581SOL    HW125202   0.661   4.179  11.533 -1.6267 -0.5743  3.0705
 4581SOL    HW225203   0.785   4.122  11.492  1.9956 -2.2864  0.4801
 4582SOL     OW25204   3.773   0.999   8.238  0.4778  0.3484 -0.4888
 4582SOL    HW125205   3.824   0.918   8.243  2.2913  1.4299 -1.3975
 4582SOL    HW225206   3.745   1.006   8.329  0.7039 -1.6160 -0.2525
 4583SOL     OW25207   4.151   0.878  13.518  0.2686 -0.6564 -0.1011
 4583SOL    HW125208   4.200   0.915  13.444 -0.7672 -1.4409 -1.1807
 4583SOL    HW225209   4.198   0.899  13.598 -0.5921  1.4294 -0.1514
 4584SOL     OW25210   4.692   3.246  10.534  0.1728  0.3425  0.7886
 4584SOL    HW125211   4.644   3.240  10.616  0.0910 -0.6744  0.6641
 4584SOL    HW225212   4.623   3.247  10.468  1.5010  0.3342 -0.6118
 4585SOL     OW25213   0.070   1.484   0.753 -0.2814  0.0289  0.2160
 4585SOL    HW125214   0.042   1.497   0.844 -2.1867  0.5204 -0.4238
 4585SOL    HW225215   0.147   1.540   0.757  0.7451 -1.3292 -0.6685
 4586SOL     OW25216   3.184   0.308   4.070  0.0211  0.6987 -0.1227
 4586SOL    HW125217   3.267   0.260   4.075 -0.7812 -0.5101  1.9801
 4586SOL    HW225218   3.211   0.396   4.099  1.7127  0.5887 -1.3661
 4587SOL     OW25219   3.445   1.299   4.306 -0.1407  0.8077 -0.0452
 4587SOL    HW125220   3.365   1.349   4.292 -0.4878  1.2064  3.3909
 4587SOL    HW225221   3.513   1.366   4.306 -1.6294  2.3288  2.2226
 4588SOL     OW25222   3.821   0.037   9.829  0.4954 -0.4400  0.0241
 4588SOL    HW125223   3.877   0.112   9.849 -0.7502  0.6838 -0.6866
 4588SOL    HW225224   3.880   4.693   9.799  1.0034 -0.0210  0.0433
 4589SOL     OW25225   0.923   1.930   1.397 -0.2323 -0.1995  0.1386
 4589SOL    HW125226   0.903   1.933   1.303  1.4298  2.9233 -0.1253
 4589SOL    HW225227   0.853   1.881   1.439  0.0982 -0.0259  0.8803
 4590SOL     OW25228   4.094   2.018  11.890  0.3404  0.9896  0.3828
 4590SOL    HW125229   4.145   2.045  11.966  0.5536  0.9358  0.2568
 4590SOL    HW225230   4.120   2.079  11.822  1.1633 -0.0860 -0.2644
 4591SOL     OW25231   2.006   0.472  12.148  0.7037  0.1521 -0.4594
 4591SOL    HW125232   2.074   0.453  12.213 -0.9972  0.8628  1.5253
 4591SOL    HW225233   2.046   0.534  12.087  0.1030 -0.4918 -1.5178
 4592SOL     OW25234   4.532   2.710   6.606 -0.6959  0.1169  0.2775
 4592SOL    HW125235   4.557   2.634   6.659  0.4202 -0.7369 -1.5008
 4592SOL    HW225236   4.445   2.735   6.638 -0.7717  1.3424 -0.8629
 4593SOL     OW25237   0.736   2.139   5.373 -0.2319  0.2235 -0.0180
 4593SOL    HW125238   0.738   2.210   5.308 -0.6925 -0.5407 -0.8771
 4593SOL    HW225239   0.750   2.069   5.309 -0.6493  0.6659 -0.5936
 4594SOL     OW25240   0.013   4.464  17.431  0.1818  0.3920  0.6672
 4594SOL    HW125241   0.059   4.386  17.462 -0.0554  0.7668  1.9245
 4594SOL    HW225242   0.055   4.535  17.480  0.2181  1.4387 -0.8684
 4595SOL     OW25243   1.654   3.133   1.459 -0.1626 -0.8660 -0.1859
 4595SOL    HW125244   1.653   3.182   1.542  0.5820 -0.0974 -0.6327
 4595SOL    HW225245   1.646   3.041   1.483 -0.4115 -0.8816 -0.3330
 4596SOL     OW25246   3.640   3.571   1.998  0.8097  0.3177  0.1963
 4596SOL    HW125247   3.685   3.563   1.914  2.4635  1.3312  0.9693
 4596SOL    HW225248   3.582   3.644   1.979  1.3066  0.5384 -0.4718
 4597SOL     OW25249   1.112   2.667   2.802  0.0266 -0.2937 -0.0424
 4597SOL    HW125250   1.093   2.752   2.761  2.4568  0.2870  0.0244
 4597SOL    HW225251   1.140   2.604   2.736 -1.0720  0.1681 -0.9488
 4598SOL     OW25252   2.200   0.261   8.511  0.1616 -0.3465  0.0764
 4598SOL    HW125253   2.149   0.335   8.544 -0.2139 -0.2923 -0.6258
 4598SOL    HW225254   2.147   0.186   8.538  0.7695 -1.1773 -1.0250
 4599SOL     OW25255   4.025   4.461   9.193 -0.3095  0.0641 -0.2373
 4599SOL    HW125256   3.955   4.520   9.221 -1.3180 -2.5382  2.7889
 4599SOL    HW225257   4.092   4.524   9.167  1.1109 -1.1430  0.4532
 4600SOL     OW25258   2.393   0.448   2.764  0.4299 -0.1225  0.5922
 4600SOL    HW125259   2.347   0.466   2.847  0.3269  1.9949  0.0805
 4600SOL    HW225260   2.381   0.529   2.715 -0.6996 -0.6638 -0.0292
 4601SOL     OW25261   2.091   1.821   8.134  0.4390  0.1154  0.1089
 4601SOL    HW125262   2.111   1.878   8.209  3.1712 -1.0791  0.2784
 4601SOL    HW225263   2.002   1.810   8.167 -0.1604  1.4365 -1.1200
 4602SOL     OW25264   1.577   4.494   3.143  0.5505 -0.0901  0.0522
 4602SOL    HW125265   1.534   4.418   3.182  0.1062  1.0551  1.7770
 4602SOL    HW225266   1.656   4.449   3.113  0.4097 -1.6850  2.1032
 4603SOL     OW25267   2.946   3.087   5.248 -0.3436 -0.1540  0.3147
 4603SOL    HW125268   2.975   3.174   5.274 -0.8544  0.7992 -2.3427
 4603SOL    HW225269   2.853   3.100   5.269 -0.3063 -1.0657  1.0182
 4604SOL     OW25270   3.304   0.735   9.861  0.1231  0.1691 -0.1121
 4604SOL    HW125271   3.325   0.678   9.935 -0.9601 -0.9094 -0.6340
 4604SOL    HW225272   3.257   0.802   9.910  1.0539  1.2087 -0.6461
 4605SOL     OW25273   3.248   0.270   0.584  0.6274  0.3277  0.6877
 4605SOL    HW125274   3.313   0.224   0.636  1.1391  0.7419  0.4137
 4605SOL    HW225275   3.171   0.215   0.572  1.1853 -0.5293  1.0505
 4606SOL     OW25276   2.159   1.652   3.368 -0.2049 -0.2495  0.1744
 4606SOL    HW125277   2.191   1.582   3.425  0.7360 -0.1690 -0.2518
 4606SOL    HW225278   2.095   1.685   3.430 -0.2432 -0.6413  0.3413
 4607SOL     OW25279   2.459   4.502  13.360  0.0512  0.1237 -0.0148
 4607SOL    HW125280   2.530   4.437  13.359 -2.0242 -2.1449  1.5131
 4607SOL    HW225281   2.435   4.517  13.269  0.0032 -1.0345 -0.1970
 4608SOL     OW25282   1.323   1.034  11.567 -0.3705 -0.2239  0.3385
 4608SOL    HW125283   1.393   0.971  11.585  0.2432  0.2980 -0.2047
 4608SOL    HW225284   1.315   1.069  11.656 -1.2439 -3.1261  1.3808
 4609SOL     OW25285   1.104   1.956  17.696 -0.3601 -0.3414  0.0998
 4609SOL    HW125286   1.187   1.984   0.033 -0.2077 -0.6235 -0.0158
 4609SOL    HW225287   1.127   1.863  17.700  0.0188 -0.2023  1.0118
 4610SOL     OW25288   0.805   4.446   4.229  0.1827  0.1906  0.0717
 4610SOL    HW125289   0.874   4.420   4.168  1.8131  0.3456  1.8360
 4610SOL    HW225290   0.843   4.408   4.308  1.2616 -1.6660 -1.3479
 4611SOL     OW25291   3.625   2.516  10.246  0.5244 -0.7257 -0.0643
 4611SOL    HW125292   3.615   2.564  10.328  1.9440 -0.3233 -0.1442
 4611SOL    HW225293   3.707   2.471  10.265 -0.2665 -2.6448 -1.1327
 4612SOL     OW25294   2.363   1.069   4.254  0.1382 -0.4805 -0.3225
 4612SOL    HW125295   2.454   1.075   4.281 -0.0061 -0.5624  0.1855
 4612SOL    HW225296   2.362   0.987   4.204  2.1978 -0.4637 -0.3805
 4613SOL     OW25297   2.714   1.627  17.005 -0.1557 -0.0316 -0.1934
 4613SOL    HW125298   2.759   1.552  17.043  1.4016  0.5288 -0.9354
 4613SOL    HW225299   2.776   1.699  17.013 -0.0200 -0.1864  0.1575
 4614SOL     OW25300   4.079   3.836   3.761  0.0429  0.3502 -0.2261
 4614SOL    HW125301   4.123   3.904   3.811  1.9139 -0.1025 -1.2519
 4614SOL    HW225302   4.141   3.805   3.695 -0.3168 -1.0576  0.1072
 4615SOL     OW25303   2.256   3.361   1.989  0.4551 -0.2877  0.5287
 4615SOL    HW125304   2.290   3.450   2.000  0.8649 -0.5785  1.5334
 4615SOL    HW225305   2.283   3.359   1.897 -3.1887  1.3653 -0.6052
 4616SOL     OW25306   0.397   3.226   3.599 -0.0588  0.6157  0.0894
 4616SOL    HW125307   0.473   3.259   3.552  0.1356 -2.2182 -1.5409
 4616SOL    HW225308   0.361   3.161   3.539  0.0209  0.3837  0.2968
 4617SOL     OW25309   0.219   1.342  15.402 -0.6246 -0.0428  0.7566
 4617SOL    HW125310   0.298   1.312  15.446  0.2055  1.4053  0.2592
 4617SOL    HW225311   0.221   1.438  15.408  1.8189 -0.1122  0.7431
 4618SOL     OW25312   1.437   1.887   6.617  0.2328 -0.0317 -0.0812
 4618SOL    HW125313   1.365   1.882   6.680  0.9433 -1.5020  0.6382
 4618SOL    HW225314   1.498   1.844   6.677  1.4848  2.2692  0.3021
 4619SOL     OW25315   4.258   0.901   9.393 -0.3568 -0.1033 -0.4467
 4619SOL    HW125316   4.296   0.872   9.476  0.1740 -0.8397 -0.9470
 4619SOL    HW225317   4.200   0.969   9.429 -1.5796 -2.7220  2.6109
 4620SOL     OW25318   3.115   2.092   2.856  0.0135  0.5277 -0.1730
 4620SOL    HW125319   3.193   2.120   2.808  1.1206 -1.5926  0.3880
 4620SOL    HW225320   3.144   2.086   2.947  0.5093  2.8292 -0.1808
 4621SOL     OW25321   1.233   2.001   4.341 -0.0357 -0.5434 -0.2362
 4621SOL    HW125322   1.227   2.092   4.310  2.2170 -0.4622 -0.3976
 4621SOL    HW225323   1.195   2.006   4.429 -3.1976  0.3462 -1.6261
 4622SOL     OW25324   4.221   2.234   2.120  0.4548  0.2282  0.3047
 4622SOL    HW125325   4.275   2.198   2.190 -0.6928  1.2065  1.6924
 4622SOL    HW225326   4.206   2.152   2.074 -0.3700 -0.0049  1.0010
 4623SOL     OW25327   3.563   0.760   2.783  0.6188 -0.0556 -0.3227
 4623SOL    HW125328   3.480   0.722   2.754  0.2279  0.3833  0.2098
 4623SOL    HW225329   3.524   0.828   2.840 -0.2944 -0.7464 -0.1239
 4624SOL     OW25330   4.706   3.935  15.661 -0.1447 -0.2129 -0.2136
 4624SOL    HW125331   0.013   3.898  15.743 -1.6238  1.2695  1.0400
 4624SOL    HW225332   4.622   3.892  15.645  0.0455 -0.9241  0.7394
 4625SOL     OW25333   0.349   3.878  11.943 -0.0761  0.1513  0.6207
 4625SOL    HW125334   0.280   3.880  12.010  0.3490  0.1619  1.0592
 4625SOL    HW225335   0.424   3.915  11.989  1.2780 -1.8291 -0.0023
 4626SOL     OW25336   2.451   4.229   4.179 -0.1582 -0.0481  0.2341
 4626SOL    HW125337   2.480   4.204   4.091  1.3033 -2.9323  1.5533
 4626SOL    HW225338   2.532   4.213   4.227 -0.1003  0.9358  0.4771
 4627SOL     OW25339   2.597   1.184  10.114  0.4671 -0.7168  0.4607
 4627SOL    HW125340   2.567   1.135  10.190  1.7344 -0.2173  1.2861
 4627SOL    HW225341   2.525   1.211  10.058  0.4082 -0.7306  0.5302
 4628SOL     OW25342   1.681   1.070   3.281 -0.3494  0.0986  0.3775
 4628SOL    HW125343   1.609   1.055   3.220  1.0884  0.8978 -1.5043
 4628SOL    HW225344   1.742   1.003   3.250 -0.0325  0.1403  0.9034
 4629SOL     OW25345   2.832   3.400   0.388  0.5463  0.1436  0.0488
 4629SOL    HW125346   2.748   3.377   0.347  1.3545 -2.2527 -0.2558
 4629SOL    HW225347   2.829   3.345   0.467  1.2017 -0.0126 -0.0390
 4630SOL     OW25348   1.534   3.675   8.245  0.0022 -0.4654  1.1624
 4630SOL    HW125349   1.488   3.665   8.162 -1.9649 -0.8252  2.2915
 4630SOL    HW225350   1.618   3.660   8.201 -0.9264  3.4613 -1.9376
 4631SOL     OW25351   3.751   2.272  12.869 -0.0879 -0.5762  0.0522
 4631SOL    HW125352   3.783   2.181  12.871  1.1070 -0.1828 -0.9528
 4631SOL    HW225353   3.731   2.271  12.775  2.3331 -2.5651 -0.4620
 4632SOL     OW25354   2.866   2.085   6.248  0.1050  0.0899  0.1963
 4632SOL    HW125355   2.886   2.002   6.291  0.8730 -0.4687 -1.2566
 4632SOL    HW225356   2.786   2.109   6.294 -0.1374  0.9638 -0.6948
 4633SOL     OW25357   2.063   1.588   6.877  0.3169 -0.0172  0.6146
 4633SOL    HW125358   2.123   1.645   6.925  0.1862  1.1238 -0.6191
 4633SOL    HW225359   2.127   1.523   6.849 -0.0871  0.0609 -0.4611
 4634SOL     OW25360   4.279   4.591   4.352  0.1259  0.0530 -0.1103
 4634SOL    HW125361   4.251   4.504   4.379  2.0361 -0.8457 -1.0468
 4634SOL    HW225362   4.299   4.633   4.436 -0.6949  0.5816 -0.1695
 4635SOL     OW25363   3.657   4.195   7.042  0.5975  0.2526 -0.1580
 4635SOL    HW125364   3.689   4.139   6.970  1.9062 -0.5966  1.0808
 4635SOL    HW225365   3.744   4.206   7.082  1.3446 -1.3788 -1.2858
 4636SOL     OW25366   2.476   0.194   4.840 -0.0589 -0.3127  0.1441
 4636SOL    HW125367   2.538   0.132   4.878 -1.2770 -1.8902 -0.4953
 4636SOL    HW225368   2.398   0.140   4.838 -1.2912  1.4672 -0.2971
 4637SOL     OW25369   3.288   3.346   2.697 -0.3034 -0.1224 -0.1756
 4637SOL    HW125370   3.349   3.353   2.770 -1.5165  0.0251  0.8291
 4637SOL    HW225371   3.212   3.392   2.732  0.5978  0.7177  0.7027
 4638SOL     OW25372   2.977   3.023   2.202 -0.0390  0.4372  0.0263
 4638SOL    HW125373   3.011   2.943   2.163 -2.0266 -1.4209  2.1188
 4638SOL    HW225374   2.961   3.073   2.122  0.0943  0.0321 -0.2500
 4639SOL     OW25375   4.232   2.552   2.253 -0.3345 -0.0883 -0.1358
 4639SOL    HW125376   4.210   2.509   2.336 -0.0149  0.6855  0.3543
 4639SOL    HW225377   4.202   2.483   2.194  0.4623  0.4249 -1.1446
 4640SOL     OW25378   3.964   4.362   3.149  0.0048  0.5864 -0.4754
 4640SOL    HW125379   3.897   4.380   3.083 -0.4235  3.7789  0.7992
 4640SOL    HW225380   3.915   4.326   3.223  0.7259 -0.6350 -0.5910
 4641SOL     OW25381   4.453   1.053   8.545  0.2463 -0.7235  0.6330
 4641SOL    HW125382   4.497   1.138   8.550  0.0013 -0.5022 -1.0639
 4641SOL    HW225383   4.440   1.031   8.637  1.1353 -0.2121  0.8850
 4642SOL     OW25384   2.015   2.754   5.245 -0.1342  0.4124  0.6869
 4642SOL    HW125385   1.982   2.714   5.326 -1.9656  1.3091  0.3968
 4642SOL    HW225386   2.067   2.822   5.288  0.0861  0.2452  0.6808
 4643SOL     OW25387   2.339   2.092  14.672  0.3822 -0.3632  0.2671
 4643SOL    HW125388   2.303   2.054  14.592 -0.2842 -2.8139  1.7375
 4643SOL    HW225389   2.324   2.018  14.732 -0.9528  1.5814  2.3257
 4644SOL     OW25390   3.636   2.684  17.566 -0.6261 -0.1524 -0.4598
 4644SOL    HW125391   3.641   2.774  17.534 -0.6145 -0.5105 -1.4834
 4644SOL    HW225392   3.669   2.693  17.655 -0.9770 -2.8961 -0.0455
 4645SOL     OW25393   1.641   1.312   4.118 -0.2663  0.7106 -0.0602
 4645SOL    HW125394   1.725   1.349   4.093  0.4005 -1.3635 -0.9208
 4645SOL    HW225395   1.660   1.283   4.208  2.9917  1.0359 -0.6736
 4646SOL     OW25396   2.205   0.634  16.972 -0.2977 -0.9112 -0.5309
 4646SOL    HW125397   2.227   0.618  16.880 -0.7093 -0.1980 -0.7481
 4646SOL    HW225398   2.283   0.589  17.006 -0.9062 -0.4803  1.3889
 4647SOL     OW25399   2.647   1.744   7.607 -0.6012  0.1046  1.0335
 4647SOL    HW125400   2.721   1.696   7.569 -0.7068  1.9484 -1.5128
 4647SOL    HW225401   2.586   1.675   7.633 -1.2505  1.0693  2.0366
 4648SOL     OW25402   0.544   1.694   9.763  0.6671  0.4152 -0.7439
 4648SOL    HW125403   0.550   1.724   9.854  1.6966  0.2182 -0.7530
 4648SOL    HW225404   0.451   1.710   9.747  0.8712  0.5004 -1.8335
 4649SOL     OW25405   0.898   4.344   0.319  0.6812 -0.5486  0.2652
 4649SOL    HW125406   0.947   4.279   0.368 -0.2487 -0.8464  0.7925
 4649SOL    HW225407   0.847   4.299   0.252  0.9473  0.8980 -0.9273
 4650SOL     OW25408   2.757   0.403   7.414  0.1612  0.0624 -0.1748
 4650SOL    HW125409   2.718   0.426   7.498  0.7416 -4.3277  1.3369
 4650SOL    HW225410   2.684   0.417   7.354  0.1002  0.9064  0.0988
 4651SOL     OW25411   3.243   0.848  12.615  0.3066  0.6044 -0.5141
 4651SOL    HW125412   3.223   0.908  12.687  0.6754 -0.5260  0.5352
 4651SOL    HW225413   3.287   0.915  12.563 -1.9501  2.8750  0.5377
 4652SOL     OW25414   0.603   4.628   7.482  0.2565 -0.0597  0.8535
 4652SOL    HW125415   0.533   4.665   7.428 -2.7332 -4.5101  1.7411
 4652SOL    HW225416   0.564   4.652   7.567  3.0935  0.6631  1.9458
 4653SOL     OW25417   3.290   3.823  10.948 -0.1748  0.5585 -0.9975
 4653SOL    HW125418   3.357   3.800  11.012 -0.0701  1.9262 -0.6058
 4653SOL    HW225419   3.338   3.810  10.867  1.3297  0.0951 -0.0256
 4654SOL     OW25420   0.727   1.089   8.890 -0.0363 -0.3215 -0.3048
 4654SOL    HW125421   0.640   1.065   8.922 -0.6577  0.6475 -1.2978
 4654SOL    HW225422   0.775   1.097   8.973  0.9913 -0.5044 -0.8744
 4655SOL     OW25423   4.253   3.701   2.339 -0.1802 -0.2812 -0.7170
 4655SOL    HW125424   4.277   3.735   2.425  0.5234  0.3265 -1.1542
 4655SOL    HW225425   4.302   3.758   2.280  1.6703  4.1623  5.0827
 4656SOL     OW25426   2.662   0.384   2.808  0.4796 -0.0871 -0.3053
 4656SOL    HW125427   2.649   0.318   2.876 -1.2262 -0.0573 -0.6026
 4656SOL    HW225428   2.572   0.408   2.788  0.0179 -0.0946  1.7729
 4657SOL     OW25429   3.423   3.684   3.606 -0.5553 -0.4354 -0.1658
 4657SOL    HW125430   3.417   3.733   3.524 -0.0775  0.8014  0.5270
 4657SOL    HW225431   3.401   3.601   3.565 -0.5735 -0.2239 -0.5857
 4658SOL     OW25432   2.862   0.547   5.864  0.9586 -0.4283 -0.2728
 4658SOL    HW125433   2.946   0.589   5.845 -1.2654  3.3042 -1.8382
 4658SOL    HW225434   2.881   0.453   5.860 -0.2345 -0.6717 -0.4340
 4659SOL     OW25435   1.352   3.208   5.675  0.1920  0.1368 -0.4028
 4659SOL    HW125436   1.369   3.152   5.599  0.0422  0.2379 -0.5103
 4659SOL    HW225437   1.258   3.189   5.679  0.5582 -1.7294 -0.8345
 4660SOL     OW25438   0.582   4.664   9.049  0.0836  0.3543  0.3850
 4660SOL    HW125439   0.577   0.015   9.106 -1.3587  1.1045 -0.7230
 4660SOL    HW225440   0.593   4.594   9.114  0.4353  1.0073  1.0219
 4661SOL     OW25441   2.338   4.588   3.710  0.2687 -0.3063  0.4875
 4661SOL    HW125442   2.278   4.612   3.639  1.1046 -0.8005 -0.3974
 4661SOL    HW225443   2.364   4.669   3.753 -0.9229  0.6877 -0.6672
 4662SOL     OW25444   4.305   1.156  15.202  0.6716  0.5437 -0.1643
 4662SOL    HW125445   4.312   1.090  15.133 -1.4258  1.0143 -0.8489
 4662SOL    HW225446   4.218   1.195  15.188  1.0441  0.7608 -1.8117
 4663SOL     OW25447   0.400   2.285   7.550  0.4389  0.4061  0.1725
 4663SOL    HW125448   0.470   2.246   7.498 -0.8203  0.8715 -1.8717
 4663SOL    HW225449   0.325   2.280   7.491 -1.1426 -1.1809  2.3163
 4664SOL     OW25450   0.521   2.628  13.909 -0.7311  0.1234  0.4089
 4664SOL    HW125451   0.593   2.579  13.948  0.3551 -0.0703 -1.8335
 4664SOL    HW225452   0.560   2.715  13.900  0.7767 -0.5682  0.1871
 4665SOL     OW25453   1.489   0.728   2.206 -0.2467  0.3791  0.7908
 4665SOL    HW125454   1.415   0.720   2.145  0.4414 -1.8839  0.2650
 4665SOL    HW225455   1.497   0.634   2.223 -2.3992  0.2562  1.0965
 4666SOL     OW25456   4.272   0.440   6.347  0.4212  0.2334  0.2131
 4666SOL    HW125457   4.257   0.364   6.403 -0.2535  0.4369  0.3013
 4666SOL    HW225458   4.310   0.409   6.264 -0.4405 -0.4841  0.0953
 4667SOL     OW25459   3.449   3.331   9.950  0.0419 -0.5314 -0.3116
 4667SOL    HW125460   3.541   3.327   9.976 -0.4550  0.4139  1.6005
 4667SOL    HW225461   3.425   3.423   9.964  0.5723 -0.4122 -0.1752
 4668SOL     OW25462   0.992   1.885   6.198  0.8148  0.8559 -0.0592
 4668SOL    HW125463   0.943   1.853   6.274  0.2590 -1.7301 -1.4919
 4668SOL    HW225464   0.961   1.827   6.128 -0.2518 -1.5348  2.3990
 4669SOL     OW25465   2.896   2.699  10.937 -0.0131 -0.1343 -0.4876
 4669SOL    HW125466   2.848   2.617  10.925  1.9107 -1.2459 -0.6711
 4669SOL    HW225467   2.989   2.680  10.954 -0.3640 -0.9611  0.5278
 4670SOL     OW25468   1.842   4.150   8.861  0.3971  0.2196  0.4977
 4670SOL    HW125469   1.777   4.106   8.808  1.9747  2.5436 -3.3716
 4670SOL    HW225470   1.857   4.082   8.927  0.8728  1.4423  1.6470
 4671SOL     OW25471   3.689   4.371  11.803 -0.7401 -0.0896  0.2541
 4671SOL    HW125472   3.645   4.308  11.746  0.5812  0.1615 -1.0659
 4671SOL    HW225473   3.738   4.421  11.737 -0.5551  0.4571  0.8123
 4672SOL     OW25474   2.856   2.633   3.454  0.0818 -0.0568 -0.3275
 4672SOL    HW125475   2.818   2.714   3.489  0.0938 -0.3024  0.2609
 4672SOL    HW225476   2.784   2.570   3.459 -1.7822  2.1194 -0.1426
 4673SOL     OW25477   1.885   1.211   3.458  0.0343 -0.0640  0.1656
 4673SOL    HW125478   1.815   1.185   3.398 -0.4464  1.2996  0.1341
 4673SOL    HW225479   1.933   1.130   3.477 -0.0849  0.2079  1.6261
 4674SOL     OW25480   1.351   2.908   1.786 -0.0805  0.0241  0.4869
 4674SOL    HW125481   1.312   2.901   1.699 -0.6526 -1.5094  0.8792
 4674SOL    HW225482   1.439   2.877   1.762 -1.3762 -2.6293 -0.7314
 4675SOL     OW25483   0.557   2.778   1.411 -0.2010  0.0224 -0.3402
 4675SOL    HW125484   0.550   2.837   1.486  0.6509  0.7181 -0.7942
 4675SOL    HW225485   0.500   2.704   1.428 -1.2641  0.5262 -1.7050
 4676SOL     OW25486   2.289   1.772   6.703 -0.1067 -0.2121  0.2477
 4676SOL    HW125487   2.295   1.867   6.693 -1.8149  0.0442  1.5584
 4676SOL    HW225488   2.271   1.779   6.797  0.0915 -0.6540  0.3164
 4677SOL     OW25489   4.433   4.301   5.658 -0.1178 -0.2180 -0.0311
 4677SOL    HW125490   4.525   4.308   5.632 -0.1603 -2.0441 -0.6807
 4677SOL    HW225491   4.451   4.305   5.752  0.1368  0.8272 -0.1197
 4678SOL     OW25492   1.809   0.180   6.084 -0.4906 -0.2977  0.1181
 4678SOL    HW125493   1.800   0.164   5.990 -3.1737 -0.3975  0.3861
 4678SOL    HW225494   1.747   0.253   6.082  0.6635  0.6582 -0.4101
 4679SOL     OW25495   2.914   2.504   0.017  0.5734  0.3288 -0.3680
 4679SOL    HW125496   2.871   2.438  17.665 -1.4097 -0.3343  2.0497
 4679SOL    HW225497   3.005   2.474   0.022  0.1065 -1.1343 -0.8852
 4680SOL     OW25498   4.607   4.425   1.171  0.0700 -0.3274 -0.5775
 4680SOL    HW125499   4.572   4.511   1.149 -1.6687 -1.1988 -1.1678
 4680SOL    HW225500   4.623   4.377   1.090  0.1381  0.9165 -1.2990
 4681SOL     OW25501   2.550   1.152   8.198  0.2781 -0.0496 -0.4659
 4681SOL    HW125502   2.470   1.197   8.168  0.2899  0.1564 -0.1903
 4681SOL    HW225503   2.517   1.106   8.275 -1.7018 -2.0008 -2.4827
 4682SOL     OW25504   4.177   3.413   6.793  0.3401  0.3748 -0.5319
 4682SOL    HW125505   4.239   3.352   6.754 -1.6298 -1.2525 -1.0917
 4682SOL    HW225506   4.182   3.398   6.888 -0.3761 -2.5371 -0.9534
 4683SOL     OW25507   3.706   4.202  12.175 -0.5713  0.5985  0.1357
 4683SOL    HW125508   3.718   4.144  12.100 -1.1516 -1.7927  1.8954
 4683SOL    HW225509   3.616   4.184  12.201 -0.4252 -1.6809 -0.9009
 4684SOL     OW25510   3.569   3.760   8.072 -0.3748 -0.3729  0.2105
 4684SOL    HW125511   3.572   3.665   8.059 -1.1351 -0.2618 -0.7867
 4684SOL    HW225512   3.528   3.756   8.159  0.6897 -0.0501  0.7213
 4685SOL     OW25513   4.251   0.566  12.051  0.1841  0.1013 -0.2714
 4685SOL    HW125514   4.292   0.489  12.012  1.7488 -0.6726  2.8797
 4685SOL    HW225515   4.166   0.526  12.072 -0.4401  0.7494 -1.5862
 4686SOL     OW25516   3.720   2.821   3.679  0.4816 -0.5347 -0.0054
 4686SOL    HW125517   3.809   2.796   3.653  1.1878  0.0845  1.7341
 4686SOL    HW225518   3.663   2.804   3.605 -0.0338 -2.3942  0.8082
 4687SOL     OW25519   4.578   3.207   1.401 -0.2939 -0.6024 -0.4507
 4687SOL    HW125520   4.584   3.177   1.492  1.6213 -0.2524 -0.4553
 4687SOL    HW225521   4.548   3.297   1.392 -2.1255 -1.3105 -1.4397
 4688SOL     OW25522   2.113   3.519   5.590  0.5545 -0.3372 -0.0842
 4688SOL    HW125523   2.035   3.540   5.539  1.4413  0.5811 -1.0726
 4688SOL    HW225524   2.082   3.528   5.680 -0.7033 -0.1524 -0.5423
 4689SOL     OW25525   4.702   2.617   6.424 -0.1269 -0.1144  0.3393
 4689SOL    HW125526   4.668   2.631   6.335  0.3163  0.2388  0.2319
 4689SOL    HW225527   4.629   2.648   6.478 -0.4140 -0.0070 -0.1081
 4690SOL     OW25528   1.063   3.679  14.616 -0.0297  0.3776  0.4741
 4690SOL    HW125529   1.109   3.697  14.534 -0.4878 -1.7018 -0.2403
 4690SOL    HW225530   1.135   3.625  14.650  1.4945  2.2439  0.2122
 4691SOL     OW25531   2.983   1.566   9.358 -0.2887  0.3812 -0.0232
 4691SOL    HW125532   2.980   1.487   9.305  1.6134  0.1596  0.2036
 4691SOL    HW225533   2.894   1.597   9.341 -0.2913  0.5690  0.3236
 4692SOL     OW25534   1.068   4.261  17.217  0.1806 -0.4214  0.3256
 4692SOL    HW125535   1.060   4.347  17.175 -1.2748 -1.9726 -2.5575
 4692SOL    HW225536   1.122   4.282  17.294 -1.0913 -1.0334  1.3835
 4693SOL     OW25537   1.518   0.959   5.447 -0.0763  0.7230 -0.0440
 4693SOL    HW125538   1.466   1.004   5.513 -1.7917  0.4414 -1.2064
 4693SOL    HW225539   1.484   0.999   5.367 -1.4303  0.5652  0.4449
 4694SOL     OW25540   4.034   4.552   9.989  0.4252  0.2155 -0.3957
 4694SOL    HW125541   4.076   4.633   9.959 -0.8114  1.2007  0.5279
 4694SOL    HW225542   3.972   4.594  10.048  0.9610 -2.6341  2.2038
 4695SOL     OW25543   0.322   3.146   9.622  0.1313  0.3957 -0.4242
 4695SOL    HW125544   0.411   3.148   9.656 -0.3563 -1.9079  0.9794
 4695SOL    HW225545   0.340   3.176   9.533 -2.0942  0.0717 -0.9882
 4696SOL     OW25546   4.606   2.427   4.487  0.2276 -0.5505  0.4516
 4696SOL    HW125547   4.582   2.411   4.579  0.5531 -1.3522  0.3944
 4696SOL    HW225548   4.629   2.340   4.454 -1.3544 -2.1439  3.4874
 4697SOL     OW25549   0.909   0.287   7.939  0.2276  0.8958 -0.0963
 4697SOL    HW125550   0.901   0.376   7.906 -0.2590  0.7751 -0.3045
 4697SOL    HW225551   0.817   0.282   7.964  0.3666  0.8795  0.4137
 4698SOL     OW25552   4.585   2.059   8.209 -0.3446 -0.5798 -0.6091
 4698SOL    HW125553   4.537   2.058   8.126 -1.6378  2.0524  0.1359
 4698SOL    HW225554   4.532   2.007   8.270  0.3549  0.3704  0.8077
 4699SOL     OW25555   3.708   1.494  14.959  0.2241 -0.1495  0.5397
 4699SOL    HW125556   3.704   1.561  14.891 -0.4593  0.6475  1.3488
 4699SOL    HW225557   3.666   1.420  14.916 -1.8199  0.7999  0.8821
 4700SOL     OW25558   3.390   3.440   4.216  0.2075 -0.2314 -0.2212
 4700SOL    HW125559   3.484   3.424   4.208  0.3353  0.9844 -1.1188
 4700SOL    HW225560   3.357   3.422   4.128 -1.2084  0.1058  0.2385
 4701SOL     OW25561   1.403   3.710   3.574  0.3576 -0.0162  0.1762
 4701SOL    HW125562   1.346   3.755   3.636  0.0704  0.1546 -0.2107
 4701SOL    HW225563   1.484   3.715   3.624  0.2710 -0.2962  0.3454
 4702SOL     OW25564   4.524   2.028   5.643  0.4517  0.1048  0.1988
 4702SOL    HW125565   4.521   1.980   5.560 -2.5198  0.4101  0.1041
 4702SOL    HW225566   4.445   2.081   5.632 -0.1545 -1.0106 -0.8207
 4703SOL     OW25567   0.613   3.518   1.606  0.0118  0.2239  0.5551
 4703SOL    HW125568   0.622   3.612   1.616  0.7157 -0.1926  3.7564
 4703SOL    HW225569   0.536   3.503   1.660 -0.8167 -2.1858 -1.2397
 4704SOL     OW25570   2.722   4.529   3.197  0.5388  0.2113 -0.2216
 4704SOL    HW125571   2.814   4.537   3.175  1.0837  0.2651  2.0645
 4704SOL    HW225572   2.679   4.524   3.112 -1.6497 -1.7327  1.0143
 4705SOL     OW25573   0.564   0.824   4.539 -0.5945 -0.9888 -0.2814
 4705SOL    HW125574   0.578   0.730   4.524  1.9902 -0.4606 -1.1286
 4705SOL    HW225575   0.550   0.841   4.446 -0.5246 -0.9833 -0.2914
 4706SOL     OW25576   1.804   1.088   7.914  0.1243  0.5958  0.1914
 4706SOL    HW125577   1.764   1.167   7.877  1.2443  0.9590 -0.2353
 4706SOL    HW225578   1.728   1.034   7.934  0.8161 -0.4982 -0.1758
 4707SOL     OW25579   3.182   0.497   9.074  0.3083  0.4245  0.1399
 4707SOL    HW125580   3.100   0.450   9.088  0.2051  0.3126 -0.8178
 4707SOL    HW225581   3.208   0.459   8.990 -0.4905 -0.3114  0.2143
 4708SOL     OW25582   2.759   1.485   5.176 -0.1588 -0.2409 -0.8202
 4708SOL    HW125583   2.839   1.537   5.169  0.0822 -0.3368  1.2005
 4708SOL    HW225584   2.692   1.552   5.185  1.1768  0.9838 -0.0259
 4709SOL     OW25585   2.983   2.491   6.324  0.0477 -0.2237  0.6051
 4709SOL    HW125586   3.060   2.537   6.358 -0.8990  1.7104  0.0926
 4709SOL    HW225587   2.942   2.476   6.410 -0.2877  1.9009  0.8216
 4710SOL     OW25588   1.979   4.306   4.817 -0.3185  0.5392 -0.5486
 4710SOL    HW125589   2.069   4.291   4.846 -1.0812 -0.6574  1.1908
 4710SOL    HW225590   1.955   4.279   4.906  1.6352 -1.6773 -0.7130
 4711SOL     OW25591   2.145   0.304   2.311  0.2014 -0.4600  0.0620
 4711SOL    HW125592   2.228   0.269   2.340 -0.3940 -0.2265  2.0527
 4711SOL    HW225593   2.111   0.241   2.248 -0.7240  0.0494  0.0337
 4712SOL     OW25594   4.073   2.465  15.023  0.7999  0.2700  0.2735
 4712SOL    HW125595   4.089   2.421  15.107 -0.3353  0.9330  0.8400
 4712SOL    HW225596   4.058   2.555  15.053 -0.7640  0.2673 -0.5158
 4713SOL     OW25597   0.968   1.542   4.777 -0.1351  0.3627 -0.5464
 4713SOL    HW125598   0.897   1.581   4.828 -0.3489 -0.6868 -0.0355
 4713SOL    HW225599   0.929   1.561   4.692 -0.9097  0.8703 -0.0763
 4714SOL     OW25600   3.934   2.074   7.966  0.4218 -0.0525  0.5414
 4714SOL    HW125601   3.864   2.018   7.998 -0.8077  0.3525 -1.4075
 4714SOL    HW225602   3.911   2.159   8.004  1.7082  0.3798  0.3569
 4715SOL     OW25603   1.434   3.929   8.616 -0.4657 -0.5234  0.2787
 4715SOL    HW125604   1.384   3.859   8.574  0.4814  0.7002 -2.8443
 4715SOL    HW225605   1.507   3.918   8.556 -1.1743  1.3812 -0.9282
 4716SOL     OW25606   1.883   3.847   5.265 -0.1333  0.1062 -0.1811
 4716SOL    HW125607   1.852   3.895   5.189 -3.8805 -1.5549  0.3291
 4716SOL    HW225608   1.848   3.910   5.328 -2.7815 -2.5311  0.9799
 4717SOL     OW25609   3.346   1.882   7.216  0.2734  0.0615  0.2888
 4717SOL    HW125610   3.268   1.913   7.261  0.4125 -0.4999  0.9095
 4717SOL    HW225611   3.324   1.926   7.133  1.4410 -1.6189 -0.9197
 4718SOL     OW25612   4.411   2.786  14.394 -0.0999 -0.0603 -0.2312
 4718SOL    HW125613   4.505   2.783  14.411 -0.3993  0.9123  1.6062
 4718SOL    HW225614   4.376   2.700  14.418  0.4621 -0.1502  0.2821
 4719SOL     OW25615   3.831   0.191   0.045 -0.4659  0.0225  0.4459
 4719SOL    HW125616   3.850   0.271  17.698  0.1394 -0.5105 -0.1831
 4719SOL    HW225617   3.899   0.137   0.005 -2.4489 -2.3583  0.3116
 4720SOL     OW25618   4.097   1.667   5.455 -0.2806  0.2074  0.2601
 4720SOL    HW125619   4.005   1.677   5.479 -0.3335  0.8666 -0.2128
 4720SOL    HW225620   4.129   1.755   5.476  0.5861 -0.7237  2.8786
 4721SOL     OW25621   0.899   0.237  15.762 -0.4724 -0.0734  0.4291
 4721SOL    HW125622   0.836   0.284  15.708 -0.2381 -0.5903 -0.3018
 4721SOL    HW225623   0.875   0.263  15.851  0.8089 -1.2724  1.1157
 4722SOL     OW25624   1.887   0.743  14.100  0.0978 -0.4862 -0.1364
 4722SOL    HW125625   1.908   0.658  14.059 -1.9791 -0.5487 -1.0256
 4722SOL    HW225626   1.960   0.795  14.066  0.2193  0.5270  1.7257
 4723SOL     OW25627   0.885   4.074   5.837 -0.5999  0.3888 -0.0734
 4723SOL    HW125628   0.899   4.157   5.792 -1.6477  0.4812 -0.2088
 4723SOL    HW225629   0.801   4.049   5.799 -0.9290  1.2986  0.0582
 4724SOL     OW25630   4.323   4.229   4.048 -0.8959 -0.4008  0.8776
 4724SOL    HW125631   4.252   4.292   4.041 -1.6067 -1.2042  0.8813
 4724SOL    HW225632   4.381   4.279   4.105 -2.9436 -0.2218  2.7683
 4725SOL     OW25633   1.839   2.548   8.373 -0.1233 -0.4121 -0.5823
 4725SOL    HW125634   1.920   2.530   8.327  1.5432  2.0817  1.3328
 4725SOL    HW225635   1.779   2.480   8.344 -0.3820 -0.1671 -0.6331
 4726SOL     OW25636   2.929   1.933   9.843 -0.1754  0.0941 -0.6070
 4726SOL    HW125637   2.867   1.952   9.914 -0.4288 -2.3520 -0.1661
 4726SOL    HW225638   2.877   1.883   9.780  0.1861  0.1733 -0.9646
 4727SOL     OW25639   1.141   0.891   7.823  0.0545 -0.3778  0.4771
 4727SOL    HW125640   1.233   0.908   7.805  0.5313 -1.3530  1.9329
 4727SOL    HW225641   1.110   0.865   7.737 -0.1850  2.4070 -0.2720
 4728SOL     OW25642   2.642   3.358   4.350 -0.1584 -0.4593  0.0725
 4728SOL    HW125643   2.634   3.454   4.353  2.0307 -0.3195  1.9474
 4728SOL    HW225644   2.554   3.327   4.330 -1.0032  0.7457  1.8064
 4729SOL     OW25645   3.702   0.726   5.706  0.0626  0.1141 -0.1572
 4729SOL    HW125646   3.753   0.774   5.641  0.2795 -2.2646 -1.7386
 4729SOL    HW225647   3.658   0.802   5.746 -0.9140  0.6263 -2.1640
 4730SOL     OW25648   0.314   2.587  14.079 -0.0135  0.5690 -0.7033
 4730SOL    HW125649   0.365   2.520  14.124 -0.7372  0.3186 -0.2733
 4730SOL    HW225650   0.393   2.614  14.031 -0.1115 -0.1498 -1.2708
 4731SOL     OW25651   2.100   2.335   1.419 -0.1710  0.3356 -0.0257
 4731SOL    HW125652   2.010   2.306   1.435 -0.3532  0.1545 -1.3996
 4731SOL    HW225653   2.146   2.255   1.447  3.4476  1.8919 -1.4722
 4732SOL     OW25654   2.836   4.105   1.971  0.1903  0.5246  0.1040
 4732SOL    HW125655   2.754   4.145   1.942  2.3660  3.2344 -2.2658
 4732SOL    HW225656   2.864   4.164   2.041  0.7875 -0.0735  0.3655
 4733SOL     OW25657   1.874   4.716   8.822 -0.1421  0.3220  0.3774
 4733SOL    HW125658   1.839   4.710   8.911  3.3052 -0.8428  1.6388
 4733SOL    HW225659   1.808   0.035   8.768 -1.6323 -0.4579  1.5400
 4734SOL     OW25660   3.896   3.084   1.200 -0.3359  0.0210 -0.5163
 4734SOL    HW125661   3.965   3.142   1.231  0.3138 -0.0513 -1.8071
 4734SOL    HW225662   3.883   3.118   1.111 -3.6648  2.5939  0.9694
 4735SOL     OW25663   3.374   1.465   7.791  0.7241  0.2011  0.5916
 4735SOL    HW125664   3.405   1.389   7.742 -2.2555 -0.0697 -0.8873
 4735SOL    HW225665   3.327   1.518   7.726  2.1005  0.7656  0.0602
 4736SOL     OW25666   4.025   2.614  12.115  0.0317  0.7317 -0.5232
 4736SOL    HW125667   4.076   2.676  12.167  0.4459 -0.3198  0.3428
 4736SOL    HW225668   3.939   2.655  12.110 -0.6735 -0.7355 -0.3515
 4737SOL     OW25669   3.619   2.530   8.224 -0.0769 -0.5610  0.4737
 4737SOL    HW125670   3.557   2.459   8.239 -1.5896  0.5015 -0.7573
 4737SOL    HW225671   3.706   2.512   8.260  0.5553  0.9926 -0.2736
 4738SOL     OW25672   4.323   4.490   9.056 -0.0085  0.1239  0.1375
 4738SOL    HW125673   4.414   4.521   9.056 -0.7916  2.3998  0.6282
 4738SOL    HW225674   4.329   4.420   9.121  1.9757  0.7525  0.6331
 4739SOL     OW25675   4.192   4.041  12.290  0.0561 -0.4062  0.2265
 4739SOL    HW125676   4.185   4.037  12.385  0.8422  2.0784  0.4004
 4739SOL    HW225677   4.109   4.089  12.289  0.1381 -0.2926 -0.7189
 4740SOL     OW25678   1.407   2.368   7.909  0.0823  0.0805 -0.3902
 4740SOL    HW125679   1.498   2.338   7.908  0.5644  1.4871  0.8862
 4740SOL    HW225680   1.377   2.347   7.820  0.8897  0.6641 -0.8006
 4741SOL     OW25681   1.764   4.667   9.063  0.3984  0.5304 -0.8338
 4741SOL    HW125682   1.670   4.659   9.078  0.0687 -2.3813 -4.2937
 4741SOL    HW225683   1.787   4.600   9.127 -1.7739  0.0393 -0.5763
 4742SOL     OW25684   0.986   0.976   4.123  0.0302  0.1567  0.4464
 4742SOL    HW125685   0.960   0.888   4.097  1.2771 -0.2121  0.4465
 4742SOL    HW225686   0.943   0.979   4.209 -2.0964  3.3078 -0.7231
 4743SOL     OW25687   3.722   3.862  16.284  0.1927  0.1562  0.4274
 4743SOL    HW125688   3.664   3.801  16.329  0.7236  0.2964  1.2973
 4743SOL    HW225689   3.679   3.945  16.307 -1.4263  0.2059 -2.6592
 4744SOL     OW25690   3.349   1.176   2.559  0.4667  0.2840 -0.4949
 4744SOL    HW125691   3.442   1.196   2.572  0.5227 -1.8784  2.5112
 4744SOL    HW225692   3.317   1.160   2.647  1.1723  3.6799  0.3637
 4745SOL     OW25693   2.864   1.231   8.245  0.2854 -0.4654  0.4150
 4745SOL    HW125694   2.885   1.252   8.154 -0.7884 -0.7215  0.1102
 4745SOL    HW225695   2.779   1.188   8.237 -0.5713  0.9998  1.6226
 4746SOL     OW25696   1.578   1.283   1.762 -0.0729 -0.7545 -0.1418
 4746SOL    HW125697   1.550   1.193   1.777  0.2162 -0.8580 -0.2372
 4746SOL    HW225698   1.575   1.286   1.666  1.2816 -2.0341 -0.2192
 4747SOL     OW25699   0.259   4.153   0.153  0.4395 -0.2316 -0.0804
 4747SOL    HW125700   0.265   4.061   0.179  3.0969  0.5084  1.8863
 4747SOL    HW225701   0.196   4.181   0.219 -0.3624  1.8675 -1.7272
 4748SOL     OW25702   2.176   2.638   7.341  0.0889 -0.2273 -0.4120
 4748SOL    HW125703   2.100   2.595   7.381  1.5489 -0.9729  1.5584
 4748SOL    HW225704   2.147   2.728   7.332 -1.1860 -0.7419 -1.3862
 4749SOL     OW25705   1.057   2.889  11.802 -0.0104 -0.3789  1.1368
 4749SOL    HW125706   1.010   2.806  11.793 -1.4511  0.5807 -0.4314
 4749SOL    HW225707   1.073   2.897  11.896 -0.0966  0.4740  1.0809
 4750SOL     OW25708   2.334   1.646   3.146  0.0288 -0.5561  0.3672
 4750SOL    HW125709   2.281   1.669   3.222  0.7697 -2.6265  1.5266
 4750SOL    HW225710   2.320   1.732   3.107  0.9347  0.6605  2.7292
 4751SOL     OW25711   3.481   3.195   7.238  0.3552  0.8872 -0.1319
 4751SOL    HW125712   3.496   3.101   7.251 -1.0869  0.5518 -0.9552
 4751SOL    HW225713   3.526   3.224   7.317  1.2088  1.4058 -0.7945
 4752SOL     OW25714   3.165   1.731   3.759  0.3507 -0.0546 -0.4269
 4752SOL    HW125715   3.161   1.822   3.731 -1.7946  0.6829  2.1644
 4752SOL    HW225716   3.224   1.704   3.689  1.0520  0.1376  0.0868
 4753SOL     OW25717   1.510   4.242   8.105  0.3510  0.2617  0.0895
 4753SOL    HW125718   1.473   4.326   8.133  0.9710  0.9086 -1.0046
 4753SOL    HW225719   1.436   4.181   8.113 -0.6899  1.4607 -0.3577
 4754SOL     OW25720   0.386   1.226   7.318 -0.2319 -0.1859  0.3324
 4754SOL    HW125721   0.436   1.153   7.355 -2.3786 -1.5416  0.6164
 4754SOL    HW225722   0.370   1.173   7.239  0.4168 -1.2507  0.9087
 4755SOL     OW25723   2.168   3.375  10.466  0.0205 -0.0298  0.0333
 4755SOL    HW125724   2.207   3.456  10.500  1.8597 -1.0385  0.3123
 4755SOL    HW225725   2.106   3.351  10.534 -0.9058  0.9137 -0.4664
 4756SOL     OW25726   2.809   3.879   7.387  0.3259 -0.4993 -0.1995
 4756SOL    HW125727   2.719   3.847   7.379 -0.7986  3.4731 -3.3470
 4756SOL    HW225728   2.845   3.837   7.309  1.6640  2.6323 -1.2563
 4757SOL     OW25729   3.065   4.422   6.790  0.8915 -0.1149  0.7024
 4757SOL    HW125730   3.144   4.468   6.818 -0.2942  2.1162  0.4126
 4757SOL    HW225731   3.104   4.360   6.729  0.5832  0.6362 -0.2703
 4758SOL     OW25732   3.002   2.561  14.779 -0.6410 -0.1346 -0.2150
 4758SOL    HW125733   3.051   2.570  14.861  0.5987 -1.1324 -0.8545
 4758SOL    HW225734   2.939   2.633  14.779  1.6716  1.9035  0.0486
 4759SOL     OW25735   0.656   3.576  12.809  0.8297  0.2280  0.3186
 4759SOL    HW125736   0.740   3.586  12.854  0.3465  2.5108  0.7440
 4759SOL    HW225737   0.643   3.486  12.839  2.2632 -0.3780 -0.9118
 4760SOL     OW25738   1.050   1.198   7.183 -0.1729 -0.9056 -0.0949
 4760SOL    HW125739   1.044   1.239   7.269  1.2266 -1.2067  0.1464
 4760SOL    HW225740   0.962   1.159   7.179 -0.6979  0.1056  1.6167
 4761SOL     OW25741   1.386   0.106   8.002  0.4881  0.2836 -0.2965
 4761SOL    HW125742   1.438   0.077   7.927 -0.2456  1.4461 -1.2571
 4761SOL    HW225743   1.316   0.154   7.959 -0.3769 -0.6741  0.0626
 4762SOL     OW25744   3.182   3.645   6.933 -0.0219 -0.1357 -0.2163
 4762SOL    HW125745   3.163   3.679   6.845  0.5152 -0.3398 -0.4126
 4762SOL    HW225746   3.104   3.603   6.969  1.0818 -3.0480 -1.2000
 4763SOL     OW25747   1.357   2.848   6.315 -0.1561 -0.0657 -0.5193
 4763SOL    HW125748   1.382   2.784   6.382 -1.5415  0.7508  0.7939
 4763SOL    HW225749   1.277   2.881   6.357  0.9729 -1.5293  2.7821
 4764SOL     OW25750   2.071   2.747   6.149  0.7199 -0.2218  0.0866
 4764SOL    HW125751   2.158   2.748   6.189  1.1636  0.1954 -0.9062
 4764SOL    HW225752   2.083   2.681   6.081 -0.5539 -0.2824 -0.0805
 4765SOL     OW25753   0.650   0.474   5.591  0.1508  0.3730  0.3009
 4765SOL    HW125754   0.730   0.465   5.643  1.2097 -1.4445 -1.6358
 4765SOL    HW225755   0.604   0.393   5.612  3.6616 -1.5464  0.5965
 4766SOL     OW25756   0.409   1.812   9.971 -0.0821  0.1389  0.3670
 4766SOL    HW125757   0.392   1.902   9.945 -0.4037  0.3931  1.4711
 4766SOL    HW225758   0.452   1.829  10.055  3.5744  2.2892 -1.9526
 4767SOL     OW25759   0.931   1.863   0.841  0.1906 -0.1579 -0.1245
 4767SOL    HW125760   0.864   1.853   0.773  2.2466  0.3779 -2.2147
 4767SOL    HW225761   1.002   1.860   0.777  0.1428 -0.3122 -0.1697
 4768SOL     OW25762   1.501   4.341   4.653 -0.3327 -0.0682 -0.3151
 4768SOL    HW125763   1.507   4.245   4.650 -1.3365 -0.1791  1.2964
 4768SOL    HW225764   1.575   4.368   4.708 -0.7784 -0.4785  0.4929
 4769SOL     OW25765   0.884   2.938   4.466  0.1182  0.2146 -0.5011
 4769SOL    HW125766   0.795   2.931   4.499  0.2777 -0.9205 -0.3305
 4769SOL    HW225767   0.927   3.007   4.516 -0.2789  1.0582 -1.3152
 4770SOL     OW25768   3.198   1.039   7.132 -0.0324 -0.4846  0.1227
 4770SOL    HW125769   3.125   1.080   7.085  2.0638  1.2808 -1.5996
 4770SOL    HW225770   3.261   1.066   7.064 -0.3889 -2.0282 -0.8051
 4771SOL     OW25771   1.024   0.928   3.243 -0.1092 -0.2276 -0.3603
 4771SOL    HW125772   1.046   0.929   3.150  0.0946  0.1785 -0.3101
 4771SOL    HW225773   1.039   0.835   3.260 -1.1859 -0.0589  1.5325
 4772SOL     OW25774   0.261   4.418  15.827 -0.4262  0.1704 -0.3296
 4772SOL    HW125775   0.270   4.374  15.911  1.2432  1.4370  0.1452
 4772SOL    HW225776   0.347   4.460  15.828 -0.3298  0.0226 -3.1690
 4773SOL     OW25777   1.155   0.037   2.735 -0.2555  0.2697  0.3511
 4773SOL    HW125778   1.248   0.052   2.753 -0.2262 -0.5283  0.8921
 4773SOL    HW225779   1.158   0.038   2.640 -0.6372  0.3332  0.3400
 4774SOL     OW25780   2.000   3.541  17.128 -0.4524 -0.3227 -0.4749
 4774SOL    HW125781   2.053   3.620  17.126  1.3881 -1.5618 -1.2768
 4774SOL    HW225782   1.920   3.585  17.099 -0.0491  1.0235  0.4924
 4775SOL     OW25783   2.609   3.999   3.536  0.1833 -0.3430 -0.0026
 4775SOL    HW125784   2.629   3.921   3.485  0.0815  0.7016 -1.6366
 4775SOL    HW225785   2.538   3.964   3.590 -0.0366  1.4326  0.8792
 4776SOL     OW25786   1.092   4.081  14.560 -0.3963 -0.5050  0.1208
 4776SOL    HW125787   1.101   4.086  14.465 -1.4341 -0.2174  0.0372
 4776SOL    HW225788   0.998   4.097  14.568 -0.4293 -0.0962 -1.1345
 4777SOL     OW25789   0.642   3.228   7.019  0.1214  0.0082  0.0547
 4777SOL    HW125790   0.548   3.245   7.020  0.1447  0.1731 -0.7330
 4777SOL    HW225791   0.647   3.141   7.058 -2.0403  0.8645  2.2200
 4778SOL     OW25792   4.220   0.454   9.792 -0.8490 -0.0744 -0.0779
 4778SOL    HW125793   4.259   0.540   9.773 -0.5623  0.7957  4.5018
 4778SOL    HW225794   4.300   0.419   9.829 -0.8297  0.5017  0.4381
 4779SOL     OW25795   0.911   3.144  11.787  0.1196 -0.2428  0.1653
 4779SOL    HW125796   0.968   3.069  11.771 -0.5566 -0.6195 -0.4298
 4779SOL    HW225797   0.822   3.120  11.763  0.1257 -0.9350  0.8564
 4780SOL     OW25798   3.668   4.102   4.743 -0.8023  0.7563 -0.2477
 4780SOL    HW125799   3.598   4.124   4.681 -1.4433  3.6030  1.4999
 4780SOL    HW225800   3.730   4.064   4.681  1.2137  2.2990  0.8472
 4781SOL     OW25801   3.187   1.757  12.109  0.0074  0.2948  0.0764
 4781SOL    HW125802   3.194   1.852  12.116 -1.5153  0.6297 -3.0588
 4781SOL    HW225803   3.223   1.739  12.022 -3.4408 -0.2053 -1.2388
 4782SOL     OW25804   2.610   3.538   0.707  0.5490  0.4084 -0.5081
 4782SOL    HW125805   2.580   3.454   0.674  2.1096 -0.2400 -0.2623
 4782SOL    HW225806   2.678   3.577   0.651 -0.4042  2.5635 -0.1849
 4783SOL     OW25807   1.037   4.451   0.542 -0.2436  0.1318  0.1057
 4783SOL    HW125808   1.084   4.526   0.578 -3.1156  2.0798 -0.2618
 4783SOL    HW225809   0.999   4.484   0.460  1.5486  0.5454 -0.5711
 4784SOL     OW25810   1.678   0.195   3.256 -0.1556 -0.5570  0.3932
 4784SOL    HW125811   1.611   0.133   3.284 -0.8330  1.6248  3.6400
 4784SOL    HW225812   1.618   0.256   3.212 -0.3252  0.3518  1.8695
 4785SOL     OW25813   2.674   3.195   5.310  0.4470  0.7259 -0.0191
 4785SOL    HW125814   2.592   3.236   5.338 -0.6272 -0.4633 -1.4049
 4785SOL    HW225815   2.687   3.139   5.387 -0.9168  0.2334 -0.1405
 4786SOL     OW25816   1.504   0.919   6.126  0.6622 -0.2698  0.5378
 4786SOL    HW125817   1.409   0.925   6.129  0.5820 -0.0531 -2.6391
 4786SOL    HW225818   1.532   1.007   6.151  2.0069 -1.1552  2.1969
 4787SOL     OW25819   3.200   3.070  17.014 -0.2642 -0.7345  0.2190
 4787SOL    HW125820   3.126   3.018  17.046 -2.2279  1.1411 -1.2505
 4787SOL    HW225821   3.169   3.160  17.023 -0.0124 -0.8283  2.0984
 4788SOL     OW25822   3.671   4.549   4.461  0.4161  0.6474  0.7963
 4788SOL    HW125823   3.751   4.499   4.442 -0.9804 -0.8502 -1.2324
 4788SOL    HW225824   3.653   4.592   4.377 -0.2594  0.9221  1.0849
 4789SOL     OW25825   4.589   3.832   4.914 -0.2634  0.4078  0.3070
 4789SOL    HW125826   4.662   3.795   4.964  0.6655  0.0867 -1.2984
 4789SOL    HW225827   4.514   3.775   4.930 -0.4097  1.2042  2.4673
 4790SOL     OW25828   1.878   4.289   9.195 -0.3849  0.3892 -0.5193
 4790SOL    HW125829   1.844   4.307   9.108  0.5938  2.5658 -0.4593
 4790SOL    HW225830   1.828   4.351   9.248  0.0347  2.0837 -2.1179
 4791SOL     OW25831   2.069   1.910   5.544 -0.4833  0.4820 -0.6513
 4791SOL    HW125832   2.137   1.977   5.548 -0.5999  0.6060 -0.7575
 4791SOL    HW225833   2.058   1.892   5.637 -0.6663 -2.0889 -1.1657
 4792SOL     OW25834   1.829   0.673   6.308 -0.4617  0.5218  0.3247
 4792SOL    HW125835   1.838   0.600   6.369 -0.8975  0.2171  0.0228
 4792SOL    HW225836   1.735   0.688   6.313 -0.5154  1.0353 -1.9984
 4793SOL     OW25837   1.513   0.373   3.648  1.0118  0.3885 -0.1301
 4793SOL    HW125838   1.600   0.412   3.664  1.1726 -0.3315  0.6991
 4793SOL    HW225839   1.484   0.423   3.572  1.8323  0.1380 -0.6178
 4794SOL     OW25840   4.480   1.105   9.624  0.9763 -0.3998 -0.1178
 4794SOL    HW125841   4.424   1.154   9.564  0.5361  1.8480  2.0950
 4794SOL    HW225842   4.437   1.022   9.641  1.0060 -0.4337 -0.2121
 4795SOL     OW25843   0.890   4.517  17.094  0.0119  0.0933 -0.2490
 4795SOL    HW125844   0.980   4.548  17.079 -0.7654  2.0375 -0.8137
 4795SOL    HW225845   0.841   4.596  17.074  1.1671  0.5328 -1.3159
 4796SOL     OW25846   0.516   4.230   3.124 -0.0018 -0.1828  0.2448
 4796SOL    HW125847   0.424   4.256   3.114  0.2445 -0.3492 -2.3970
 4796SOL    HW225848   0.533   4.253   3.216 -0.8547  0.2352  0.2998
 4797SOL     OW25849   2.616   2.020   1.111 -0.4356  0.3172  0.0694
 4797SOL    HW125850   2.598   1.954   1.178  0.8474  0.4472  0.5527
 4797SOL    HW225851   2.538   2.068   1.085 -0.9327 -0.4575  0.1318
 4798SOL     OW25852   3.463   0.675   1.750  0.6785 -0.1465  0.0625
 4798SOL    HW125853   3.370   0.690   1.732  1.0425  1.4533 -0.4698
 4798SOL    HW225854   3.478   0.753   1.803  0.5944 -0.2076  0.1769
 4799SOL     OW25855   2.414   2.472   6.028  0.2492  0.2487  0.4635
 4799SOL    HW125856   2.364   2.397   5.994 -0.6601  0.7890  0.5872
 4799SOL    HW225857   2.499   2.433   6.045  0.3450 -0.3590 -1.3649
 4800SOL     OW25858   3.270   0.559   4.200 -0.7365 -0.7052 -0.1327
 4800SOL    HW125859   3.296   0.594   4.115 -1.6777  0.5678  0.0973
 4800SOL    HW225860   3.308   0.629   4.254  0.1910 -0.1969 -1.4671
 4801SOL     OW25861   1.788   2.420   6.702  0.1709 -0.1940  0.1540
 4801SOL    HW125862   1.720   2.482   6.727  0.0551 -0.5462  0.7071
 4801SOL    HW225863   1.808   2.432   6.609  0.9015  0.3612  0.3819
 4802SOL     OW25864   4.716   1.094  15.490 -0.3821 -0.3328 -0.4785
 4802SOL    HW125865   4.645   1.141  15.533 -1.7429 -1.5606 -1.3735
 4802SOL    HW225866   0.048   1.065  15.561 -2.9628  0.1225  1.7288
 4803SOL     OW25867   4.165   3.860   2.887  0.2172  0.7158  0.3856
 4803SOL    HW125868   4.148   3.933   2.946 -0.5531 -2.7715  4.4207
 4803SOL    HW225869   4.199   3.790   2.943  2.7509  1.2090 -0.5060
 4804SOL     OW25870   1.362   0.731   7.064  0.0784  0.6361 -0.0118
 4804SOL    HW125871   1.401   0.665   7.007  1.6559  0.7542  0.9197
 4804SOL    HW225872   1.437   0.774   7.104  0.8817 -0.5175 -0.2836
 4805SOL     OW25873   4.691   3.017   6.718  0.3040  0.4484  0.2072
 4805SOL    HW125874   0.018   2.951   6.763  2.4773  0.9938 -1.4921
 4805SOL    HW225875   4.607   2.998   6.761  0.2748 -0.9159 -0.4581
 4806SOL     OW25876   0.640   3.528   8.423 -0.3701 -0.1942  0.1218
 4806SOL    HW125877   0.573   3.538   8.492 -0.2938  0.8877  0.0482
 4806SOL    HW225878   0.696   3.473   8.478  0.3790 -0.3435 -0.8037
 4807SOL     OW25879   0.532   3.354   4.718  0.1023 -0.0445  0.2275
 4807SOL    HW125880   0.621   3.362   4.684 -0.7184 -1.6390 -2.2285
 4807SOL    HW225881   0.539   3.318   4.807  0.7885 -1.3661 -0.3643
 4808SOL     OW25882   3.401   3.728  13.265  0.2897  0.2845  0.0514
 4808SOL    HW125883   3.356   3.680  13.196  1.1556 -1.0263  0.3932
 4808SOL    HW225884   3.457   3.665  13.311 -0.7414 -2.2013 -2.1474
 4809SOL     OW25885   4.095   4.461  11.905  0.4726  0.7435  0.0030
 4809SOL    HW125886   4.133   4.387  11.859 -2.4458 -0.5703 -0.2656
 4809SOL    HW225887   4.141   4.457  11.989  2.9209  0.3069 -1.3336
 4810SOL     OW25888   0.758   2.465   4.545 -0.4642  0.1132  0.2001
 4810SOL    HW125889   0.675   2.427   4.515 -0.2452 -0.3066  0.1318
 4810SOL    HW225890   0.735   2.491   4.635 -0.6703  1.2761 -0.1915
 4811SOL     OW25891   1.661   3.307   2.547  0.3322  0.1986  0.1610
 4811SOL    HW125892   1.631   3.374   2.608 -2.1986  0.0236 -0.9043
 4811SOL    HW225893   1.652   3.237   2.612  2.0727  0.7094  0.9557
 4812SOL     OW25894   4.221   1.077  17.487  0.3647 -0.1159 -0.0507
 4812SOL    HW125895   4.221   1.090  17.581 -2.7710  0.9735 -0.2109
 4812SOL    HW225896   4.134   1.109  17.464  0.2025 -2.5455 -2.8868
 4813SOL     OW25897   4.614   3.584   5.388 -0.2250  0.5718 -0.7040
 4813SOL    HW125898   4.600   3.668   5.432 -0.1843 -0.0770  0.5410
 4813SOL    HW225899   4.559   3.586   5.310  0.0738  2.1471 -0.8719
 4814SOL     OW25900   0.460   1.282   2.966 -0.3653  0.3597 -0.4412
 4814SOL    HW125901   0.455   1.332   3.047  2.7558 -0.4779  0.2745
 4814SOL    HW225902   0.478   1.192   2.993  0.2376  0.3595 -0.8346
 4815SOL     OW25903   2.336   1.950  15.553 -0.6433  0.0632 -0.0208
 4815SOL    HW125904   2.377   1.948  15.467  0.3375 -2.3452  0.4887
 4815SOL    HW225905   2.414   1.968  15.606 -1.1047 -1.0581  1.0668
 4816SOL     OW25906   0.763   2.761  14.201  0.5604 -0.3857 -0.2407
 4816SOL    HW125907   0.746   2.677  14.158 -0.2224  1.0514 -2.7310
 4816SOL    HW225908   0.854   2.770  14.173  0.5026 -0.1045 -0.3435
 4817SOL     OW25909   3.823   0.356  10.295 -0.1054 -0.0909 -0.1179
 4817SOL    HW125910   3.820   0.362  10.391  2.2493 -0.2018 -0.0435
 4817SOL    HW225911   3.894   0.417  10.277  0.0438  0.1556  1.2855
 4818SOL     OW25912   0.391   3.659  16.485 -0.2611  0.4095 -0.3056
 4818SOL    HW125913   0.399   3.602  16.409 -1.4125 -0.1887  0.0129
 4818SOL    HW225914   0.357   3.600  16.553 -0.2356  1.1530  0.3612
 4819SOL     OW25915   0.148   2.306   7.757 -0.0059 -0.1472 -0.2260
 4819SOL    HW125916   0.221   2.366   7.741 -0.6348 -0.0141 -2.6585
 4819SOL    HW225917   0.197   2.233   7.795  0.1934  1.3786  2.4392
 4820SOL     OW25918   1.357   3.488  11.676  0.0009  0.1350  0.1111
 4820SOL    HW125919   1.363   3.583  11.672 -1.2237  0.2334  0.4600
 4820SOL    HW225920   1.449   3.469  11.692  0.4550  1.2127 -1.2877
 4821SOL     OW25921   4.075   1.949  13.844  0.0465  0.0836 -0.0037
 4821SOL    HW125922   4.009   1.907  13.789  0.6913 -0.7172 -0.1567
 4821SOL    HW225923   4.154   1.899  13.825 -0.8264 -2.4482  3.0227
 4822SOL     OW25924   3.646   0.770   6.279  0.0759 -0.2505 -0.0768
 4822SOL    HW125925   3.710   0.712   6.236 -1.6424 -1.6690 -0.7157
 4822SOL    HW225926   3.634   0.717   6.358  0.7127 -1.7919 -1.0089
 4823SOL     OW25927   1.310   0.419   6.046 -0.0601  0.0335  0.2246
 4823SOL    HW125928   1.375   0.371   5.995  1.2122  0.5762  1.3332
 4823SOL    HW225929   1.344   0.430   6.135  0.6256  2.1744 -0.2912
 4824SOL     OW25930   2.350   3.802   3.610 -0.8174 -0.1367 -0.4901
 4824SOL    HW125931   2.256   3.814   3.604 -0.5961  1.5346 -0.5925
 4824SOL    HW225932   2.361   3.707   3.602 -0.7155 -0.1900  0.3157
 4825SOL     OW25933   1.508   2.409   1.714 -0.6396 -0.2697  0.8969
 4825SOL    HW125934   1.573   2.454   1.660 -0.8267 -0.3913  0.5660
 4825SOL    HW225935   1.477   2.360   1.637  3.1989 -0.5891 -0.4590
 4826SOL     OW25936   3.917   3.764   4.621  0.2478 -0.2165 -0.0810
 4826SOL    HW125937   3.918   3.714   4.539  0.6792  1.0528 -0.8435
 4826SOL    HW225938   3.974   3.712   4.677  2.1922 -1.3157 -3.0461
 4827SOL     OW25939   1.885   3.537   5.397 -0.8872  0.0106  0.7207
 4827SOL    HW125940   1.846   3.454   5.424  0.4302 -0.7337  0.3713
 4827SOL    HW225941   1.837   3.544   5.315 -1.0867 -2.3503  0.6359
 4828SOL     OW25942   0.102   1.933   9.786  0.4736 -0.5803 -0.1223
 4828SOL    HW125943   0.163   1.992   9.829 -1.0446  1.6336 -1.0431
 4828SOL    HW225944   0.028   1.964   9.837  1.4284 -1.2417  1.6700
 4829SOL     OW25945   4.420   4.414   7.853  0.3022  0.4176  0.5379
 4829SOL    HW125946   4.475   4.493   7.855  2.1554 -0.8533 -0.1394
 4829SOL    HW225947   4.403   4.388   7.943  1.6888  1.7249  1.1908
 4830SOL     OW25948   3.267   0.083   1.754 -0.0716  0.8613  0.2320
 4830SOL    HW125949   3.275   4.720   1.718  1.0643  0.8785  0.4310
 4830SOL    HW225950   3.346   0.118   1.712  0.5406 -0.3570  0.3532
 4831SOL     OW25951   0.873   1.109   6.766  0.7088  0.6548  0.2800
 4831SOL    HW125952   0.916   1.178   6.716 -1.5273  1.4191 -0.5450
 4831SOL    HW225953   0.909   1.032   6.721 -0.0341  0.6637 -0.3218
 4832SOL     OW25954   4.649   4.605   3.705 -0.0402 -0.2633 -0.2647
 4832SOL    HW125955   4.693   4.685   3.674 -0.6425 -0.3630 -1.3659
 4832SOL    HW225956   4.602   4.638   3.782  0.0518 -0.8245  0.0332
 4833SOL     OW25957   2.505   1.681   4.980  0.1633  0.1391  0.1495
 4833SOL    HW125958   2.417   1.709   4.955  0.0070 -0.5320 -0.0815
 4833SOL    HW225959   2.493   1.656   5.072 -0.8630  0.1288  0.0093
 4834SOL     OW25960   1.465   3.812   7.912  0.2129 -0.2707  0.9907
 4834SOL    HW125961   1.472   3.722   7.946 -1.6083 -0.4233  0.9444
 4834SOL    HW225962   1.460   3.784   7.821  0.0386 -0.5354  1.0800
 4835SOL     OW25963   2.445   0.545  17.101  0.2992  0.7816 -0.8679
 4835SOL    HW125964   2.451   0.640  17.111 -1.2566  1.0087 -2.0586
 4835SOL    HW225965   2.518   0.514  17.155 -0.1631  0.8163 -0.2151
 4836SOL     OW25966   3.286   2.641  16.392 -0.1803 -0.6593  0.2381
 4836SOL    HW125967   3.330   2.682  16.466  0.7818  0.8164 -1.1634
 4836SOL    HW225968   3.327   2.555  16.384  0.8665 -0.1883  0.6028
 4837SOL     OW25969   1.221   0.561   1.808 -0.6220 -0.0098  0.3164
 4837SOL    HW125970   1.254   0.473   1.824 -0.1306 -0.1611 -1.5377
 4837SOL    HW225971   1.173   0.543   1.727 -0.7477  1.4041  0.0716
 4838SOL     OW25972   0.253   2.901  14.140 -0.0349 -0.9085 -1.1099
 4838SOL    HW125973   0.345   2.897  14.165 -0.4157  3.4341  1.0331
 4838SOL    HW225974   0.236   2.993  14.119 -0.0795 -1.1265 -2.0359
 4839SOL     OW25975   4.117   4.287   0.200 -0.2115 -0.0428 -0.7887
 4839SOL    HW125976   4.083   4.343   0.270 -0.3348 -1.8065  0.5731
 4839SOL    HW225977   4.171   4.347   0.148  1.2546 -0.2715  0.4519
 4840SOL     OW25978   1.902   1.682   3.919 -0.0777  0.2723  0.2904
 4840SOL    HW125979   1.844   1.617   3.879  2.0956 -0.5523 -1.5046
 4840SOL    HW225980   1.864   1.757   3.874 -0.2976  0.5501  0.9335
 4841SOL     OW25981   4.435   3.331   7.892  0.5513  0.0982 -0.7139
 4841SOL    HW125982   4.470   3.419   7.877  1.0627 -0.3226 -1.9641
 4841SOL    HW225983   4.482   3.282   7.825  0.3780  0.0529 -0.8012
 4842SOL     OW25984   0.351   1.838   6.205  0.1073 -0.5293  0.0341
 4842SOL    HW125985   0.305   1.767   6.160 -0.4310 -0.7178  0.8648
 4842SOL    HW225986   0.374   1.886   6.126 -1.1287 -1.1862 -0.7355
 4843SOL     OW25987   2.712   2.063   8.111  0.4281 -0.4646  0.1285
 4843SOL    HW125988   2.632   2.029   8.070 -1.0675 -0.3365  2.9413
 4843SOL    HW225989   2.752   1.983   8.146 -1.9495 -1.7163 -0.0022
 4844SOL     OW25990   3.768   3.711   9.725  0.1816  0.2365 -0.1160
 4844SOL    HW125991   3.719   3.786   9.758  0.0835 -0.4796  1.3934
 4844SOL    HW225992   3.823   3.696   9.802 -2.2425  0.8546  1.7434
 4845SOL     OW25993   2.562   0.359   5.258  0.1518  0.0941 -0.6804
 4845SOL    HW125994   2.565   0.398   5.171 -0.8718 -0.9842 -1.2042
 4845SOL    HW225995   2.549   0.435   5.315  0.7899 -0.7350  0.5843
 4846SOL     OW25996   0.980   2.297  17.217  0.1812 -0.2355 -0.1688
 4846SOL    HW125997   0.913   2.347  17.265 -0.2295 -0.6761 -0.2867
 4846SOL    HW225998   0.948   2.208  17.231 -0.0007  0.1496  1.9000
 4847SOL     OW25999   3.769   1.978  12.867  0.1433 -0.1297  0.3588
 4847SOL    HW126000   3.676   1.986  12.843  0.6939 -1.0263 -2.1072
 4847SOL    HW226001   3.785   1.883  12.870  1.1371  0.0601  1.0214
 4848SOL     OW26002   0.805   2.932   1.068 -0.0306 -0.4778 -0.1686
 4848SOL    HW126003   0.890   2.968   1.042  0.1147 -0.3103  0.5410
 4848SOL    HW226004   0.824   2.871   1.140 -0.5933 -0.8439 -0.3247
 4849SOL     OW26005   0.711   0.653   2.741 -0.4343  0.3682  0.5959
 4849SOL    HW126006   0.690   0.730   2.688 -0.9877 -0.6101 -0.6039
 4849SOL    HW226007   0.637   0.660   2.802 -3.0758  0.5966 -2.6197
 4850SOL     OW26008   0.961   3.199   9.190 -0.3702 -0.0019 -0.2383
 4850SOL    HW126009   1.016   3.145   9.134 -1.0346 -0.1187 -0.7711
 4850SOL    HW226010   0.915   3.134   9.244 -1.7955  2.1711  1.1657
 4851SOL     OW26011   3.605   3.255   6.555 -0.3444 -0.7085 -0.3860
 4851SOL    HW126012   3.671   3.318   6.524  0.7274 -1.4484  0.3942
 4851SOL    HW226013   3.551   3.320   6.599 -1.8586 -1.1472 -1.5918
 4852SOL     OW26014   0.896   2.129   3.019 -0.0233  0.1957  0.3993
 4852SOL    HW126015   0.977   2.180   3.023  1.1093 -1.4266 -1.8737
 4852SOL    HW226016   0.900   2.068   3.093  1.6801  0.0228  0.1764
 4853SOL     OW26017   2.796   4.082   5.786 -0.0044 -0.2692  0.1861
 4853SOL    HW126018   2.883   4.078   5.825 -0.5548 -1.4528  1.2895
 4853SOL    HW226019   2.819   4.097   5.694  2.0697  1.3695  0.9923
 4854SOL     OW26020   0.782   3.099  16.632  0.5301  0.1246  0.5498
 4854SOL    HW126021   0.800   3.038  16.561  1.2377  1.6435 -0.5678
 4854SOL    HW226022   0.751   3.180  16.592 -0.1776  0.3206  1.5126
 4855SOL     OW26023   3.717   3.150   3.655 -0.1260 -0.6868 -0.2896
 4855SOL    HW126024   3.743   3.070   3.610  4.4489  1.0304 -0.7362
 4855SOL    HW226025   3.624   3.130   3.658  0.2904 -2.6003 -0.1228
 4856SOL     OW26026   1.892   1.999   4.249 -0.2531  0.2473  0.1161
 4856SOL    HW126027   1.851   2.076   4.210 -2.1472 -0.2171  1.2237
 4856SOL    HW226028   1.947   1.967   4.177 -1.2393  2.2519 -1.5065
 4857SOL     OW26029   2.876   0.386   2.315 -0.1083 -0.1520 -0.0484
 4857SOL    HW126030   2.818   0.354   2.246  2.1813  0.7676 -2.3621
 4857SOL    HW226031   2.827   0.367   2.396  1.4489 -1.3421  0.6022
 4858SOL     OW26032   2.574   0.317   5.972 -0.3648 -0.2156  0.1763
 4858SOL    HW126033   2.532   0.364   6.044 -0.6207  0.8334 -0.6572
 4858SOL    HW226034   2.505   0.261   5.937 -2.6865  1.5061  2.0180
 4859SOL     OW26035   2.456   2.804   2.983  0.1751  0.2036  0.0773
 4859SOL    HW126036   2.426   2.739   3.046 -0.1934  0.1726 -0.1302
 4859SOL    HW226037   2.432   2.883   3.031 -3.6716 -1.1765  0.4387
 4860SOL     OW26038   2.599   0.796   6.384  0.5611 -0.1326  0.4530
 4860SOL    HW126039   2.623   0.716   6.431  1.4793 -0.9756 -1.4587
 4860SOL    HW226040   2.580   0.860   6.453  0.6737 -0.6455  0.9614
 4861SOL     OW26041   2.997   0.785   1.928 -0.2565  0.9596  0.4225
 4861SOL    HW126042   2.982   0.703   1.975  0.2772  0.8674  0.4231
 4861SOL    HW226043   2.916   0.805   1.880  0.5112 -2.8483 -2.4332
 4862SOL     OW26044   3.149   0.697   4.594  0.2058  0.4256 -0.1940
 4862SOL    HW126045   3.153   0.705   4.689  0.8171  0.4001 -0.2156
 4862SOL    HW226046   3.191   0.777   4.560 -0.1239  0.3368 -0.8096
 4863SOL     OW26047   3.984   0.996   4.466  0.3350  0.4963  0.2650
 4863SOL    HW126048   4.063   1.029   4.423 -0.1114  0.9330 -0.2223
 4863SOL    HW226049   3.912   1.047   4.430  0.1946  0.1914  0.1183
 4864SOL     OW26050   1.889   1.460   8.107 -0.3961  0.2355  0.1995
 4864SOL    HW126051   1.809   1.407   8.107 -1.3880  1.7251  0.5104
 4864SOL    HW226052   1.898   1.461   8.203 -2.2938  0.0270  0.3854
 4865SOL     OW26053   2.200   3.036   4.489 -0.1335  0.2573 -0.0568
 4865SOL    HW126054   2.210   2.998   4.402  0.7529  0.5758 -0.0992
 4865SOL    HW226055   2.293   3.047   4.507  0.2065 -1.9059 -0.4750
 4866SOL     OW26056   3.838   2.892   3.084 -0.1872  0.8923 -0.1903
 4866SOL    HW126057   3.906   2.912   3.020 -0.1159 -0.9215 -0.6758
 4866SOL    HW226058   3.878   2.863   3.166  2.5477 -0.7383 -2.0921
 4867SOL     OW26059   0.823   3.698   3.283 -0.2830  0.0344  0.6312
 4867SOL    HW126060   0.850   3.782   3.319 -1.3879  0.8128 -0.3822
 4867SOL    HW226061   0.793   3.712   3.193  0.7452 -0.0050  0.2839
 4868SOL     OW26062   0.701   2.667   2.884 -0.1059 -0.9063  0.3658
 4868SOL    HW126063   0.614   2.632   2.869 -0.3592 -1.0488  2.1540
 4868SOL    HW226064   0.754   2.594   2.852 -0.4629 -1.5840  1.3404
 4869SOL     OW26065   4.268   1.499   1.860  0.2224  0.0134 -0.2592
 4869SOL    HW126066   4.287   1.480   1.951 -1.8192  0.3546  0.2484
 4869SOL    HW226067   4.197   1.563   1.869 -0.8012 -1.4296  2.0267
 4870SOL     OW26068   3.463   4.434   4.739 -0.2849 -0.2563 -0.2347
 4870SOL    HW126069   3.467   4.435   4.643  0.6989 -1.9727 -0.2003
 4870SOL    HW226070   3.371   4.461   4.750 -0.0414  0.3481  0.3345
 4871SOL     OW26071   1.923   2.317   4.336  0.1693 -0.3852  0.5746
 4871SOL    HW126072   1.861   2.292   4.404 -0.6346  0.4601  0.1531
 4871SOL    HW226073   1.889   2.280   4.254  1.2777 -0.8129  0.3170
 4872SOL     OW26074   0.952   4.532   2.410 -0.3335 -0.5704 -0.2720
 4872SOL    HW126075   0.867   4.543   2.368  0.2744 -1.7802 -1.7991
 4872SOL    HW226076   0.922   4.509   2.498  1.4784 -2.7517 -0.2240
 4873SOL     OW26077   4.263   1.821  11.274  0.5664  0.1867  0.0808
 4873SOL    HW126078   4.325   1.815  11.346  0.1136  0.8620  0.5353
 4873SOL    HW226079   4.187   1.800  11.328  0.4505 -0.0274 -0.1701
 4874SOL     OW26080   0.150   0.870  12.852  0.1166  0.0018  0.0479
 4874SOL    HW126081   0.166   0.888  12.759 -1.2523  0.4223 -0.1122
 4874SOL    HW226082   0.166   0.950  12.902 -0.0839 -3.3090  5.3676
 4875SOL     OW26083   1.039   2.650   6.498 -0.1390  0.2715 -0.6384
 4875SOL    HW126084   1.068   2.720   6.557 -0.0201 -0.6374  0.3643
 4875SOL    HW226085   0.947   2.673   6.484 -0.7848 -0.4227  2.5173
 4876SOL     OW26086   0.159   4.353   6.287 -0.0311 -0.0659  0.3567
 4876SOL    HW126087   0.182   4.283   6.349 -1.6166  0.8311  1.9401
 4876SOL    HW226088   0.238   4.342   6.233 -0.1540  1.9545 -0.2349
 4877SOL     OW26089   1.831   4.318   4.402 -0.4770 -0.4250  0.2627
 4877SOL    HW126090   1.843   4.224   4.387  0.9550 -0.3553  0.8991
 4877SOL    HW226091   1.742   4.330   4.370 -1.2480  0.4867  2.7488
 4878SOL     OW26092   3.232   2.023   3.616  0.2746 -0.3745  0.2317
 4878SOL    HW126093   3.224   2.021   3.521  1.5419  2.0040  0.0724
 4878SOL    HW226094   3.312   2.069   3.642 -0.3980 -0.3040  2.2045
 4879SOL     OW26095   1.554   1.421   3.216  0.1067 -0.3183 -0.6116
 4879SOL    HW126096   1.648   1.409   3.224  0.0298 -0.8860 -0.5667
 4879SOL    HW226097   1.527   1.360   3.147  1.2312  0.3417 -1.6363
 4880SOL     OW26098   0.816   1.285   4.636 -0.3340  0.7454  0.0743
 4880SOL    HW126099   0.864   1.366   4.619  0.1041  0.4112 -0.2900
 4880SOL    HW226100   0.880   1.235   4.686 -0.0472  0.1482 -0.8706
 4881SOL     OW26101   2.075   1.641   5.890 -0.1446 -0.1046 -0.0971
 4881SOL    HW126102   2.047   1.608   5.976  1.7779  0.1224  0.6095
 4881SOL    HW226103   2.085   1.559   5.842  0.2594  0.0639 -0.2985
 4882SOL     OW26104   3.967   4.131   3.848 -0.0658  0.5072  0.0425
 4882SOL    HW126105   3.892   4.127   3.907 -1.4678 -0.1225 -1.7722
 4882SOL    HW226106   4.039   4.090   3.896 -0.1474  0.8079  0.4192
 4883SOL     OW26107   2.823   1.783   8.071 -0.5215 -0.2300  0.4115
 4883SOL    HW126108   2.837   1.840   7.996 -0.6648 -0.3579  0.2882
 4883SOL    HW226109   2.808   1.694   8.039  0.5328 -0.3837  0.3413
 4884SOL     OW26110   1.852   0.567  17.533 -0.0113  0.4711 -0.3972
 4884SOL    HW126111   1.897   0.592  17.452  1.1075  0.1865  0.1341
 4884SOL    HW226112   1.930   0.556  17.588  0.3714 -1.1403 -1.2614
 4885SOL     OW26113   1.876   2.982   5.981  0.1010  0.1842 -0.2379
 4885SOL    HW126114   1.855   2.950   6.069  1.0407 -1.2263 -0.5290
 4885SOL    HW226115   1.892   3.072   6.010 -1.2030  0.0494  0.9105
 4886SOL     OW26116   0.486   1.285   5.441 -0.0192 -0.1000  0.7170
 4886SOL    HW126117   0.491   1.341   5.518  1.6135  1.8552 -0.7966
 4886SOL    HW226118   0.463   1.198   5.474 -0.0553 -1.2088 -2.1734
 4887SOL     OW26119   2.905   0.851  12.081  0.2689  0.2526  0.3583
 4887SOL    HW126120   2.955   0.892  12.152  2.2103 -1.0532 -0.2615
 4887SOL    HW226121   2.843   0.805  12.137  1.5033  0.9335  2.3214
 4888SOL     OW26122   3.924   0.980   6.330  0.0875 -0.1826  0.0841
 4888SOL    HW126123   3.836   0.990   6.365  0.8991  2.8660  1.2133
 4888SOL    HW226124   3.945   0.897   6.371  0.4757  0.1560  0.5623
 4889SOL     OW26125   4.000   4.553   6.326  0.1943  0.2848  0.2734
 4889SOL    HW126126   3.920   4.604   6.340 -1.0006 -2.3531  3.1624
 4889SOL    HW226127   3.987   4.481   6.388 -1.8376  0.8476  0.4966
 4890SOL     OW26128   1.831   4.074   7.213 -0.7881 -0.4477 -0.1296
 4890SOL    HW126129   1.798   4.132   7.281 -1.3644 -2.0130  0.9172
 4890SOL    HW226130   1.919   4.061   7.248 -0.7742 -0.6678 -0.2463
 4891SOL     OW26131   0.497   1.756   0.583  0.2132  0.7942  0.3206
 4891SOL    HW126132   0.491   1.753   0.678  1.3990 -0.3272  0.3714
 4891SOL    HW226133   0.474   1.667   0.555 -0.6487  0.3679  2.3842
 4892SOL     OW26134   0.318   3.459  15.954  0.3098  0.5003 -0.1510
 4892SOL    HW126135   0.262   3.519  15.905 -0.1562 -2.0594 -2.7397
 4892SOL    HW226136   0.399   3.463  15.903  0.5558  2.9579  0.3917
 4893SOL     OW26137   3.280   0.638   4.827 -0.3813  0.5352  0.1461
 4893SOL    HW126138   3.371   0.627   4.800  0.0817 -1.0498  2.4154
 4893SOL    HW226139   3.248   0.552   4.800  1.1406 -0.2117  0.7288
 4894SOL     OW26140   1.060   1.063   1.364 -0.3021 -0.3386 -0.2214
 4894SOL    HW126141   0.999   1.119   1.412  1.2175  1.7565 -0.7619
 4894SOL    HW226142   1.132   1.119   1.337  0.5267 -1.4723 -0.3547
 4895SOL     OW26143   4.696   0.708  15.982 -0.2275  0.1868  0.0631
 4895SOL    HW126144   4.669   0.628  15.936  0.0874 -0.3278  0.7846
 4895SOL    HW226145   4.653   0.700  16.067  0.8087 -1.1710  0.4722
 4896SOL     OW26146   0.645   1.281  17.322  0.1008 -0.0748 -0.8740
 4896SOL    HW126147   0.653   1.194  17.282  0.5850 -0.4793  0.0972
 4896SOL    HW226148   0.604   1.258  17.405  0.7262  1.0434 -0.2579
 4897SOL     OW26149   1.333   0.700   8.036 -0.2789 -0.1737 -0.5449
 4897SOL    HW126150   1.341   0.781   7.986 -0.1926 -0.5157 -1.0789
 4897SOL    HW226151   1.372   0.732   8.118 -0.2996 -0.9040 -0.2547
 4898SOL     OW26152   4.710   3.226   7.928  0.1691 -0.6271 -0.0668
 4898SOL    HW126153   4.721   3.131   7.928 -0.0833 -0.6692  2.5928
 4898SOL    HW226154   4.707   3.256   8.020  0.9531  2.1444 -0.9292
 4899SOL     OW26155   3.886   2.195  10.784  0.2561  0.2463 -0.2426
 4899SOL    HW126156   3.841   2.243  10.714  0.4031  0.0803 -0.4518
 4899SOL    HW226157   3.871   2.248  10.862  0.8717 -0.1528  0.1388
 4900SOL     OW26158   0.293   2.362   4.159  0.1160 -0.6547 -0.0750
 4900SOL    HW126159   0.363   2.369   4.224  1.3341 -1.0998 -1.3595
 4900SOL    HW226160   0.332   2.343   4.074 -0.5850  0.7155 -0.7143
 4901SOL     OW26161   1.377   2.121   2.492  0.5297  0.1090  0.3429
 4901SOL    HW126162   1.380   2.028   2.513 -1.2629 -0.2227 -0.8873
 4901SOL    HW226163   1.424   2.161   2.566 -1.8653  0.3955  1.7034
 4902SOL     OW26164   4.551   1.604   6.744  0.0264 -0.3380 -0.0099
 4902SOL    HW126165   4.616   1.591   6.813 -0.7470  1.3560  1.0311
 4902SOL    HW226166   4.473   1.598   6.800 -0.2546  3.1478 -0.0790
 4903SOL     OW26167   3.556   3.077   6.771  0.1177  0.0584 -0.3291
 4903SOL    HW126168   3.565   3.130   6.692 -0.4642  1.1549  0.3415
 4903SOL    HW226169   3.542   3.137   6.844 -0.3983 -0.9574  0.4121
 4904SOL     OW26170   3.368   0.823  10.318 -0.5861  0.8554 -0.6808
 4904SOL    HW126171   3.396   0.789  10.403 -0.9170 -0.3295 -1.0490
 4904SOL    HW226172   3.272   0.820  10.321 -0.3963  0.3833  4.0908
 4905SOL     OW26173   2.840   3.469   2.634 -0.2186 -0.0583  0.0998
 4905SOL    HW126174   2.832   3.497   2.542 -0.3727  1.3794  0.5518
 4905SOL    HW226175   2.809   3.379   2.624  1.7617 -0.7817  0.5828
 4906SOL     OW26176   4.414   2.600   7.547 -0.9162 -0.1796  0.3202
 4906SOL    HW126177   4.356   2.662   7.591  0.0791 -0.4581  2.0201
 4906SOL    HW226178   4.473   2.579   7.619  0.7423 -0.5952 -1.1539
 4907SOL     OW26179   0.561   3.106   7.696 -0.1578 -0.4147  1.2315
 4907SOL    HW126180   0.503   3.174   7.732  0.9804  1.0765  0.2573
 4907SOL    HW226181   0.648   3.142   7.711  0.3936 -1.2264 -0.0509
 4908SOL     OW26182   2.997   1.626   8.284 -0.5108 -0.1044  0.5475
 4908SOL    HW126183   2.945   1.585   8.353 -0.9940  0.4367  0.5058
 4908SOL    HW226184   3.079   1.577   8.282  0.4174  1.4774  0.0659
 4909SOL     OW26185   4.033   3.364   5.144  0.0495 -0.1216 -0.0374
 4909SOL    HW126186   3.950   3.330   5.180 -0.0160 -0.5787 -0.6094
 4909SOL    HW226187   4.099   3.312   5.188 -0.8266 -1.6018 -0.4557
 4910SOL     OW26188   2.356   4.488   9.704  0.3546  0.1974  0.4551
 4910SOL    HW126189   2.305   4.431   9.761 -0.4034 -0.6077 -1.0442
 4910SOL    HW226190   2.441   4.460   9.739  0.1219  1.2612  1.8777
 4911SOL     OW26191   3.449   1.858   2.148 -0.0252  0.0254  0.3651
 4911SOL    HW126192   3.417   1.834   2.235  0.7219  1.4995  1.0402
 4911SOL    HW226193   3.374   1.817   2.104 -0.5361  0.2750  1.0107
 4912SOL     OW26194   2.252   2.571  16.695 -0.2619 -0.5684  0.1262
 4912SOL    HW126195   2.260   2.520  16.614 -1.1535  0.8041 -0.8227
 4912SOL    HW226196   2.311   2.643  16.671  0.1730 -0.7497  0.6515
 4913SOL     OW26197   1.444   2.595   6.576  0.0233 -0.4392 -0.3216
 4913SOL    HW126198   1.489   2.554   6.650  0.5183  1.5361  0.4749
 4913SOL    HW226199   1.356   2.558   6.580 -0.0166 -0.3473 -0.3571
 4914SOL     OW26200   4.710   4.705  12.804  0.0560  0.4163  0.0531
 4914SOL    HW126201   4.635   0.027  12.768  1.5943  0.4795 -3.0678
 4914SOL    HW226202   0.064   0.021  12.770 -0.7547  0.6528 -1.5723
 4915SOL     OW26203   0.285   3.809   6.567  0.4575 -0.0139  0.2157
 4915SOL    HW126204   0.371   3.769   6.553 -1.8526 -4.7329 -0.5156
 4915SOL    HW226205   0.306   3.885   6.621 -1.7075  0.6628  0.1105
 4916SOL     OW26206   3.493   4.654   8.788 -0.1297 -0.1414  0.4061
 4916SOL    HW126207   3.528   4.579   8.835 -0.3072  1.0657  2.4703
 4916SOL    HW226208   3.401   4.631   8.802 -0.3639  1.5264  1.7083
 4917SOL     OW26209   2.864   3.121   7.578 -0.0647 -0.3423  0.2369
 4917SOL    HW126210   2.936   3.060   7.563  0.2945  0.2787 -0.5286
 4917SOL    HW226211   2.846   3.140   7.486  1.5395  0.1939  0.0267
 4918SOL     OW26212   1.098   1.951   9.846 -0.1607 -0.0934 -0.1023
 4918SOL    HW126213   1.014   1.920   9.813  0.5615 -3.7187  1.3906
 4918SOL    HW226214   1.153   1.880   9.812  0.2168  0.9368 -1.6125
 4919SOL     OW26215   2.297   1.780   4.550 -0.7460  0.7192 -0.5289
 4919SOL    HW126216   2.314   1.781   4.455  0.2655  0.6288 -0.3547
 4919SOL    HW226217   2.233   1.710   4.536  0.4002 -0.6717  1.1615
 4920SOL     OW26218   3.406   0.768   5.188  0.1083  0.5820 -0.6463
 4920SOL    HW126219   3.497   0.779   5.159 -0.6241  1.7736 -2.5285
 4920SOL    HW226220   3.370   0.813   5.111 -1.7895  1.0141  0.5066
 4921SOL     OW26221   3.226   4.025   3.547  0.4155  0.7337 -0.2011
 4921SOL    HW126222   3.206   4.104   3.497 -0.6626 -1.1641 -2.7624
 4921SOL    HW226223   3.321   4.017   3.554  0.6349 -0.6105 -4.4539
 4922SOL     OW26224   4.011   1.176   8.572  0.2963 -0.1800 -0.0912
 4922SOL    HW126225   4.060   1.249   8.608  1.1201  0.1160 -1.8136
 4922SOL    HW226226   4.076   1.144   8.510  0.0955  0.7641 -0.7938
 4923SOL     OW26227   0.734   0.029   4.558  0.4157  0.2550 -0.2880
 4923SOL    HW126228   0.660   0.080   4.527 -0.6038 -0.8527  0.2932
 4923SOL    HW226229   0.709   4.664   4.538 -0.9152  1.1618 -2.6845
 4924SOL     OW26230   1.319   1.148   7.098 -0.7278  0.0920 -0.5003
 4924SOL    HW126231   1.297   1.055   7.092  1.8463 -0.6232  0.9301
 4924SOL    HW226232   1.234   1.167   7.138  0.1228 -1.2586  1.9604
 4925SOL     OW26233   2.468   4.142   9.363 -0.0364  0.0306 -0.1295
 4925SOL    HW126234   2.514   4.149   9.279  0.9333  1.6141  0.5307
 4925SOL    HW226235   2.388   4.192   9.349  0.7703  1.2846 -0.3069
 4926SOL     OW26236   1.071   0.535   8.102  0.3647 -0.0707  0.8624
 4926SOL    HW126237   1.162   0.565   8.105  0.2810  0.2478  0.2391
 4926SOL    HW226238   1.071   0.488   8.018 -0.3390 -1.9962  1.9491
 4927SOL     OW26239   1.708   1.597  16.584 -0.2826  0.6218  0.2469
 4927SOL    HW126240   1.686   1.547  16.663 -1.1481  2.0428  0.9007
 4927SOL    HW226241   1.704   1.529  16.516  0.2411  2.3048 -1.4626
 4928SOL     OW26242   3.420   2.901   2.456  0.5394 -0.0708  0.7496
 4928SOL    HW126243   3.337   2.853   2.460  2.2057 -2.7374  3.1017
 4928SOL    HW226244   3.435   2.918   2.549  4.7227  0.8195 -0.1115
 4929SOL     OW26245   0.091   3.515  14.870  0.3106 -0.1368  0.2152
 4929SOL    HW126246   0.010   3.546  14.909  0.2239  2.3111 -1.8891
 4929SOL    HW226247   0.084   3.562  14.787 -0.5250 -0.5804  0.0321
 4930SOL     OW26248   2.322   0.153   3.049 -0.0198 -0.0237 -0.1192
 4930SOL    HW126249   2.330   0.166   3.143 -2.8889 -1.0527  0.2588
 4930SOL    HW226250   2.228   0.138   3.050  0.4634 -3.0259  0.3319
 4931SOL     OW26251   0.572   4.616   6.261  0.2839  0.8091  0.7475
 4931SOL    HW126252   0.480   4.629   6.281  0.3785  2.7785 -0.0881
 4931SOL    HW226253   0.591   4.559   6.336  1.6454  1.3288  0.7921
 4932SOL     OW26254   0.069   2.596   1.033 -0.4398 -0.0596 -0.3591
 4932SOL    HW126255   0.021   2.678   1.039 -1.0706 -0.5299  1.0878
 4932SOL    HW226256   0.026   2.558   0.956  0.9358 -1.4903 -0.4274
 4933SOL     OW26257   3.370   2.880   8.391 -0.3034 -0.0398  0.7687
 4933SOL    HW126258   3.286   2.880   8.344  1.6813  0.7312 -2.7824
 4933SOL    HW226259   3.339   2.923   8.471  2.0382  1.0160  1.0917
 4934SOL     OW26260   0.943   1.167   2.277  0.4836  0.1380 -0.0514
 4934SOL    HW126261   0.854   1.189   2.248  0.0907 -2.4576 -0.7532
 4934SOL    HW226262   0.972   1.255   2.300  0.9397  0.8701 -3.4297
 4935SOL     OW26263   1.398   3.643   4.537 -0.1405  0.5003 -0.6656
 4935SOL    HW126264   1.387   3.557   4.578  4.5370  0.0075 -0.4368
 4935SOL    HW226265   1.493   3.651   4.532  0.0274 -1.0762  0.0925
 4936SOL     OW26266   0.224   1.907   5.755 -0.0277  0.0601 -0.0956
 4936SOL    HW126267   0.165   1.874   5.822  0.8781 -1.4573 -0.0435
 4936SOL    HW226268   0.172   1.980   5.721  0.5991 -0.5623 -2.3732
 4937SOL     OW26269   4.412   3.835   7.736  0.5434  0.0433 -0.0639
 4937SOL    HW126270   4.362   3.916   7.742 -0.3762 -0.5341  0.0604
 4937SOL    HW226271   4.498   3.870   7.757  0.3940  1.0822 -1.1748
 4938SOL     OW26272   4.210   3.808   6.630  0.3938 -0.0784 -0.1232
 4938SOL    HW126273   4.268   3.731   6.632 -0.2983 -0.5204  2.8537
 4938SOL    HW226274   4.245   3.851   6.552  1.3007 -0.3277  0.1438
 4939SOL     OW26275   1.929   3.211   1.958 -0.3610 -0.3705  0.0913
 4939SOL    HW126276   2.003   3.153   1.977  1.1048  1.3655 -0.2854
 4939SOL    HW226277   1.961   3.262   1.883  1.5365 -1.2045  0.3206
 4940SOL     OW26278   1.399   2.018   1.898  0.9531  0.4121  0.1745
 4940SOL    HW126279   1.350   1.939   1.920  1.6652  0.4729  1.9929
 4940SOL    HW226280   1.336   2.087   1.916 -0.5422 -1.2112  1.0864
 4941SOL     OW26281   2.256   3.355   7.824 -0.2570 -0.2990 -0.3953
 4941SOL    HW126282   2.255   3.259   7.824  1.8581 -0.3155  0.0693
 4941SOL    HW226283   2.181   3.367   7.766 -0.4028 -0.7372 -0.3015
 4942SOL     OW26284   1.171   2.311   4.956  0.7932 -0.0846  0.1262
 4942SOL    HW126285   1.114   2.329   5.031  1.1906 -1.9939  0.8799
 4942SOL    HW226286   1.145   2.375   4.890  0.1728  0.0274  0.4748
 4943SOL     OW26287   2.786   0.224   4.822 -0.2361  0.3384  0.0213
 4943SOL    HW126288   2.847   0.229   4.748  1.2527  2.9349  1.4055
 4943SOL    HW226289   2.705   0.208   4.774 -0.3864  3.9712 -0.9537
 4944SOL     OW26290   4.184   4.300   6.723 -0.2669  0.2910  0.2158
 4944SOL    HW126291   4.214   4.261   6.640  2.8785  0.4638  1.2919
 4944SOL    HW226292   4.217   4.236   6.785  0.4802  1.4114  0.9729
 4945SOL     OW26293   4.041   4.479   8.670  0.5256 -0.8451 -0.7124
 4945SOL    HW126294   4.038   4.573   8.688 -0.7526 -1.0555  0.2114
 4945SOL    HW226295   4.068   4.445   8.755  2.0921  0.9755 -0.4920
 4946SOL     OW26296   0.059   3.813   8.965  0.1735 -0.9084  0.4489
 4946SOL    HW126297   0.108   3.894   8.948 -1.4103  0.1506  1.0106
 4946SOL    HW226298   0.058   3.810   9.060  2.0847  3.7003  0.5956
 4947SOL     OW26299   4.238   1.752   8.906 -1.0412 -0.2930 -0.0761
 4947SOL    HW126300   4.219   1.795   8.823 -2.6351  0.4507  0.6665
 4947SOL    HW226301   4.201   1.664   8.895 -0.3801 -0.8390  2.0969
 4948SOL     OW26302   0.115   2.672   0.350 -0.5477 -0.2444  0.1310
 4948SOL    HW126303   0.188   2.700   0.294 -0.1258 -3.7669 -1.1492
 4948SOL    HW226304   0.048   2.738   0.336  0.9048  0.8214 -1.7729
 4949SOL     OW26305   3.218   1.540   9.076  0.0266 -0.2875  0.1495
 4949SOL    HW126306   3.312   1.545   9.096 -0.2142 -0.1220  1.2577
 4949SOL    HW226307   3.206   1.448   9.100 -0.5075  0.2203  1.8335
 4950SOL     OW26308   3.007   1.312   9.776 -0.0127  0.1044  0.5908
 4950SOL    HW126309   3.030   1.313   9.869  0.7224 -2.9483  0.4377
 4950SOL    HW226310   3.021   1.220   9.752 -1.2986  0.4466 -1.4277
 4951SOL     OW26311   0.635   2.997   6.159 -0.2357  0.3406 -0.4338
 4951SOL    HW126312   0.614   2.906   6.136  0.0477 -0.5995  3.0597
 4951SOL    HW226313   0.726   2.991   6.188 -0.2488  0.4668 -0.3683
 4952SOL     OW26314   1.460   1.060   1.893 -0.2557 -0.0618  0.3212
 4952SOL    HW126315   1.508   1.034   1.971  1.6601  0.7660 -0.5919
 4952SOL    HW226316   1.445   0.978   1.844  2.6316 -0.1722 -0.3974
 4953SOL     OW26317   2.125   4.000   7.969 -0.1411 -0.3529  0.3945
 4953SOL    HW126318   2.072   4.056   7.912 -1.1996  0.3054  2.0582
 4953SOL    HW226319   2.200   4.057   7.982  0.1119 -0.4590 -0.5655
 4954SOL     OW26320   3.212   3.791  13.932  0.2283  0.1847 -0.2470
 4954SOL    HW126321   3.174   3.837  13.857 -0.3886  0.1379  0.0355
 4954SOL    HW226322   3.130   3.749  13.958 -0.1385  1.7091  1.0047
 4955SOL     OW26323   4.199   3.667  11.948 -0.4340  0.1495  0.0005
 4955SOL    HW126324   4.231   3.581  11.972 -1.1142 -0.0929  0.0515
 4955SOL    HW226325   4.279   3.709  11.918 -1.1599  0.0929 -2.0745
 4956SOL     OW26326   3.689   4.267   7.650  0.2605 -0.5499 -0.1528
 4956SOL    HW126327   3.755   4.305   7.709  2.4507 -2.1100 -1.5702
 4956SOL    HW226328   3.677   4.337   7.587  1.3661  0.5328  0.8241
 4957SOL     OW26329   2.227   0.601   2.098 -0.2895 -0.2128  0.6481
 4957SOL    HW126330   2.259   0.676   2.148 -3.3338  1.3479  0.2387
 4957SOL    HW226331   2.303   0.581   2.044  0.1723 -0.8221  1.5199
 4958SOL     OW26332   1.270   1.754  12.230 -0.8817  0.3799  0.1043
 4958SOL    HW126333   1.258   1.706  12.148 -1.3228  0.3261  0.2040
 4958SOL    HW226334   1.183   1.789  12.243 -1.8908 -2.3288  0.7118
 4959SOL     OW26335   0.626   2.228   7.040  0.0236 -0.2732  0.1062
 4959SOL    HW126336   0.667   2.199   6.959  2.4705  0.6388  1.0062
 4959SOL    HW226337   0.701   2.277   7.074 -1.5231  1.8947  0.4217
 4960SOL     OW26338   0.404   2.448   0.750 -0.6128  0.3177 -0.2006
 4960SOL    HW126339   0.311   2.464   0.732 -1.1551 -1.7388  0.7745
 4960SOL    HW226340   0.436   2.442   0.660  0.1942 -1.1985  0.1875
 4961SOL     OW26341   4.722   0.271   8.822  0.7115  0.2214 -0.1181
 4961SOL    HW126342   0.032   0.339   8.879 -0.4516 -0.1766  1.0534
 4961SOL    HW226343   0.029   0.295   8.735 -0.3000  0.8020 -0.3336
 4962SOL     OW26344   1.076   4.441   2.167  0.7387  0.7136  0.1710
 4962SOL    HW126345   1.039   4.481   2.088  2.3454  0.6568 -0.6118
 4962SOL    HW226346   1.030   4.480   2.241  0.9312  3.8890 -1.3771
 4963SOL     OW26347   2.733   0.620  11.240 -0.1930 -0.4142 -0.2309
 4963SOL    HW126348   2.776   0.704  11.220 -1.2578  0.0277 -0.6825
 4963SOL    HW226349   2.799   0.588  11.302 -0.8004 -0.4634  0.3918
 4964SOL     OW26350   4.364   0.159   2.641 -0.1443 -0.8135 -0.9388
 4964SOL    HW126351   4.285   0.125   2.683 -0.1975  2.1867  1.4118
 4964SOL    HW226352   4.317   0.177   2.559 -3.6734 -1.2713  0.9578
 4965SOL     OW26353   2.152   0.634  16.352  0.5256 -0.0045  0.1313
 4965SOL    HW126354   2.139   0.555  16.300  1.2008 -0.5272  0.7582
 4965SOL    HW226355   2.091   0.621  16.425  0.6312 -1.3762 -0.0217
 4966SOL     OW26356   0.797   2.992  12.460  0.0343  0.5658 -0.4572
 4966SOL    HW126357   0.841   2.913  12.428  0.4910  1.6431 -2.4992
 4966SOL    HW226358   0.777   2.965  12.549 -0.4311  0.0148 -0.7320
 4967SOL     OW26359   1.141   4.077   2.725  0.2002  0.1445  0.0235
 4967SOL    HW126360   1.067   4.104   2.779 -0.0880  2.4356 -1.5417
 4967SOL    HW226361   1.210   4.080   2.790  0.3710  0.8991 -0.1993
 4968SOL     OW26362   1.373   0.874  14.994 -0.3174  0.2235 -0.1438
 4968SOL    HW126363   1.408   0.865  15.083  0.9868 -1.3168 -0.8201
 4968SOL    HW226364   1.392   0.968  14.987 -0.3199  0.2269 -0.1082
 4969SOL     OW26365   3.028   2.880  11.877  0.7209  0.2943  0.3091
 4969SOL    HW126366   3.010   2.935  11.952 -2.6586  1.8311 -1.6307
 4969SOL    HW226367   3.108   2.835  11.905 -0.4724 -1.0272  1.5804
 4970SOL     OW26368   1.993   3.576   3.459  0.0005  0.1931  0.5445
 4970SOL    HW126369   2.016   3.580   3.552 -1.1011  1.3809  0.7663
 4970SOL    HW226370   1.995   3.667   3.432 -0.8274  0.0211 -0.0845
 4971SOL     OW26371   3.666   2.402   7.240  0.1244 -0.4526  0.4089
 4971SOL    HW126372   3.727   2.446   7.299 -1.5054  1.2569  0.8409
 4971SOL    HW226373   3.643   2.471   7.177 -0.1536  0.2601  1.2783
 4972SOL     OW26374   4.599   3.606   9.684 -0.9177  0.4021 -0.2186
 4972SOL    HW126375   4.504   3.591   9.676 -0.7575  0.4052 -2.1146
 4972SOL    HW226376   4.607   3.601   9.779  0.4113  1.8469 -0.2563
 4973SOL     OW26377   4.384   3.773  10.273  0.5078 -0.6059  0.2444
 4973SOL    HW126378   4.378   3.738  10.362  1.0215  0.1463  0.5710
 4973SOL    HW226379   4.332   3.715  10.218 -2.1360  1.6535  0.3858
 4974SOL     OW26380   0.751   0.714   3.352  0.1084  0.2977 -0.6202
 4974SOL    HW126381   0.830   0.705   3.299  0.0731 -0.0340 -0.6151
 4974SOL    HW226382   0.676   0.670   3.312 -0.4258  1.5247 -0.9961
 4975SOL     OW26383   1.572   4.028  15.167 -0.2779  0.7434  0.5951
 4975SOL    HW126384   1.570   4.108  15.115 -2.9197  0.1533 -0.2488
 4975SOL    HW226385   1.651   4.050  15.215  0.6433 -1.1441 -0.0558
 4976SOL     OW26386   3.736   2.681   1.450 -0.1745  0.0466  0.5620
 4976SOL    HW126387   3.827   2.676   1.480 -0.3443 -0.3153  1.0128
 4976SOL    HW226388   3.748   2.737   1.373 -0.3452 -0.4244  0.1949
 4977SOL     OW26389   2.706   2.313   6.016 -0.0251  0.1249  0.4347
 4977SOL    HW126390   2.750   2.232   5.990 -0.4234 -0.4653  1.6459
 4977SOL    HW226391   2.658   2.288   6.095  0.4521 -1.0204  0.3572
 4978SOL     OW26392   0.481   4.570  15.770 -0.3510  0.3350 -0.1051
 4978SOL    HW126393   0.550   4.624  15.732  1.5306  0.0621  2.8931
 4978SOL    HW226394   0.505   4.486  15.731  0.2160 -0.2472  1.5024
 4979SOL     OW26395   0.060   4.452   0.269 -0.0242 -0.2176  0.0369
 4979SOL    HW126396   0.077   4.517   0.338 -1.4303  2.2637 -1.9333
 4979SOL    HW226397   0.089   4.373   0.314 -4.3867 -0.4899  2.3240
 4980SOL     OW26398   0.582   0.524   4.628 -0.2139  0.4083 -0.0101
 4980SOL    HW126399   0.650   0.546   4.692  0.0465 -0.2356 -0.0707
 4980SOL    HW226400   0.615   0.554   4.544 -0.3228  1.7482  0.4129
 4981SOL     OW26401   1.967   1.890   5.827 -0.6860  0.2540 -0.3506
 4981SOL    HW126402   1.990   1.797   5.817  0.5644  0.4954  0.2677
 4981SOL    HW226403   2.053   1.927   5.848 -0.8484 -0.5262  1.7073
 4982SOL     OW26404   3.750   1.922   2.560  0.6132  0.5413  0.1656
 4982SOL    HW126405   3.784   2.011   2.573 -1.7535  1.5859 -0.9281
 4982SOL    HW226406   3.729   1.924   2.467  3.4289  3.0670 -0.4606
 4983SOL     OW26407   3.694   1.141   6.279 -0.3282  0.6731  0.4086
 4983SOL    HW126408   3.742   1.145   6.197  2.1297  2.1987  1.9222
 4983SOL    HW226409   3.610   1.096   6.268 -1.4962  3.2510 -1.0710
 4984SOL     OW26410   4.063   1.209   3.697 -0.3138 -0.8383  0.0900
 4984SOL    HW126411   4.018   1.223   3.781 -1.3122 -1.5219 -0.3389
 4984SOL    HW226412   4.111   1.135   3.734  1.6783 -0.2085 -1.2170
 4985SOL     OW26413   3.627   1.987   0.656 -0.5704  0.4722 -0.4077
 4985SOL    HW126414   3.644   1.950   0.742 -2.4623  1.5057  0.4246
 4985SOL    HW226415   3.596   1.914   0.602 -1.9642 -1.3544  2.8713
 4986SOL     OW26416   0.709   3.190   5.153  0.4680  0.3689  0.0872
 4986SOL    HW126417   0.721   3.098   5.177 -1.3778  0.4277  1.2515
 4986SOL    HW226418   0.616   3.189   5.129  0.1057  0.4131  1.4594
 4987SOL     OW26419   3.522   2.218   8.031 -0.4214 -0.5267 -0.2143
 4987SOL    HW126420   3.460   2.249   8.097 -2.0905 -4.1406 -0.0629
 4987SOL    HW226421   3.541   2.129   8.060  1.7891 -0.2571 -0.7762
 4988SOL     OW26422   0.639   1.386   9.297  0.3886  0.0846  0.1119
 4988SOL    HW126423   0.631   1.417   9.388  0.6963 -1.3043  0.6040
 4988SOL    HW226424   0.669   1.296   9.301 -0.5875 -0.2699 -0.5155
 4989SOL     OW26425   0.600   4.223   8.828 -0.2097  0.1449  0.1054
 4989SOL    HW126426   0.657   4.298   8.814  0.2308 -0.2462 -0.2234
 4989SOL    HW226427   0.551   4.218   8.746  1.9144 -1.3589 -1.0980
 4990SOL     OW26428   3.791   1.157   4.931 -0.0939  0.6202  0.1783
 4990SOL    HW126429   3.704   1.121   4.911 -1.2856  2.5931  1.8420
 4990SOL    HW226430   3.812   1.107   5.010 -0.5339 -1.0759 -0.7816
 4991SOL     OW26431   2.667   2.443   5.513  0.4830  0.1591 -0.5478
 4991SOL    HW126432   2.667   2.489   5.429 -2.6555  1.2240  0.0340
 4991SOL    HW226433   2.744   2.388   5.500  0.3715 -0.3431  0.9393
 4992SOL     OW26434   3.846   1.523  13.811 -0.1327 -0.2286  0.6715
 4992SOL    HW126435   3.801   1.548  13.892 -1.5360 -0.1198 -0.1494
 4992SOL    HW226436   3.783   1.454  13.790 -0.5431  0.2378  0.3939
 4993SOL     OW26437   1.528   1.883   7.677 -0.5215 -0.5019  0.0740
 4993SOL    HW126438   1.480   1.899   7.758  0.7853  2.0207  0.3410
 4993SOL    HW226439   1.594   1.817   7.697  1.5148  0.9742 -1.7778
 4994SOL     OW26440   2.825   0.468   5.488 -0.0786 -0.2464  0.0096
 4994SOL    HW126441   2.819   0.490   5.395  1.0208  2.0788  0.4824
 4994SOL    HW226442   2.913   0.430   5.479  0.6322  1.3510  0.0354
 4995SOL     OW26443   0.880   3.398   3.085  0.0344  0.5405 -0.0259
 4995SOL    HW126444   0.968   3.426   3.111  0.3021 -0.0480 -0.2951
 4995SOL    HW226445   0.859   3.336   3.156 -1.0834  1.6636  0.6295
 4996SOL     OW26446   4.634   2.223   7.862 -0.0184 -0.1961 -0.0388
 4996SOL    HW126447   4.657   2.131   7.875 -0.6121 -0.2275  0.7389
 4996SOL    HW226448   4.721   2.262   7.856 -0.4181  0.5683 -0.9478
 4997SOL     OW26449   2.593   0.598   5.696  0.1566  0.0362 -0.3406
 4997SOL    HW126450   2.571   0.600   5.603 -1.0737 -1.2621 -0.0787
 4997SOL    HW226451   2.689   0.599   5.699  0.1553  0.7526 -0.4509
 4998SOL     OW26452   1.409   2.706   3.000  0.1904  0.2349  0.0849
 4998SOL    HW126453   1.409   2.619   3.041 -1.6420  0.4774  0.6030
 4998SOL    HW226454   1.451   2.684   2.917 -0.5652 -0.5978 -0.0869
 4999SOL     OW26455   1.908   0.065   4.177  0.0432  0.6325  0.4135
 4999SOL    HW126456   1.983   0.106   4.220  1.0416 -2.5219  1.6704
 4999SOL    HW226457   1.859   0.033   4.254  1.5426 -0.5941  0.8580
 5000SOL     OW26458   3.471   4.127   4.170 -0.0329 -0.2404 -0.1475
 5000SOL    HW126459   3.378   4.118   4.147 -0.5490  1.2750  1.2650
 5000SOL    HW226460   3.504   4.050   4.125  0.3725  0.3394 -0.8419
 5001SOL     OW26461   4.124   0.988   5.105  0.4405 -0.2325  0.8939
 5001SOL    HW126462   4.214   1.004   5.077  0.1227  0.7474  0.4333
 5001SOL    HW226463   4.121   0.893   5.117 -2.6934 -0.3022 -0.4947
 5002SOL     OW26464   3.690   3.191  11.524 -0.3227  0.1078  0.4116
 5002SOL    HW126465   3.721   3.241  11.599  0.3248 -1.1798  1.0095
 5002SOL    HW226466   3.764   3.130  11.518 -0.8529 -0.6768  1.9446
 5003SOL     OW26467   0.896   1.235   6.173  0.4266  0.1672 -0.1213
 5003SOL    HW126468   0.846   1.252   6.252  0.4385 -2.7038  0.5251
 5003SOL    HW226469   0.972   1.183   6.201 -0.3176 -1.5049 -1.2234
 5004SOL     OW26470   4.323   0.028   4.576 -0.7169 -0.9034 -0.0722
 5004SOL    HW126471   4.277   0.112   4.569 -0.4317 -0.8718 -1.5850
 5004SOL    HW226472   4.270   4.716   4.646  0.6031 -1.4439  0.6300
 5005SOL     OW26473   1.376   1.544   6.290 -0.3249 -0.2016  0.5208
 5005SOL    HW126474   1.325   1.621   6.267 -3.5013 -1.6565  2.6743
 5005SOL    HW226475   1.396   1.517   6.200  0.9453 -1.8920  1.3092
 5006SOL     OW26476   2.214   2.605   5.735  0.1851  0.6204 -0.1483
 5006SOL    HW126477   2.183   2.690   5.765 -0.8308  0.9135 -1.9523
 5006SOL    HW226478   2.291   2.629   5.684  0.5182 -1.5817 -0.6953
 5007SOL     OW26479   3.078   2.558   2.628  0.1559  0.0873  0.1771
 5007SOL    HW126480   2.989   2.594   2.623 -0.4093 -1.2586  0.5838
 5007SOL    HW226481   3.071   2.517   2.714 -2.3706  0.9946  0.4164
 5008SOL     OW26482   1.797   2.582   3.284 -0.2187  0.1629  0.0434
 5008SOL    HW126483   1.708   2.616   3.289  0.1760  1.1024  0.6156
 5008SOL    HW226484   1.803   2.514   3.351 -1.4469  0.8522  0.8496
 5009SOL     OW26485   3.265   4.234  15.715  0.4574  0.3248 -0.1336
 5009SOL    HW126486   3.278   4.317  15.762 -2.3867 -0.8193  2.6474
 5009SOL    HW226487   3.177   4.256  15.685 -0.4181 -1.1346  1.4040
 5010SOL     OW26488   0.182   1.027   6.296 -0.5560 -0.0139  0.3048
 5010SOL    HW126489   0.133   1.016   6.214 -1.9097  2.0561  0.8172
 5010SOL    HW226490   0.255   1.073   6.256 -0.4286  0.5377  1.1745
 5011SOL     OW26491   1.979   2.552  17.161 -0.0039 -0.4538  0.0971
 5011SOL    HW126492   1.998   2.514  17.076 -0.2260 -0.3308 -0.0075
 5011SOL    HW226493   1.986   2.646  17.145 -0.4567 -0.3016  0.7860
 5012SOL     OW26494   0.980   1.803   7.906  0.5393  0.1983 -0.3283
 5012SOL    HW126495   0.888   1.806   7.879  0.3021 -0.6006  0.3611
 5012SOL    HW226496   1.015   1.839   7.825  1.4290 -0.7523 -0.3777
 5013SOL     OW26497   2.152   2.347   6.942 -0.1118  0.4537 -0.2120
 5013SOL    HW126498   2.185   2.401   7.014  3.1119 -0.7857 -0.7449
 5013SOL    HW226499   2.074   2.318   6.988  0.0201 -2.6236 -1.9191
 5014SOL     OW26500   2.449   4.499   4.259  0.1648  0.4726 -0.3449
 5014SOL    HW126501   2.382   4.513   4.326  0.5612  1.1396 -0.0963
 5014SOL    HW226502   2.439   4.406   4.237  1.9190  0.4012 -0.8680
 5015SOL     OW26503   1.039   0.956  11.841 -0.4165 -0.6051  0.2116
 5015SOL    HW126504   1.106   0.936  11.906  2.1887  0.2497 -2.2030
 5015SOL    HW226505   1.042   1.045  11.805 -0.3145  1.1158  4.4520
 5016SOL     OW26506   3.837   0.474   5.956  0.1108  0.4445 -0.1492
 5016SOL    HW126507   3.769   0.473   5.889 -1.1580 -2.9563  1.1883
 5016SOL    HW226508   3.824   0.545   6.019  2.7111  0.1236  0.7332
 5017SOL     OW26509   1.758   4.433   4.754  0.6401  0.0204 -0.2078
 5017SOL    HW126510   1.841   4.387   4.767  1.4941  1.7312  0.4028
 5017SOL    HW226511   1.770   4.503   4.817 -3.2391  0.1682  0.3391
 5018SOL     OW26512   2.957   2.523   7.893 -0.4223  0.0623 -0.1324
 5018SOL    HW126513   2.867   2.538   7.923 -0.6997 -3.0381  0.6092
 5018SOL    HW226514   2.993   2.598   7.939 -2.2354  0.4132  0.7162
 5019SOL     OW26515   3.012   2.288  16.731 -0.4258 -0.5694 -0.5421
 5019SOL    HW126516   3.007   2.217  16.795 -1.2796 -0.6825 -0.7389
 5019SOL    HW226517   2.929   2.279  16.684  0.0181  0.7269 -1.5809
 5020SOL     OW26518   4.704   4.678   9.764  0.2234 -0.6300 -0.3104
 5020SOL    HW126519   4.704   0.048   9.754 -1.4147 -0.2058  3.3555
 5020SOL    HW226520   0.023   4.680   9.849 -3.4038 -0.0044  1.5804
 5021SOL     OW26521   0.542   2.430   5.620  0.0872 -0.0708  0.1868
 5021SOL    HW126522   0.614   2.402   5.677  0.4479 -2.5340 -1.4684
 5021SOL    HW226523   0.481   2.469   5.683 -1.4826 -1.4336 -0.4602
 5022SOL     OW26524   4.100   1.079   5.502  0.3465 -0.8448 -0.2229
 5022SOL    HW126525   4.161   1.131   5.449  1.4741 -2.3147 -0.3691
 5022SOL    HW226526   4.149   1.071   5.584  1.3965  0.6880 -0.7021
 5023SOL     OW26527   4.551   2.137  13.657 -0.3250 -0.1191 -0.1826
 5023SOL    HW126528   4.586   2.179  13.578  0.4364 -0.0719  0.1808
 5023SOL    HW226529   4.626   2.141  13.717 -0.8562  0.0349  0.4626
 5024SOL     OW26530   2.577   2.320   6.975  0.1896  0.0351 -0.0544
 5024SOL    HW126531   2.627   2.371   7.039  0.9223 -0.2983 -0.3583
 5024SOL    HW226532   2.500   2.292   7.025 -0.4132  2.3940  0.3388
 5025SOL     OW26533   4.596   3.580   2.234 -0.3294 -0.2028  0.7881
 5025SOL    HW126534   4.576   3.487   2.232 -0.3562 -0.2024  1.0225
 5025SOL    HW226535   4.674   3.589   2.289  1.0993 -1.9972 -0.9913
 5026SOL     OW26536   1.647   2.697   7.227  0.4585 -0.5192  0.4521
 5026SOL    HW126537   1.717   2.652   7.180  1.3145  1.7760 -0.5040
 5026SOL    HW226538   1.646   2.780   7.178 -0.3903 -0.8478 -0.1056
 5027SOL     OW26539   3.349   2.008  13.490  0.4441 -0.0607 -0.2730
 5027SOL    HW126540   3.403   1.929  13.489 -1.3919 -1.3128 -0.9217
 5027SOL    HW226541   3.347   2.022  13.395  1.5216 -0.4847 -0.3576
 5028SOL     OW26542   1.479   1.821   0.044 -0.0414  0.6352  0.3888
 5028SOL    HW126543   1.533   1.880  17.693 -0.4556  0.3959 -0.2987
 5028SOL    HW226544   1.485   1.738  17.699 -1.7219  0.8151 -0.1461
 5029SOL     OW26545   1.873   1.132   8.265 -0.1117 -0.0396 -0.2496
 5029SOL    HW126546   1.815   1.134   8.189 -0.0822  1.2818 -0.2333
 5029SOL    HW226547   1.844   1.214   8.306 -0.3464 -0.8512  1.2145
 5030SOL     OW26548   1.337   3.429   1.051  0.1611  0.0636 -0.3540
 5030SOL    HW126549   1.388   3.493   1.102 -0.4422  1.1452 -1.1026
 5030SOL    HW226550   1.268   3.412   1.115 -0.0446 -0.3368 -0.6825
 5031SOL     OW26551   3.397   1.447  13.334 -0.2132  0.5792  0.1250
 5031SOL    HW126552   3.360   1.531  13.308  1.6011  0.9382 -1.3441
 5031SOL    HW226553   3.456   1.437  13.259  1.8787  0.1245  1.8109
 5032SOL     OW26554   0.597   0.866   6.287 -0.3336 -0.1444  0.0906
 5032SOL    HW126555   0.563   0.933   6.227 -0.0068  0.6777  0.8199
 5032SOL    HW226556   0.630   0.918   6.360  0.0481 -0.9748  0.5037
 5033SOL     OW26557   4.228   4.329   4.432 -0.0550  0.1752 -0.2064
 5033SOL    HW126558   4.167   4.270   4.387 -1.4706 -0.0566  2.0212
 5033SOL    HW226559   4.262   4.263   4.492 -0.0539  0.1805 -0.2012
 5034SOL     OW26560   3.570   4.597  15.410 -0.3150 -0.2144  0.3917
 5034SOL    HW126561   3.617   4.552  15.340  0.3570  0.3610  0.4690
 5034SOL    HW226562   3.580   4.532  15.479 -0.6718 -2.4423 -1.6903
 5035SOL     OW26563   0.038   2.371   4.222 -0.4534 -0.8448 -0.2335
 5035SOL    HW126564   0.017   2.278   4.215 -0.1922 -0.8137 -1.4164
 5035SOL    HW226565   0.131   2.364   4.198  0.0961  1.9203  1.0693
 5036SOL     OW26566   4.485   0.251   7.561 -0.3590  0.2282 -0.5567
 5036SOL    HW126567   4.498   0.211   7.647 -0.0427  0.7746 -0.3521
 5036SOL    HW226568   4.535   0.193   7.503  2.2837  2.2075 -0.2387
 5037SOL     OW26569   2.433   2.263   1.696 -0.6494  0.2272 -0.5861
 5037SOL    HW126570   2.462   2.274   1.605  1.6544  3.2008  0.5088
 5037SOL    HW226571   2.444   2.342   1.748  1.0174  0.1521 -0.8237
 5038SOL     OW26572   2.929   2.287  14.784  0.3991 -0.3335  0.2613
 5038SOL    HW126573   2.934   2.378  14.756  0.1180 -0.1518  0.8095
 5038SOL    HW226574   2.905   2.308  14.874 -2.4125 -1.1091 -0.3150
 5039SOL     OW26575   2.371   3.405  11.187  0.1799  0.0909 -0.7740
 5039SOL    HW126576   2.340   3.375  11.101  0.4819  0.7730 -1.1176
 5039SOL    HW226577   2.390   3.322  11.231  0.0190 -0.4465 -1.7151
 5040SOL     OW26578   1.640   2.146  11.656  0.6575 -0.2230  0.3021
 5040SOL    HW126579   1.706   2.148  11.725  1.6137  0.0569 -0.6210
 5040SOL    HW226580   1.663   2.064  11.613  1.6204 -0.7695  1.8494
 5041SOL     OW26581   0.476   0.424   5.386  0.2785 -0.3615  0.1143
 5041SOL    HW126582   0.531   0.347   5.400  0.3607 -0.0731  1.4112
 5041SOL    HW226583   0.518   0.487   5.444  2.6552 -3.1742  1.4345
 5042SOL     OW26584   2.146   0.849   6.476  0.0324 -0.3237  0.4883
 5042SOL    HW126585   2.234   0.880   6.451  0.3616 -0.3527  1.6059
 5042SOL    HW226586   2.099   0.895   6.406 -1.9499 -0.5789  1.6744
 5043SOL     OW26587   4.437   3.926   8.031  0.3574  0.4973 -0.0405
 5043SOL    HW126588   4.487   3.849   8.057 -3.1430 -1.9104 -0.3755
 5043SOL    HW226589   4.350   3.899   8.001 -0.3871  1.3356  1.3720
 5044SOL     OW26590   2.139   1.296   8.373  0.2377 -1.1283  0.4184
 5044SOL    HW126591   2.135   1.308   8.468  0.5884  1.6302  0.1036
 5044SOL    HW226592   2.171   1.206   8.364  1.1709 -0.6671 -0.9158
 5045SOL     OW26593   1.344   2.533   5.143 -0.7103 -0.0365  0.0445
 5045SOL    HW126594   1.359   2.440   5.159 -0.4266  0.2783  1.6020
 5045SOL    HW226595   1.321   2.562   5.231  0.2694  0.7469  0.0488
 5046SOL     OW26596   3.371   0.925   3.941  0.0986  0.5931 -0.2843
 5046SOL    HW126597   3.338   0.959   3.858  0.3383 -0.4375 -0.8031
 5046SOL    HW226598   3.440   0.987   3.966 -1.1627  1.9812 -0.3175
 5047SOL     OW26599   0.407   1.462  12.466  0.7148  0.4508 -0.3114
 5047SOL    HW126600   0.468   1.390  12.453  0.1598 -0.0288 -0.2684
 5047SOL    HW226601   0.447   1.508  12.540  0.5124 -0.8770  0.6306
 5048SOL     OW26602   0.107   0.366  12.115 -0.0533  0.0764 -0.5115
 5048SOL    HW126603   0.176   0.364  12.181 -1.0519 -2.4099  0.4344
 5048SOL    HW226604   0.042   0.423  12.156  0.6591 -0.0361  0.7697
 5049SOL     OW26605   1.919   1.664   4.411  0.2946  0.5444  0.1282
 5049SOL    HW126606   1.989   1.711   4.365  0.4053 -0.4422 -0.7046
 5049SOL    HW226607   1.877   1.737   4.457 -1.6215  0.9780 -2.3174
 5050SOL     OW26608   1.620   2.939   7.110  0.8728 -0.3702  0.0105
 5050SOL    HW126609   1.644   2.963   7.020 -0.2043 -0.4790 -0.3033
 5050SOL    HW226610   1.560   3.013   7.121  1.0361 -0.2368 -0.0014
 5051SOL     OW26611   1.335   3.720   3.317  0.6144  0.2216  0.4153
 5051SOL    HW126612   1.430   3.717   3.314  0.6227  1.5404 -0.5923
 5051SOL    HW226613   1.325   3.722   3.413  0.2610 -0.7298  0.3947
 5052SOL     OW26614   3.562   3.722  16.530  0.6633 -0.0302 -0.2118
 5052SOL    HW126615   3.622   3.731  16.604 -1.2455  0.2392  1.2992
 5052SOL    HW226616   3.553   3.626  16.530 -3.4954  0.3457 -0.0368
 5053SOL     OW26617   4.618   2.323   6.406  0.7567 -0.1128  0.3448
 5053SOL    HW126618   4.684   2.290   6.345 -0.5618 -0.7582 -0.7401
 5053SOL    HW226619   4.660   2.407   6.424  0.6782 -0.5041  2.3211
 5054SOL     OW26620   2.715   2.194   3.421 -0.1926  0.0486  0.0198
 5054SOL    HW126621   2.685   2.284   3.432  0.6739 -0.0341  3.0970
 5054SOL    HW226622   2.661   2.145   3.483  0.0465  0.8184  0.8382
 5055SOL     OW26623   2.592   2.170   6.728  0.0319  0.3233 -0.2596
 5055SOL    HW126624   2.668   2.152   6.784 -1.2183  1.4024  1.7674
 5055SOL    HW226625   2.542   2.230   6.783 -0.0706 -0.6474  0.7016
 5056SOL     OW26626   1.173   4.616  11.947 -0.0597 -0.3689 -0.4195
 5056SOL    HW126627   1.086   4.603  11.984  0.1067  0.6825  0.3451
 5056SOL    HW226628   1.147   4.610  11.855 -0.8012  0.5594 -0.2777
 5057SOL     OW26629   3.491   3.922   7.703 -0.2073  0.2768 -0.3435
 5057SOL    HW126630   3.413   3.867   7.694  0.3876 -0.9292  1.9073
 5057SOL    HW226631   3.500   3.926   7.798  0.1177  0.3067 -0.3780
 5058SOL     OW26632   2.641   0.582   6.530 -0.1226  0.2908 -0.2590
 5058SOL    HW126633   2.639   0.517   6.459 -0.6107 -0.0413  0.0592
 5058SOL    HW226634   2.697   0.538   6.594 -0.2150  1.7103  0.7708
 5059SOL     OW26635   0.233   2.950  10.992 -0.4387  0.5724  0.2015
 5059SOL    HW126636   0.178   2.945  11.070  0.2040  1.4897  0.7202
 5059SOL    HW226637   0.168   2.961  10.922 -0.0067 -0.3712 -0.3505
 5060SOL     OW26638   2.640   4.103   8.030 -0.2775  0.4104 -0.9273
 5060SOL    HW126639   2.703   4.118   7.959  1.0382 -0.7451 -0.0010
 5060SOL    HW226640   2.593   4.027   7.995  2.2009 -1.4960 -0.0711
 5061SOL     OW26641   4.179   4.092   8.512 -0.2804  0.6258 -0.4401
 5061SOL    HW126642   4.257   4.146   8.523 -1.2810  1.8482  0.6935
 5061SOL    HW226643   4.119   4.164   8.496  0.0144  0.3308 -2.8768
 5062SOL     OW26644   4.584   2.670   1.565  0.1780  0.2244 -0.1319
 5062SOL    HW126645   4.552   2.698   1.650  1.6062 -0.6717  0.6874
 5062SOL    HW226646   4.619   2.755   1.537  0.2472  0.0527 -0.5736
 5063SOL     OW26647   4.092   4.550   3.538  0.7146  0.4880 -0.0294
 5063SOL    HW126648   4.069   4.600   3.459  1.4538 -0.6469 -0.9568
 5063SOL    HW226649   4.006   4.532   3.576  1.6086  0.9036  2.2135
 5064SOL     OW26650   3.839   0.261   1.823 -0.0973  0.2081  0.4095
 5064SOL    HW126651   3.828   0.308   1.905 -1.8462 -1.5683  1.2043
 5064SOL    HW226652   3.828   0.340   1.769 -0.8275 -0.0520  0.1793
 5065SOL     OW26653   1.572   2.831   1.653  0.3859 -0.3551  0.8884
 5065SOL    HW126654   1.593   2.798   1.566  1.3360  2.0334  0.2168
 5065SOL    HW226655   1.612   2.768   1.713  1.3351  1.6890  2.4014
 5066SOL     OW26656   0.309   2.632   7.343  0.6875  0.4353 -0.1797
 5066SOL    HW126657   0.267   2.707   7.385  1.0156  0.9784 -0.8124
 5066SOL    HW226658   0.255   2.565   7.385  0.9794 -0.7838 -1.7450
 5067SOL     OW26659   4.149   1.413   6.609 -0.3226 -0.3431 -0.7197
 5067SOL    HW126660   4.071   1.427   6.662 -1.0542 -0.7497 -1.6969
 5067SOL    HW226661   4.205   1.478   6.653 -0.2262 -0.1720 -1.0979
 5068SOL     OW26662   1.056   4.168   6.112  0.4063  0.1002  0.2917
 5068SOL    HW126663   1.136   4.201   6.070  0.3596 -2.3754 -1.7054
 5068SOL    HW226664   0.996   4.235   6.079  0.3677 -0.1873 -0.2186
 5069SOL     OW26665   4.712   3.244   1.711 -0.1218 -0.2059  0.3002
 5069SOL    HW126666   4.658   3.273   1.785  0.2546  2.5240 -0.5135
 5069SOL    HW226667   4.650   3.178   1.680 -0.1903  1.2011 -2.5474
 5070SOL     OW26668   0.979   4.412   1.592 -0.5619  0.2294 -0.2640
 5070SOL    HW126669   0.911   4.398   1.526 -0.9682 -0.1345  0.2375
 5070SOL    HW226670   0.940   4.484   1.643 -2.5288 -0.5069 -0.7237
 5071SOL     OW26671   1.801   0.967   8.466  0.2936  0.3399  0.0210
 5071SOL    HW126672   1.826   0.883   8.428 -0.7326  0.9700 -2.0257
 5071SOL    HW226673   1.846   1.029   8.410 -2.5035  1.0499 -1.4445
 5072SOL     OW26674   3.028   3.533   8.016  0.1501  0.7707 -0.4487
 5072SOL    HW126675   3.020   3.543   8.111 -1.2391  0.5131 -0.5418
 5072SOL    HW226676   3.065   3.445   8.022  0.4969  1.0271  1.0723
 5073SOL     OW26677   4.118   3.960   1.388 -0.3238  0.3416 -0.5721
 5073SOL    HW126678   4.184   4.028   1.396 -1.9321  1.7312  0.9668
 5073SOL    HW226679   4.173   3.895   1.344 -1.1182 -0.0910 -0.9281
 5074SOL     OW26680   2.953   2.620   1.924  0.1419  0.0032  0.0236
 5074SOL    HW126681   2.888   2.572   1.874 -0.1583 -0.3065  0.7101
 5074SOL    HW226682   2.976   2.554   1.990  0.5254  1.5833  1.4621
 5075SOL     OW26683   1.716   2.360   3.460  0.1931  0.1824 -0.1510
 5075SOL    HW126684   1.720   2.326   3.371 -1.3117 -1.4323  0.3888
 5075SOL    HW226685   1.624   2.343   3.478  0.5027  0.6702  1.9429
 5076SOL     OW26686   0.192   2.966   5.392  0.1551  0.5293  0.1818
 5076SOL    HW126687   0.257   2.912   5.437 -0.6978  0.4638  1.3276
 5076SOL    HW226688   0.141   2.996   5.466  0.5686 -0.5437  0.9055
 5077SOL     OW26689   0.422   4.207   9.469  0.4911  0.2944  0.2619
 5077SOL    HW126690   0.333   4.204   9.435  1.1684  1.1332 -1.6415
 5077SOL    HW226691   0.455   4.290   9.433  1.5406 -0.8478 -1.4163
 5078SOL     OW26692   1.451   2.081   2.846 -0.6234 -0.1550  0.1032
 5078SOL    HW126693   1.529   2.101   2.794 -0.3561 -0.7023  0.2886
 5078SOL    HW226694   1.447   2.168   2.885 -1.3328 -0.6486  1.1354
 5079SOL     OW26695   3.251   1.292   4.938  0.2932 -0.0626 -0.2659
 5079SOL    HW126696   3.197   1.344   4.997  0.5433 -0.7116  0.5350
 5079SOL    HW226697   3.284   1.365   4.886  2.7716 -0.9387  0.1006
 5080SOL     OW26698   1.568   0.734   3.180  0.2351  0.1171 -0.3270
 5080SOL    HW126699   1.530   0.807   3.229  1.0961  0.2085  0.2122
 5080SOL    HW226700   1.644   0.776   3.140  1.4298 -2.9548 -1.3068
 5081SOL     OW26701   1.548   0.469   8.276  0.4374  0.3086  0.4262
 5081SOL    HW126702   1.640   0.462   8.299  0.5873 -1.3025 -0.6524
 5081SOL    HW226703   1.559   0.498   8.185 -2.8434  3.3888  0.9970
 5082SOL     OW26704   4.502   2.388   4.769  0.0429  0.2119 -0.2924
 5082SOL    HW126705   4.499   2.325   4.841 -0.7104  0.5842  0.0134
 5082SOL    HW226706   4.536   2.461   4.821  0.3519 -0.0729 -0.0980
 5083SOL     OW26707   1.836   0.430   3.320 -0.5160  0.1435 -0.5536
 5083SOL    HW126708   1.906   0.464   3.264 -1.8156  2.0209 -1.0029
 5083SOL    HW226709   1.819   0.351   3.268  0.4300 -0.3487 -0.1168
 5084SOL     OW26710   1.249   4.399  16.720  0.7385 -0.9221  0.5270
 5084SOL    HW126711   1.162   4.372  16.751  1.1288 -0.1190  2.3485
 5084SOL    HW226712   1.299   4.413  16.800  1.1461  1.1100 -0.0782
 5085SOL     OW26713   1.193   0.767  14.523  0.3908 -0.6382 -0.2030
 5085SOL    HW126714   1.200   0.852  14.565 -0.4764  1.8257 -5.1063
 5085SOL    HW226715   1.277   0.724  14.541 -1.2786 -4.1966 -0.8031
 5086SOL     OW26716   3.402   4.444   7.866 -0.4456  0.1788  0.4055
 5086SOL    HW126717   3.466   4.377   7.891 -0.1480  0.0834 -0.6118
 5086SOL    HW226718   3.320   4.396   7.856 -0.2978  0.1961 -0.8740
 5087SOL     OW26719   1.570   0.063   7.784  0.6101  0.0602 -0.1522
 5087SOL    HW126720   1.580   0.095   7.694 -0.9495  0.1935 -0.2843
 5087SOL    HW226721   1.610   0.135   7.832 -1.1446  1.4590 -0.7903
 5088SOL     OW26722   2.462   2.878   7.028 -0.2079  0.2037 -0.6200
 5088SOL    HW126723   2.441   2.795   7.070 -2.3170  0.8909 -0.3056
 5088SOL    HW226724   2.467   2.848   6.937  2.7203  0.0674 -0.4152
 5089SOL     OW26725   0.718   1.741   9.542 -0.0174  0.7190 -0.4456
 5089SOL    HW126726   0.650   1.723   9.607  1.9658 -0.4705  1.2884
 5089SOL    HW226727   0.790   1.768   9.598 -0.2458 -0.8518  0.6115
 5090SOL     OW26728   3.898   2.467  16.351  0.0386 -0.4063 -0.0359
 5090SOL    HW126729   3.904   2.387  16.404  2.3428  1.0732  1.9415
 5090SOL    HW226730   3.981   2.503  16.380 -0.0173  0.6961 -1.2709
 5091SOL     OW26731   1.670   0.280   7.925  0.2107  0.3984 -0.5028
 5091SOL    HW126732   1.585   0.324   7.933  0.8855  1.7321 -0.6545
 5091SOL    HW226733   1.725   0.356   7.943 -1.0346  1.6029 -1.7382
 5092SOL     OW26734   4.552   3.507  10.963 -0.6561 -0.2746 -0.3293
 5092SOL    HW126735   4.583   3.479  11.049 -0.2918  0.8884 -0.0790
 5092SOL    HW226736   4.615   3.577  10.947 -0.8691 -0.0456 -0.1719
 5093SOL     OW26737   4.553   4.694   0.772 -0.7452 -0.3220  0.0479
 5093SOL    HW126738   4.481   4.683   0.708 -0.3934  0.3516 -0.4645
 5093SOL    HW226739   4.603   4.612   0.770  0.4043  0.3836  0.0985
 5094SOL     OW26740   2.977   3.475   7.041  0.7323  0.7934 -0.0133
 5094SOL    HW126741   3.060   3.434   7.064  0.3407  0.5907  1.0591
 5094SOL    HW226742   2.914   3.406   7.064  0.8899  0.5039 -0.4549
 5095SOL     OW26743   3.216   2.680   4.875  0.2662 -0.3813 -0.2086
 5095SOL    HW126744   3.127   2.683   4.911  0.1234 -1.1514 -0.4969
 5095SOL    HW226745   3.225   2.740   4.801  2.6951 -0.4364  0.0489
 5096SOL     OW26746   3.270   2.580   7.935 -0.3041 -0.1617  0.0036
 5096SOL    HW126747   3.358   2.617   7.946  0.3561 -1.1079 -2.0147
 5096SOL    HW226748   3.287   2.486   7.934 -3.6852 -0.7807  1.2817
 5097SOL     OW26749   1.167   2.746  12.778 -0.5142 -0.1180 -0.1145
 5097SOL    HW126750   1.186   2.755  12.871 -0.0425 -0.1633 -0.2072
 5097SOL    HW226751   1.123   2.661  12.777 -0.3826 -0.1694 -1.1838
 5098SOL     OW26752   1.756   4.226  12.414  0.0383  0.7418  0.4835
 5098SOL    HW126753   1.783   4.317  12.406  0.4460  0.4957 -1.0968
 5098SOL    HW226754   1.688   4.224  12.481  1.0600  0.0778  1.4908
 5099SOL     OW26755   4.369   4.298   8.486 -0.4119  0.7105  0.1562
 5099SOL    HW126756   4.380   4.393   8.487 -1.9027  0.8735  0.1026
 5099SOL    HW226757   4.410   4.277   8.402 -4.5778  0.5020 -1.8097
 5100SOL     OW26758   1.473   3.678   7.613 -0.2968  0.0511  0.0749
 5100SOL    HW126759   1.490   3.601   7.560  0.6843  1.9525 -2.3711
 5100SOL    HW226760   1.515   3.751   7.568  0.5219 -0.9838 -0.8467
 5101SOL     OW26761   1.676   1.856   2.797  0.0470  0.4844  0.0994
 5101SOL    HW126762   1.636   1.872   2.711 -0.7157 -1.6520  0.0640
 5101SOL    HW226763   1.643   1.931   2.847 -0.7150  0.3863 -0.2579
 5102SOL     OW26764   0.274   2.615  17.282  0.0447 -0.4305 -0.1370
 5102SOL    HW126765   0.195   2.616  17.227  0.7976  0.1382 -1.1946
 5102SOL    HW226766   0.339   2.600  17.214 -2.6554 -0.1163 -2.7487
 5103SOL     OW26767   3.888   1.234   3.489 -0.3356 -0.3216 -0.5597
 5103SOL    HW126768   3.828   1.248   3.562  1.3555  1.3101  0.5034
 5103SOL    HW226769   3.967   1.234   3.543  0.5855 -1.5395 -1.8994
 5104SOL     OW26770   1.885   1.276   5.305  0.0096 -0.1354 -0.2819
 5104SOL    HW126771   1.977   1.302   5.294  0.3816  0.2752  3.8652
 5104SOL    HW226772   1.892   1.215   5.378  1.8245 -0.6843 -0.9114
 5105SOL     OW26773   3.045   1.779  12.903 -0.5204  0.2422  0.3830
 5105SOL    HW126774   3.053   1.768  12.808  5.1818  1.8407  0.6785
 5105SOL    HW226775   2.963   1.828  12.915 -0.5782  0.1267  0.4570
 5106SOL     OW26776   0.034   3.156   2.928  0.3021  0.2526  0.1783
 5106SOL    HW126777   0.070   3.075   2.964  0.9154  1.0610  1.3798
 5106SOL    HW226778   0.002   3.126   2.842 -1.3469  0.7432  0.6257
 5107SOL     OW26779   4.093   1.673   1.931 -0.3526 -0.0263  0.7549
 5107SOL    HW126780   4.034   1.659   2.006  0.5815  0.1187  1.5214
 5107SOL    HW226781   4.042   1.734   1.878 -0.5008  0.9777  2.0564
 5108SOL     OW26782   0.239   4.636   4.210 -0.2693 -0.4250  0.2092
 5108SOL    HW126783   0.158   4.613   4.256 -0.0459  1.0568  1.3306
 5108SOL    HW226784   0.211   4.648   4.120  1.7898 -0.1329 -0.3784
 5109SOL     OW26785   3.274   3.102   8.542  0.1426  0.4271 -0.0528
 5109SOL    HW126786   3.343   3.127   8.604  0.0471 -0.2096  0.3108
 5109SOL    HW226787   3.200   3.111   8.602 -1.0594 -0.5245 -1.4206
 5110SOL     OW26788   1.109   4.628   4.351 -0.0091  0.3497  0.5542
 5110SOL    HW126789   1.199   4.651   4.376  0.7210 -1.2780 -0.6228
 5110SOL    HW226790   1.118   4.630   4.256 -0.0678  2.2927  0.5823
 5111SOL     OW26791   0.937   4.696  15.747  0.1425 -0.4109 -0.1185
 5111SOL    HW126792   0.943   0.066  15.749  0.8819 -0.5287  2.6161
 5111SOL    HW226793   0.978   4.680  15.662 -1.1775 -1.9142 -0.4800
 5112SOL     OW26794   1.005   4.060   7.295 -0.1808 -0.0493 -0.2140
 5112SOL    HW126795   1.022   3.968   7.273 -0.8470  0.3195 -2.2139
 5112SOL    HW226796   1.017   4.107   7.213  0.2760  1.5552  0.7757
 5113SOL     OW26797   2.060   0.552   5.306  0.1399 -0.0467 -0.6128
 5113SOL    HW126798   2.109   0.577   5.228 -1.0805  0.4716 -1.2229
 5113SOL    HW226799   2.011   0.475   5.277  1.2949 -1.4016  1.0913
 5114SOL     OW26800   4.549   3.370  14.773 -0.0179  0.3713  0.2624
 5114SOL    HW126801   4.559   3.420  14.854 -0.1231 -0.4151  0.7619
 5114SOL    HW226802   4.620   3.390  14.712  0.2009 -1.3004 -0.0299
 5115SOL     OW26803   2.886   0.746   9.285  0.1651  0.2429  0.4216
 5115SOL    HW126804   2.937   0.756   9.205 -0.5202  2.1334  0.2258
 5115SOL    HW226805   2.799   0.772   9.257  0.4608 -0.3263 -1.0335
 5116SOL     OW26806   3.411   4.053  11.680  0.4483  0.2672 -0.1954
 5116SOL    HW126807   3.350   4.123  11.657 -1.6277 -1.3646  0.3560
 5116SOL    HW226808   3.442   4.091  11.762  0.8958 -1.4176  0.4214
 5117SOL     OW26809   1.796   3.552   1.653  0.0457  0.2744 -0.2903
 5117SOL    HW126810   1.780   3.622   1.716  0.5873 -0.8948  1.1370
 5117SOL    HW226811   1.744   3.586   1.580 -1.2853 -1.2085 -0.0171
 5118SOL     OW26812   3.623   0.526   5.532  0.2772 -0.1083 -0.4099
 5118SOL    HW126813   3.684   0.575   5.587 -0.1572  0.5432 -0.5070
 5118SOL    HW226814   3.671   0.517   5.450  0.1246  0.3091 -0.5436
 5119SOL     OW26815   0.146   3.203   6.435 -0.4116 -0.0651 -0.3009
 5119SOL    HW126816   0.226   3.209   6.382  0.5849  1.6414  1.4212
 5119SOL    HW226817   0.093   3.133   6.396  0.7705 -1.2685  0.2258
 5120SOL     OW26818   2.786   2.080   9.253 -0.1290 -0.7600 -0.0986
 5120SOL    HW126819   2.780   2.044   9.165 -4.0531 -1.1960  0.3859
 5120SOL    HW226820   2.865   2.038   9.287  1.1619 -0.3691 -2.6146
 5121SOL     OW26821   2.320   2.070   3.956 -0.3733 -0.3533 -0.0738
 5121SOL    HW126822   2.241   2.018   3.974 -0.8223  0.3539  0.0065
 5121SOL    HW226823   2.345   2.077   4.048 -4.4158 -0.2924  1.0164
 5122SOL     OW26824   3.778   0.080   0.300  0.2372 -0.2122  0.0251
 5122SOL    HW126825   3.796   0.075   0.206  0.1286  0.7000 -0.0517
 5122SOL    HW226826   3.718   0.009   0.323 -0.3573 -0.6386 -2.9081
 5123SOL     OW26827   4.145   0.877   8.558  0.3442 -0.4592 -0.2019
 5123SOL    HW126828   4.205   0.928   8.504 -0.4637 -0.2222 -0.8643
 5123SOL    HW226829   4.208   0.839   8.619 -1.9413 -0.4213  2.1949
 5124SOL     OW26830   2.250   3.804   7.809  0.3437 -0.1824 -0.3050
 5124SOL    HW126831   2.201   3.855   7.874  2.0680 -0.0286  0.8588
 5124SOL    HW226832   2.331   3.783   7.855 -0.5942  1.1310  1.9687
 5125SOL     OW26833   3.994   3.556   2.945  0.3185  0.2199 -0.1541
 5125SOL    HW126834   3.982   3.461   2.947  0.2264  0.2335 -0.0432
 5125SOL    HW226835   4.028   3.582   3.031  0.3672 -1.0324  0.2039
 5126SOL     OW26836   4.485   0.341   6.690  0.0559 -0.0129 -0.3627
 5126SOL    HW126837   4.540   0.382   6.757  0.4695 -0.1019 -0.6456
 5126SOL    HW226838   4.514   0.396   6.617  2.8084  0.3553  1.0070
 5127SOL     OW26839   0.440   3.547  14.065  0.3149 -0.4365 -0.5451
 5127SOL    HW126840   0.513   3.546  14.127 -0.2027  1.4025  0.1012
 5127SOL    HW226841   0.364   3.562  14.121 -0.1873  1.6147 -1.7522
 5128SOL     OW26842   2.159   2.857   3.961  0.1433  0.1506 -0.4414
 5128SOL    HW126843   2.112   2.774   3.952 -0.7346  0.8835 -2.7329
 5128SOL    HW226844   2.245   2.821   3.941  1.5121  2.7667  0.7630
 5129SOL     OW26845   1.782   2.809   8.515  0.0533  0.0353 -0.1191
 5129SOL    HW126846   1.794   2.739   8.451 -3.3596 -0.5591 -0.1063
 5129SOL    HW226847   1.801   2.892   8.472 -1.7536  0.2303 -0.5351
 5130SOL     OW26848   0.310   3.107   6.706 -0.4345 -0.4455 -0.4793
 5130SOL    HW126849   0.280   3.066   6.625 -0.9454 -2.4195  0.7006
 5130SOL    HW226850   0.245   3.177   6.705  0.0189 -0.0725 -3.5155
 5131SOL     OW26851   0.171   1.921   7.346  0.0738 -0.2151  0.2249
 5131SOL    HW126852   0.250   1.950   7.301 -0.5820  1.8660  0.4471
 5131SOL    HW226853   0.129   2.006   7.357 -1.1727 -0.7733 -0.1679
 5132SOL     OW26854   0.348   0.209   8.551 -1.0440  0.1823 -0.3606
 5132SOL    HW126855   0.407   0.204   8.476 -0.8562 -1.8068 -0.0936
 5132SOL    HW226856   0.411   0.219   8.621 -0.4229 -2.9040 -0.4738
 5133SOL     OW26857   4.595   1.226   5.310  0.1792  0.6347 -0.2941
 5133SOL    HW126858   4.672   1.264   5.268  0.7979  0.7058  0.9000
 5133SOL    HW226859   4.565   1.305   5.356 -2.2069  0.5286 -1.6624
 5134SOL     OW26860   0.145   1.632   2.575 -0.6215 -0.1806 -0.0594
 5134SOL    HW126861   0.171   1.571   2.505  0.2523  1.0331 -0.7868
 5134SOL    HW226862   0.147   1.721   2.540  1.1948  0.5063  1.7258
 5135SOL     OW26863   2.100   3.662   4.212  0.2546  0.1060  0.1622
 5135SOL    HW126864   2.073   3.629   4.127 -0.1022 -0.6474  0.5635
 5135SOL    HW226865   2.164   3.729   4.191  0.2676 -0.5242 -1.7813
 5136SOL     OW26866   2.839   3.058   4.629  0.6183 -0.6265  0.5085
 5136SOL    HW126867   2.752   3.089   4.654  0.1997  0.4493 -2.2481
 5136SOL    HW226868   2.858   3.103   4.547  0.5651 -1.0252  0.2749
 5137SOL     OW26869   3.014   3.483   1.918  0.3059  0.0471  0.2397
 5137SOL    HW126870   3.094   3.474   1.969  1.3425  1.5915 -1.1028
 5137SOL    HW226871   2.975   3.559   1.961  0.6783 -0.7408  1.9593
 5138SOL     OW26872   2.834   3.229   7.815  0.7981  0.0499  0.0120
 5138SOL    HW126873   2.852   3.203   7.724 -0.7865  0.3123 -0.3688
 5138SOL    HW226874   2.892   3.168   7.859  0.0473 -0.4741  0.2716
 5139SOL     OW26875   1.927   2.947   0.253  0.2586 -0.3667 -0.1775
 5139SOL    HW126876   2.011   2.989   0.273 -1.7103  2.1338  2.8331
 5139SOL    HW226877   1.922   2.967   0.159  0.5704  1.0781  0.1156
 5140SOL     OW26878   3.817   0.284   1.016 -0.0041 -0.3430 -0.1475
 5140SOL    HW126879   3.757   0.357   1.031 -0.5405 -0.3888 -2.0568
 5140SOL    HW226880   3.810   0.238   1.100 -1.4759  1.0435  0.5015
 5141SOL     OW26881   0.616   0.484  16.162 -0.3917 -0.2682 -0.4962
 5141SOL    HW126882   0.558   0.561  16.168 -2.2145 -1.6490 -0.3316
 5141SOL    HW226883   0.609   0.438  16.245 -0.4658 -0.1941 -0.4610
 5142SOL     OW26884   2.010   2.027  17.105  0.1792  0.0666 -0.3257
 5142SOL    HW126885   2.036   1.997  17.192  0.9161  2.4995  0.2891
 5142SOL    HW226886   2.051   2.113  17.093  0.1195 -0.1601 -2.1953
 5143SOL     OW26887   2.889   1.967  10.587  0.1430 -0.2649  0.3799
 5143SOL    HW126888   2.812   1.923  10.622 -0.2035  1.3490  1.6755
 5143SOL    HW226889   2.919   1.902  10.523  1.4865  1.1255 -0.4292
 5144SOL     OW26890   0.532   2.218   5.994  0.0038 -0.8037 -1.1591
 5144SOL    HW126891   0.453   2.242   6.042  1.5044  0.5851  0.5936
 5144SOL    HW226892   0.526   2.297   5.939 -0.2742  0.6731  1.0041
 5145SOL     OW26893   1.542   0.679  14.859 -0.0784 -0.6204  0.3895
 5145SOL    HW126894   1.631   0.665  14.891 -0.6239 -1.4018  1.5509
 5145SOL    HW226895   1.516   0.753  14.915 -0.9684  0.3321 -1.2800
 5146SOL     OW26896   3.596   3.969   9.105  0.1734  0.5571  0.2074
 5146SOL    HW126897   3.628   3.885   9.139  0.2827  0.2931 -0.5461
 5146SOL    HW226898   3.678   4.012   9.081  1.5813 -0.9766  2.2670
 5147SOL     OW26899   1.294   2.613   7.814  0.0665  0.3904 -0.1634
 5147SOL    HW126900   1.247   2.693   7.839  1.4219  0.3307  2.5529
 5147SOL    HW226901   1.279   2.562   7.894  0.0671  0.8377  0.1267
 5148SOL     OW26902   2.420   2.453   1.197 -0.6630 -0.8766 -0.1761
 5148SOL    HW126903   2.470   2.412   1.127  0.8773 -0.6382  0.7869
 5148SOL    HW226904   2.488   2.486   1.257 -0.3334  1.0406 -1.5904
 5149SOL     OW26905   3.229   1.474  12.175  0.2139 -0.0158  0.0121
 5149SOL    HW126906   3.197   1.564  12.171 -0.1331 -0.0419  2.2621
 5149SOL    HW226907   3.216   1.456  12.268 -1.1957  0.7351 -0.0400
 5150SOL     OW26908   1.818   2.855  14.083  0.3159 -0.2936 -0.3521
 5150SOL    HW126909   1.914   2.851  14.088  0.1284 -1.2310  2.4710
 5150SOL    HW226910   1.803   2.917  14.011 -0.9020 -1.4044 -1.0476
 5151SOL     OW26911   0.628   3.316   3.470 -0.1634 -0.5518  0.1536
 5151SOL    HW126912   0.698   3.253   3.453  1.3618  1.0436  0.4432
 5151SOL    HW226913   0.670   3.371   3.537  0.6695 -0.1263 -0.7173
 5152SOL     OW26914   2.284   3.224  12.918  0.2177 -0.0739 -0.1969
 5152SOL    HW126915   2.272   3.290  12.849 -0.3847  1.3554  1.2674
 5152SOL    HW226916   2.198   3.184  12.920  0.6585 -1.0314 -0.5169
 5153SOL     OW26917   3.439   3.952   2.247  0.6192 -0.8216 -0.3559
 5153SOL    HW126918   3.399   3.919   2.328 -1.3312  0.7673 -0.6619
 5153SOL    HW226919   3.517   4.003   2.268  0.0086 -0.4660  1.0308
 5154SOL     OW26920   2.384   0.680   8.485 -0.0684  0.0722  0.6502
 5154SOL    HW126921   2.389   0.585   8.495 -3.6028 -0.1981 -0.0942
 5154SOL    HW226922   2.378   0.668   8.390  1.1401 -0.6996  0.6665
 5155SOL     OW26923   2.368   0.305   3.554 -0.1338  0.0792  0.6295
 5155SOL    HW126924   2.364   0.229   3.612  0.1874  0.3739  1.0375
 5155SOL    HW226925   2.426   0.360   3.606 -0.6279  0.0606  1.1980
 5156SOL     OW26926   2.900   1.618  15.134  0.0391 -0.1122 -0.1508
 5156SOL    HW126927   2.920   1.663  15.216 -0.4421 -1.5239  0.7425
 5156SOL    HW226928   2.893   1.526  15.161 -0.5805  0.7769  2.6846
 5157SOL     OW26929   2.354   1.621  15.638 -0.2207  0.1192  0.1107
 5157SOL    HW126930   2.270   1.659  15.611 -0.2794 -0.1695 -0.1097
 5157SOL    HW226931   2.409   1.687  15.594 -1.4429  1.6725  0.9291
 5158SOL     OW26932   4.202   4.699  10.403 -0.1579  0.5078 -0.0626
 5158SOL    HW126933   4.264   4.693  10.476  0.0424 -2.1515 -0.4563
 5158SOL    HW226934   4.267   4.689  10.334 -0.1890 -0.2742  0.0208
 5159SOL     OW26935   4.124   0.831  17.269 -0.0023  0.0486 -0.0469
 5159SOL    HW126936   4.092   0.867  17.186 -1.1727  0.1787  0.4610
 5159SOL    HW226937   4.045   0.784  17.295 -0.6946  1.3468  0.1971
 5160SOL     OW26938   2.041   1.206   2.187  0.2140  0.4915 -0.3313
 5160SOL    HW126939   2.059   1.138   2.251 -1.2351  1.1841  0.8069
 5160SOL    HW226940   1.967   1.169   2.138 -0.4279 -0.6890  1.5411
 5161SOL     OW26941   3.246   2.414   3.775  0.0535  0.3992  0.1696
 5161SOL    HW126942   3.291   2.463   3.706 -1.1141 -1.8079 -2.1708
 5161SOL    HW226943   3.255   2.467   3.854  0.9533 -2.4467  1.9815
 5162SOL     OW26944   2.554   2.005  11.923  0.0111 -0.0985 -0.0402
 5162SOL    HW126945   2.467   1.977  11.950  0.2719 -0.4636  0.4185
 5162SOL    HW226946   2.533   2.070  11.856  1.3229 -0.1157 -0.4675
 5163SOL     OW26947   0.758   3.348  10.283 -0.0103 -0.2148 -0.1462
 5163SOL    HW126948   0.847   3.367  10.251  0.6806 -0.2304  1.7419
 5163SOL    HW226949   0.758   3.390  10.369  0.6704  0.1428 -0.3150
 5164SOL     OW26950   0.324   1.382   6.147  0.6198 -0.1878 -0.2065
 5164SOL    HW126951   0.356   1.294   6.165  2.1751  0.4803  0.2944
 5164SOL    HW226952   0.394   1.410   6.088  0.4448  0.5397 -0.0647
 5165SOL     OW26953   2.707   1.050   4.359  0.7062  0.4270 -0.2686
 5165SOL    HW126954   2.789   1.029   4.315  0.4378 -0.3959 -0.3668
 5165SOL    HW226955   2.686   1.139   4.329 -0.6948  0.4285  0.7359
 5166SOL     OW26956   4.203   3.421   7.067  0.0882 -0.0258  0.3455
 5166SOL    HW126957   4.285   3.375   7.082 -0.2548 -0.9056 -0.4458
 5166SOL    HW226958   4.147   3.347   7.091  0.1215 -0.0361  0.3907
 5167SOL     OW26959   4.127   0.612   7.897  0.0032 -0.5798  0.0166
 5167SOL    HW126960   4.101   0.652   7.814  0.2899  0.5272  0.4607
 5167SOL    HW226961   4.165   0.684   7.948 -1.3673  0.7327 -0.8340
 5168SOL     OW26962   3.821   3.082  16.045  0.2684  0.3377 -0.1194
 5168SOL    HW126963   3.888   3.134  15.999  1.7822 -1.9168 -0.4715
 5168SOL    HW226964   3.874   3.022  16.096  0.6467  1.3357  0.6533
 5169SOL     OW26965   4.552   1.085   6.588 -0.0113  0.6083  0.7709
 5169SOL    HW126966   4.499   1.030   6.530  1.1240 -2.0114  2.2280
 5169SOL    HW226967   4.596   1.145   6.527 -0.8889  1.5980  1.1128
 5170SOL     OW26968   2.727   3.854   2.210  0.1854  0.4705 -0.0739
 5170SOL    HW126969   2.685   3.778   2.251  0.0381 -0.0084 -1.0940
 5170SOL    HW226970   2.809   3.815   2.180  0.0818  0.1530  0.0519
 5171SOL     OW26971   2.363   4.658   8.526  0.2269  0.4896 -0.0388
 5171SOL    HW126972   2.374   4.721   8.596 -5.0864  2.1784 -0.7313
 5171SOL    HW226973   2.275   4.672   8.492  0.1365 -1.4190 -0.6216
 5172SOL     OW26974   2.242   0.047   4.895  0.2172  0.6779  0.5522
 5172SOL    HW126975   2.211   4.686   4.867 -2.7235  1.9131 -0.0297
 5172SOL    HW226976   2.255   0.039   4.989 -2.4856 -0.9494  0.8038
 5173SOL     OW26977   1.923   3.373   6.234 -0.4777 -0.8798  0.3699
 5173SOL    HW126978   1.841   3.421   6.216  1.0035  1.6676  0.3982
 5173SOL    HW226979   1.981   3.448   6.220 -2.9228  0.8730 -0.4840
 5174SOL     OW26980   2.968   1.314   7.917  0.2431  0.3635  0.2492
 5174SOL    HW126981   2.903   1.380   7.940  0.2915 -0.1483  1.8886
 5174SOL    HW226982   2.977   1.330   7.823  0.8122 -2.2797 -0.1313
 5175SOL     OW26983   3.992   1.312   2.718 -0.1829  0.5971 -0.1604
 5175SOL    HW126984   3.947   1.363   2.651  1.9553  0.5563 -1.6345
 5175SOL    HW226985   3.953   1.355   2.794  0.9674  1.5558 -0.1155
 5176SOL     OW26986   2.929   0.625   6.808 -0.2618 -0.1411 -0.3437
 5176SOL    HW126987   2.976   0.590   6.883 -1.6495 -1.7363 -0.2014
 5176SOL    HW226988   2.853   0.567   6.814  0.9719 -1.6728  0.3444
 5177SOL     OW26989   3.860   2.220   5.977 -0.6682  0.1884 -1.0763
 5177SOL    HW126990   3.904   2.301   5.950  0.3623  0.0344  0.1119
 5177SOL    HW226991   3.933   2.158   5.973 -1.5029 -0.8104 -0.9128
 5178SOL     OW26992   4.656   3.704   4.265  0.3092  0.6374  0.0471
 5178SOL    HW126993   4.561   3.710   4.273  0.1847  1.0745 -1.7009
 5178SOL    HW226994   4.661   3.611   4.240 -0.2819  0.9888 -1.3843
 5179SOL     OW26995   0.531   2.329  17.284  0.1556  0.5188 -0.0375
 5179SOL    HW126996   0.512   2.307  17.375  1.9845 -0.4316  0.1116
 5179SOL    HW226997   0.622   2.358  17.290  0.7281 -1.6409  1.7748
 5180SOL     OW26998   4.479   2.986   3.509  0.4639 -0.0253  0.7776
 5180SOL    HW126999   4.413   2.993   3.440  2.0314 -0.4138 -0.7431
 5180SOL    HW227000   4.413   2.965   3.576 -0.9379  0.0011 -0.6067
 5181SOL     OW27001   1.427   0.190   2.421 -0.1894  0.2019  0.4782
 5181SOL    HW127002   1.405   0.152   2.336  0.8612  1.5167 -0.3784
 5181SOL    HW227003   1.346   0.237   2.436 -0.3805  0.1498 -0.3810
 5182SOL     OW27004   2.367   3.957   8.929  0.2371 -0.6532 -0.7978
 5182SOL    HW127005   2.355   4.017   9.003  0.6307 -0.0132 -1.2515
 5182SOL    HW227006   2.387   4.010   8.852 -0.9321 -1.8532 -1.9257
 5183SOL     OW27007   4.539   0.487   1.210  0.4230  0.4077 -0.2668
 5183SOL    HW127008   4.587   0.407   1.188 -0.9516 -0.2033 -1.0333
 5183SOL    HW227009   4.447   0.461   1.207  0.5908  0.1913 -3.8746
 5184SOL     OW27010   3.511   1.471   3.318  0.0435 -0.4090 -0.0893
 5184SOL    HW127011   3.572   1.427   3.259  1.1556  3.3742 -1.6860
 5184SOL    HW227012   3.508   1.553   3.269  0.4575 -0.8186 -0.8072
 5185SOL     OW27013   2.759   1.018  15.630  0.1296 -0.0916  0.8531
 5185SOL    HW127014   2.695   1.033  15.700  0.8766  0.5562  1.3910
 5185SOL    HW227015   2.704   1.030  15.552  2.7427  0.9021 -0.8440
 5186SOL     OW27016   3.762   2.165   5.006  0.0051  0.0556 -0.5631
 5186SOL    HW127017   3.813   2.228   4.955  2.6322 -3.1433 -1.8989
 5186SOL    HW227018   3.675   2.190   4.976  0.1302 -1.8855 -2.5441
 5187SOL     OW27019   2.367   3.528   3.856  0.6756  0.0275 -0.5396
 5187SOL    HW127020   2.377   3.447   3.906 -1.8729 -0.6974 -1.2026
 5187SOL    HW227021   2.417   3.583   3.917  0.7571 -0.4309 -0.1979
 5188SOL     OW27022   0.037   0.875  14.964  0.1845 -0.2540 -0.5313
 5188SOL    HW127023   0.114   0.864  15.019 -1.0920 -2.6492  0.7848
 5188SOL    HW227024   0.002   0.952  15.009  0.4896  0.7359 -1.9940
 5189SOL     OW27025   2.586   0.745   2.369 -0.6847 -0.3219  0.7432
 5189SOL    HW127026   2.501   0.724   2.407 -1.2423 -0.5999 -0.6718
 5189SOL    HW227027   2.573   0.836   2.342 -0.7267  0.0157  1.9204
 5190SOL     OW27028   2.354   2.179   3.284 -0.2033  0.2039  0.1975
 5190SOL    HW127029   2.427   2.118   3.273  1.1803  2.3490 -2.2483
 5190SOL    HW227030   2.287   2.111   3.293  0.2415 -0.1655  0.7518
 5191SOL     OW27031   3.246   3.495   6.284  0.3381 -0.2756  0.0183
 5191SOL    HW127032   3.254   3.420   6.225  1.7172 -0.1290  0.0133
 5191SOL    HW227033   3.326   3.539   6.253  0.7705 -0.8847  0.2676
 5192SOL     OW27034   1.792   3.048  10.288 -0.1404 -0.2735 -0.1982
 5192SOL    HW127035   1.858   3.111  10.317  0.5104 -0.3442 -1.4792
 5192SOL    HW227036   1.772   3.066  10.196 -1.6897  1.6168  0.5038
 5193SOL     OW27037   2.239   0.466   4.988  0.2972 -0.3874  0.4985
 5193SOL    HW127038   2.331   0.466   5.013 -0.1946 -2.4426  2.3239
 5193SOL    HW227039   2.210   0.386   5.032  2.3400 -1.2664  0.2684
 5194SOL     OW27040   0.676   1.993   0.928  0.6691  0.5109 -0.6669
 5194SOL    HW127041   0.722   2.022   0.849  0.7302  0.2150 -0.7419
 5194SOL    HW227042   0.660   2.077   0.970  1.6634 -0.7427  2.2147
 5195SOL     OW27043   0.694   4.263   7.384  0.5455  0.4001  0.2113
 5195SOL    HW127044   0.766   4.199   7.385 -0.9585 -1.3078  0.9950
 5195SOL    HW227045   0.699   4.299   7.473  0.3924  0.0810  0.3493
 5196SOL     OW27046   1.411   1.082   5.222  0.4491  0.3194  0.1689
 5196SOL    HW127047   1.338   1.057   5.166  0.0277  0.8648  0.4697
 5196SOL    HW227048   1.477   1.110   5.158 -1.1202  3.3143 -0.1662
 5197SOL     OW27049   4.057   3.127  10.117 -0.3272  0.7452  0.3872
 5197SOL    HW127050   4.111   3.050  10.135 -1.4174  0.4356  2.3355
 5197SOL    HW227051   3.976   3.085  10.089 -0.1391  0.2668  0.5602
 5198SOL     OW27052   3.906   1.175   3.930  0.2479 -0.6620 -0.1670
 5198SOL    HW127053   3.834   1.190   3.991 -0.3738 -2.4560 -0.4512
 5198SOL    HW227054   3.875   1.087   3.910  0.7642 -1.2606  1.6773
 5199SOL     OW27055   2.690   3.633   4.341  0.5168 -0.6731 -0.2908
 5199SOL    HW127056   2.718   3.600   4.255 -0.0593 -2.3753  0.1745
 5199SOL    HW227057   2.768   3.683   4.367 -0.0012  0.0268 -0.0811
 5200SOL     OW27058   0.558   2.942   1.622  0.3535  0.5723  0.2651
 5200SOL    HW127059   0.533   2.984   1.704 -0.3758  1.7087 -0.5461
 5200SOL    HW227060   0.645   2.975   1.600  0.3130 -0.6069 -1.7099
 5201SOL     OW27061   2.230   1.391   4.235  0.4257  0.2405 -0.8237
 5201SOL    HW127062   2.163   1.455   4.260 -1.0373 -0.7725 -2.2065
 5201SOL    HW227063   2.181   1.314   4.264  1.0541  0.0449 -0.2857
 5202SOL     OW27064   4.580   3.395  13.135 -0.2851  0.4403 -0.5867
 5202SOL    HW127065   4.587   3.489  13.115 -0.5960  0.9127  1.4657
 5202SOL    HW227066   4.617   3.401  13.223 -0.9269 -2.1441 -0.1438
 5203SOL     OW27067   0.521   0.871   9.736 -0.1541  0.2015 -0.2028
 5203SOL    HW127068   0.443   0.924   9.749  1.2321  1.9377  1.1068
 5203SOL    HW227069   0.549   0.885   9.827  0.1597  0.0724 -0.2778
 5204SOL     OW27070   2.770   1.898   3.201 -0.4052 -0.5356 -0.2303
 5204SOL    HW127071   2.793   1.881   3.293  1.9391  0.3169 -0.6625
 5204SOL    HW227072   2.804   1.987   3.195  1.9587 -1.6172 -2.9123
 5205SOL     OW27073   4.412   2.640   3.372  0.0575  0.1158  0.0714
 5205SOL    HW127074   4.319   2.657   3.386  0.0987  0.7501 -0.4709
 5205SOL    HW227075   4.421   2.556   3.418  2.5161  0.5229  0.3412
 5206SOL     OW27076   2.579   1.655   7.331  0.0960 -0.5712  0.2404
 5206SOL    HW127077   2.669   1.661   7.298  0.0101  2.3929  0.5059
 5206SOL    HW227078   2.585   1.690   7.419 -1.0299 -0.7843  0.4021
 5207SOL     OW27079   1.793   1.921  17.364 -0.0378 -0.0141  0.1878
 5207SOL    HW127080   1.878   1.885  17.388 -0.3455  0.4191  1.9423
 5207SOL    HW227081   1.802   2.000  17.418 -0.3837 -0.7101  1.2730
 5208SOL     OW27082   2.288   2.868  17.644  0.3386  0.3045 -0.0868
 5208SOL    HW127083   2.205   2.822  17.655  1.0723 -1.7859 -3.4623
 5208SOL    HW227084   2.322   2.826  17.565 -0.8471  1.0482 -0.9967
 5209SOL     OW27085   2.800   2.793   4.683  0.5924 -1.3538 -0.2554
 5209SOL    HW127086   2.847   2.798   4.766 -1.3232 -1.7146  0.8596
 5209SOL    HW227087   2.833   2.874   4.645  1.0433 -1.7485 -0.6931
 5210SOL     OW27088   1.585   0.488   2.003  0.4088 -0.4114  0.6081
 5210SOL    HW127089   1.590   0.581   1.981  1.7045 -0.3132  1.3303
 5210SOL    HW227090   1.621   0.450   1.923 -1.9732  1.1718 -1.2549
 5211SOL     OW27091   1.331   0.113  11.946  0.4921 -0.0674  0.2780
 5211SOL    HW127092   1.412   0.065  11.928  0.8203  0.7038 -0.3211
 5211SOL    HW227093   1.265   0.044  11.946 -0.6586  1.0060 -1.9678
 5212SOL     OW27094   2.675   3.232  16.488 -0.3986  0.2981  0.0356
 5212SOL    HW127095   2.613   3.258  16.420 -0.5342  1.3355  0.5490
 5212SOL    HW227096   2.705   3.322  16.495 -0.7119  0.5312 -1.6230
 5213SOL     OW27097   4.638   3.254   7.027 -0.1375  0.9716 -0.5846
 5213SOL    HW127098   4.660   3.271   6.936  1.6690 -2.1800 -0.7221
 5213SOL    HW227099   4.635   3.340   7.070 -2.5479  0.4217  0.3308
 5214SOL     OW27100   4.606   2.970   4.149 -0.5206  0.3487  0.0102
 5214SOL    HW127101   4.655   2.899   4.189 -1.2812  0.2445  0.7637
 5214SOL    HW227102   4.517   2.934   4.154 -1.1591  1.9973  0.6706
 5215SOL     OW27103   0.510   1.044  12.946  0.2734 -0.0367 -0.0847
 5215SOL    HW127104   0.532   1.080  13.032  2.0331 -3.4125  0.9100
 5215SOL    HW227105   0.452   0.975  12.981 -1.0471  0.9189 -0.3701
 5216SOL     OW27106   1.312   3.710   1.523  0.2864  0.1105  0.1907
 5216SOL    HW127107   1.305   3.618   1.548  1.1799  0.1924  0.7506
 5216SOL    HW227108   1.309   3.708   1.428  1.0172  0.5249  0.1544
 5217SOL     OW27109   0.720   3.443   3.702 -0.0030  0.8289 -0.0279
 5217SOL    HW127110   0.729   3.403   3.789  0.5975  0.8280 -0.0890
 5217SOL    HW227111   0.668   3.522   3.715  1.9170  1.7080  2.3808
 5218SOL     OW27112   2.171   0.530   4.641  0.4775 -0.0984 -0.0624
 5218SOL    HW127113   2.174   0.484   4.557  0.4425  0.0909 -0.1662
 5218SOL    HW227114   2.156   0.454   4.698  0.4351 -0.5761 -0.7177
 5219SOL     OW27115   3.732   1.147   2.881 -0.1809  0.4049 -0.4892
 5219SOL    HW127116   3.804   1.106   2.833 -0.0838 -0.3889  0.3299
 5219SOL    HW227117   3.773   1.224   2.920 -0.7636 -0.8540  2.5946
 5220SOL     OW27118   0.188   4.491   8.031  0.0109  0.0628  0.1826
 5220SOL    HW127119   0.125   4.428   7.995  1.3770 -0.6047 -1.0187
 5220SOL    HW227120   0.135   4.508   8.109  1.2078  1.3190  0.7156
 5221SOL     OW27121   3.938   3.236   0.148  0.0493 -0.0816  0.2053
 5221SOL    HW127122   3.999   3.217   0.219 -1.6548 -2.2018  1.1199
 5221SOL    HW227123   3.908   3.325   0.170  0.8092  0.4843 -1.1036
 5222SOL     OW27124   0.938   3.766   2.474  0.3055  0.2644  0.3336
 5222SOL    HW127125   1.019   3.786   2.521  0.2864  2.6082 -0.6512
 5222SOL    HW227126   0.918   3.855   2.444 -0.0700  0.8503  2.3074
 5223SOL     OW27127   2.171   3.799   7.058 -0.0367 -0.1630 -0.0668
 5223SOL    HW127128   2.208   3.813   7.146 -3.0374  2.5389  0.7678
 5223SOL    HW227129   2.160   3.888   7.025 -2.0709  0.1193  1.3283
 5224SOL     OW27130   3.825   0.867  10.621 -0.0878 -0.1373 -0.0756
 5224SOL    HW127131   3.835   0.960  10.598 -0.9849  0.1132  0.5425
 5224SOL    HW227132   3.730   0.857  10.609  0.0627 -0.5038 -0.9141
 5225SOL     OW27133   2.798   0.918   3.435  0.6400  0.2131  0.3955
 5225SOL    HW127134   2.838   0.831   3.438 -0.5994 -0.3515  0.8625
 5225SOL    HW227135   2.857   0.958   3.498  2.0754 -0.4310 -0.5490
 5226SOL     OW27136   1.588   1.525   7.036  0.2064  0.1350 -0.4554
 5226SOL    HW127137   1.623   1.598   7.087 -0.6188  0.8232 -0.8665
 5226SOL    HW227138   1.496   1.532   7.062 -0.6250  0.4822 -3.4765
 5227SOL     OW27139   4.681   2.925   1.444  0.3676  0.0139 -0.4990
 5227SOL    HW127140   4.663   2.983   1.370  1.9948  1.9239  0.5952
 5227SOL    HW227141   4.620   2.960   1.509  0.7563  0.6081 -0.4524
 5228SOL     OW27142   3.066   2.006  15.274  0.3531  0.1472 -0.3476
 5228SOL    HW127143   2.977   2.038  15.287 -0.3074 -1.5212 -0.8539
 5228SOL    HW227144   3.040   1.914  15.266  0.1833  0.0522  1.3364
 5229SOL     OW27145   1.716   3.154  17.338 -0.8114  0.0785 -0.2654
 5229SOL    HW127146   1.643   3.135  17.397 -0.8836  0.1273 -0.3379
 5229SOL    HW227147   1.759   3.230  17.378 -1.6033 -0.8212  2.2786
 5230SOL     OW27148   2.533   3.276   9.424  0.0064  0.5169  0.4165
 5230SOL    HW127149   2.448   3.303   9.459 -0.0859  0.5255  0.1820
 5230SOL    HW227150   2.504   3.218   9.353  0.1228  0.1741  0.6477
 5231SOL     OW27151   3.594   4.654  16.679 -0.1019  0.1167  0.1723
 5231SOL    HW127152   3.569   4.577  16.628  0.1400 -1.2414  2.1321
 5231SOL    HW227153   3.636   4.615  16.755 -0.4695 -2.1954 -0.8186
 5232SOL     OW27154   3.001   0.080   6.244 -0.2522  0.9630 -0.3069
 5232SOL    HW127155   2.958   0.032   6.173 -2.5933  0.9680  1.1236
 5232SOL    HW227156   2.928   0.126   6.285 -1.0029  0.5928 -1.2091
 5233SOL     OW27157   0.900   4.103   7.539 -0.4109  0.3317 -0.2052
 5233SOL    HW127158   0.948   4.079   7.460 -0.9985 -1.4174 -0.0366
 5233SOL    HW227159   0.939   4.182   7.576  1.2266  1.0158 -3.3771
 5234SOL     OW27160   4.266   2.186   8.257 -0.5367  0.7480 -0.8728
 5234SOL    HW127161   4.354   2.216   8.233  0.1891 -0.5810  0.1016
 5234SOL    HW227162   4.234   2.273   8.282  2.0658  1.3782  0.3206
 5235SOL     OW27163   0.185   0.172  12.689  0.3799  0.3319  0.3167
 5235SOL    HW127164   0.188   0.172  12.593 -1.1112  2.0704  0.2624
 5235SOL    HW227165   0.236   0.251  12.707  2.9657 -1.2484 -0.1237
 5236SOL     OW27166   4.454   2.890   4.546 -0.5294  0.1912 -0.0353
 5236SOL    HW127167   4.439   2.945   4.622  1.5930 -1.1812  1.3716
 5236SOL    HW227168   4.434   2.805   4.584  0.8921 -0.6448 -1.1318
 5237SOL     OW27169   1.950   4.194   8.600 -0.4236 -0.0747 -0.4594
 5237SOL    HW127170   1.880   4.257   8.584 -0.4764 -0.3586 -1.3221
 5237SOL    HW227171   1.934   4.185   8.694 -1.6788 -1.1502 -0.7798
 5238SOL     OW27172   3.030   1.128   3.309 -0.0800  0.2393 -0.4252
 5238SOL    HW127173   3.008   1.194   3.244 -0.3874  1.2637  0.7345
 5238SOL    HW227174   2.966   1.152   3.376  0.3978 -0.1562  0.1720
 5239SOL     OW27175   4.338   3.218   8.646 -0.0254  0.0977  0.3099
 5239SOL    HW127176   4.263   3.212   8.705  2.2278  0.8623  3.2802
 5239SOL    HW227177   4.394   3.265   8.708  0.2092 -0.6888  0.6973
 5240SOL     OW27178   0.576   0.965   2.727  0.0319  0.1017 -0.2644
 5240SOL    HW127179   0.535   1.037   2.680 -1.5447 -1.0741 -0.7188
 5240SOL    HW227180   0.500   0.908   2.738 -0.7528  1.1307 -0.3970
 5241SOL     OW27181   3.486   2.727  16.570 -0.0486 -0.3626  0.9554
 5241SOL    HW127182   3.552   2.761  16.510  0.0285  0.1671  1.3428
 5241SOL    HW227183   3.528   2.649  16.604 -0.4052 -1.3144 -0.7686
 5242SOL     OW27184   2.570   3.752   7.625 -0.3072  0.5633 -0.2237
 5242SOL    HW127185   2.555   3.737   7.532  1.7760 -0.4522 -0.4156
 5242SOL    HW227186   2.542   3.674   7.673 -0.8851  0.3165 -0.9621
 5243SOL     OW27187   3.450   4.114  10.247 -0.0432 -0.0618  0.4702
 5243SOL    HW127188   3.535   4.075  10.224 -0.3317  0.8593 -2.1742
 5243SOL    HW227189   3.474   4.206  10.252 -0.8238  0.1526  0.2265
 5244SOL     OW27190   0.617   0.854  14.913  0.0911 -0.3930  0.2435
 5244SOL    HW127191   0.621   0.929  14.972  0.1689 -1.0478  1.0708
 5244SOL    HW227192   0.705   0.852  14.875  0.0965  0.9054  0.2056
 5245SOL     OW27193   0.940   3.442  14.969 -0.3140  0.2903 -0.4305
 5245SOL    HW127194   0.928   3.437  14.875  2.3041 -2.1611 -0.6025
 5245SOL    HW227195   0.860   3.489  14.995  2.0590  2.1550  3.5423
 5246SOL     OW27196   4.143   1.224  12.837  0.3505 -0.2612  0.2140
 5246SOL    HW127197   4.217   1.280  12.860 -0.6862  0.4890  1.7553
 5246SOL    HW227198   4.164   1.187  12.752  0.7975  3.2291 -1.1625
 5247SOL     OW27199   1.510   1.248   0.013  0.3615  0.1506  0.0642
 5247SOL    HW127200   1.601   1.270  17.697  0.0219  2.8435  1.7393
 5247SOL    HW227201   1.467   1.277  17.635 -2.5112 -1.4053  1.0549
 5248SOL     OW27202   1.456   0.439   1.669 -0.5186  0.1889  0.3713
 5248SOL    HW127203   1.386   0.389   1.710  0.2100 -2.7407 -1.9615
 5248SOL    HW227204   1.530   0.379   1.680 -1.2421 -0.6197  0.7695
 5249SOL     OW27205   0.068   2.413   0.415 -0.1123 -0.0651  0.2889
 5249SOL    HW127206   0.063   2.456   0.500  0.9832  0.9703 -0.1736
 5249SOL    HW227207   0.065   2.495   0.367 -0.0507 -1.2332 -1.6909
 5250SOL     OW27208   1.994   4.235   7.857  0.6856  0.2258  0.0851
 5250SOL    HW127209   1.911   4.207   7.895  0.6991  1.7575  1.2531
 5250SOL    HW227210   1.953   4.289   7.789  1.3764  0.4760 -0.1435
 5251SOL     OW27211   3.470   2.305   9.377 -0.1717 -0.1430  0.4156
 5251SOL    HW127212   3.493   2.265   9.293 -0.7176 -1.8397  1.0647
 5251SOL    HW227213   3.532   2.263   9.436 -2.1195  0.0049  2.5553
 5252SOL     OW27214   1.998   1.927   4.495 -0.6297 -0.1777  0.3458
 5252SOL    HW127215   2.050   2.004   4.470 -0.6953 -1.0279 -2.4549
 5252SOL    HW227216   1.913   1.941   4.453 -0.3393  2.9456  0.7918
 5253SOL     OW27217   0.011   1.045   9.541  0.5695  0.2377 -0.1747
 5253SOL    HW127218   4.710   0.955   9.524  1.6088  0.2009 -1.6376
 5253SOL    HW227219   4.651   1.085   9.558  1.2490  1.3992  0.5137
 5254SOL     OW27220   3.441   0.601   8.614 -0.2806 -0.3765  0.0480
 5254SOL    HW127221   3.521   0.654   8.617 -0.5767  0.0638  0.0525
 5254SOL    HW227222   3.484   0.520   8.588  0.2502 -0.4737  1.2279
 5255SOL     OW27223   1.363   3.242   2.419  0.5971 -0.3341  0.0220
 5255SOL    HW127224   1.282   3.287   2.444 -0.2397 -1.5603 -0.5159
 5255SOL    HW227225   1.399   3.229   2.507 -1.0041 -1.0223  0.5688
 5256SOL     OW27226   2.968   0.155   4.092  0.4477 -0.0710  0.0767
 5256SOL    HW127227   2.996   0.073   4.052 -3.7680 -1.7598  0.6812
 5256SOL    HW227228   3.033   0.219   4.063  2.6612 -2.1106  0.5381
 5257SOL     OW27229   2.338   4.627   2.304  0.5118  0.3430  0.4112
 5257SOL    HW127230   2.269   4.622   2.238  0.4964 -2.9214  0.6582
 5257SOL    HW227231   2.414   4.637   2.246 -1.0734 -0.8977 -1.8676
 5258SOL     OW27232   1.996   1.751   5.137 -0.7414 -0.0599  0.1343
 5258SOL    HW127233   1.999   1.742   5.232  2.8956  0.9793  0.0968
 5258SOL    HW227234   2.078   1.712   5.108 -0.6675  1.3876 -1.5750
 5259SOL     OW27235   3.450   1.180   9.883  0.1231 -0.1614 -0.2720
 5259SOL    HW127236   3.413   1.187   9.795  0.4571  0.6973 -0.3457
 5259SOL    HW227237   3.390   1.122   9.929 -0.1398  2.0516  2.1935
 5260SOL     OW27238   0.322   4.532   0.010  0.2181  0.4070  0.4544
 5260SOL    HW127239   0.358   4.544  17.625 -0.5652 -0.5677 -0.0021
 5260SOL    HW227240   0.381   4.461   0.037 -1.6247 -1.3020  0.0376
 5261SOL     OW27241   3.004   4.112   3.218 -0.2703 -0.3622 -0.1777
 5261SOL    HW127242   2.910   4.124   3.224  0.0853  1.5368  1.7315
 5261SOL    HW227243   3.039   4.174   3.283  0.8214 -2.7209  1.4857
 5262SOL     OW27244   3.269   3.905  11.465 -0.6369  0.4131 -0.4915
 5262SOL    HW127245   3.301   3.979  11.517 -1.2254  1.4399 -1.5739
 5262SOL    HW227246   3.343   3.848  11.442 -1.3473 -1.3648  1.6176
 5263SOL     OW27247   0.526   3.929   8.922  0.0705 -0.4715  0.2424
 5263SOL    HW127248   0.562   4.006   8.878  0.7495 -1.1215 -0.3260
 5263SOL    HW227249   0.513   3.871   8.847  0.9453 -0.1410 -0.1685
 5264SOL     OW27250   0.930   3.171   3.752  0.4759 -0.7703  0.5215
 5264SOL    HW127251   0.843   3.152   3.788 -0.4563  1.7288 -0.3991
 5264SOL    HW227252   0.995   3.159   3.822  0.4882 -1.1995  0.4347
 5265SOL     OW27253   2.654   2.516   8.274  0.0218  0.8044  0.3258
 5265SOL    HW127254   2.689   2.537   8.360 -2.4466 -2.2633  2.0915
 5265SOL    HW227255   2.631   2.423   8.279 -1.8858  1.3569  2.0499
 5266SOL     OW27256   2.444   0.198   5.433 -0.0859  0.4115 -0.1335
 5266SOL    HW127257   2.486   0.241   5.359 -0.5759 -1.4887 -1.5091
 5266SOL    HW227258   2.352   0.222   5.419 -0.1768  0.2736  0.2078
 5267SOL     OW27259   1.514   0.708   2.588  0.2117  0.2226  0.0926
 5267SOL    HW127260   1.526   0.626   2.540 -3.4398 -0.2946  0.0253
 5267SOL    HW227261   1.425   0.686   2.617  1.3449 -1.9725  1.9003
 5268SOL     OW27262   4.270   3.281   4.187 -0.4940 -0.0091 -0.1964
 5268SOL    HW127263   4.312   3.260   4.270  0.8066 -0.4533 -0.9495
 5268SOL    HW227264   4.273   3.193   4.149  1.0279 -0.3217  0.6277
 5269SOL     OW27265   4.515   1.994   5.145  0.0723 -0.0043 -0.7555
 5269SOL    HW127266   4.560   2.067   5.187 -1.0531 -0.7821  1.7556
 5269SOL    HW227267   4.427   2.031   5.146 -0.4073 -1.1606 -0.2591
 5270SOL     OW27268   0.731   3.419   7.200  0.1669  0.0835  0.3824
 5270SOL    HW127269   0.711   3.325   7.205  3.2018 -0.5660  0.1205
 5270SOL    HW227270   0.714   3.430   7.107  1.5375 -0.6637  0.0521
 5271SOL     OW27271   1.735   2.945  10.672 -0.0881  0.6743  0.1302
 5271SOL    HW127272   1.685   2.960  10.592 -1.8166 -0.5489  0.9644
 5271SOL    HW227273   1.673   2.886  10.715 -0.5046  1.5733  0.7436
 5272SOL     OW27274   2.985   1.443  17.128  0.0424 -0.1384 -0.0549
 5272SOL    HW127275   2.924   1.408  17.063  2.6517 -1.7218 -1.6570
 5272SOL    HW227276   3.067   1.459  17.081 -0.9162  3.6327 -0.3900
 5273SOL     OW27277   1.636   2.570   8.025 -0.1894 -0.4466  0.5184
 5273SOL    HW127278   1.600   2.502   8.082 -2.0476  0.6334  0.6251
 5273SOL    HW227279   1.606   2.648   8.072 -0.1091 -0.3076  0.3389
 5274SOL     OW27280   3.882   3.090   6.794  0.0535  0.6691  0.1342
 5274SOL    HW127281   3.839   3.042   6.865  3.2870 -2.5852 -0.0810
 5274SOL    HW227282   3.827   3.168   6.784 -0.0364  0.2417 -2.8267
 5275SOL     OW27283   3.330   4.652   9.042  0.4813  0.4417 -0.6062
 5275SOL    HW127284   3.234   4.647   9.034  0.2661  1.4404  1.4869
 5275SOL    HW227285   3.330   4.622   9.133 -1.8823 -2.1044 -1.4447
 5276SOL     OW27286   4.605   0.796   9.488  0.2590  0.2658  0.2740
 5276SOL    HW127287   4.620   0.713   9.534 -1.5795 -0.0234  0.3386
 5276SOL    HW227288   4.526   0.829   9.531 -0.1025 -1.0073  0.5971
 5277SOL     OW27289   4.382   0.517   7.119 -0.0507 -0.4542 -0.3165
 5277SOL    HW127290   4.301   0.474   7.090 -0.7584 -0.7169  2.0384
 5277SOL    HW227291   4.436   0.469   7.056 -0.7310 -3.5050  1.4015
 5278SOL     OW27292   3.988   1.993   8.635  0.3809  0.2996 -0.0322
 5278SOL    HW127293   3.966   1.981   8.727  0.7442  1.6778  0.2448
 5278SOL    HW227294   4.070   1.946   8.623 -0.1713 -1.0212  1.3192
 5279SOL     OW27295   1.324   2.489   7.097  0.6284 -0.4656  0.3490
 5279SOL    HW127296   1.386   2.416   7.093 -3.0699 -3.6088 -0.2183
 5279SOL    HW227297   1.346   2.515   7.186  0.4052  0.4136  0.1436
 5280SOL     OW27298   3.369   3.018   3.344  0.2840  0.7757 -0.5382
 5280SOL    HW127299   3.296   3.049   3.290  0.5252  0.3154 -1.1298
 5280SOL    HW227300   3.321   2.962   3.405 -0.1190 -0.3950 -1.9326
 5281SOL     OW27301   2.738   0.532   7.681 -0.1096  0.0383  0.0848
 5281SOL    HW127302   2.672   0.586   7.638  0.4245  0.0801 -0.6878
 5281SOL    HW227303   2.819   0.579   7.662 -0.5907  0.3914 -1.1145
 5282SOL     OW27304   1.347   3.313   8.387  0.3229  0.1237  0.1176
 5282SOL    HW127305   1.402   3.390   8.402  0.5185 -0.0363  0.2130
 5282SOL    HW227306   1.305   3.309   8.473  0.1259 -0.0423  0.0132
 5283SOL     OW27307   1.542   1.742   0.537  0.6293  0.6694  0.5166
 5283SOL    HW127308   1.478   1.743   0.466 -1.0759 -0.3896  2.0214
 5283SOL    HW227309   1.519   1.659   0.580 -1.3715  1.5355  1.1148
 5284SOL     OW27310   1.140   2.984   6.464 -0.0575  0.0906  0.9287
 5284SOL    HW127311   1.161   3.060   6.518 -2.1263  1.2105  0.1526
 5284SOL    HW227312   1.122   2.926   6.538 -0.5817  0.9857  1.4897
 5285SOL     OW27313   1.828   1.569  14.849 -0.4085 -0.5059  0.3759
 5285SOL    HW127314   1.792   1.632  14.912  0.1613 -0.8189  1.0093
 5285SOL    HW227315   1.876   1.507  14.905  0.2208  2.2256  2.8802
 5286SOL     OW27316   2.161   3.273   6.418 -0.3597 -0.5441 -0.4895
 5286SOL    HW127317   2.090   3.324   6.380 -0.7713  1.2085  2.6163
 5286SOL    HW227318   2.118   3.187   6.421 -1.1952 -0.1247 -0.2907
 5287SOL     OW27319   2.138   2.359   7.832 -0.0798  0.1482  0.1139
 5287SOL    HW127320   2.160   2.432   7.890 -1.0180 -0.7665  1.6243
 5287SOL    HW227321   2.184   2.390   7.754 -0.1708  1.7987  0.7260
 5288SOL     OW27322   0.594   2.732  16.962  0.1346  0.2083 -0.6970
 5288SOL    HW127323   0.658   2.665  16.983 -0.8263  0.6166  3.6082
 5288SOL    HW227324   0.520   2.708  17.018  0.4718 -2.1160 -1.2526
 5289SOL     OW27325   3.343   0.800   4.286  0.1842 -0.4522 -0.2636
 5289SOL    HW127326   3.430   0.841   4.280 -0.7212  1.7853  1.8241
 5289SOL    HW227327   3.299   0.883   4.307  3.0800  1.1519 -0.5028
 5290SOL     OW27328   0.718   0.747   7.997  0.4916 -0.2166 -0.2333
 5290SOL    HW127329   0.680   0.744   7.909  0.2122  1.5042 -0.1786
 5290SOL    HW227330   0.644   0.718   8.050  0.3259 -1.7818 -1.3254
 5291SOL     OW27331   2.734   1.871   2.676  0.3211  0.2560 -0.1272
 5291SOL    HW127332   2.828   1.878   2.660  1.2688  0.1433  5.2578
 5291SOL    HW227333   2.731   1.782   2.711 -0.8370  0.5231  0.4738
 5292SOL     OW27334   3.360   2.172   1.755 -0.1712 -0.2365  0.1299
 5292SOL    HW127335   3.283   2.188   1.809 -1.2789 -1.5577 -1.0485
 5292SOL    HW227336   3.381   2.265   1.740 -0.5050 -0.7564 -3.5371
 5293SOL     OW27337   1.191   0.753   2.914  0.4730  0.1497  0.5542
 5293SOL    HW127338   1.262   0.805   2.875  1.3630 -0.0448  1.9093
 5293SOL    HW227339   1.124   0.817   2.934  0.2063 -0.4868  1.6823
 5294SOL     OW27340   0.519   0.656   4.018  0.5964  0.6895 -0.4039
 5294SOL    HW127341   0.546   0.585   3.961 -1.4634 -0.3082 -0.1378
 5294SOL    HW227342   0.461   0.704   3.958  0.1028 -0.4974 -0.8726
 5295SOL     OW27343   1.937   2.361  10.374 -0.3212 -0.2665 -1.3347
 5295SOL    HW127344   2.014   2.395  10.418 -0.5590  0.2730 -1.3411
 5295SOL    HW227345   1.876   2.434  10.381  1.2953  0.7574  2.2107
 5296SOL     OW27346   1.986   3.341  10.655  0.3496  0.2285  0.2058
 5296SOL    HW127347   1.936   3.402  10.709  1.8163  1.7036 -0.1241
 5296SOL    HW227348   1.996   3.276  10.725  0.8689 -0.2095 -0.2757
 5297SOL     OW27349   3.385   0.826  15.461  0.6308 -0.0298  0.0559
 5297SOL    HW127350   3.464   0.836  15.409  1.4051 -0.5642  1.1238
 5297SOL    HW227351   3.423   0.830  15.549  1.2800  1.1306 -0.2797
 5298SOL     OW27352   2.068   2.613   3.182  0.0184 -0.3011  0.2857
 5298SOL    HW127353   2.040   2.631   3.093  1.8685  0.2216 -0.1925
 5298SOL    HW227354   1.987   2.571   3.213 -0.0495  0.1048  0.6513
 5299SOL     OW27355   3.728   3.110   3.178 -0.0603  0.7607 -0.2447
 5299SOL    HW127356   3.733   3.031   3.124  0.2592  0.0534  0.7918
 5299SOL    HW227357   3.762   3.176   3.119 -0.5909 -0.6659 -2.1510
 5300SOL     OW27358   1.212   2.465   6.604  0.1063  0.3209 -0.1401
 5300SOL    HW127359   1.176   2.437   6.688 -0.3997 -1.7093 -1.0333
 5300SOL    HW227360   1.144   2.528   6.578 -0.4380 -0.1854  0.0388
 5301SOL     OW27361   2.345   3.167  11.557 -0.1120  0.7649 -0.1919
 5301SOL    HW127362   2.380   3.168  11.468  1.4808  0.4015  0.4392
 5301SOL    HW227363   2.365   3.257  11.582 -0.9204  0.6409  0.8778
 5302SOL     OW27364   4.256   4.198  11.869 -0.7506  0.3387  0.6212
 5302SOL    HW127365   4.287   4.193  11.959 -1.4389  4.2934  1.0911
 5302SOL    HW227366   4.255   4.103  11.855  0.4676  0.5005 -0.6419
 5303SOL     OW27367   2.208   4.529   7.109 -0.0460 -0.1715  0.4951
 5303SOL    HW127368   2.183   4.609   7.154 -1.0972  0.4181 -1.1546
 5303SOL    HW227369   2.154   4.542   7.031  0.4110 -0.0147  0.2049
 5304SOL     OW27370   0.213   3.776   2.752 -0.3291 -0.8915  0.2182
 5304SOL    HW127371   0.246   3.686   2.739  1.3816 -0.3760  0.9055
 5304SOL    HW227372   0.118   3.769   2.748 -0.6385  1.6211  3.2851
 5305SOL     OW27373   0.057   2.022   6.810 -0.1289 -0.2630  0.1107
 5305SOL    HW127374   0.044   2.080   6.735  0.3504 -1.3578 -0.8068
 5305SOL    HW227375   4.692   2.028   6.842 -0.4238  1.9457 -1.0747
 5306SOL     OW27376   0.385   1.080  14.406  0.0806 -0.0514  0.0809
 5306SOL    HW127377   0.365   1.011  14.469 -0.0490 -0.1967 -0.1168
 5306SOL    HW227378   0.383   1.159  14.461  0.7717 -0.4673  0.6947
 5307SOL     OW27379   0.088   3.208  16.997  0.6003 -0.0904  0.1755
 5307SOL    HW127380   0.042   3.252  17.069  2.1107  1.8096 -0.0091
 5307SOL    HW227381   0.110   3.276  16.934 -3.2687  0.5390 -0.4934
 5308SOL     OW27382   1.446   1.080  14.260 -0.3262  0.0255 -0.0983
 5308SOL    HW127383   1.463   0.999  14.211  1.4655  0.4633 -0.1843
 5308SOL    HW227384   1.518   1.135  14.229 -0.9728  0.4697 -0.7932
 5309SOL     OW27385   3.159   4.688   9.672 -0.6894  0.0600 -0.8523
 5309SOL    HW127386   3.173   0.038   9.730  1.6375  0.2660 -1.6841
 5309SOL    HW227387   3.165   0.008   9.588 -0.6151 -0.5355 -1.1674
 5310SOL     OW27388   3.195   0.711  11.445  0.0808  0.0730 -0.2681
 5310SOL    HW127389   3.219   0.701  11.538  1.8784  0.9275 -0.6451
 5310SOL    HW227390   3.111   0.665  11.440  0.7988 -1.1603 -0.9460
 5311SOL     OW27391   3.990   4.613  12.593  0.0532  0.0625 -0.3031
 5311SOL    HW127392   3.989   4.527  12.552  1.4387  0.0918 -0.3996
 5311SOL    HW227393   3.954   4.663  12.520  2.9756  0.5489 -1.4246
 5312SOL     OW27394   4.029   1.300   4.140  0.1344 -0.0420 -0.1133
 5312SOL    HW127395   3.988   1.252   4.068 -0.2456 -3.4751  2.3735
 5312SOL    HW227396   4.123   1.301   4.122  0.0189  0.5165 -0.6743
 5313SOL     OW27397   0.420   1.796   5.588 -0.2005  0.1755 -0.5372
 5313SOL    HW127398   0.344   1.836   5.630 -0.8440 -0.5258 -1.0171
 5313SOL    HW227399   0.481   1.869   5.589  1.4044 -1.1799  0.7590
 5314SOL     OW27400   2.417   1.275   5.550  0.2400 -0.4366  0.2860
 5314SOL    HW127401   2.434   1.279   5.644  1.2130 -0.1151  0.0947
 5314SOL    HW227402   2.342   1.216   5.543 -0.1106 -0.0120  0.4571
 5315SOL     OW27403   3.946   3.076   6.293 -0.1180 -0.0772 -0.4567
 5315SOL    HW127404   3.915   3.041   6.376 -0.4830  0.7301 -0.2552
 5315SOL    HW227405   4.040   3.069   6.312 -0.4234  0.9337  1.3829
 5316SOL     OW27406   0.224   0.300   6.374  0.5744  0.0522 -0.6030
 5316SOL    HW127407   0.318   0.286   6.385  0.5556  0.9081  0.5527
 5316SOL    HW227408   0.195   0.241   6.304  0.7764 -0.8966  0.0997
 5317SOL     OW27409   1.919   4.008  17.271 -0.3073 -0.5656  0.1235
 5317SOL    HW127410   1.949   4.095  17.295  2.3943 -1.5124  0.1743
 5317SOL    HW227411   1.830   4.014  17.306 -0.9679 -0.9068 -1.5295
 5318SOL     OW27412   1.865   1.745   9.158 -0.8251  0.0632  0.1673
 5318SOL    HW127413   1.868   1.672   9.221 -0.9717 -1.8211 -1.9980
 5318SOL    HW227414   1.801   1.704   9.100 -0.7101 -0.1956  0.2205
 5319SOL     OW27415   2.471   0.041   4.249 -0.3913  0.1665 -0.2000
 5319SOL    HW127416   2.454   4.675   4.224 -0.3707 -0.7950  3.1845
 5319SOL    HW227417   2.423   0.052   4.332  0.8939  2.0555  0.2893
 5320SOL     OW27418   3.799   4.039   7.752 -0.4730  0.1108  0.0141
 5320SOL    HW127419   3.756   4.097   7.689 -0.0984 -0.4004 -0.7218
 5320SOL    HW227420   3.778   4.085   7.833  0.2641  1.3743 -0.5005
 5321SOL     OW27421   3.923   1.252   8.899  0.0445 -0.1920  0.0187
 5321SOL    HW127422   3.868   1.174   8.892  0.4706 -0.5150  0.3273
 5321SOL    HW227423   3.869   1.316   8.946 -0.5436 -0.0066 -0.8835
 5322SOL     OW27424   2.773   2.536   0.863  0.0823 -0.3084 -0.1763
 5322SOL    HW127425   2.728   2.616   0.836 -0.5761 -1.3867 -2.3006
 5322SOL    HW227426   2.750   2.481   0.788  0.3041 -1.4301  0.5716
 5323SOL     OW27427   4.019   1.688   7.538 -0.2434 -0.2970 -0.0687
 5323SOL    HW127428   3.968   1.736   7.472  0.0645 -1.5165 -1.1842
 5323SOL    HW227429   4.000   1.746   7.612 -1.7015  0.6377 -1.1586
 5324SOL     OW27430   4.086   0.756   6.083  0.0734  0.2580 -0.3307
 5324SOL    HW127431   4.067   0.849   6.098  1.0825  0.4016  0.0528
 5324SOL    HW227432   4.090   0.760   5.987 -1.4529  1.3607 -0.3608
 5325SOL     OW27433   4.041   3.243  11.615  0.3630 -0.4130 -0.1481
 5325SOL    HW127434   4.102   3.309  11.648 -0.2762  0.0840  0.0388
 5325SOL    HW227435   3.957   3.278  11.644 -0.9442 -3.6138 -0.0821
 5326SOL     OW27436   3.434   2.720   9.516  0.3485  0.7021 -0.0635
 5326SOL    HW127437   3.413   2.672   9.596 -0.3037  0.7648 -0.1984
 5326SOL    HW227438   3.413   2.804   9.557  0.4952  0.5291  0.3673
 5327SOL     OW27439   4.623   2.000   3.147  0.1139 -0.4081 -0.1907
 5327SOL    HW127440   4.641   2.092   3.166 -1.5381 -0.1908  0.3357
 5327SOL    HW227441   4.644   1.957   3.230 -0.8980  0.1165  0.3400
 5328SOL     OW27442   1.377   4.356   5.289 -0.3042 -0.8404 -0.1061
 5328SOL    HW127443   1.329   4.309   5.221  1.0929 -1.4520 -0.6776
 5328SOL    HW227444   1.452   4.297   5.297  0.8157  0.5301 -0.5402
 5329SOL     OW27445   1.278   1.413   4.195 -0.0858 -0.4420 -0.2538
 5329SOL    HW127446   1.337   1.343   4.222 -0.0416 -0.5743 -0.6925
 5329SOL    HW227447   1.278   1.408   4.099  2.2561  0.9806 -0.3387
 5330SOL     OW27448   4.319   3.940   7.093  0.3576 -0.2060 -0.4027
 5330SOL    HW127449   4.313   3.985   7.177  2.0514 -0.8468  0.0657
 5330SOL    HW227450   4.313   3.848   7.118  0.1134 -0.9319 -3.1288
 5331SOL     OW27451   1.343   4.284   0.476  0.0447  0.6020 -0.4712
 5331SOL    HW127452   1.258   4.294   0.518  0.2337  0.7643 -0.1343
 5331SOL    HW227453   1.355   4.375   0.447 -1.4891  0.7625 -0.6098
 5332SOL     OW27454   1.892   3.234   4.314  0.1382 -0.2577 -0.2445
 5332SOL    HW127455   1.910   3.179   4.390  0.0935 -1.9202 -1.4497
 5332SOL    HW227456   1.976   3.275   4.292  0.0835 -0.5924 -1.0459
 5333SOL     OW27457   2.671   1.956   2.328 -0.7401 -0.4016  0.0555
 5333SOL    HW127458   2.632   1.948   2.415 -0.8960 -0.0593  0.0167
 5333SOL    HW227459   2.722   1.875   2.322  0.1825  0.2474 -0.8540
 5334SOL     OW27460   1.746   3.484   1.980  0.0812  0.0036  0.6761
 5334SOL    HW127461   1.723   3.575   1.963 -0.6866 -0.2219  0.5132
 5334SOL    HW227462   1.669   3.439   1.944 -0.9639  1.0358  1.6088
 5335SOL     OW27463   2.024   3.581   1.838 -0.4180 -0.0034 -0.1156
 5335SOL    HW127464   1.933   3.559   1.815 -0.0744 -0.5247 -0.9855
 5335SOL    HW227465   2.055   3.566   1.748 -1.4322  0.3226 -0.5236
 5336SOL     OW27466   1.925   3.015  12.469  0.1461  0.6467 -0.0248
 5336SOL    HW127467   1.880   2.945  12.421 -1.0928  1.2103  0.3086
 5336SOL    HW227468   1.974   2.957  12.528  1.6790  1.4936 -0.4833
 5337SOL     OW27469   1.784   0.162   7.495  0.0328 -0.3014 -0.3484
 5337SOL    HW127470   1.840   0.161   7.572 -0.4517 -0.9904 -0.0044
 5337SOL    HW227471   1.802   0.248   7.458  0.8450 -0.2880  0.0629
 5338SOL     OW27472   2.166   1.398   3.784 -0.1630 -0.3284 -0.1387
 5338SOL    HW127473   2.189   1.328   3.844  1.0305  0.8770  0.8131
 5338SOL    HW227474   2.072   1.383   3.779 -0.1913 -0.0857 -0.3723
 5339SOL     OW27475   1.519   2.920  16.515 -0.6384  0.6044 -0.6579
 5339SOL    HW127476   1.443   2.869  16.485 -1.1897  0.2936  1.2442
 5339SOL    HW227477   1.533   2.880  16.601  0.0360 -1.3965 -1.6939
 5340SOL     OW27478   0.307   0.203   4.890 -0.0346 -0.2261 -0.8288
 5340SOL    HW127479   0.229   0.163   4.929 -0.4142  1.4105  0.1115
 5340SOL    HW227480   0.284   0.217   4.798 -1.5719  1.3336 -0.2151
 5341SOL     OW27481   2.975   4.185   4.415  0.8237 -0.3628  0.0301
 5341SOL    HW127482   2.967   4.199   4.321 -1.5917  2.0320  0.5787
 5341SOL    HW227483   3.063   4.222   4.427  1.0547 -0.8062 -0.3071
 5342SOL     OW27484   3.076   4.072   6.475  0.7356 -0.2782 -0.1778
 5342SOL    HW127485   3.037   4.040   6.556  0.1572 -1.4345 -0.9111
 5342SOL    HW227486   3.160   4.099   6.511  1.2438 -3.5949  1.1052
 5343SOL     OW27487   4.694   2.473   2.563 -0.3444 -0.1953 -0.3751
 5343SOL    HW127488   0.044   2.513   2.518 -0.0007  1.0568  1.3379
 5343SOL    HW227489   4.620   2.492   2.505 -0.2298  3.1498  0.5905
 5344SOL     OW27490   0.717   3.760   6.884 -0.2262  0.2527  0.5374
 5344SOL    HW127491   0.635   3.789   6.924 -0.9531 -0.4733 -0.4181
 5344SOL    HW227492   0.746   3.823   6.818 -1.1924  1.1621  0.9929
 5345SOL     OW27493   4.594   0.077  11.026  0.7342 -0.0445  0.1221
 5345SOL    HW127494   4.658   0.139  10.991 -1.1765  1.5728 -0.5735
 5345SOL    HW227495   4.650   0.008  11.059  1.0882  0.7234  1.1165
 5346SOL     OW27496   1.416   3.040   8.517 -0.6720 -0.4389 -0.1892
 5346SOL    HW127497   1.426   3.117   8.573 -0.5156 -0.1305 -0.6415
 5346SOL    HW227498   1.486   2.995   8.564 -1.8026 -2.0198 -0.0322
 5347SOL     OW27499   2.683   2.452   4.977 -0.3435  0.1426 -0.5984
 5347SOL    HW127500   2.701   2.360   4.999  1.4266  0.3614 -1.1217
 5347SOL    HW227501   2.602   2.439   4.928 -1.5964  0.6808  1.3302
 5348SOL     OW27502   4.034   2.337   6.910 -0.0130 -0.8344 -0.8651
 5348SOL    HW127503   4.004   2.308   6.996  0.5764  1.3554  0.0832
 5348SOL    HW227504   3.983   2.418   6.907 -2.0825 -2.1767 -1.8978
 5349SOL     OW27505   1.862   0.738   8.168  0.0975 -0.1770 -0.1475
 5349SOL    HW127506   1.856   0.666   8.231 -0.6700  1.1680  1.3445
 5349SOL    HW227507   1.941   0.783   8.200  1.1466 -2.1889  0.1057
 5350SOL     OW27508   3.130   0.819   7.323  0.0936  0.2474 -0.0562
 5350SOL    HW127509   3.148   0.904   7.283 -1.0642 -0.0097 -1.1568
 5350SOL    HW227510   3.043   0.805   7.285  1.7767 -0.6567 -3.5977
 5351SOL     OW27511   0.086   3.886   4.402 -0.5130 -0.0609  0.3438
 5351SOL    HW127512   0.040   3.822   4.348  0.8848 -0.0119 -0.8938
 5351SOL    HW227513   0.024   3.878   4.475 -1.3905 -1.9244 -0.6123
 5352SOL     OW27514   0.649   4.168   4.113  0.5658 -0.4909  0.4385
 5352SOL    HW127515   0.742   4.166   4.135  0.6484  0.6445  0.2132
 5352SOL    HW227516   0.640   4.165   4.018 -0.2817  1.7879  0.4436
 5353SOL     OW27517   0.389   3.805   4.884  0.0933 -0.5824 -0.2483
 5353SOL    HW127518   0.433   3.779   4.966  0.8998 -0.5311 -0.6582
 5353SOL    HW227519   0.391   3.720   4.841  0.4541  0.0388 -1.4559
 5354SOL     OW27520   4.547   2.957   8.924 -0.4813  0.1817  0.4982
 5354SOL    HW127521   4.488   2.942   8.850 -0.4780  0.0474  0.5244
 5354SOL    HW227522   4.485   2.932   8.993 -0.6713  0.5106  0.4465
 5355SOL     OW27523   0.892   2.289  11.313  0.2543 -0.1214 -0.1835
 5355SOL    HW127524   0.901   2.373  11.269  1.1252  0.2472  0.6887
 5355SOL    HW227525   0.852   2.309  11.398 -1.2278 -2.2728 -0.3693
 5356SOL     OW27526   4.043   0.309   8.712  0.3950  0.5007  0.4008
 5356SOL    HW127527   4.061   0.220   8.743  0.9142  0.6766  0.6041
 5356SOL    HW227528   3.960   0.320   8.758 -0.5202  1.7768 -1.5377
 5357SOL     OW27529   3.882   4.667   9.316 -0.4669 -0.2623  0.0011
 5357SOL    HW127530   3.920   4.706   9.395  1.1656 -0.9794 -0.4193
 5357SOL    HW227531   3.813   0.007   9.303  0.9951  1.0140 -1.3429
 5358SOL     OW27532   3.276   0.294   5.045  0.0254 -0.3696 -0.1415
 5358SOL    HW127533   3.227   0.317   4.966  0.2282  1.4046  0.2590
 5358SOL    HW227534   3.297   0.382   5.077  0.8547 -0.9553  0.9287
 5359SOL     OW27535   1.617   3.752   9.319 -0.3545 -0.9123  0.0107
 5359SOL    HW127536   1.589   3.722   9.405 -1.3144 -0.1246 -0.0209
 5359SOL    HW227537   1.701   3.707   9.311  0.5985  1.0925 -1.2570
 5360SOL     OW27538   2.997   0.588   5.215 -0.3595  0.6292 -0.0953
 5360SOL    HW127539   2.947   0.669   5.209 -0.6650  0.7053  3.4442
 5360SOL    HW227540   2.960   0.524   5.153  2.5989 -1.7565  0.5692
 5361SOL     OW27541   1.124   4.286   1.284  0.1387 -0.3291  0.6495
 5361SOL    HW127542   1.144   4.379   1.268 -0.5661 -0.3648 -0.4160
 5361SOL    HW227543   1.036   4.284   1.247  0.8921 -0.8787 -1.1159
 5362SOL     OW27544   3.392   2.533   3.594  0.3802  0.7485 -0.0314
 5362SOL    HW127545   3.453   2.542   3.521 -0.4337  1.4747 -0.6094
 5362SOL    HW227546   3.365   2.625   3.601 -1.0783  0.5627 -3.4250
 5363SOL     OW27547   0.276   2.658   4.725 -0.2161 -0.3091  0.0190
 5363SOL    HW127548   0.232   2.609   4.656  0.6906 -1.3143  0.1573
 5363SOL    HW227549   0.210   2.724   4.747  1.8547  1.5975  0.5496
 5364SOL     OW27550   2.278   0.955   6.054 -0.6492  0.0488  0.1309
 5364SOL    HW127551   2.365   0.961   6.094  0.1039  1.0380 -1.6248
 5364SOL    HW227552   2.305   0.951   5.962 -2.5548 -2.0071 -0.3342
 5365SOL     OW27553   1.132   4.572  10.995  0.8619 -0.4769  0.5230
 5365SOL    HW127554   1.151   4.632  11.067 -0.0407  0.1327  0.2450
 5365SOL    HW227555   1.167   4.624  10.924 -2.1874 -0.3892 -0.9293
 5366SOL     OW27556   0.572   2.477   7.366  0.5072  0.3068 -0.0354
 5366SOL    HW127557   0.572   2.382   7.377 -0.2033  0.4782  1.3799
 5366SOL    HW227558   0.499   2.491   7.306  1.2434 -1.9598 -1.4468
 5367SOL     OW27559   1.559   0.455   3.162  0.5628 -0.0126 -0.1715
 5367SOL    HW127560   1.527   0.541   3.135 -2.1333 -0.9352  0.0734
 5367SOL    HW227561   1.639   0.479   3.208  0.8196 -0.1144 -0.5630
 5368SOL     OW27562   0.204   0.618   7.118  0.4046  0.2867  0.2365
 5368SOL    HW127563   0.207   0.703   7.162 -1.4755  0.2776  0.3823
 5368SOL    HW227564   0.238   0.646   7.033  2.6808 -1.4958  0.5717
 5369SOL     OW27565   3.718   1.497   1.536  0.2347  0.1575 -0.1266
 5369SOL    HW127566   3.807   1.506   1.570 -0.2331 -0.8279  1.3789
 5369SOL    HW227567   3.667   1.543   1.603  1.3037  1.9905 -0.5586
 5370SOL     OW27568   1.921   3.532  13.820  0.0817 -0.2097  0.1551
 5370SOL    HW127569   1.977   3.568  13.752 -0.9298  0.5460 -0.2754
 5370SOL    HW227570   1.860   3.597  13.855 -0.6386 -0.9955  0.3605
 5371SOL     OW27571   3.646   4.498   9.317 -0.6958  0.6538  0.3895
 5371SOL    HW127572   3.585   4.428   9.343 -1.0818 -0.0778 -2.5340
 5371SOL    HW227573   3.668   4.545   9.398  0.2901 -0.0322  0.5177
 5372SOL     OW27574   0.739   2.496  17.102  0.2544  0.4718  0.0304
 5372SOL    HW127575   0.783   2.500  17.187 -0.1450  0.6270  0.2287
 5372SOL    HW227576   0.647   2.493  17.128  0.6812  1.5611  1.6336
 5373SOL     OW27577   4.545   2.814  12.626  0.0377 -0.0607  0.4564
 5373SOL    HW127578   4.561   2.772  12.710  2.0643 -0.8924 -0.3283
 5373SOL    HW227579   4.634   2.850  12.626 -0.0667  0.2087 -1.1066
 5374SOL     OW27580   4.220   0.359   4.770  0.3234  0.3070 -0.2746
 5374SOL    HW127581   4.143   0.376   4.825  3.1308  0.6463  3.5308
 5374SOL    HW227582   4.192   0.300   4.701  0.7006  0.0846 -0.2355
 5375SOL     OW27583   4.208   4.130   6.014  0.3705  0.1425  1.0816
 5375SOL    HW127584   4.191   4.094   5.927  0.7359  1.8560  0.2978
 5375SOL    HW227585   4.260   4.207   5.992 -0.0294 -0.0892 -0.6534
 5376SOL     OW27586   1.579   0.646   1.554 -0.1866  0.2729 -1.0343
 5376SOL    HW127587   1.531   0.725   1.577  0.6893  1.0272 -1.7728
 5376SOL    HW227588   1.548   0.580   1.616 -1.6453 -0.1313 -2.1998
 5377SOL     OW27589   2.877   3.554  15.758 -0.2399 -0.1095  0.0413
 5377SOL    HW127590   2.970   3.572  15.766 -0.3637  0.9154 -0.8313
 5377SOL    HW227591   2.873   3.594  15.671 -3.0697  0.2063  0.3083
 5378SOL     OW27592   3.005   4.564  13.551 -0.2715 -0.2258 -0.2420
 5378SOL    HW127593   2.975   4.595  13.465  0.8380  2.0742  0.2011
 5378SOL    HW227594   3.091   4.523  13.540  0.1181  0.3511  0.6418
 5379SOL     OW27595   3.356   1.608   8.036 -0.2458 -0.0080  0.0937
 5379SOL    HW127596   3.261   1.618   8.040 -0.3288 -0.7102 -0.2605
 5379SOL    HW227597   3.382   1.580   7.948  0.7064 -0.1721  0.4270
 5380SOL     OW27598   1.085   2.348   3.285  0.3569  0.2484 -0.2663
 5380SOL    HW127599   1.138   2.268   3.284 -0.4546 -0.2408 -3.5163
 5380SOL    HW227600   1.108   2.386   3.201 -1.0814 -0.3630 -0.9400
 5381SOL     OW27601   0.309   0.517   8.943  0.0596 -0.4702 -0.0983
 5381SOL    HW127602   0.357   0.543   9.021  0.6440 -0.1303 -0.5726
 5381SOL    HW227603   0.221   0.500   8.976  0.1078 -0.8748 -0.1758
 5382SOL     OW27604   4.704   0.306  14.701 -0.4231 -0.3472  0.5051
 5382SOL    HW127605   4.696   0.393  14.740  1.7817 -0.0194  0.2512
 5382SOL    HW227606   4.693   0.253  14.780 -3.5849  0.4739  0.6120
 5383SOL     OW27607   0.170   0.389   2.829  0.9260  0.5000  0.1360
 5383SOL    HW127608   0.193   0.301   2.800 -1.3643  0.6410 -2.1355
 5383SOL    HW227609   0.147   0.437   2.750 -1.5957 -0.6902  0.1487
 5384SOL     OW27610   0.308   3.986  10.255  0.1950 -0.0611  0.5755
 5384SOL    HW127611   0.262   3.995  10.172  1.7242  0.4942 -0.2032
 5384SOL    HW227612   0.381   3.932  10.225 -0.4960 -0.4379 -0.4235
 5385SOL     OW27613   4.626   1.826   7.556 -0.0624 -0.0906 -0.2227
 5385SOL    HW127614   4.590   1.887   7.491  0.6230 -0.9307 -1.3993
 5385SOL    HW227615   4.697   1.882   7.588 -1.7343  2.5459 -1.1362
 5386SOL     OW27616   3.532   2.263   2.223  0.2842 -0.1865  0.1410
 5386SOL    HW127617   3.599   2.282   2.158 -0.3135 -1.7374 -0.9139
 5386SOL    HW227618   3.562   2.182   2.262  0.0794 -0.2548  0.1603
 5387SOL     OW27619   3.289   2.020   7.728  0.0635 -0.3931  0.1429
 5387SOL    HW127620   3.314   1.960   7.658  2.9619 -0.1985  1.0129
 5387SOL    HW227621   3.245   1.959   7.788 -1.4253  0.1569 -0.4031
 5388SOL     OW27622   2.447   4.072   6.998 -0.1619 -0.2503 -0.1068
 5388SOL    HW127623   2.352   4.078   6.994 -0.3839 -3.1964  0.7536
 5388SOL    HW227624   2.450   4.161   7.033  1.3765  0.2680 -1.5473
 5389SOL     OW27625   1.702   0.075   2.555 -0.7217  0.1779  0.2474
 5389SOL    HW127626   1.626   0.097   2.501  1.0550  1.8565 -1.5700
 5389SOL    HW227627   1.728   0.162   2.585 -0.1845 -0.6194  2.0823
 5390SOL     OW27628   1.985   2.378   8.607 -0.2814  0.0300 -0.0057
 5390SOL    HW127629   2.064   2.375   8.660  0.8055 -0.4313 -1.6763
 5390SOL    HW227630   1.958   2.467   8.631 -0.3279  0.2618 -0.9123
 5391SOL     OW27631   2.739   3.039  13.590 -0.5395 -0.1810  0.3078
 5391SOL    HW127632   2.808   2.985  13.551 -0.5169 -0.0128  0.1134
 5391SOL    HW227633   2.722   3.096  13.514 -0.1004  0.1565  0.4641
 5392SOL     OW27634   4.569   4.081   6.987 -0.6446 -0.3214  0.1337
 5392SOL    HW127635   4.529   4.023   7.052 -1.6535  1.2349  0.9198
 5392SOL    HW227636   4.500   4.109   6.927 -1.4054 -1.6851  0.3862
 5393SOL     OW27637   1.040   3.191  11.353 -0.6909 -0.2900  0.1570
 5393SOL    HW127638   1.064   3.113  11.403  0.5416  1.6737  2.6285
 5393SOL    HW227639   1.089   3.255  11.405 -1.3668  0.1521  0.2460
 5394SOL     OW27640   2.742   0.746   6.050 -0.5231  0.5396 -0.0381
 5394SOL    HW127641   2.668   0.689   6.072 -0.7117  1.7242  2.3814
 5394SOL    HW227642   2.801   0.681   6.013 -0.7330  0.1032  0.3910
 5395SOL     OW27643   2.715   2.421  13.941  0.5407 -0.0620  0.2621
 5395SOL    HW127644   2.727   2.472  14.022  0.8777  0.1854  0.0589
 5395SOL    HW227645   2.632   2.456  13.909 -0.1671 -1.6712  0.3793
 5396SOL     OW27646   1.430   2.495   3.193  0.4249 -0.5131  0.0217
 5396SOL    HW127647   1.456   2.577   3.236  0.1677  0.4564 -1.6701
 5396SOL    HW227648   1.429   2.437   3.269  4.4131  0.0430  0.5294
 5397SOL     OW27649   0.733   1.633   6.942 -0.9149 -0.1336  0.3795
 5397SOL    HW127650   0.800   1.613   6.876 -1.7016  0.0862 -0.4938
 5397SOL    HW227651   0.683   1.551   6.942 -0.1027 -0.6275 -1.8073
 5398SOL     OW27652   4.449   1.203   5.578 -0.3190  0.1481  0.5755
 5398SOL    HW127653   4.391   1.174   5.507 -0.2481  0.4295  0.4020
 5398SOL    HW227654   4.390   1.203   5.653 -1.0544  0.3390 -0.0015
 5399SOL     OW27655   3.790   2.071   6.640  0.0370  0.2672  0.7443
 5399SOL    HW127656   3.738   2.114   6.572  0.7009  0.7663  0.5456
 5399SOL    HW227657   3.752   1.984   6.635 -2.3494  1.1887  3.1410
 5400SOL     OW27658   2.443   1.279   4.549 -0.2761 -0.3681  0.0771
 5400SOL    HW127659   2.461   1.320   4.464  0.3916 -1.1637 -0.1707
 5400SOL    HW227660   2.418   1.191   4.521  0.9581 -0.8821  0.5812
 5401SOL     OW27661   2.859   0.169   9.340  0.2582 -0.4765  0.2669
 5401SOL    HW127662   2.914   0.114   9.285 -1.1644  0.4813 -2.1061
 5401SOL    HW227663   2.919   0.241   9.357 -2.0573  1.5284 -0.0339
 5402SOL     OW27664   1.676   3.027   6.815 -0.0227  0.4795  0.1913
 5402SOL    HW127665   1.681   3.123   6.823 -1.9662  0.6232 -0.2195
 5402SOL    HW227666   1.624   3.023   6.735  2.3452 -3.2224 -1.1252
 5403SOL     OW27667   2.689   3.339  15.194  0.0058 -0.5921  0.8818
 5403SOL    HW127668   2.604   3.306  15.164  0.6532 -0.8870 -0.6470
 5403SOL    HW227669   2.735   3.259  15.221  0.3827 -0.3155  1.0467
 5404SOL     OW27670   0.070   4.131   4.236 -0.2280  0.0614  0.8244
 5404SOL    HW127671   0.048   4.074   4.310 -1.6964  0.1102  0.4198
 5404SOL    HW227672   0.084   4.215   4.278 -2.1528  1.3086 -1.0284
 5405SOL     OW27673   3.524   0.491   7.097  0.3886  0.0290  0.9504
 5405SOL    HW127674   3.540   0.401   7.125  0.7436 -0.7495 -1.6815
 5405SOL    HW227675   3.523   0.544   7.176  0.0887  0.9038  0.3595
 5406SOL     OW27676   1.134   3.909   3.200 -0.0049  0.4417  0.5288
 5406SOL    HW127677   1.069   3.880   3.264 -2.7946  0.2840 -2.3763
 5406SOL    HW227678   1.201   3.842   3.215  1.6863  2.0676  0.1917
 5407SOL     OW27679   2.159   4.697  10.097 -0.2298  0.1803 -0.1754
 5407SOL    HW127680   2.134   4.605  10.087  0.5703  0.0741 -1.1703
 5407SOL    HW227681   2.245   4.680  10.135 -0.2799 -0.6479 -0.4301
 5408SOL     OW27682   2.095   2.270  17.000 -0.2667  0.0658  0.2419
 5408SOL    HW127683   2.182   2.310  17.001  0.7057 -2.0677  0.5446
 5408SOL    HW227684   2.093   2.230  16.913  0.0183  0.4099  0.0751
 5409SOL     OW27685   2.628   4.174   7.692  0.7516  0.3329 -1.0634
 5409SOL    HW127686   2.637   4.137   7.605 -1.5739 -1.0004 -0.7460
 5409SOL    HW227687   2.575   4.102   7.726 -0.8320  1.9837 -0.0371
 5410SOL     OW27688   0.472   2.528   2.889 -0.3762  0.2556 -0.0156
 5410SOL    HW127689   0.484   2.516   2.983 -1.4482 -2.1898 -0.1999
 5410SOL    HW227690   0.423   2.455   2.853  0.6407 -0.0544 -0.7557
 5411SOL     OW27691   1.986   0.187   7.683  0.3159 -0.0729 -0.0856
 5411SOL    HW127692   2.063   0.231   7.647 -1.0055  0.2947 -2.4642
 5411SOL    HW227693   2.027   0.134   7.751 -2.1858 -2.5829 -0.5507
 5412SOL     OW27694   0.557   2.604   4.912  0.0450 -0.4126 -0.6217
 5412SOL    HW127695   0.593   2.636   4.830 -0.2777  0.1616 -0.5435
 5412SOL    HW227696   0.499   2.678   4.932  0.2490 -1.2976  3.2151
 5413SOL     OW27697   0.188   0.849   7.266 -0.1415  0.0808  0.4505
 5413SOL    HW127698   0.198   0.898   7.348  1.9239  0.1349  0.1638
 5413SOL    HW227699   0.106   0.889   7.235 -1.2496 -1.8466  0.8747
 5414SOL     OW27700   4.325   0.733   6.246 -0.0296  0.0559 -0.6149
 5414SOL    HW127701   4.288   0.658   6.294 -0.3217 -0.6786 -2.0010
 5414SOL    HW227702   4.258   0.741   6.178 -1.6527 -1.6102  0.7843
 5415SOL     OW27703   0.143   0.680   9.784 -0.2469  0.5250 -0.2992
 5415SOL    HW127704   0.193   0.604   9.756  0.3608  0.0356  2.0783
 5415SOL    HW227705   0.072   0.638   9.833 -0.7625 -0.7181 -2.1109
 5416SOL     OW27706   3.500   3.444  16.559 -0.1818 -0.2958  0.7413
 5416SOL    HW127707   3.461   3.369  16.604 -2.0958  0.8901  1.0591
 5416SOL    HW227708   3.478   3.432  16.467  0.2000  0.9421  0.4777
 5417SOL     OW27709   4.233   3.128   6.298  0.1058  0.4903  0.3305
 5417SOL    HW127710   4.305   3.089   6.346 -0.9054 -0.5205  1.0219
 5417SOL    HW227711   4.287   3.150   6.222 -1.3769  0.0991 -0.8539
 5418SOL     OW27712   1.024   4.386   7.657  0.1260  0.0186 -0.0726
 5418SOL    HW127713   1.113   4.389   7.693 -0.1996 -0.3608  0.7585
 5418SOL    HW227714   1.005   4.477   7.632  0.8905  0.4965  1.0443
 5419SOL     OW27715   4.481   4.549  11.892  0.4508  0.0492 -0.2538
 5419SOL    HW127716   4.415   4.597  11.942  0.7101  0.6604 -0.5028
 5419SOL    HW227717   4.442   4.572  11.808 -3.4326  0.6405  1.6942
 5420SOL     OW27718   4.431   3.117  14.836  0.6805  0.5038  0.0366
 5420SOL    HW127719   4.495   3.185  14.814  0.9286  0.2733  0.0438
 5420SOL    HW227720   4.448   3.109  14.930  3.7807 -1.4362 -0.6971
 5421SOL     OW27721   3.243   0.277  15.702 -0.0932 -0.8070 -0.1165
 5421SOL    HW127722   3.274   0.343  15.764 -0.7736 -0.0758 -0.5539
 5421SOL    HW227723   3.326   0.230  15.712 -0.2612 -0.9994  0.3785
 5422SOL     OW27724   1.257   2.511   1.792 -0.2221 -0.3769  0.5953
 5422SOL    HW127725   1.326   2.447   1.809 -1.4434 -2.3254 -1.6483
 5422SOL    HW227726   1.252   2.566   1.870  0.6640  1.7174 -0.8052
 5423SOL     OW27727   3.069   0.273   1.496  0.4924 -0.7326  0.4103
 5423SOL    HW127728   3.007   0.232   1.555  0.0544 -2.7932 -1.4940
 5423SOL    HW227729   3.141   0.219   1.529  0.2068 -2.9551 -2.6349
 5424SOL     OW27730   1.612   4.275  15.047 -0.1860  0.4001  0.4644
 5424SOL    HW127731   1.599   4.293  14.954  2.8251 -3.2662 -0.6747
 5424SOL    HW227732   1.581   4.349  15.098  0.5135  0.9413  0.1045
 5425SOL     OW27733   1.258   0.738   2.081 -0.6845  0.2966 -0.4938
 5425SOL    HW127734   1.184   0.700   2.034 -0.6810 -3.0854  2.2913
 5425SOL    HW227735   1.210   0.818   2.104  0.7738  0.5418  1.7319
 5426SOL     OW27736   3.048   3.666  11.553  0.3646 -0.1198  0.3116
 5426SOL    HW127737   3.088   3.619  11.479  1.1127 -1.9757  1.8905
 5426SOL    HW227738   3.117   3.730  11.567  0.7265 -0.5110  0.3221
 5427SOL     OW27739   1.637   0.376   5.616  0.3048  0.0295  0.8894
 5427SOL    HW127740   1.551   0.336   5.604  0.1788  1.5248 -3.2474
 5427SOL    HW227741   1.637   0.449   5.555 -0.3759 -0.3020  0.4908
 5428SOL     OW27742   1.901   2.556  15.918  0.0674 -0.1046  0.6089
 5428SOL    HW127743   1.968   2.540  15.984  0.0103 -0.8801  0.4759
 5428SOL    HW227744   1.909   2.481  15.860  1.3034  1.6925 -1.5829
 5429SOL     OW27745   4.053   4.674   8.022 -0.0998  0.7946  0.4595
 5429SOL    HW127746   4.145   4.693   8.000  0.1467 -0.6509  0.2296
 5429SOL    HW227747   4.080   4.635   8.105  1.5539  2.2209  0.6107
 5430SOL     OW27748   3.507   2.026   4.029 -0.6009  0.7276  0.5148
 5430SOL    HW127749   3.502   2.061   4.118  0.4063 -0.0320  0.8779
 5430SOL    HW227750   3.565   1.951   4.041 -0.9689  0.2905 -0.4227
 5431SOL     OW27751   0.753   0.654  10.040 -0.0178 -0.3201 -0.0110
 5431SOL    HW127752   0.746   0.749  10.028  0.1828 -0.2059  0.7637
 5431SOL    HW227753   0.665   0.626  10.064  1.0746 -2.6250  1.2862
 5432SOL     OW27754   0.072   1.075   8.556  0.2885 -0.0672 -0.3141
 5432SOL    HW127755   4.708   1.107   8.565  1.1128  1.9279  0.7135
 5432SOL    HW227756   0.085   1.047   8.647 -1.2856  2.2859  0.6245
 5433SOL     OW27757   2.736   2.801  14.323 -0.4466 -0.2880 -0.2646
 5433SOL    HW127758   2.812   2.748  14.345 -1.0072 -1.1808 -0.4840
 5433SOL    HW227759   2.726   2.772  14.233 -0.1206 -0.5180 -0.2262
 5434SOL     OW27760   3.325   2.679   4.270 -0.0172  0.1736 -0.0947
 5434SOL    HW127761   3.401   2.630   4.237  1.6177  1.7117  1.4499
 5434SOL    HW227762   3.337   2.761   4.222 -1.0637 -0.3232 -1.2436
 5435SOL     OW27763   4.592   0.825   6.286 -0.1365  0.2871  0.2052
 5435SOL    HW127764   4.511   0.788   6.249  0.6376  1.6636 -2.8489
 5435SOL    HW227765   4.575   0.919   6.282 -0.7112  0.2531  1.6105
 5436SOL     OW27766   2.766   4.216  12.099 -0.2535  0.5230  0.2165
 5436SOL    HW127767   2.734   4.264  12.175 -1.5513  1.1660 -0.7222
 5436SOL    HW227768   2.858   4.243  12.099 -0.4403  1.1606 -0.0140
 5437SOL     OW27769   0.994   0.111   1.933  0.3078 -0.4212  0.1491
 5437SOL    HW127770   0.954   0.129   1.848  1.1222  0.4576 -0.0440
 5437SOL    HW227771   1.055   0.184   1.941  0.9603 -1.1066  1.2600
 5438SOL     OW27772   0.608   0.784  16.659  0.4920 -0.0624 -0.2005
 5438SOL    HW127773   0.579   0.859  16.607 -2.0827  0.2148  1.6205
 5438SOL    HW227774   0.603   0.835  16.740  1.2356  0.0562 -0.2250
 5439SOL     OW27775   0.220   1.639   7.021 -0.2671 -0.3244 -0.6635
 5439SOL    HW127776   0.249   1.551   7.043 -2.7902 -1.1115 -0.3978
 5439SOL    HW227777   0.208   1.681   7.107 -0.7752 -1.0084 -0.3979
 5440SOL     OW27778   0.843   2.596  11.215  0.2251  0.0093 -0.3164
 5440SOL    HW127779   0.808   2.635  11.135 -2.1344  1.0891  1.2408
 5440SOL    HW227780   0.768   2.578  11.272  0.6857 -0.4607  0.1360
 5441SOL     OW27781   4.207   0.119   4.165  0.5053  0.0610 -0.0879
 5441SOL    HW127782   4.145   0.088   4.230  0.1617 -0.6021 -0.7399
 5441SOL    HW227783   4.206   0.213   4.184 -1.4257 -0.0436  0.3293
 5442SOL     OW27784   2.086   4.372   5.292  0.2765  0.3466  0.2072
 5442SOL    HW127785   2.078   4.418   5.375  1.4698 -0.2893  0.6761
 5442SOL    HW227786   2.134   4.294   5.321  1.8160  0.4514 -2.0689
 5443SOL     OW27787   3.936   2.822  17.477  0.5554 -0.0222  0.0468
 5443SOL    HW127788   3.955   2.851  17.566  1.6712 -0.0790 -0.1815
 5443SOL    HW227789   3.858   2.876  17.459  0.2702 -0.6384 -0.5304
 5444SOL     OW27790   3.679   0.942   4.659 -0.4734  0.3438  0.0022
 5444SOL    HW127791   3.651   1.000   4.588 -0.1518  1.4137  0.7691
 5444SOL    HW227792   3.606   0.880   4.653 -0.7133  0.7412 -1.3641
 5445SOL     OW27793   2.746   0.403   1.062 -0.7882 -0.0969 -0.1850
 5445SOL    HW127794   2.803   0.457   1.008 -2.1201  0.2021 -1.2774
 5445SOL    HW227795   2.735   0.462   1.137  0.0285  1.9345 -1.6566
 5446SOL     OW27796   3.266   2.018   8.069  0.2490 -0.6952  0.2860
 5446SOL    HW127797   3.221   1.990   7.989 -2.1468  1.0824  1.0060
 5446SOL    HW227798   3.207   1.975   8.131 -1.0424 -2.8507 -2.4250
 5447SOL     OW27799   1.179   1.343   1.694  0.4110  0.1269  0.0920
 5447SOL    HW127800   1.255   1.344   1.636  0.6034 -0.3447  0.3388
 5447SOL    HW227801   1.110   1.386   1.642  0.8131  1.9822  1.0879
 5448SOL     OW27802   4.054   4.477  16.153 -0.3961  0.5553  0.0900
 5448SOL    HW127803   4.015   4.546  16.099 -0.0200 -0.1691 -1.1119
 5448SOL    HW227804   4.075   4.408  16.090  0.9536  0.0916  1.0459
 5449SOL     OW27805   1.878   0.113   1.565  0.1907 -0.2445 -0.2786
 5449SOL    HW127806   1.943   0.049   1.594 -0.5701 -1.7554 -1.8398
 5449SOL    HW227807   1.854   0.062   1.487 -5.6323 -0.5665  1.7427
 5450SOL     OW27808   3.482   2.357  16.346 -0.1389  0.0300 -0.7990
 5450SOL    HW127809   3.553   2.295  16.364  2.0805  3.4088  2.2254
 5450SOL    HW227810   3.415   2.315  16.398  0.4131  0.9628  0.6738
 5451SOL     OW27811   1.168   2.304  17.482 -0.2182  0.1580  0.0686
 5451SOL    HW127812   1.091   2.250  17.500  1.6151 -1.5819  2.6904
 5451SOL    HW227813   1.237   2.250  17.443 -0.7227 -1.6019  1.6258
 5452SOL     OW27814   2.873   1.620   6.032  0.0313  0.5254 -0.0835
 5452SOL    HW127815   2.958   1.575   6.026  0.4302  0.6984  4.2525
 5452SOL    HW227816   2.827   1.566   5.967  0.0817 -0.4847  0.7157
 5453SOL     OW27817   3.326   3.644   3.922  0.0358 -0.0215 -0.2506
 5453SOL    HW127818   3.240   3.647   3.880 -0.6326  0.6241  1.1724
 5453SOL    HW227819   3.356   3.557   3.896 -0.1314  0.0061 -0.5423
 5454SOL     OW27820   4.541   1.683   8.228  0.3031  0.3225 -0.3968
 5454SOL    HW127821   4.604   1.711   8.295  0.6840 -1.0198 -0.2090
 5454SOL    HW227822   4.462   1.726   8.263 -1.8456 -0.4526 -4.3388
 5455SOL     OW27823   2.394   1.418   6.016 -0.0555 -0.2480  0.4098
 5455SOL    HW127824   2.322   1.397   5.956 -0.9893 -0.0258  1.4392
 5455SOL    HW227825   2.362   1.380   6.098  0.6089 -0.6137  0.4955
 5456SOL     OW27826   1.869   0.697  12.234  0.5359 -0.2005  0.3895
 5456SOL    HW127827   1.910   0.616  12.202 -0.0319 -0.1899 -0.3821
 5456SOL    HW227828   1.931   0.707  12.305  0.0179  2.4027  0.4579
 5457SOL     OW27829   3.050   2.179   7.858 -0.1023 -0.3185 -0.0981
 5457SOL    HW127830   2.956   2.186   7.873 -0.0264 -1.2920  0.8330
 5457SOL    HW227831   3.075   2.086   7.862  1.3216  0.0847  0.5563
 5458SOL     OW27832   4.196   1.666   6.755  0.8232  0.7887 -0.3590
 5458SOL    HW127833   4.253   1.649   6.830 -0.2555 -1.6324 -0.0664
 5458SOL    HW227834   4.115   1.697   6.795  1.7690  0.4314  1.8178
 5459SOL     OW27835   2.734   0.668   2.103 -0.1493 -0.5551  0.4481
 5459SOL    HW127836   2.824   0.636   2.108 -0.2875 -0.9893  0.0686
 5459SOL    HW227837   2.750   0.760   2.128 -1.1521 -0.9764  2.6511
 5460SOL     OW27838   0.184   2.349  13.542 -0.4934 -0.2137 -0.2798
 5460SOL    HW127839   0.271   2.320  13.516 -0.7416  0.6664 -2.0519
 5460SOL    HW227840   0.199   2.421  13.604  1.6396 -0.9421  0.0577
 5461SOL     OW27841   0.106   3.879   2.402 -0.7238 -0.1836 -0.2587
 5461SOL    HW127842   0.107   3.788   2.374  0.8115 -0.0561 -0.6502
 5461SOL    HW227843   0.035   3.872   2.466 -0.6534 -2.0004 -0.3909
 5462SOL     OW27844   2.998   1.688   3.343  0.2175 -0.7858  0.5984
 5462SOL    HW127845   3.087   1.712   3.369  0.2793 -1.1300  0.7114
 5462SOL    HW227846   3.016   1.610   3.291 -2.3787 -0.2586 -1.0433
 5463SOL     OW27847   3.069   3.859   5.591 -0.3017  0.1566  0.2293
 5463SOL    HW127848   3.051   3.952   5.606 -1.6715  0.2232 -1.9698
 5463SOL    HW227849   3.147   3.853   5.646 -0.5769  0.5689  0.6659
 5464SOL     OW27850   1.461   4.424   8.875 -0.3646 -0.0523  0.1614
 5464SOL    HW127851   1.430   4.354   8.932 -0.3428 -0.8048 -0.7578
 5464SOL    HW227852   1.394   4.432   8.807  0.3087 -0.3980 -0.5457
 5465SOL     OW27853   2.927   4.526   7.205  0.0471  0.8056  0.0586
 5465SOL    HW127854   2.865   4.519   7.278  0.7255  2.6789  0.8142
 5465SOL    HW227855   2.999   4.465   7.220  1.1641  1.9652 -0.6332
 5466SOL     OW27856   2.184   3.480  10.031 -0.3712 -0.2971 -0.2474
 5466SOL    HW127857   2.119   3.410  10.033  1.1675 -1.7657 -3.2260
 5466SOL    HW227858   2.226   3.476  10.118  0.6309 -0.2202 -0.7270
 5467SOL     OW27859   1.007   1.833   2.073  0.6941 -0.2805 -0.1559
 5467SOL    HW127860   1.101   1.822   2.066  0.2695 -2.7098 -2.1190
 5467SOL    HW227861   1.006   1.873   2.160  0.1307 -2.1310  0.6857
 5468SOL     OW27862   0.195   3.740   5.848  0.4624 -0.3483 -0.7676
 5468SOL    HW127863   0.107   3.703   5.848 -0.4069  1.6915 -2.7119
 5468SOL    HW227864   0.207   3.782   5.933  0.4397 -0.8387 -0.5281
 5469SOL     OW27865   1.255   1.107   6.072  0.2758 -0.2076 -0.0913
 5469SOL    HW127866   1.172   1.079   6.112 -0.4198  1.3601 -0.4404
 5469SOL    HW227867   1.268   1.195   6.109 -0.5041 -0.2691  0.3330
 5470SOL     OW27868   4.025   1.013   6.082 -0.3105 -0.1712  0.0886
 5470SOL    HW127869   3.951   1.043   6.029 -0.5463  1.0319  1.1077
 5470SOL    HW227870   3.990   1.005   6.171  0.5925 -1.1704  0.3561
 5471SOL     OW27871   1.746   1.949  11.497 -0.3279  0.2087 -0.0443
 5471SOL    HW127872   1.842   1.950  11.492 -0.2969 -0.9158  0.3243
 5471SOL    HW227873   1.735   1.869  11.549  1.9787 -0.2609 -0.2665
 5472SOL     OW27874   0.999   4.334   3.195 -0.2694  0.3482 -0.9337
 5472SOL    HW127875   1.018   4.337   3.288 -0.4841  0.4997 -0.8938
 5472SOL    HW227876   1.048   4.410   3.164  0.0966 -0.2461 -1.8001
 5473SOL     OW27877   4.681   0.925  13.177 -0.1410 -0.3068  0.3953
 5473SOL    HW127878   4.711   0.835  13.160  0.0531 -0.2583  0.4838
 5473SOL    HW227879   0.029   0.971  13.135  0.8183 -1.5894  0.6368
 5474SOL     OW27880   1.954   3.807  17.488 -0.3740 -0.1058 -0.2602
 5474SOL    HW127881   1.992   3.879  17.437 -0.6573  1.0882  1.2041
 5474SOL    HW227882   1.860   3.825  17.476  0.0443  1.8075 -0.6151
 5475SOL     OW27883   2.440   4.210   2.490 -0.0253 -0.0063  0.3727
 5475SOL    HW127884   2.432   4.114   2.497  1.8249 -0.1827  0.1996
 5475SOL    HW227885   2.389   4.224   2.411 -0.8321 -0.5931  0.7847
 5476SOL     OW27886   0.520   0.460  16.978  0.0319 -0.0033  0.2770
 5476SOL    HW127887   0.486   0.547  17.000  0.3193  0.2619 -0.3104
 5476SOL    HW227888   0.596   0.487  16.926  2.4645 -2.1092  2.7343
 5477SOL     OW27889   1.638   0.016  15.279 -0.1919  0.7068 -0.1148
 5477SOL    HW127890   1.679   0.039  15.362 -0.5113 -1.9829  0.8063
 5477SOL    HW227891   1.702   0.039  15.211 -0.3518 -1.4421 -0.9948
 5478SOL     OW27892   3.428   0.952  11.363  0.2284 -0.3810 -0.1894
 5478SOL    HW127893   3.366   0.936  11.434  0.6185 -2.0688 -0.2472
 5478SOL    HW227894   3.459   0.863  11.347 -1.1306 -0.8329 -0.2426
 5479SOL     OW27895   1.850   0.426  10.436 -0.1136 -0.5012 -0.3240
 5479SOL    HW127896   1.890   0.513  10.436  1.1086 -1.0586 -0.4639
 5479SOL    HW227897   1.908   0.377  10.377 -0.6021 -2.0742  0.5046
 5480SOL     OW27898   1.866   0.867  10.140  0.1590  0.6180  0.4948
 5480SOL    HW127899   1.882   0.879  10.234 -0.5177 -0.2593  0.7166
 5480SOL    HW227900   1.797   0.933  10.133 -0.4457 -0.2491 -1.5872
 5481SOL     OW27901   2.532   1.394   9.878 -0.1496  0.0651  0.0817
 5481SOL    HW127902   2.546   1.466   9.939 -1.2757  0.9666 -0.7183
 5481SOL    HW227903   2.439   1.402   9.858  0.5444 -1.5288 -3.7667
 5482SOL     OW27904   0.109   1.378   1.402 -0.6064 -0.2528  0.3462
 5482SOL    HW127905   0.179   1.319   1.428  1.0278  1.3740 -0.3234
 5482SOL    HW227906   0.080   1.396   1.491 -0.9477  0.1453  0.1528
 5483SOL     OW27907   0.683   3.683   4.441 -0.2618  0.1799  0.6477
 5483SOL    HW127908   0.756   3.743   4.451 -1.1638  1.2593  0.7732
 5483SOL    HW227909   0.654   3.693   4.350  0.6624  0.9568  0.4461
 5484SOL     OW27910   2.999   4.473   3.721  0.5544  0.0454  0.3209
 5484SOL    HW127911   3.076   4.513   3.762 -1.2271  1.0627  2.6454
 5484SOL    HW227912   2.931   4.486   3.787 -0.3979  0.6745 -0.7746
 5485SOL     OW27913   1.588   1.774   9.357  0.0660 -0.4169 -0.1416
 5485SOL    HW127914   1.570   1.686   9.325  0.0315 -1.0664  1.6394
 5485SOL    HW227915   1.679   1.775   9.387  0.8926 -2.3490 -2.5767
 5486SOL     OW27916   0.675   1.903   1.823  0.3713  0.0720 -0.3577
 5486SOL    HW127917   0.745   1.853   1.864  2.6257  2.5723 -1.1653
 5486SOL    HW227918   0.717   1.988   1.834  1.1333 -0.4220  0.5793
 5487SOL     OW27919   4.316   3.898   9.692 -0.1435  0.1710  0.6136
 5487SOL    HW127920   4.252   3.830   9.670  0.6662 -0.3337 -0.1803
 5487SOL    HW227921   4.325   3.882   9.786 -1.1437 -1.8077  0.3715
 5488SOL     OW27922   2.480   4.426  13.953 -0.1695  0.0006 -0.0289
 5488SOL    HW127923   2.531   4.442  13.874 -0.8886  0.7490 -0.3474
 5488SOL    HW227924   2.547   4.417  14.020 -1.3402 -1.1507  1.0019
 5489SOL     OW27925   4.566   1.304   1.621 -0.1011  0.3343  0.0956
 5489SOL    HW127926   4.565   1.294   1.716 -0.3399  1.4451  0.2042
 5489SOL    HW227927   4.630   1.239   1.591 -0.9617  0.7217 -2.5944
 5490SOL     OW27928   4.554   3.952  14.786 -0.3507 -0.9568  0.3389
 5490SOL    HW127929   4.579   3.942  14.878 -0.6144  1.1736  0.6202
 5490SOL    HW227930   4.604   3.879  14.747  2.3139  0.8385  0.3602
 5491SOL     OW27931   2.758   0.109   6.918  0.0238  0.1966 -0.2001
 5491SOL    HW127932   2.662   0.107   6.918  0.0125  0.8444 -0.7373
 5491SOL    HW227933   2.782   0.017   6.912  0.3032  0.2982 -0.5958
 5492SOL     OW27934   3.487   3.957  13.366 -0.4715  0.1562 -0.3073
 5492SOL    HW127935   3.486   3.909  13.449  1.9626  4.0022  1.9593
 5492SOL    HW227936   3.433   3.896  13.316 -0.2221  0.6042 -1.1357
 5493SOL     OW27937   3.591   4.264   0.766  0.3286  0.2524 -0.0188
 5493SOL    HW127938   3.572   4.175   0.739  3.6529 -0.2895 -0.6341
 5493SOL    HW227939   3.553   4.257   0.853  0.2721 -0.9159 -0.1459
 5494SOL     OW27940   1.887   3.938   6.342  0.4246  0.2208  0.1774
 5494SOL    HW127941   1.862   3.867   6.401 -2.6917  0.6706 -0.5869
 5494SOL    HW227942   1.842   4.011   6.385  0.7605  1.1073 -0.9429
 5495SOL     OW27943   1.034   4.436  15.139 -0.0157  0.0042  0.5689
 5495SOL    HW127944   1.073   4.444  15.226  0.7956  1.3826  0.0989
 5495SOL    HW227945   1.118   4.421  15.095 -0.6815 -0.9175 -0.3875
 5496SOL     OW27946   0.115   3.643   8.148  0.0098  0.0170  0.1096
 5496SOL    HW127947   0.154   3.669   8.232 -0.2894  1.1352 -0.0947
 5496SOL    HW227948   0.180   3.594   8.098 -2.7010 -0.7836 -2.6863
 5497SOL     OW27949   1.223   2.210   9.521 -0.4524  0.6308  0.4816
 5497SOL    HW127950   1.237   2.286   9.464  0.6351  1.0727  1.3388
 5497SOL    HW227951   1.199   2.144   9.456 -1.0453  1.3590 -0.0330
 5498SOL     OW27952   3.079   2.441   2.886  0.1800 -0.4729 -0.0345
 5498SOL    HW127953   3.153   2.415   2.941 -0.0677  1.0681  1.0618
 5498SOL    HW227954   3.002   2.410   2.934  1.0967 -0.7634  1.2161
 5499SOL     OW27955   1.316   3.974  12.362 -0.6160 -0.0307  0.7099
 5499SOL    HW127956   1.276   4.027  12.294  0.3583  1.7126  1.4764
 5499SOL    HW227957   1.402   3.956  12.324 -0.0458  2.6103  0.7384
 5500SOL     OW27958   2.218   0.884   5.342 -0.4499  0.4556 -0.6008
 5500SOL    HW127959   2.278   0.871   5.269 -0.3892  1.9280 -0.8202
 5500SOL    HW227960   2.220   0.801   5.390 -0.3128 -0.1042 -1.5876
 5501SOL     OW27961   1.855   1.646   2.795  0.1426 -0.0542 -0.3006
 5501SOL    HW127962   1.827   1.628   2.705 -1.2180 -0.7694  0.2589
 5501SOL    HW227963   1.791   1.712   2.821  0.6225 -1.2063  3.7699
 5502SOL     OW27964   1.231   4.162   8.000  0.0119 -0.0165 -0.6110
 5502SOL    HW127965   1.173   4.181   8.073  0.8004  0.7180 -0.1683
 5502SOL    HW227966   1.272   4.078   8.018  0.8917  0.2879 -1.1775
 5503SOL     OW27967   0.205   0.532   9.420  0.5450 -0.4575 -0.0673
 5503SOL    HW127968   0.127   0.564   9.464  0.9065  0.2712  0.0387
 5503SOL    HW227969   0.268   0.582   9.472 -0.6888 -0.3262  1.3002
 5504SOL     OW27970   4.096   4.349   2.115 -0.1645  0.0903  0.2033
 5504SOL    HW127971   4.140   4.272   2.149 -2.0371  0.6007  3.7829
 5504SOL    HW227972   4.170   4.410   2.114 -0.9132  0.9649 -1.9729
 5505SOL     OW27973   0.837   0.891   4.382  0.0804 -0.2482  0.1141
 5505SOL    HW127974   0.802   0.816   4.430 -0.6026 -0.4820 -0.7432
 5505SOL    HW227975   0.766   0.953   4.368  1.0994  0.7444 -0.6517
 5506SOL     OW27976   1.959   3.950   5.536  0.3523  0.1183 -0.0738
 5506SOL    HW127977   2.020   3.899   5.590  0.3551 -0.5531 -0.7010
 5506SOL    HW227978   2.018   3.985   5.470 -0.5840  1.4584 -0.2017
 5507SOL     OW27979   3.087   3.028  14.789  0.1790 -0.1087  0.0880
 5507SOL    HW127980   3.148   3.098  14.812  1.3743 -0.9607 -0.5181
 5507SOL    HW227981   3.134   2.995  14.713 -0.2954 -0.7583  0.0848
 5508SOL     OW27982   2.860   0.335   4.262 -0.7819 -0.0721  0.5019
 5508SOL    HW127983   2.918   0.409   4.241  1.4059 -1.5651  1.2437
 5508SOL    HW227984   2.911   0.270   4.213  1.2179  0.8131  1.4027
 5509SOL     OW27985   3.059   2.875   9.111  0.3795 -0.2631  0.4139
 5509SOL    HW127986   3.143   2.847   9.145  0.4759  1.3375  1.4848
 5509SOL    HW227987   3.084   2.964   9.086 -0.9258 -0.0096 -0.0071
 5510SOL     OW27988   0.182   3.911   0.245  0.6762  0.2106  0.2123
 5510SOL    HW127989   0.229   3.864   0.314  1.3493  1.0565  0.3243
 5510SOL    HW227990   0.094   3.874   0.241 -0.4894  3.1418 -1.4002
 5511SOL     OW27991   4.663   2.838   1.060 -0.3914  0.3882  0.1374
 5511SOL    HW127992   4.710   2.919   1.079  0.2963  0.3650 -1.4489
 5511SOL    HW227993   4.576   2.866   1.030  1.4288  2.2343 -3.4113
 5512SOL     OW27994   4.360   1.198   1.042 -0.2354 -0.1488 -0.2134
 5512SOL    HW127995   4.274   1.227   1.071  0.8087  0.5353  2.2307
 5512SOL    HW227996   4.360   1.102   1.042 -1.4658 -0.1462 -1.2328
 5513SOL     OW27997   3.540   3.280   5.748 -0.3542 -0.1450 -0.2847
 5513SOL    HW127998   3.484   3.356   5.764  0.6474  1.1924 -3.1194
 5513SOL    HW227999   3.481   3.210   5.773 -0.6467 -0.3373 -1.5317
 5514SOL     OW28000   2.609   1.337  16.155  0.5014 -0.4286 -0.3351
 5514SOL    HW128001   2.684   1.341  16.095 -0.0181  1.1864 -0.8705
 5514SOL    HW228002   2.585   1.245  16.148  2.2000 -1.0037  1.5076
 5515SOL     OW28003   2.296   1.371   4.769 -1.0101  0.3437 -0.1481
 5515SOL    HW128004   2.340   1.313   4.831 -0.0269  0.2311 -0.9454
 5515SOL    HW228005   2.344   1.341   4.691 -1.8200 -2.3061  0.3606
 5516SOL     OW28006   1.257   4.484   3.612  0.0795 -0.1034 -0.3086
 5516SOL    HW128007   1.298   4.562   3.574 -0.4772 -0.2454 -1.2245
 5516SOL    HW228008   1.322   4.439   3.665  1.1712 -0.8901 -2.3273
 5517SOL     OW28009   3.037   1.011   6.528  0.6010 -0.0994  0.9977
 5517SOL    HW128010   3.030   0.918   6.551 -1.7652 -0.0034  0.6123
 5517SOL    HW228011   3.126   1.034   6.555  0.8893  0.0755 -0.1113
 5518SOL     OW28012   3.482   3.662   6.294  0.3502  0.2304  0.3061
 5518SOL    HW128013   3.469   3.723   6.221 -0.9166 -0.0529  0.2863
 5518SOL    HW228014   3.516   3.731   6.350  3.7973 -0.6906 -0.6939
 5519SOL     OW28015   1.026   0.468   9.549  0.0050 -0.4908  0.5489
 5519SOL    HW128016   1.022   0.516   9.632 -1.7585 -0.1084  0.2469
 5519SOL    HW228017   1.072   0.529   9.490  0.2339  0.7445  1.9936
 5520SOL     OW28018   0.702   2.979   8.315 -0.2576 -0.2065  0.2409
 5520SOL    HW128019   0.794   2.967   8.290 -0.4530  0.3697 -0.7527
 5520SOL    HW228020   0.655   3.007   8.236  2.7008 -2.1426 -2.2206
 5521SOL     OW28021   4.538   3.186   7.269 -0.6320  0.0805 -0.1644
 5521SOL    HW128022   4.581   3.243   7.334 -1.8828 -0.0213  0.7601
 5521SOL    HW228023   4.587   3.209   7.190 -0.0517  0.4755  0.3057
 5522SOL     OW28024   3.398   4.261   9.795 -0.1049  0.4726 -0.1459
 5522SOL    HW128025   3.487   4.293   9.809 -0.2797  1.0977 -0.4685
 5522SOL    HW228026   3.341   4.326   9.836 -1.7698 -0.6424 -0.7002
 5523SOL     OW28027   3.874   0.923   8.523  0.2058  0.2422 -0.4534
 5523SOL    HW128028   3.899   1.015   8.537  1.2426 -0.4510  2.2932
 5523SOL    HW228029   3.962   0.889   8.508 -0.3626 -1.1779 -0.5867
 5524SOL     OW28030   0.752   2.709  16.248  0.2619 -0.0566  0.0072
 5524SOL    HW128031   0.711   2.648  16.186 -1.2804 -1.4112  2.3838
 5524SOL    HW228032   0.842   2.705  16.216 -0.1305  0.4707 -1.1722
 5525SOL     OW28033   0.528   0.095   6.887  0.2436 -0.2728  0.3212
 5525SOL    HW128034   0.580   0.094   6.807 -0.9856 -2.6835 -0.4297
 5525SOL    HW228035   0.488   0.008   6.879  0.3582 -0.5524  2.7647
 5526SOL     OW28036   4.388   1.949   8.032 -0.1549 -0.2547  0.0711
 5526SOL    HW128037   4.410   1.865   7.990  2.5100  1.1171 -1.2725
 5526SOL    HW228038   4.299   1.972   8.009  0.0219  1.9966  1.6271
 5527SOL     OW28039   3.654   2.765  16.387 -0.1813  0.3906  0.8368
 5527SOL    HW128040   3.691   2.850  16.362  1.9452 -0.8728 -0.2761
 5527SOL    HW228041   3.693   2.699  16.329  0.9316  2.6057 -0.9293
 5528SOL     OW28042   1.251   4.664   3.392  0.1118  0.0917  0.1314
 5528SOL    HW128043   1.296   4.719   3.456 -1.9913  0.6167  1.1613
 5528SOL    HW228044   1.168   4.661   3.440 -0.1911  0.4723 -0.3663
 5529SOL     OW28045   2.993   1.227  13.726 -0.3133  0.3578 -0.4872
 5529SOL    HW128046   3.007   1.132  13.725 -0.7680  0.2812  0.7035
 5529SOL    HW228047   3.037   1.263  13.649  0.4968  2.5698  1.0135
 5530SOL     OW28048   2.024   3.286   0.520 -0.3921  0.0677  0.2323
 5530SOL    HW128049   2.042   3.379   0.504 -0.3732 -0.3247 -2.0298
 5530SOL    HW228050   1.999   3.264   0.431 -0.1573 -0.5698  0.3235
 5531SOL     OW28051   4.449   4.704   4.170 -0.1512  0.6525 -0.2384
 5531SOL    HW128052   4.419   4.648   4.241 -2.9454  2.8800  0.3788
 5531SOL    HW228053   4.362   0.015   4.152  1.0786  2.0190 -3.4330
 5532SOL     OW28054   1.407   3.132   6.281  0.4684 -0.6445 -0.0193
 5532SOL    HW128055   1.387   3.132   6.188 -2.7955  2.1688  0.6792
 5532SOL    HW228056   1.412   3.039   6.302  1.3634 -0.8435 -1.1284
 5533SOL     OW28057   3.694   1.711   4.893 -0.4290  0.2371 -0.0932
 5533SOL    HW128058   3.713   1.655   4.968 -0.8092 -2.3305 -1.9315
 5533SOL    HW228059   3.622   1.760   4.933 -1.0696  0.6081 -1.7076
 5534SOL     OW28060   1.398   1.873   7.909 -0.1026 -0.0990 -0.3937
 5534SOL    HW128061   1.305   1.859   7.923  0.0655  0.0346  0.8892
 5534SOL    HW228062   1.430   1.840   7.992  1.0367 -1.7536 -1.5043
 5535SOL     OW28063   4.012   4.101  10.207 -0.1140  0.5597  0.2333
 5535SOL    HW128064   4.009   4.109  10.302 -0.9845  0.8618  0.1784
 5535SOL    HW228065   4.053   4.186  10.193 -0.7751  0.8328 -0.0544
 5536SOL     OW28066   1.410   1.191   4.268 -0.1320 -0.1388  0.1189
 5536SOL    HW128067   1.477   1.144   4.218 -0.0368 -0.6014  0.6813
 5536SOL    HW228068   1.332   1.143   4.241  1.0990 -1.3783 -1.3091
 5537SOL     OW28069   1.263   3.531   1.877 -0.3156 -0.1917 -0.2463
 5537SOL    HW128070   1.231   3.556   1.964 -0.0431 -0.6253 -0.0208
 5537SOL    HW228071   1.212   3.583   1.815 -0.3286 -0.6846 -0.6504
 5538SOL     OW28072   0.996   2.111   2.536  0.3755 -0.0830  0.3964
 5538SOL    HW128073   1.046   2.051   2.591 -1.6535 -3.8134 -1.8381
 5538SOL    HW228074   0.931   2.128   2.604 -0.9092 -0.1471 -0.8334
 5539SOL     OW28075   2.912   0.455  12.563 -0.0258 -0.3974 -0.1472
 5539SOL    HW128076   2.875   0.460  12.651  0.4229 -2.0370  0.1197
 5539SOL    HW228077   2.891   0.543  12.532 -0.5730 -0.1990  0.7761
 5540SOL     OW28078   3.364   2.664   5.373  0.9581  0.6229 -0.3225
 5540SOL    HW128079   3.373   2.663   5.278 -1.2653 -3.6076 -0.4765
 5540SOL    HW228080   3.374   2.756   5.396  1.0511  1.1397 -2.4816
 5541SOL     OW28081   0.373   2.143   3.720  0.3848 -0.4805  0.3546
 5541SOL    HW128082   0.353   2.051   3.738 -1.1180 -0.0293  0.9847
 5541SOL    HW228083   0.385   2.132   3.626  2.5213  0.0595  0.5688
 5542SOL     OW28084   4.533   0.333   4.546 -0.4249  0.3589 -0.2159
 5542SOL    HW128085   4.495   0.292   4.468 -0.9532 -0.0129  0.2453
 5542SOL    HW228086   4.551   0.418   4.504  3.0885 -0.8996 -1.3278
 5543SOL     OW28087   2.718   0.740   2.786  0.2592 -0.1970  0.4729
 5543SOL    HW128088   2.651   0.789   2.833  0.3301  0.0704  0.2928
 5543SOL    HW228089   2.719   0.795   2.708  0.6888  0.6241  1.0629
 5544SOL     OW28090   0.303   2.010   6.920  0.1686  0.2383 -0.9337
 5544SOL    HW128091   0.211   2.002   6.898  0.2457  1.3315 -1.6619
 5544SOL    HW228092   0.337   2.023   6.832 -0.2924  1.5012 -0.9349
 5545SOL     OW28093   3.484   2.863  12.269 -0.2366  0.0496  0.4163
 5545SOL    HW128094   3.496   2.852  12.363 -1.8250  1.5464  0.7974
 5545SOL    HW228095   3.562   2.915  12.254  0.7725 -1.9058 -1.1019
 5546SOL     OW28096   2.236   2.434   4.155 -0.5404  0.4176 -0.4517
 5546SOL    HW128097   2.280   2.409   4.074  2.1153 -3.4863  2.2257
 5546SOL    HW228098   2.311   2.427   4.214 -1.9950 -0.9905  1.2259
 5547SOL     OW28099   3.616   1.884   3.432  0.0529 -0.0228 -0.1695
 5547SOL    HW128100   3.628   1.814   3.496  1.2304  1.1813  0.9353
 5547SOL    HW228101   3.699   1.932   3.431 -0.5889  1.1233  1.3050
 5548SOL     OW28102   4.633   1.166   8.802 -0.0402  0.4018 -0.2296
 5548SOL    HW128103   4.659   1.213   8.723 -1.2047  1.3796 -0.0493
 5548SOL    HW228104   4.721   1.150   8.835  0.3358 -1.1524 -2.0187
 5549SOL     OW28105   0.369   3.470  14.936  0.0792 -0.2557 -0.3397
 5549SOL    HW128106   0.446   3.511  14.897  1.1561  0.4984  2.5527
 5549SOL    HW228107   0.312   3.485  14.860  0.9498  0.4643 -0.8412
 5550SOL     OW28108   1.977   3.880   3.590 -0.0020  0.5136  0.0284
 5550SOL    HW128109   1.975   3.957   3.534 -2.2419  0.1758 -0.3586
 5550SOL    HW228110   1.886   3.853   3.577 -0.0423  0.9686 -0.6329
 5551SOL     OW28111   2.497   1.384   4.280  0.1294 -0.7720 -0.6294
 5551SOL    HW128112   2.535   1.340   4.204 -0.8811  0.5232 -1.9067
 5551SOL    HW228113   2.405   1.386   4.252 -0.5336 -1.3289  1.5552
 5552SOL     OW28114   2.998   0.152   2.680 -0.6670 -0.3829 -0.5868
 5552SOL    HW128115   3.081   0.182   2.643 -0.4658  1.0601  1.0342
 5552SOL    HW228116   2.980   0.069   2.637 -0.9833 -0.9636  0.6750
 5553SOL     OW28117   4.396   2.177   4.246  0.4078 -0.3117  0.0057
 5553SOL    HW128118   4.391   2.090   4.205 -0.4539  0.0074 -0.5596
 5553SOL    HW228119   4.483   2.180   4.286  0.3866 -2.5817  0.2589
 5554SOL     OW28120   0.949   4.042   1.598 -0.7114 -0.1953  0.0272
 5554SOL    HW128121   0.864   4.076   1.568  0.7786  4.1021  0.7469
 5554SOL    HW228122   0.965   3.983   1.524 -1.7504 -0.6183  0.1331
 5555SOL     OW28123   3.547   1.957   8.083 -0.1353  0.0632  0.2372
 5555SOL    HW128124   3.454   1.955   8.061  0.1475 -1.4666 -0.8649
 5555SOL    HW228125   3.551   1.935   8.176 -1.0451 -0.5157  0.1460
 5556SOL     OW28126   4.441   1.938   5.963  0.1511  0.6144  0.0135
 5556SOL    HW128127   4.418   1.857   5.919  2.8905  0.8904 -1.9230
 5556SOL    HW228128   4.367   1.996   5.950 -1.4779 -1.1584  1.3450
 5557SOL     OW28129   3.844   0.263   5.346 -0.2250  0.0849  0.2095
 5557SOL    HW128130   3.771   0.202   5.329 -0.2185  1.3903 -4.5040
 5557SOL    HW228131   3.875   0.234   5.432 -0.1630 -0.5425 -0.0225
 5558SOL     OW28132   4.456   1.332  11.291 -0.4701 -0.0373  0.0061
 5558SOL    HW128133   4.382   1.392  11.281 -1.0332 -0.2300  2.9367
 5558SOL    HW228134   4.505   1.360  11.214 -0.6014 -0.4721 -0.2381
 5559SOL     OW28135   0.615   2.604  15.110  0.2569  0.3261  0.6112
 5559SOL    HW128136   0.570   2.520  15.105 -0.4135  0.7801 -1.0348
 5559SOL    HW228137   0.576   2.648  15.186  0.5808  1.1803  0.2925
 5560SOL     OW28138   4.367   0.419   6.057  0.4561 -0.5794  0.8241
 5560SOL    HW128139   4.440   0.476   6.034  0.1615 -0.5129  0.0435
 5560SOL    HW228140   4.294   0.473   6.028  0.1910 -0.7096  1.2491
 5561SOL     OW28141   3.328   2.334   6.690  0.6926  0.4189  0.1159
 5561SOL    HW128142   3.243   2.294   6.673  0.2063  0.7944  1.6553
 5561SOL    HW228143   3.385   2.283   6.632 -0.2505  0.6441 -1.0238
 5562SOL     OW28144   4.519   2.815   0.155  0.4869 -0.0401 -0.0238
 5562SOL    HW128145   4.580   2.765   0.100  0.2742  2.5048 -2.5455
 5562SOL    HW228146   4.579   2.842   0.224 -0.5129  0.4014  0.6750
 5563SOL     OW28147   4.150   0.241   4.489 -0.2902 -0.2139  0.0738
 5563SOL    HW128148   4.106   0.304   4.546  2.2928  0.8035  0.9094
 5563SOL    HW228149   4.161   0.299   4.414  0.2644  0.8125  0.9486
 5564SOL     OW28150   2.054   2.357  11.334 -0.0948 -0.3170 -0.2534
 5564SOL    HW128151   2.141   2.344  11.295 -0.6944  0.9320 -2.0228
 5564SOL    HW228152   2.042   2.447  11.362 -1.5289 -1.0039  1.3062
 5565SOL     OW28153   1.260   3.044   4.471  0.4870  0.3158 -0.0679
 5565SOL    HW128154   1.240   3.104   4.399 -0.5151  0.4589  0.3266
 5565SOL    HW228155   1.292   2.965   4.428 -2.5600  0.5926 -2.8501
 5566SOL     OW28156   1.251   0.447  10.730 -0.2501 -0.3214 -0.1945
 5566SOL    HW128157   1.294   0.520  10.775  1.3103 -1.0451 -0.5321
 5566SOL    HW228158   1.201   0.502  10.670  0.4754 -0.0845 -0.5648
 5567SOL     OW28159   0.552   3.508   3.301  0.0122 -0.5875  0.1537
 5567SOL    HW128160   0.640   3.547   3.302 -0.6793  0.9670  0.7528
 5567SOL    HW228161   0.563   3.427   3.349  0.8958  0.3916  1.6084
 5568SOL     OW28162   0.270   3.496   2.242 -0.1699 -0.0110  0.1503
 5568SOL    HW128163   0.358   3.460   2.233 -1.1288 -1.8055 -2.0435
 5568SOL    HW228164   0.236   3.461   2.159 -0.9601  0.5491  0.2379
 5569SOL     OW28165   2.340   4.333  10.216  0.3974  0.3528 -0.3928
 5569SOL    HW128166   2.420   4.282  10.226  0.7353  1.1487  0.9113
 5569SOL    HW228167   2.372   4.390  10.146  0.8368 -1.1285 -1.3892
 5570SOL     OW28168   2.553   2.461   4.744  0.5483  0.0182  0.2834
 5570SOL    HW128169   2.599   2.440   4.662 -2.5437 -0.9403 -1.1816
 5570SOL    HW228170   2.465   2.480   4.711 -0.3389 -1.4099  1.8633
 5571SOL     OW28171   2.290   3.142   4.846  0.3990 -0.5413  0.0488
 5571SOL    HW128172   2.279   3.069   4.907 -0.3401  0.2044  0.8052
 5571SOL    HW228173   2.385   3.153   4.851  0.6251 -2.2241 -0.4402
 5572SOL     OW28174   4.435   1.642  11.453  0.6999 -0.1456 -0.4793
 5572SOL    HW128175   4.469   1.565  11.498  1.2809 -1.0469 -2.4850
 5572SOL    HW228176   4.385   1.601  11.383  2.6343  0.0165 -1.9563
 5573SOL     OW28177   2.703   3.213  12.469 -0.3326 -0.1603 -0.1052
 5573SOL    HW128178   2.618   3.199  12.510 -0.4708  0.7996 -0.0751
 5573SOL    HW228179   2.740   3.136  12.512 -5.1002 -0.7357  2.9607
 5574SOL     OW28180   1.866   0.357   4.511 -0.1215  0.2220  0.1522
 5574SOL    HW128181   1.850   0.354   4.416 -0.8120  1.6719  0.2244
 5574SOL    HW228182   1.962   0.355   4.516 -0.0783 -0.4903 -0.9143
 5575SOL     OW28183   2.544   2.775   4.603  0.0869  0.5390 -0.0613
 5575SOL    HW128184   2.635   2.767   4.634  0.2391  2.2196 -0.0908
 5575SOL    HW228185   2.552   2.729   4.519 -1.8517 -0.5634  0.3642
 5576SOL     OW28186   4.433   3.937   1.706 -0.1865 -0.5909 -0.2844
 5576SOL    HW128187   4.364   3.990   1.667 -0.2436 -0.9500 -0.6675
 5576SOL    HW228188   4.379   3.879   1.760 -0.9568  0.5069  0.1295
 5577SOL     OW28189   2.987   1.802   7.059 -0.1732 -0.0808  0.2207
 5577SOL    HW128190   3.042   1.863   7.009  1.7167 -1.7246  0.2501
 5577SOL    HW228191   3.054   1.739   7.087  0.8635  0.2310 -1.5498
 5578SOL     OW28192   1.235   0.820   5.861  0.6832  0.0624 -0.0950
 5578SOL    HW128193   1.310   0.862   5.904 -0.3400  1.7406  0.0447
 5578SOL    HW228194   1.204   0.894   5.809  0.6275  1.3503  1.7612
 5579SOL     OW28195   4.460   0.403   9.895  0.2004 -0.6140 -0.4209
 5579SOL    HW128196   4.546   0.445   9.897 -0.8519  1.4832  0.3540
 5579SOL    HW228197   4.461   0.327   9.953 -1.1721 -0.8947 -0.7460
 5580SOL     OW28198   2.367   2.047   6.657  0.5874  0.0704  0.6611
 5580SOL    HW128199   2.452   2.081   6.687  0.6443 -0.6090  1.2564
 5580SOL    HW228200   2.360   2.083   6.568 -1.3160 -0.7891  0.4744
 5581SOL     OW28201   1.788   2.678  12.504 -0.5846 -0.0485 -0.2435
 5581SOL    HW128202   1.799   2.593  12.462 -2.5960 -0.8804  0.8830
 5581SOL    HW228203   1.795   2.731  12.425 -2.8599 -0.6520 -0.8612
 5582SOL     OW28204   4.607   0.214   0.841  0.3412  0.3821  0.6137
 5582SOL    HW128205   4.575   0.126   0.823 -0.3664  0.6686  0.4645
 5582SOL    HW228206   4.544   0.235   0.911  0.9388 -0.9337  1.5439
 5583SOL     OW28207   3.162   0.702   6.702 -0.0659  0.0932  0.0235
 5583SOL    HW128208   3.189   0.753   6.779  1.5991  2.8360 -2.4027
 5583SOL    HW228209   3.075   0.678   6.733 -0.5794  0.5353 -1.0816
 5584SOL     OW28210   0.542   0.521   8.657  0.3084 -0.1902  0.3105
 5584SOL    HW128211   0.451   0.551   8.662 -0.1030 -1.4712  0.6923
 5584SOL    HW228212   0.567   0.522   8.564 -0.8335  1.9768  0.0431
 5585SOL     OW28213   3.464   3.046  14.760 -0.1341  0.5374  0.4642
 5585SOL    HW128214   3.393   3.104  14.788 -0.4506  1.1423 -1.5620
 5585SOL    HW228215   3.486   3.100  14.683  0.7488  0.2305  0.5042
 5586SOL     OW28216   0.541   4.236  11.429 -0.0642 -0.3763 -0.9618
 5586SOL    HW128217   0.466   4.238  11.370 -1.1179 -0.3928  0.3736
 5586SOL    HW228218   0.536   4.319  11.477 -0.2011 -1.6149  1.1588
 5587SOL     OW28219   2.068   3.339  17.276 -0.2620 -0.1821 -0.0785
 5587SOL    HW128220   2.035   3.395  17.206  1.2751 -0.2902 -0.9000
 5587SOL    HW228221   2.093   3.407  17.339  1.1250 -0.8128  0.0586
 5588SOL     OW28222   0.056   2.631   3.766 -0.1722  0.1185 -0.0126
 5588SOL    HW128223   0.105   2.574   3.707  0.8634  0.0548  0.9014
 5588SOL    HW228224   0.064   2.717   3.725  0.5907 -0.2079 -0.5513
 5589SOL     OW28225   2.345   3.794   1.069 -0.5121  0.0523  0.0121
 5589SOL    HW128226   2.304   3.821   0.986 -0.8954  0.3971  0.3122
 5589SOL    HW228227   2.340   3.700   1.055 -2.1419  0.3030 -1.1775
 5590SOL     OW28228   4.580   3.794   6.073 -0.0195 -0.1100 -0.1273
 5590SOL    HW128229   4.549   3.732   6.139 -0.2726  1.8084  1.5346
 5590SOL    HW228230   4.514   3.863   6.068 -0.8503 -0.7446  2.1244
 5591SOL     OW28231   0.519   1.394   6.651  0.1173  0.2855 -0.0396
 5591SOL    HW128232   0.531   1.406   6.746  3.5218  2.0910 -0.6861
 5591SOL    HW228233   0.513   1.298   6.648  1.5969  0.0499  4.0653
 5592SOL     OW28234   3.275   1.065  16.181 -0.1870 -0.6595  0.7139
 5592SOL    HW128235   3.184   1.077  16.209  0.5117 -2.8281  3.9083
 5592SOL    HW228236   3.324   1.056  16.263 -0.6080  1.4096  1.1911
 5593SOL     OW28237   0.487   3.787   3.484 -0.8133 -0.9137  0.0364
 5593SOL    HW128238   0.511   3.696   3.467  0.6074 -0.1823 -1.7356
 5593SOL    HW228239   0.514   3.829   3.403  2.5210  0.1507  1.7180
 5594SOL     OW28240   3.002   1.789   8.665 -0.0622  0.3071  0.3317
 5594SOL    HW128241   2.927   1.805   8.608  0.6638 -0.3601 -0.8318
 5594SOL    HW228242   2.997   1.694   8.674  1.9527 -0.0263 -1.9788
 5595SOL     OW28243   0.853   4.303   2.566 -0.3588  0.3120 -0.3655
 5595SOL    HW128244   0.873   4.236   2.500  1.2221  0.5213 -0.0933
 5595SOL    HW228245   0.839   4.251   2.645 -0.0182 -1.2690 -1.3275
 5596SOL     OW28246   4.042   4.102  10.473  0.3548 -0.4264 -0.4812
 5596SOL    HW128247   4.067   4.159  10.545 -2.9743 -2.5295  2.3047
 5596SOL    HW228248   4.112   4.038  10.490  0.1940 -0.8738 -1.5027
 5597SOL     OW28249   0.993   2.666   1.971  0.0414  0.3706 -0.4115
 5597SOL    HW128250   1.087   2.674   1.991  0.1221 -0.4104 -0.4550
 5597SOL    HW228251   0.972   2.758   1.957 -0.9884  0.0036 -1.2145
 5598SOL     OW28252   0.784   4.285  15.198  0.3048 -0.0830 -0.2357
 5598SOL    HW128253   0.874   4.300  15.168  1.5165 -2.5992  2.0983
 5598SOL    HW228254   0.778   4.337  15.278  2.9723 -2.8642  1.7687
 5599SOL     OW28255   2.236   3.099  14.583 -0.0607 -0.1360 -0.3405
 5599SOL    HW128256   2.269   3.117  14.495 -1.1080  0.4286 -0.6233
 5599SOL    HW228257   2.146   3.065  14.579  0.3104 -1.2135  0.3474
 5600SOL     OW28258   1.592   0.095   0.523  0.5464  0.3926 -1.0741
 5600SOL    HW128259   1.685   0.114   0.510  1.0874  0.8723  3.3487
 5600SOL    HW228260   1.585   0.133   0.611  4.0255 -0.6638 -0.3474
 5601SOL     OW28261   3.420   2.481   6.244  0.5050 -0.3795  0.5833
 5601SOL    HW128262   3.369   2.483   6.162 -0.7402 -0.8661  1.3415
 5601SOL    HW228263   3.507   2.480   6.205 -0.4889 -0.2276 -1.6483
 5602SOL     OW28264   2.801   1.212   2.187  0.0345 -0.3593 -0.0354
 5602SOL    HW128265   2.721   1.261   2.163  0.0437 -0.5526 -0.4700
 5602SOL    HW228266   2.868   1.277   2.166 -0.2598 -0.0964 -0.1629
 5603SOL     OW28267   0.718   1.502   2.515  0.5401  0.2309  0.4146
 5603SOL    HW128268   0.660   1.505   2.591 -0.1968 -1.8514 -0.0854
 5603SOL    HW228269   0.672   1.443   2.456 -0.0711 -1.5029  2.6260
 5604SOL     OW28270   3.240   4.428  13.451 -0.4975  0.0939  0.1687
 5604SOL    HW128271   3.283   4.476  13.380 -0.4573  0.8537  0.7000
 5604SOL    HW228272   3.186   4.362  13.408  1.9249 -0.6170 -1.7678
 5605SOL     OW28273   3.289   0.882   9.278  0.1778  0.2253 -0.0031
 5605SOL    HW128274   3.319   0.971   9.258 -0.0117  0.7612  2.0866
 5605SOL    HW228275   3.352   0.822   9.239  0.4310 -0.7480  1.8657
 5606SOL     OW28276   0.567   4.130  12.927 -0.0839  0.5669 -0.1302
 5606SOL    HW128277   0.556   4.180  12.847  0.2888 -2.3794 -2.0061
 5606SOL    HW228278   0.476   4.098  12.932  0.5113 -0.9663  1.2067
 5607SOL     OW28279   2.723   4.087   6.939 -0.3725  0.5181  0.6228
 5607SOL    HW128280   2.646   4.045   6.976  1.2987 -1.6414  1.6394
 5607SOL    HW228281   2.679   4.146   6.878  0.5970 -0.1011 -0.6760
 5608SOL     OW28282   0.766   1.019   8.043  0.9619 -0.3052  0.4614
 5608SOL    HW128283   0.748   0.938   7.995  0.5162  0.5869 -0.8715
 5608SOL    HW228284   0.784   0.982   8.129 -1.1557  0.6759  1.3209
 5609SOL     OW28285   4.409   1.564   1.044  0.0858  0.2150 -0.0456
 5609SOL    HW128286   4.489   1.601   1.082 -0.9291  0.1788  2.1044
 5609SOL    HW228287   4.360   1.642   1.018 -2.9559 -2.3819 -2.0544
 5610SOL     OW28288   4.270   0.407   2.829 -0.2324  0.0091 -0.0219
 5610SOL    HW128289   4.281   0.430   2.737 -0.8432  0.9369  0.1282
 5610SOL    HW228290   4.336   0.340   2.845  0.2663  0.1347 -1.5941
 5611SOL     OW28291   3.316   4.674  14.200 -0.6014  0.0075 -0.3500
 5611SOL    HW128292   3.277   4.693  14.114  0.7030 -1.2092 -1.2081
 5611SOL    HW228293   3.246   4.641  14.256 -1.0796  1.3660 -0.1420
 5612SOL     OW28294   4.238   2.613   6.449 -0.3668  0.2944  0.0539
 5612SOL    HW128295   4.229   2.667   6.528 -1.7289 -0.7252  0.6052
 5612SOL    HW228296   4.242   2.531   6.498 -1.4878  0.4842  0.4732
 5613SOL     OW28297   4.629   4.231   7.708  0.1999  0.2492 -0.2125
 5613SOL    HW128298   4.677   4.236   7.790  0.5142  1.3576 -0.4546
 5613SOL    HW228299   4.551   4.285   7.721  0.5638  0.0386  2.7828
 5614SOL     OW28300   4.454   3.583   2.585  0.0027  0.4704  0.2647
 5614SOL    HW128301   4.388   3.648   2.610  1.4913  1.8895  0.4717
 5614SOL    HW228302   4.538   3.624   2.606  0.5658 -0.5936  0.0729
 5615SOL     OW28303   1.362   0.224   6.985 -0.5553  0.5720  0.8738
 5615SOL    HW128304   1.317   0.142   6.964  1.2070 -0.4961  1.3176
 5615SOL    HW228305   1.355   0.271   6.902  2.4510 -0.3591  0.0860
 5616SOL     OW28306   3.915   2.067   6.898 -0.0048  0.1830 -0.1358
 5616SOL    HW128307   3.969   2.142   6.923 -1.1610  0.5727  1.1259
 5616SOL    HW228308   3.861   2.096   6.824 -0.7363  0.3476  0.4651
 5617SOL     OW28309   4.609   0.739   7.657 -0.0018 -0.0856  0.0985
 5617SOL    HW128310   4.631   0.756   7.748  1.5048 -0.7532 -0.1343
 5617SOL    HW228311   4.626   0.820   7.608  0.0375 -0.6843 -0.8791
 5618SOL     OW28312   2.801   3.867  12.341 -0.4766 -0.2003  0.2717
 5618SOL    HW128313   2.744   3.795  12.315 -1.8851  0.7892  0.6161
 5618SOL    HW228314   2.838   3.898  12.258 -1.8402  2.0894  0.5094
 5619SOL     OW28315   2.788   1.090   9.110  0.4503  1.2752 -0.2019
 5619SOL    HW128316   2.828   1.055   9.190  3.3845 -1.3540 -2.8373
 5619SOL    HW228317   2.716   1.146   9.141  0.6391  1.7893 -0.6967
 5620SOL     OW28318   2.608   2.373   8.878  0.1393 -0.6563  0.3950
 5620SOL    HW128319   2.517   2.343   8.874 -0.1420 -0.0140  2.0679
 5620SOL    HW228320   2.607   2.460   8.838 -0.7272 -1.6252 -1.6772
 5621SOL     OW28321   0.003   1.331  12.118 -0.4433 -0.1528 -0.3797
 5621SOL    HW128322   4.670   1.318  12.192  1.8221 -3.0000  0.8901
 5621SOL    HW228323   0.080   1.353  12.169 -0.8864  0.6248 -0.0434
 5622SOL     OW28324   1.651   0.085   6.700  0.0089 -0.1003 -0.5577
 5622SOL    HW128325   1.659   0.083   6.604 -0.9117 -2.6847 -0.5566
 5622SOL    HW228326   1.721   0.142   6.733 -1.5848  1.9719 -0.7556
 5623SOL     OW28327   1.204   2.269   7.403 -0.1667  0.0868 -0.2405
 5623SOL    HW128328   1.252   2.229   7.331 -0.7685  2.4657 -1.9766
 5623SOL    HW228329   1.253   2.247   7.482 -0.5687 -0.6824 -0.2024
 5624SOL     OW28330   4.429   2.225  14.745  0.2302  0.9420 -0.1701
 5624SOL    HW128331   4.437   2.283  14.821 -1.7072  0.5713  0.3091
 5624SOL    HW228332   4.338   2.248  14.730 -0.4676 -2.0347 -0.5747
 5625SOL     OW28333   2.893   0.835   5.670  0.0373  0.0210 -0.3229
 5625SOL    HW128334   2.831   0.825   5.598 -0.2458  2.0802 -0.3660
 5625SOL    HW228335   2.913   0.753   5.713 -1.2223 -1.4875 -2.6266
 5626SOL     OW28336   1.447   0.271   8.942 -1.0045 -0.1087 -0.1234
 5626SOL    HW128337   1.354   0.261   8.961 -1.1286  1.0336 -0.1011
 5626SOL    HW228338   1.462   0.186   8.901 -3.5590 -0.8256  0.4524
 5627SOL     OW28339   2.701   1.277   7.267  0.5299 -1.2923 -0.0967
 5627SOL    HW128340   2.730   1.205   7.211 -0.2973 -1.7013 -0.0016
 5627SOL    HW228341   2.742   1.259   7.351 -3.0049 -0.8559  1.7364
 5628SOL     OW28342   1.621   2.101  17.631  0.2091 -0.9224  0.3672
 5628SOL    HW128343   1.592   2.191  17.639  3.0199 -0.0269  0.3484
 5628SOL    HW228344   1.714   2.120  17.624  0.3929 -1.2495  1.8892
 5629SOL     OW28345   3.425   1.231   8.980 -0.0317  0.0278  0.6499
 5629SOL    HW128346   3.334   1.212   8.958 -0.2500  1.1301  0.5796
 5629SOL    HW228347   3.423   1.205   9.072  0.5019 -0.7301  0.4396
 5630SOL     OW28348   1.431   3.863   8.956  0.1160  0.0259  0.4295
 5630SOL    HW128349   1.353   3.809   8.949 -0.0137  0.6790 -3.1022
 5630SOL    HW228350   1.474   3.857   8.871 -0.8051  2.3146 -0.1916
 5631SOL     OW28351   4.715   0.124   3.634  0.6941  0.4523 -0.1026
 5631SOL    HW128352   0.018   0.100   3.546  3.0163 -2.5735  1.4685
 5631SOL    HW228353   0.035   0.207   3.647 -2.0246  1.6504  1.5549
 5632SOL     OW28354   0.204   0.631   4.032 -0.5790  0.0047  0.2071
 5632SOL    HW128355   0.259   0.555   4.013 -0.2556  1.0288 -2.9264
 5632SOL    HW228356   0.233   0.691   3.964 -2.0482 -2.7382 -2.8486
 5633SOL     OW28357   1.049   3.370   8.143 -0.0549 -0.1837 -0.0899
 5633SOL    HW128358   1.058   3.276   8.127  2.2361 -0.0736  0.4625
 5633SOL    HW228359   1.088   3.396   8.060 -0.0160  2.8707  0.8668
 5634SOL     OW28360   1.239   0.753   3.212 -0.4334 -0.1523 -0.7424
 5634SOL    HW128361   1.229   0.683   3.148 -2.3085  0.7368 -1.4183
 5634SOL    HW228362   1.254   0.825   3.151 -0.0195  1.4100  1.2155
 5635SOL     OW28363   2.134   3.081   5.209 -0.4236 -0.2655  0.4313
 5635SOL    HW128364   2.043   3.096   5.184 -0.4483  0.6249  1.0630
 5635SOL    HW228365   2.171   3.168   5.196 -4.7375  1.4393 -0.4851
 5636SOL     OW28366   2.451   4.492   4.833 -0.0815  0.0235 -0.1348
 5636SOL    HW128367   2.357   4.474   4.845  0.0871  0.2447  1.4920
 5636SOL    HW228368   2.494   4.408   4.850  1.0579  0.2812 -1.6970
 5637SOL     OW28369   1.507   0.539   4.527  0.4407 -0.3514  0.0496
 5637SOL    HW128370   1.513   0.533   4.432  1.2460 -0.9190  0.1376
 5637SOL    HW228371   1.437   0.473   4.533 -0.3986  0.5358  0.0645
 5638SOL     OW28372   3.928   0.639   3.373  0.9182  0.2274 -0.6529
 5638SOL    HW128373   3.939   0.734   3.384  0.6793  0.2550 -0.6554
 5638SOL    HW228374   4.008   0.613   3.327  1.9419  2.6377 -0.2898
 5639SOL     OW28375   1.417   4.526  17.316 -0.7206  0.2871  0.2111
 5639SOL    HW128376   1.343   4.584  17.331 -0.9495 -0.4701  2.0178
 5639SOL    HW228377   1.366   4.446  17.305  0.3815 -0.6752  2.0324
 5640SOL     OW28378   3.084   1.536   4.773 -0.3528  0.0120 -0.2823
 5640SOL    HW128379   3.151   1.543   4.841 -0.1494 -2.4174 -0.2421
 5640SOL    HW228380   3.139   1.500   4.703  0.4315  1.5362 -0.4489
 5641SOL     OW28381   4.065   0.723   5.185 -0.0856  0.8179  1.2283
 5641SOL    HW128382   4.005   0.706   5.258 -1.1014 -1.8879 -0.2339
 5641SOL    HW228383   4.013   0.678   5.118  2.2238  1.0042 -0.6705
 5642SOL     OW28384   0.868   0.730  11.064 -0.1196 -0.1654  0.1970
 5642SOL    HW128385   0.920   0.803  11.031  0.7631 -0.7836  0.2156
 5642SOL    HW228386   0.851   0.760  11.154 -0.1674 -1.1824  0.5301
 5643SOL     OW28387   4.347   3.868   8.369 -0.2103 -0.1106 -0.5504
 5643SOL    HW128388   4.285   3.852   8.440  2.1310 -0.5389  1.3900
 5643SOL    HW228389   4.422   3.817   8.400  0.0140  0.1206 -0.7161
 5644SOL     OW28390   3.346   3.207   7.896 -0.3855 -0.2965 -0.3369
 5644SOL    HW128391   3.290   3.232   7.968  0.3656  3.4339 -1.0747
 5644SOL    HW228392   3.349   3.111   7.905  2.3311 -0.2165 -0.1917
 5645SOL     OW28393   1.091   3.923   7.792 -0.3536  0.5314  0.5068
 5645SOL    HW128394   0.999   3.924   7.817 -0.8611  0.5162 -1.4155
 5645SOL    HW228395   1.107   3.828   7.789 -0.1981  0.5704  0.1516
 5646SOL     OW28396   2.136   2.279  17.640 -0.7221 -0.4193 -0.3054
 5646SOL    HW128397   2.200   2.225  17.593  0.8856  2.2235 -1.1835
 5646SOL    HW228398   2.167   2.282   0.029 -0.0077  1.9703 -0.6427
 5647SOL     OW28399   3.934   4.452   4.395 -0.6175 -0.7139  0.1073
 5647SOL    HW128400   3.971   4.395   4.328 -0.1048  1.0474 -1.1019
 5647SOL    HW228401   3.953   4.406   4.477  0.1005 -2.2853 -0.9528
 5648SOL     OW28402   3.765   3.376   6.960 -0.0035  0.1124  0.5536
 5648SOL    HW128403   3.685   3.327   6.944 -1.0779  1.1980  2.6213
 5648SOL    HW228404   3.761   3.388   7.055  1.8589 -1.0176  0.7975
 5649SOL     OW28405   2.484   3.532   5.818 -0.1001  0.2214  0.1638
 5649SOL    HW128406   2.575   3.543   5.792 -0.4631 -0.4521 -1.4285
 5649SOL    HW228407   2.497   3.490   5.903 -0.9690  0.9658  0.6702
 5650SOL     OW28408   3.445   1.290  11.137 -0.2065 -0.0331  0.0116
 5650SOL    HW128409   3.491   1.313  11.057  0.9235  0.4596  0.8090
 5650SOL    HW228410   3.417   1.379  11.159 -2.2967 -0.2717 -1.6831
 5651SOL     OW28411   3.864   3.354   9.537 -0.0806 -0.3218  0.3266
 5651SOL    HW128412   3.882   3.344   9.444  0.5623 -0.4263  0.4631
 5651SOL    HW228413   3.789   3.414   9.537  0.1136 -0.0936 -1.5862
 5652SOL     OW28414   2.566   0.007  14.051  0.0706  0.5209  0.0851
 5652SOL    HW128415   2.547   4.645  14.087  1.3312 -0.7938 -2.4142
 5652SOL    HW228416   2.654   0.025  14.084 -0.0321  2.2736 -0.6230
 5653SOL     OW28417   3.536   0.563  10.110  0.2544 -0.3399 -0.1849
 5653SOL    HW128418   3.630   0.563  10.125  0.5033  0.8134 -1.7800
 5653SOL    HW228419   3.524   0.645  10.063 -0.0315 -0.6008 -0.5691
 5654SOL     OW28420   3.364   3.852   8.691  0.5422 -0.4624 -0.4578
 5654SOL    HW128421   3.407   3.767   8.700  0.1769 -0.4458  1.4016
 5654SOL    HW228422   3.281   3.812   8.716 -0.1469  1.7366  0.7960
 5655SOL     OW28423   0.855   2.625   1.718  0.4753  0.1624 -0.0310
 5655SOL    HW128424   0.943   2.613   1.683  0.1912 -2.5466  0.1064
 5655SOL    HW228425   0.856   2.714   1.753  1.4447 -0.6298  1.9726
 5656SOL     OW28426   0.469   2.538   6.843 -0.2724  0.2014 -0.0158
 5656SOL    HW128427   0.411   2.561   6.915  0.7950  1.2793  0.5053
 5656SOL    HW228428   0.438   2.453   6.813  2.0777 -0.0728 -1.7245
 5657SOL     OW28429   1.026   2.151   8.361  0.4339 -0.5790 -0.2417
 5657SOL    HW128430   0.986   2.104   8.434 -1.9444 -0.5597 -1.5387
 5657SOL    HW228431   1.107   2.099   8.351  0.6599 -0.3734  0.5742
 5658SOL     OW28432   3.346   4.347   2.102 -0.1048 -0.2787 -0.0720
 5658SOL    HW128433   3.352   4.442   2.110  0.1390 -0.3536  0.6050
 5658SOL    HW228434   3.275   4.320   2.161  0.6842  2.7737  2.2669
 5659SOL     OW28435   2.448   4.133   3.065  0.2717 -0.2484 -0.0404
 5659SOL    HW128436   2.362   4.174   3.070  0.7602  0.5110  1.9034
 5659SOL    HW228437   2.476   4.167   2.980 -0.3333 -1.0450 -0.5675
 5660SOL     OW28438   0.626   0.529  10.330 -1.0248 -1.0649 -0.0806
 5660SOL    HW128439   0.612   0.498  10.420  0.7034  0.2163  0.6354
 5660SOL    HW228440   0.684   0.458  10.303 -0.3655  0.5076 -2.7596
 5661SOL     OW28441   3.194   1.273   6.629  0.0545 -0.5172 -0.0048
 5661SOL    HW128442   3.216   1.316   6.712  0.7450 -0.4182 -0.2427
 5661SOL    HW228443   3.228   1.187   6.655 -0.2221 -0.6042  0.0702
 5662SOL     OW28444   3.771   4.108   8.601  0.4177 -0.1194 -0.0092
 5662SOL    HW128445   3.838   4.166   8.564 -0.7075  1.7205  0.8495
 5662SOL    HW228446   3.707   4.168   8.640  0.9160 -1.3554  2.6892
 5663SOL     OW28447   0.867   3.627   9.784  0.1832 -0.3200  0.3133
 5663SOL    HW128448   0.776   3.622   9.813 -1.0992  1.6151 -3.4329
 5663SOL    HW228449   0.884   3.544   9.740 -0.6099 -0.2519 -0.1143
 5664SOL     OW28450   3.777   3.168   7.830 -0.1987 -0.0026 -0.4369
 5664SOL    HW128451   3.867   3.138   7.836 -0.0592 -0.0367 -2.5293
 5664SOL    HW228452   3.738   3.081   7.840  3.2640 -1.4515  0.4490
 5665SOL     OW28453   0.823   2.136  14.760  0.2290  0.1145  0.1569
 5665SOL    HW128454   0.915   2.111  14.775  0.9977  3.6709  1.1903
 5665SOL    HW228455   0.821   2.115  14.667  0.2816  2.0760 -0.2779
 5666SOL     OW28456   2.067   2.611   3.960  0.5478  0.8912  0.4831
 5666SOL    HW128457   2.106   2.525   3.946  0.2572  1.1247 -1.8111
 5666SOL    HW228458   2.047   2.610   4.053  1.6319  1.6397  0.7320
 5667SOL     OW28459   2.537   4.546   6.922  0.2286  0.2465  0.2732
 5667SOL    HW128460   2.492   4.515   6.844 -1.4881  0.6599  1.1099
 5667SOL    HW228461   2.628   4.529   6.897  0.2969  0.5665  0.2968
 5668SOL     OW28462   3.323   2.403   7.329 -0.2757  0.4608  0.2954
 5668SOL    HW128463   3.310   2.372   7.419  1.9449 -0.9887  0.1238
 5668SOL    HW228464   3.396   2.349   7.300  1.0946  1.3786  2.0379
 5669SOL     OW28465   2.947   3.716  13.912 -0.4717  0.0145  0.1535
 5669SOL    HW128466   2.905   3.801  13.896  0.4784  0.2416 -1.1159
 5669SOL    HW228467   2.880   3.665  13.866  0.0949 -0.6711  0.0925
 5670SOL     OW28468   0.840   4.499   5.564 -0.5033  0.2169  0.3183
 5670SOL    HW128469   0.873   4.549   5.639  1.2470  0.0932 -0.3685
 5670SOL    HW228470   0.891   4.544   5.497  0.1596 -0.4775  0.3519
 5671SOL     OW28471   0.982   0.596  17.107  0.0795 -0.4126 -0.1211
 5671SOL    HW128472   0.957   0.688  17.109 -0.8252 -0.6641  0.1094
 5671SOL    HW228473   0.902   0.549  17.130  1.6485 -2.6192  0.8686
 5672SOL     OW28474   4.059   3.929   5.213 -0.7684 -0.5743 -0.2370
 5672SOL    HW128475   4.087   3.964   5.297 -1.4103  0.6612 -0.5325
 5672SOL    HW228476   4.088   3.838   5.206 -1.1118 -0.5988 -1.3796
 5673SOL     OW28477   0.469   4.619   3.863  0.0158  0.4439  0.0344
 5673SOL    HW128478   0.528   4.578   3.801 -0.0770 -1.7712  1.4172
 5673SOL    HW228479   0.497   4.571   3.941  0.5321 -2.0409 -1.6893
 5674SOL     OW28480   0.877   0.568   7.827  0.1928 -0.0638 -0.2512
 5674SOL    HW128481   0.850   0.637   7.887 -1.5433 -0.9849  0.0028
 5674SOL    HW228482   0.847   0.610   7.746  0.2698  2.2702  0.9519
 5675SOL     OW28483   4.269   0.777  12.954 -0.1614  0.3650 -0.6779
 5675SOL    HW128484   4.332   0.838  12.992  0.8348 -2.3407  2.1341
 5675SOL    HW228485   4.316   0.737  12.881  0.0470  2.0512 -1.4562
 5676SOL     OW28486   0.324   0.534   1.453  0.1188 -0.5024 -0.0630
 5676SOL    HW128487   0.324   0.441   1.432 -1.3111 -0.8178  1.3918
 5676SOL    HW228488   0.285   0.570   1.373 -1.0393 -3.6672 -0.8993
 5677SOL     OW28489   3.422   2.955   5.656  0.5612 -0.4419  0.0151
 5677SOL    HW128490   3.339   2.954   5.703  0.7494 -1.1440  0.3394
 5677SOL    HW228491   3.410   3.011   5.580 -1.1547 -2.8149 -1.4570
 5678SOL     OW28492   3.328   3.662   2.672 -0.5333  0.5828 -0.0180
 5678SOL    HW128493   3.323   3.583   2.726  0.1531  0.9941  0.6469
 5678SOL    HW228494   3.330   3.737   2.732 -1.4452  1.6210 -1.3055
 5679SOL     OW28495   0.277   3.273   4.639  0.7196 -0.0825 -0.4931
 5679SOL    HW128496   0.264   3.306   4.550 -0.6284 -0.3948 -0.4166
 5679SOL    HW228497   0.361   3.308   4.668  1.1255  0.1207 -1.9555
 5680SOL     OW28498   2.106   4.393   6.718 -0.3360  0.0435  0.2685
 5680SOL    HW128499   2.046   4.381   6.644  2.1930  2.3248 -2.1356
 5680SOL    HW228500   2.087   4.311   6.763  0.4458 -1.2715 -1.7480
 5681SOL     OW28501   2.649   2.419  10.651  0.0095  0.2784  0.2850
 5681SOL    HW128502   2.707   2.447  10.722  0.8021 -1.3600  0.2900
 5681SOL    HW228503   2.707   2.426  10.574 -0.4914 -0.9647 -0.1985
 5682SOL     OW28504   2.302   1.389   6.549 -0.0433 -0.7472 -0.7136
 5682SOL    HW128505   2.260   1.473   6.532  1.7802 -0.1041 -2.0600
 5682SOL    HW228506   2.342   1.363   6.466 -1.4819 -0.6430 -1.4338
 5683SOL     OW28507   0.366   3.072   1.440  0.0573  0.1756 -0.8409
 5683SOL    HW128508   0.373   3.166   1.452  0.3105  0.1286 -0.6169
 5683SOL    HW228509   0.459   3.057   1.459 -0.1017  0.6224  0.2422
 5684SOL     OW28510   4.547   0.007   4.964  0.4452 -0.6613 -0.8706
 5684SOL    HW128511   4.471   4.677   4.982 -0.7221  1.2727  0.0584
 5684SOL    HW228512   4.494   0.082   4.935 -1.2701 -2.1794 -1.6735
 5685SOL     OW28513   1.246   1.719  17.006 -0.2636  0.4668 -0.6484
 5685SOL    HW128514   1.168   1.730  16.952 -1.6485  0.6044  1.3865
 5685SOL    HW228515   1.296   1.780  16.952 -0.8768  0.7976 -0.8328
 5686SOL     OW28516   2.181   1.671   3.852 -0.3034  0.5696 -0.8715
 5686SOL    HW128517   2.086   1.683   3.856 -0.3389 -0.4662  1.0995
 5686SOL    HW228518   2.190   1.576   3.847 -0.6547  0.4376  1.1330
 5687SOL     OW28519   0.497   3.562  15.185  0.1608  0.3148  0.1168
 5687SOL    HW128520   0.456   3.501  15.124  1.9982 -0.8173  0.0126
 5687SOL    HW228521   0.584   3.574  15.147  0.2824 -1.8431 -0.2953
 5688SOL     OW28522   4.255   1.045   8.138 -0.7134 -0.1574 -0.3675
 5688SOL    HW128523   4.212   1.046   8.223  0.1414  0.9635  0.0617
 5688SOL    HW228524   4.345   1.057   8.169 -0.9550  0.6566  0.0272
 5689SOL     OW28525   1.185   1.677   1.213 -0.5272  0.3692 -0.4695
 5689SOL    HW128526   1.181   1.642   1.124  0.7315  0.7304 -0.6658
 5689SOL    HW228527   1.095   1.658   1.237  0.1575 -1.0849  0.9895
 5690SOL     OW28528   0.855   4.288   7.860 -0.3193  0.9267 -0.1687
 5690SOL    HW128529   0.942   4.265   7.828 -0.3490 -1.0779  1.2155
 5690SOL    HW228530   0.811   4.305   7.776 -0.0640 -3.0812 -1.1083
 5691SOL     OW28531   4.260   3.420  15.227 -0.2384  0.3687 -0.5883
 5691SOL    HW128532   4.276   3.328  15.208  1.1034  0.2256  1.2260
 5691SOL    HW228533   4.344   3.466  15.221 -0.2605  0.6332  1.2570
 5692SOL     OW28534   2.434   4.169   5.159  0.7707 -0.0359  0.4483
 5692SOL    HW128535   2.420   4.263   5.171  1.1766  0.0154  0.5258
 5692SOL    HW228536   2.519   4.156   5.200  0.3868  1.4650  1.7180
 5693SOL     OW28537   2.489   2.236   5.559  0.1214  0.3174 -0.3156
 5693SOL    HW128538   2.540   2.314   5.538  0.7533  0.2891  1.0889
 5693SOL    HW228539   2.553   2.167   5.578  0.8391  0.2425 -3.0864
 5694SOL     OW28540   3.805   2.292   8.088  0.2155 -0.0054  0.2002
 5694SOL    HW128541   3.712   2.318   8.086  0.4158  0.6394 -0.4964
 5694SOL    HW228542   3.815   2.272   8.181  0.6291 -0.2526  0.1001
 5695SOL     OW28543   2.694   4.615  13.140 -0.1116 -0.2272  0.1724
 5695SOL    HW128544   2.675   4.527  13.174 -1.3602  0.0561  0.1902
 5695SOL    HW228545   2.604   4.647  13.130 -0.1645 -0.3422  0.2813
 5696SOL     OW28546   0.100   4.536   5.003 -0.7390  0.4567  0.5728
 5696SOL    HW128547   0.184   4.517   4.962 -0.3097  1.7328  0.8673
 5696SOL    HW228548   0.087   4.628   4.979 -1.0929  0.3442  0.3291
 5697SOL     OW28549   0.986   3.870   6.826 -0.7009 -0.5552  0.2802
 5697SOL    HW128550   1.009   3.961   6.845 -0.3252 -0.6392  0.2252
 5697SOL    HW228551   0.977   3.833   6.913 -0.1415  1.3641  1.1566
 5698SOL     OW28552   3.550   3.235   3.373  0.1083 -0.3127  0.1646
 5698SOL    HW128553   3.605   3.209   3.299  0.6645  4.7989 -1.1836
 5698SOL    HW228554   3.494   3.159   3.385 -0.4932  0.3702  1.6552
 5699SOL     OW28555   1.330   4.334   6.976  0.4412 -0.4127  0.0570
 5699SOL    HW128556   1.356   4.262   6.919 -1.6955 -0.2513 -1.1448
 5699SOL    HW228557   1.239   4.342   6.947  0.3444  0.7085  0.6830
 5700SOL     OW28558   2.338   1.369  16.238 -0.7319  0.0734  0.2082
 5700SOL    HW128559   2.415   1.363  16.181  0.3008 -0.5954  1.6964
 5700SOL    HW228560   2.372   1.313  16.308 -1.4104 -0.2967  0.2385
 5701SOL     OW28561   2.053   3.147  10.343  0.1459  0.5479 -0.0573
 5701SOL    HW128562   2.023   3.161  10.253 -2.5374  0.8449  0.8621
 5701SOL    HW228563   2.109   3.224  10.355  0.5540 -0.2463  3.1263
 5702SOL     OW28564   3.875   3.455   7.816  0.3262 -0.0530 -0.2930
 5702SOL    HW128565   3.964   3.482   7.794 -0.0339  1.4463  0.0746
 5702SOL    HW228566   3.877   3.363   7.790  3.5520 -0.2890  0.9026
 5703SOL     OW28567   2.365   1.427   7.008  0.3423 -0.1783  0.0698
 5703SOL    HW128568   2.394   1.345   6.968  0.5847 -0.3463  0.5899
 5703SOL    HW228569   2.375   1.410   7.102  1.4329 -0.7905 -0.1592
 5704SOL     OW28570   3.066   1.024   2.091 -0.5822  0.2469  0.4165
 5704SOL    HW128571   2.984   1.069   2.070 -1.1683 -0.3207  1.4716
 5704SOL    HW228572   3.052   0.935   2.058 -0.9974 -0.5639  2.7868
 5705SOL     OW28573   4.620   0.974   7.531  0.0542  0.3095  0.1029
 5705SOL    HW128574   4.661   1.047   7.577 -1.1738  0.0014  1.6603
 5705SOL    HW228575   4.576   1.034   7.471 -0.5221  0.3891  0.6102
 5706SOL     OW28576   2.966   3.331   4.917 -0.3367 -0.0742  0.1935
 5706SOL    HW128577   3.005   3.247   4.893 -0.5913 -0.1196 -0.0553
 5706SOL    HW228578   2.898   3.291   4.972  1.9131 -2.9268  0.8953
 5707SOL     OW28579   1.939   3.844  12.428  0.3585 -0.4636  0.2834
 5707SOL    HW128580   2.029   3.852  12.399  0.2846 -3.4185 -0.7545
 5707SOL    HW228581   1.892   3.889  12.357  1.3787  2.0743  1.2258
 5708SOL     OW28582   4.578   3.087   8.497  0.0110  0.1529  0.2898
 5708SOL    HW128583   4.546   3.091   8.587 -1.1675 -1.0686 -0.0811
 5708SOL    HW228584   4.497   3.101   8.449 -0.1613  0.9159  0.7962
 5709SOL     OW28585   1.471   2.545   2.159 -0.0703 -0.1145  0.0539
 5709SOL    HW128586   1.451   2.456   2.190  1.0902  0.0074  1.1739
 5709SOL    HW228587   1.552   2.568   2.205  1.5661 -1.3439 -2.2089
 5710SOL     OW28588   1.752   4.502  15.563 -0.0011  0.7841  0.7367
 5710SOL    HW128589   1.751   4.596  15.543 -0.5070  0.4833 -0.6111
 5710SOL    HW228590   1.715   4.512  15.651  0.6071  0.9056  0.9853
 5711SOL     OW28591   0.512   4.101  12.456 -0.2987  0.7387  0.0912
 5711SOL    HW128592   0.556   4.036  12.511  0.0878 -0.6337 -1.7988
 5711SOL    HW228593   0.577   4.159  12.417  0.0410 -0.3093 -0.9261
 5712SOL     OW28594   0.760   3.713  10.246  0.6020 -0.2671  0.2359
 5712SOL    HW128595   0.823   3.750  10.307 -1.2200  0.4483  1.6842
 5712SOL    HW228596   0.787   3.624  10.223 -2.8003 -1.3637  0.4881
 5713SOL     OW28597   0.777   3.439  11.017  0.3440 -0.5332  0.1606
 5713SOL    HW128598   0.685   3.442  10.993  0.3610 -0.9067  0.0572
 5713SOL    HW228599   0.805   3.392  10.938 -1.1856 -1.7858  0.3723
 5714SOL     OW28600   4.381   4.314  12.139  0.1761 -0.2771 -0.0163
 5714SOL    HW128601   4.286   4.327  12.143  0.1840 -0.0491 -0.5061
 5714SOL    HW228602   4.411   4.379  12.202 -0.5823  1.0725 -1.0400
 5715SOL     OW28603   2.850   0.956   7.316  0.4688  0.3523  0.6088
 5715SOL    HW128604   2.855   1.005   7.234 -0.6434 -1.0023 -0.2711
 5715SOL    HW228605   2.756   0.940   7.323  0.2091  1.7760  0.1748
 5716SOL     OW28606   2.123   1.153   9.643 -0.0727 -0.1575 -0.0107
 5716SOL    HW128607   2.052   1.089   9.639  1.3414 -1.5616 -2.3463
 5716SOL    HW228608   2.096   1.216   9.710 -1.5397 -1.4207  0.5903
 5717SOL     OW28609   0.998   0.947  10.976  0.0659  0.2197 -0.0199
 5717SOL    HW128610   1.084   0.963  10.937 -0.7110  0.8699 -1.4418
 5717SOL    HW228611   0.932   0.986  10.918 -1.1281  0.0334  1.2343
 5718SOL     OW28612   1.086   0.765   8.795  0.1042 -0.3420  0.2650
 5718SOL    HW128613   1.020   0.823   8.756 -0.3300  0.0100  1.5445
 5718SOL    HW228614   1.116   0.727   8.712 -0.1595 -1.7916  0.8318
 5719SOL     OW28615   1.786   4.064   4.678  0.4912  0.0788  0.2529
 5719SOL    HW128616   1.773   4.147   4.723  1.9598 -0.2223  1.2394
 5719SOL    HW228617   1.708   4.061   4.622  0.3676  1.1692  0.3784
 5720SOL     OW28618   1.241   1.430   8.269  0.3324  0.1992  0.6155
 5720SOL    HW128619   1.210   1.497   8.330 -0.0009  0.4241  0.2019
 5720SOL    HW228620   1.178   1.441   8.198 -0.1720  0.8141  1.1668
 5721SOL     OW28621   3.540   1.587   0.091  0.3514  0.3035 -0.5490
 5721SOL    HW128622   3.502   1.528   0.156  1.1337  0.4686  0.0676
 5721SOL    HW228623   3.623   1.607   0.135  1.0790 -1.8564 -0.9517
 5722SOL     OW28624   1.258   1.695   5.096 -0.0495  0.2563 -0.3085
 5722SOL    HW128625   1.283   1.628   5.032  0.0253 -1.5418  1.5873
 5722SOL    HW228626   1.313   1.769   5.070 -0.1067 -0.0698 -1.3462
 5723SOL     OW28627   0.971   0.983   4.954 -0.0808 -0.3832  0.2932
 5723SOL    HW128628   0.941   1.068   4.989 -0.6207 -0.1342 -0.7776
 5723SOL    HW228629   0.945   0.995   4.863 -2.3673  0.9072  1.0891
 5724SOL     OW28630   1.710   2.514   1.547 -0.1175 -0.5954 -0.3621
 5724SOL    HW128631   1.723   2.573   1.473 -0.2293  0.5907  0.5582
 5724SOL    HW228632   1.791   2.522   1.598 -0.0325  2.0664 -0.8827
 5725SOL     OW28633   0.775   4.330   3.567 -0.2609  0.6468 -0.4741
 5725SOL    HW128634   0.800   4.275   3.642  2.2638  2.1037 -0.2247
 5725SOL    HW228635   0.862   4.334   3.526  0.6220 -3.7576  0.9110
 5726SOL     OW28636   4.103   4.248   3.552  0.2281  0.2385  0.2502
 5726SOL    HW128637   4.110   4.230   3.646  1.1866  0.2754  0.1850
 5726SOL    HW228638   4.018   4.292   3.545 -1.3442 -3.0692 -1.7483
 5727SOL     OW28639   1.382   4.658   7.186 -0.1226  0.6123 -0.1617
 5727SOL    HW128640   1.449   4.592   7.207  0.7527  1.3497 -0.6536
 5727SOL    HW228641   1.309   4.631   7.241 -0.9914  0.2939 -1.4729
 5728SOL     OW28642   4.204   1.370   9.226 -0.9734  0.2455 -0.0467
 5728SOL    HW128643   4.122   1.418   9.237 -1.1231  0.2531 -1.1196
 5728SOL    HW228644   4.260   1.447   9.214 -1.1467  0.1988 -1.2073
 5729SOL     OW28645   3.100   1.013  17.483  0.3478  0.2621 -0.7172
 5729SOL    HW128646   3.075   1.087  17.428 -1.5512  1.0865  1.2247
 5729SOL    HW228647   3.029   0.995  17.545  2.2016  3.0636  2.2079
 5730SOL     OW28648   3.778   3.412   3.124 -0.0080  0.3134 -0.3880
 5730SOL    HW128649   3.778   3.497   3.080  0.1935  0.6328  0.2304
 5730SOL    HW228650   3.751   3.446   3.210 -1.0008  2.8679 -1.7126
 5731SOL     OW28651   2.796   0.907   9.527  0.1736  0.6256 -0.6553
 5731SOL    HW128652   2.790   0.821   9.487  0.5834  0.3621 -0.1524
 5731SOL    HW228653   2.774   0.883   9.617  3.9518  0.0726  0.1364
 5732SOL     OW28654   3.725   3.851   2.570 -0.2912  0.5025  0.2049
 5732SOL    HW128655   3.808   3.805   2.588 -1.1372 -0.9537  0.3715
 5732SOL    HW228656   3.675   3.773   2.544 -0.3807  0.9813 -1.0705
 5733SOL     OW28657   3.829   4.086   2.465  0.3887  0.1895  0.0321
 5733SOL    HW128658   3.793   4.001   2.489  2.1379 -1.2459 -2.5138
 5733SOL    HW228659   3.820   4.142   2.542 -1.9089 -1.6903  1.1200
 5734SOL     OW28660   0.559   1.465   2.761  0.0667 -0.3046 -0.1643
 5734SOL    HW128661   0.550   1.560   2.761 -0.6151 -0.3727 -0.4573
 5734SOL    HW228662   0.506   1.436   2.836 -1.1275 -1.0150 -1.2797
 5735SOL     OW28663   1.544   1.281   7.262  0.0798 -0.6475  0.2688
 5735SOL    HW128664   1.473   1.292   7.325  0.3238 -1.7754  0.7450
 5735SOL    HW228665   1.498   1.263   7.180 -0.6482  0.9206  0.3422
 5736SOL     OW28666   2.618   3.575   1.018 -0.3616 -0.0615 -0.0789
 5736SOL    HW128667   2.629   3.568   0.923 -0.7865  0.2699 -0.1494
 5736SOL    HW228668   2.523   3.566   1.025 -0.5070 -0.4552 -2.4143
 5737SOL     OW28669   2.516   2.612   5.689 -0.1479 -0.5965 -0.7797
 5737SOL    HW128670   2.512   2.553   5.764  0.5450 -0.0321 -0.3091
 5737SOL    HW228671   2.593   2.568   5.653  1.6749  1.4372  0.7316
 5738SOL     OW28672   1.035   1.319  10.171 -0.1471 -0.0963  0.4191
 5738SOL    HW128673   0.999   1.255  10.233 -0.4824 -0.1995  0.1244
 5738SOL    HW228674   0.956   1.341  10.121  1.1795  0.5485 -1.3899
 5739SOL     OW28675   2.554   4.287   5.599  0.4251 -0.0125  0.3549
 5739SOL    HW128676   2.537   4.328   5.684 -2.2021 -3.4745  1.4760
 5739SOL    HW228677   2.644   4.313   5.577  0.9418 -1.0738  1.2272
 5740SOL     OW28678   3.998   2.121   7.367 -0.1427  0.8586 -0.4196
 5740SOL    HW128679   4.034   2.123   7.456  1.1105  0.8353 -0.9287
 5740SOL    HW228680   4.079   2.100   7.322  0.0713 -0.9233  0.8050
 5741SOL     OW28681   4.401   0.814   5.574 -0.1022  0.3228 -0.2600
 5741SOL    HW128682   4.369   0.740   5.522 -0.0293  0.2374 -0.1830
 5741SOL    HW228683   4.405   0.884   5.509  1.3813  0.3082 -0.1865
 5742SOL     OW28684   4.165   2.321  10.864 -0.2031  0.2344 -0.1294
 5742SOL    HW128685   4.090   2.339  10.919  0.0950  1.6501 -0.1971
 5742SOL    HW228686   4.160   2.225  10.859  2.2710  0.0490  1.1460
 5743SOL     OW28687   3.721   2.617  10.488 -0.1077  0.0650  0.0231
 5743SOL    HW128688   3.799   2.609  10.543 -0.2148 -1.8170 -0.1096
 5743SOL    HW228689   3.648   2.581  10.539 -1.8241  2.4108 -0.7787
 5744SOL     OW28690   0.066   1.437   8.442 -0.1889 -0.0322 -0.3705
 5744SOL    HW128691   0.132   1.439   8.372  0.7552 -0.0745  0.5131
 5744SOL    HW228692   0.057   1.532   8.449 -1.9777 -0.5148  3.3609
 5745SOL     OW28693   2.995   4.159   9.261  0.1109  1.0423 -0.3958
 5745SOL    HW128694   3.077   4.206   9.242  3.3106 -4.0098  0.8407
 5745SOL    HW228695   2.949   4.238   9.289 -0.4213  0.1795  1.1794
 5746SOL     OW28696   3.787   4.033   8.875 -0.0716  0.7254 -0.8173
 5746SOL    HW128697   3.778   4.128   8.876 -2.0150  0.5467 -1.2558
 5746SOL    HW228698   3.770   4.031   8.781  0.2648  0.8646 -0.8807
 5747SOL     OW28699   4.449   0.937   4.437  0.4855  0.1859 -1.0200
 5747SOL    HW128700   4.468   0.921   4.529 -0.3436 -0.5519 -0.9835
 5747SOL    HW228701   4.358   0.965   4.439  0.4133 -0.2068  0.7813
 5748SOL     OW28702   3.547   2.010   6.016  0.4809 -0.2579  0.8510
 5748SOL    HW128703   3.572   2.025   6.107  0.8436 -1.7118  0.9785
 5748SOL    HW228704   3.557   1.917   6.000  3.5784  0.1064  0.6289
 5749SOL     OW28705   2.929   4.464  13.268 -0.2582  0.3816  0.3390
 5749SOL    HW128706   3.004   4.474  13.210 -1.5038  1.3002 -1.1069
 5749SOL    HW228707   2.851   4.504  13.230  0.2933  1.7198  0.5778
 5750SOL     OW28708   4.023   0.024   8.757  0.2943 -0.1225 -0.2349
 5750SOL    HW128709   4.048   0.026   8.849  1.3922  2.2610 -0.5965
 5750SOL    HW228710   3.935   0.062   8.762  0.5874  0.8105 -2.0052
 5751SOL     OW28711   2.760   4.575   9.757  0.3915 -0.1793  0.4510
 5751SOL    HW128712   2.813   4.647   9.793 -0.9859  1.9695 -1.8789
 5751SOL    HW228713   2.749   4.616   9.672 -1.8108  1.4019  1.4912
 5752SOL     OW28714   2.525   4.263   3.424 -0.2136  0.4919  0.1577
 5752SOL    HW128715   2.506   4.194   3.487  0.0763 -0.5705 -0.9096
 5752SOL    HW228716   2.441   4.303   3.401 -0.7071 -0.4853  0.2700
 5753SOL     OW28717   0.233   2.081   4.412  0.0626 -0.4798 -0.2972
 5753SOL    HW128718   0.219   2.169   4.448  2.1086  1.0317 -3.1827
 5753SOL    HW228719   0.266   2.035   4.490  2.5145  0.8680 -0.5189
 5754SOL     OW28720   3.328   2.645  10.386 -0.1003  0.2425  0.2072
 5754SOL    HW128721   3.288   2.572  10.338 -0.5468 -0.1054  1.0948
 5754SOL    HW228722   3.245   2.691  10.397 -0.4454 -0.7132  1.6328
 5755SOL     OW28723   1.636   3.002   0.309 -0.0661 -0.5617 -0.3694
 5755SOL    HW128724   1.653   3.057   0.386  1.7069 -1.2491 -0.2507
 5755SOL    HW228725   1.718   2.952   0.299  1.1132  1.4471 -0.6271
 5756SOL     OW28726   0.383   1.752   4.134  0.0692  0.1519 -0.4234
 5756SOL    HW128727   0.291   1.750   4.107  0.1410  1.8478 -0.7966
 5756SOL    HW228728   0.389   1.847   4.142  1.2702  0.1253 -0.9966
 5757SOL     OW28729   1.928   3.375   8.533 -0.6156  0.3793  0.2561
 5757SOL    HW128730   1.986   3.431   8.585  2.4456  0.0140 -2.7524
 5757SOL    HW228731   1.914   3.429   8.455  2.1409 -1.1177 -1.2971
 5758SOL     OW28732   4.363   3.029   0.111  0.3192 -0.2606 -0.2819
 5758SOL    HW128733   4.408   2.945   0.126  2.4387  1.1006  0.9803
 5758SOL    HW228734   4.396   3.052   0.025  0.4207  0.5031 -0.0398
 5759SOL     OW28735   2.755   2.472   5.805 -0.1896  0.1911 -0.5876
 5759SOL    HW128736   2.800   2.414   5.743 -2.3664 -1.8037 -0.2989
 5759SOL    HW228737   2.732   2.419   5.881 -0.8466  0.1519 -0.8082
 5760SOL     OW28738   4.631   0.541   6.193 -0.4464  0.1704  0.2216
 5760SOL    HW128739   4.706   0.538   6.135 -1.1806  0.7305 -0.7493
 5760SOL    HW228740   4.652   0.623   6.237  1.0038  1.1048 -2.2352
 5761SOL     OW28741   2.576   4.541   8.412 -0.0127 -0.2622 -0.2586
 5761SOL    HW128742   2.650   4.533   8.472 -0.9671 -1.0908  0.8060
 5761SOL    HW228743   2.510   4.585   8.465 -0.7641 -0.9652 -0.6208
 5762SOL     OW28744   0.095   2.962   8.569  0.6565  0.1707 -0.5074
 5762SOL    HW128745   0.175   3.012   8.552  0.3601  1.5158  2.1877
 5762SOL    HW228746   0.024   3.019   8.542  0.0788  0.5732  1.8600
 5763SOL     OW28747   2.452   0.075   6.974  0.3669  0.1360 -0.1433
 5763SOL    HW128748   2.476   4.710   6.953  0.2401 -0.0327  0.4536
 5763SOL    HW228749   2.371   0.085   6.922 -0.6028  1.0475  1.5565
 5764SOL     OW28750   2.412   2.178   2.490  0.6526 -0.0852  0.2198
 5764SOL    HW128751   2.448   2.190   2.402 -0.0861 -0.7163 -0.1717
 5764SOL    HW228752   2.446   2.093   2.517 -0.0367  0.1646  1.8997
 5765SOL     OW28753   0.400   4.411   7.481  0.3312 -0.2105 -0.1527
 5765SOL    HW128754   0.447   4.328   7.482  0.1470 -0.3173 -0.2519
 5765SOL    HW228755   0.465   4.478   7.501  1.5949 -1.6298  0.5031
 5766SOL     OW28756   2.627   0.743   9.223 -0.4402  0.3286  0.2227
 5766SOL    HW128757   2.590   0.815   9.172 -0.3425  0.7414  0.7340
 5766SOL    HW228758   2.580   0.673   9.180  3.4494 -1.2352 -1.4559
 5767SOL     OW28759   3.201   0.492   2.270 -0.0444 -0.0105  0.4020
 5767SOL    HW128760   3.248   0.550   2.210 -0.3197 -1.3972 -1.1551
 5767SOL    HW228761   3.262   0.498   2.343  0.6173  1.1747 -0.2526
 5768SOL     OW28762   2.110   4.505  13.863  0.0447 -0.3750 -0.3058
 5768SOL    HW128763   2.190   4.556  13.857  0.6937 -1.1679  1.5434
 5768SOL    HW228764   2.061   4.532  13.786  2.5932 -0.3873 -1.9335
 5769SOL     OW28765   0.922   3.119   4.174 -0.4875 -0.7451  0.1412
 5769SOL    HW128766   0.914   3.122   4.269 -0.9516  3.0433 -0.0400
 5769SOL    HW228767   0.845   3.068   4.148 -0.6890 -2.2572  3.6598
 5770SOL     OW28768   2.889   4.050   8.872 -0.3877  0.3219  0.1610
 5770SOL    HW128769   2.820   4.115   8.877  0.7692  1.5913 -0.4882
 5770SOL    HW228770   2.958   4.112   8.850 -0.3684  0.2446  0.0091
 5771SOL     OW28771   2.490   0.955   9.088  0.0994  0.0371 -0.5373
 5771SOL    HW128772   2.528   1.034   9.127  0.0463 -0.5387  0.6890
 5771SOL    HW228773   2.396   0.973   9.097  0.1800 -0.0276  0.5092
 5772SOL     OW28774   0.264   3.575   9.404 -0.0527  0.1801 -0.0611
 5772SOL    HW128775   0.282   3.518   9.329 -1.0688  1.0527 -0.9703
 5772SOL    HW228776   0.171   3.561   9.417 -0.4497 -0.7149 -3.7340
 5773SOL     OW28777   4.100   3.863  10.061 -0.0491  0.2841 -0.0611
 5773SOL    HW128778   4.035   3.883   9.993 -1.1546  1.6590  1.3986
 5773SOL    HW228779   4.081   3.942  10.112  0.9408  0.4272  0.0878
 5774SOL     OW28780   0.398   1.706   3.278  0.4942 -0.2469 -0.5096
 5774SOL    HW128781   0.313   1.744   3.259  0.8437  0.4057 -0.7645
 5774SOL    HW228782   0.382   1.688   3.371 -0.4119  0.0158 -0.6151
 5775SOL     OW28783   2.511   1.612   2.722  0.8573 -0.3403  0.1306
 5775SOL    HW128784   2.456   1.581   2.794  0.3059  2.1774  0.7966
 5775SOL    HW228785   2.462   1.687   2.690  0.9196  0.0546  0.9652
 5776SOL     OW28786   4.057   3.205   3.346 -0.0018 -0.3474  0.2566
 5776SOL    HW128787   3.973   3.226   3.387 -0.1025 -1.2398  0.4962
 5776SOL    HW228788   4.073   3.265   3.274  1.3119 -0.2315  0.6466
 5777SOL     OW28789   3.793   0.410   2.052  0.4075 -0.1374 -0.0089
 5777SOL    HW128790   3.741   0.351   2.107 -1.2041  0.5763 -0.7609
 5777SOL    HW228791   3.830   0.462   2.124  0.0085 -1.0057  0.8253
 5778SOL     OW28792   1.930   2.811   8.134  0.0365 -0.2175 -0.5996
 5778SOL    HW128793   1.952   2.718   8.147 -1.2408 -0.0446  2.8444
 5778SOL    HW228794   1.858   2.821   8.072  1.1471 -3.5284 -2.4567
 5779SOL     OW28795   4.639   0.980   1.794 -0.2791  0.2175  0.3946
 5779SOL    HW128796   4.704   1.049   1.804 -0.9868  0.9800 -0.3405
 5779SOL    HW228797   4.625   0.977   1.888 -1.8736 -0.8623  0.1122
 5780SOL     OW28798   1.467   0.815   8.870 -0.0431  0.1082  0.4569
 5780SOL    HW128799   1.445   0.725   8.845  2.6051 -0.9902  2.1539
 5780SOL    HW228800   1.520   0.835   8.793 -0.8054  0.8882  0.1412
 5781SOL     OW28801   3.951   1.640   3.562 -0.2338 -0.3008  0.0363
 5781SOL    HW128802   3.943   1.732   3.539 -2.1420 -0.1459  1.3582
 5781SOL    HW228803   3.860   1.609   3.563 -0.8387  1.4079 -1.6401
 5782SOL     OW28804   1.288   2.437   0.437 -0.4198 -0.7239  0.4602
 5782SOL    HW128805   1.204   2.482   0.426  2.2411  3.3917 -2.9256
 5782SOL    HW228806   1.314   2.445   0.529 -1.3357  0.7911  0.5863
 5783SOL     OW28807   1.600   0.928   8.030 -0.5588  0.0454  0.1387
 5783SOL    HW128808   1.594   0.854   8.089  3.5895 -0.0955  0.3812
 5783SOL    HW228809   1.585   1.000   8.091  0.2538  0.5372 -0.2445
 5784SOL     OW28810   1.846   2.389   2.357  0.0738  0.7693 -0.1647
 5784SOL    HW128811   1.787   2.463   2.372 -1.3932 -0.7273  1.4242
 5784SOL    HW228812   1.931   2.433   2.350  0.1663  0.3377 -1.7376
 5785SOL     OW28813   0.286   2.503   9.957 -0.1282  0.0351 -0.1642
 5785SOL    HW128814   0.309   2.586   9.915 -2.3972  0.2453 -1.0278
 5785SOL    HW228815   0.234   2.463   9.887  1.5403 -2.2836 -0.0682
 5786SOL     OW28816   4.353   4.329  10.429 -0.1347 -0.6474 -0.4199
 5786SOL    HW128817   4.426   4.390  10.442 -0.5035  0.1336 -2.1229
 5786SOL    HW228818   4.369   4.267  10.500 -0.4912  2.4084  2.3116
 5787SOL     OW28819   2.615   1.139   7.710 -0.7425  0.3630 -0.1715
 5787SOL    HW128820   2.650   1.225   7.735 -0.2433  0.4394 -1.1592
 5787SOL    HW228821   2.689   1.103   7.663 -0.6570  2.0983 -1.3767
 5788SOL     OW28822   2.816   3.224   2.423  0.4851  0.3872  0.2820
 5788SOL    HW128823   2.896   3.199   2.377 -0.5886 -4.4129  1.0978
 5788SOL    HW228824   2.812   3.312   2.384 -0.4288 -0.0366 -0.5828
 5789SOL     OW28825   2.995   4.016   6.713  0.4531  0.7993 -0.6134
 5789SOL    HW128826   3.054   3.941   6.720 -0.0725  0.5460  1.2453
 5789SOL    HW228827   2.967   4.018   6.805 -0.2351  1.5166 -0.8323
 5790SOL     OW28828   0.239   1.410   3.681 -0.1334 -0.8644  0.3859
 5790SOL    HW128829   0.259   1.397   3.589 -2.1316  1.2838 -0.3629
 5790SOL    HW228830   0.290   1.337   3.713 -0.5992 -1.3698 -0.0270
 5791SOL     OW28831   1.317   1.496   5.365 -0.3186  0.4120  0.2977
 5791SOL    HW128832   1.390   1.516   5.306 -1.1121 -0.0909 -0.8514
 5791SOL    HW228833   1.298   1.587   5.387  1.0716  0.5222  1.0603
 5792SOL     OW28834   3.337   3.386   7.690  0.0592  0.8000  0.3867
 5792SOL    HW128835   3.369   3.454   7.749  1.7006  1.1374 -0.8761
 5792SOL    HW228836   3.351   3.313   7.751 -3.0298 -0.1651 -0.0660
 5793SOL     OW28837   3.087   0.961   2.837 -0.0848 -0.9269  0.1350
 5793SOL    HW128838   3.085   0.895   2.906  1.0070  0.3624  1.4032
 5793SOL    HW228839   3.091   0.908   2.758 -0.7174 -0.0333 -0.4946
 5794SOL     OW28840   2.313   4.287   5.845  0.0420  0.3518 -0.2710
 5794SOL    HW128841   2.363   4.207   5.860 -2.8831 -1.1759  1.4221
 5794SOL    HW228842   2.227   4.255   5.872  0.6573 -2.0739 -1.2530
 5795SOL     OW28843   0.669   4.510  12.080  0.4419  0.0802 -0.3527
 5795SOL    HW128844   0.696   4.420  12.060 -1.8830 -0.4101 -1.3268
 5795SOL    HW228845   0.706   4.545  11.999  3.1750 -2.6810 -0.2770
 5796SOL     OW28846   1.030   2.672   8.664 -0.0971  0.1530 -0.3398
 5796SOL    HW128847   1.013   2.605   8.730 -0.3242  0.9427  0.4003
 5796SOL    HW228848   1.092   2.723   8.717 -1.3559 -0.4057  1.6566
 5797SOL     OW28849   1.277   4.533  13.677 -0.2285 -0.1910  0.1540
 5797SOL    HW128850   1.325   4.593  13.734  0.8551  1.4340 -2.5055
 5797SOL    HW228851   1.226   4.483  13.741 -2.0129  0.6304 -0.6418
 5798SOL     OW28852   1.609   1.937   1.719 -0.5223  0.2063  0.3085
 5798SOL    HW128853   1.525   1.973   1.747 -0.4297  0.8324 -0.1983
 5798SOL    HW228854   1.576   1.850   1.696 -1.2688 -0.0373  2.3476
 5799SOL     OW28855   3.353   2.470   4.753 -0.2595 -0.1194  0.1411
 5799SOL    HW128856   3.312   2.548   4.790  1.3258  0.8197 -0.0876
 5799SOL    HW228857   3.407   2.507   4.684 -0.6650 -0.0354 -0.1282
 5800SOL     OW28858   3.930   0.784   8.222  0.1946 -0.0626  0.6832
 5800SOL    HW128859   4.025   0.775   8.226  0.1654 -0.6916 -0.2187
 5800SOL    HW228860   3.912   0.732   8.144  1.5384 -0.2357  0.4866
 5801SOL     OW28861   2.670   2.672   4.400 -0.0325 -0.8423  0.5768
 5801SOL    HW128862   2.723   2.745   4.369  1.2092 -1.8068  0.3981
 5801SOL    HW228863   2.686   2.610   4.329  3.2070  0.7059 -0.0222
 5802SOL     OW28864   2.714   1.559   9.274 -0.0587  0.7655 -0.3064
 5802SOL    HW128865   2.669   1.643   9.276  1.4601  1.6006 -1.4007
 5802SOL    HW228866   2.643   1.497   9.293 -1.1231  1.7390 -1.0876
 5803SOL     OW28867   3.562   0.507  15.525  0.1091  0.2410 -0.7555
 5803SOL    HW128868   3.537   0.462  15.444 -1.7168 -0.6405  0.2955
 5803SOL    HW228869   3.497   0.578  15.530 -1.2465 -1.1542  1.2225
 5804SOL     OW28870   4.349   3.037   2.024 -0.4601 -0.7251  0.1926
 5804SOL    HW128871   4.355   3.131   2.038 -1.0297 -0.8275  1.1307
 5804SOL    HW228872   4.381   3.034   1.934 -2.0047  3.5099 -0.4935
 5805SOL     OW28873   4.258   3.421   7.385  0.0402 -0.1385 -0.2773
 5805SOL    HW128874   4.318   3.408   7.458 -0.4998 -0.4761  0.1121
 5805SOL    HW228875   4.328   3.457   7.331 -1.3844 -1.9190 -3.3315
 5806SOL     OW28876   2.509   0.914   2.877  0.4603  0.2824  0.2795
 5806SOL    HW128877   2.460   0.942   2.954  1.4744  2.0478  0.2993
 5806SOL    HW228878   2.537   1.001   2.847  1.8596 -0.4494 -0.5284
 5807SOL     OW28879   1.560   3.078  17.534 -0.6165  0.1037 -0.4587
 5807SOL    HW128880   1.607   3.004  17.571 -0.2355  1.2720  1.3897
 5807SOL    HW228881   1.557   3.132  17.613  1.0464  0.3618 -0.5761
 5808SOL     OW28882   1.618   3.558  16.884 -0.7276 -0.3642  0.2769
 5808SOL    HW128883   1.685   3.490  16.873  0.3342  0.8681 -0.8482
 5808SOL    HW228884   1.539   3.506  16.898 -0.6048 -0.7049 -0.3131
 5809SOL     OW28885   1.855   4.193   5.584  0.1637  0.1897 -0.0222
 5809SOL    HW128886   1.915   4.119   5.577 -0.1484  0.0524 -1.2363
 5809SOL    HW228887   1.770   4.150   5.574 -0.3464  0.9541  1.0656
 5810SOL     OW28888   1.132   2.582   4.388  0.2206 -0.4065  0.8619
 5810SOL    HW128889   1.050   2.534   4.390 -0.7102  1.1069 -0.3479
 5810SOL    HW228890   1.116   2.631   4.468  0.3264 -0.0022  0.6402
 5811SOL     OW28891   0.399   1.432   5.227 -0.2068  0.6737 -0.1156
 5811SOL    HW128892   0.446   1.382   5.294  2.4174  0.9504 -1.7246
 5811SOL    HW228893   0.398   1.362   5.162 -0.7386 -0.7445  1.4208
 5812SOL     OW28894   2.510   0.409   4.682  0.0672  0.2904  0.1333
 5812SOL    HW128895   2.482   0.401   4.591  3.9073 -0.2307 -0.9814
 5812SOL    HW228896   2.479   0.325   4.716  0.7856 -0.4048 -0.9267
 5813SOL     OW28897   3.719   0.507   5.238  0.4901  0.5023  0.3707
 5813SOL    HW128898   3.782   0.435   5.237  0.1853  0.2168  1.7659
 5813SOL    HW228899   3.650   0.483   5.176 -0.1582  1.0887  0.8615
 5814SOL     OW28900   3.084   1.695   7.412  0.2408  0.5911  0.5175
 5814SOL    HW128901   2.992   1.709   7.388 -0.2569 -1.6182  1.1364
 5814SOL    HW228902   3.122   1.783   7.420  1.7651 -0.0316  0.1598
 5815SOL     OW28903   1.379   3.352   4.628 -0.3247 -0.0170  0.0691
 5815SOL    HW128904   1.435   3.331   4.554 -0.3968 -0.5710  0.1716
 5815SOL    HW228905   1.383   3.268   4.673  1.0750  0.0426  0.0553
 5816SOL     OW28906   2.023   3.919   3.854 -0.9327 -0.3958  0.8984
 5816SOL    HW128907   1.982   3.845   3.900  0.2732 -2.5166 -1.4360
 5816SOL    HW228908   2.030   3.888   3.764 -2.2874  0.4131  0.5194
 5817SOL     OW28909   3.315   2.778  16.916  0.4428  0.1453  0.0991
 5817SOL    HW128910   3.278   2.866  16.916  1.4028  0.5512  1.7177
 5817SOL    HW228911   3.386   2.801  16.976 -0.1775 -0.4631  1.0809
 5818SOL     OW28912   0.274   1.115  17.205 -0.5140 -0.2363  1.0024
 5818SOL    HW128913   0.248   1.173  17.277 -0.1779  0.9593  0.1650
 5818SOL    HW228914   0.263   1.029  17.246 -0.8845 -2.3806 -3.5938
 5819SOL     OW28915   2.722   1.467   5.487 -0.3762 -0.3505  0.1832
 5819SOL    HW128916   2.695   1.375   5.491  0.0421 -0.4524  0.6877
 5819SOL    HW228917   2.675   1.510   5.417  2.5048  0.7451 -1.0793
 5820SOL     OW28918   0.341   1.123   9.865  0.2632  0.0535  0.2863
 5820SOL    HW128919   0.376   1.191   9.806 -1.5770  1.4708  0.8162
 5820SOL    HW228920   0.285   1.077   9.802  1.2326  0.0385 -0.5788
 5821SOL     OW28921   4.716   1.914  17.554 -0.3673  0.2221 -0.2371
 5821SOL    HW128922   0.012   1.976  17.484 -0.0768  2.1498  1.5795
 5821SOL    HW228923   0.075   1.871  17.563  0.2419  1.2668 -0.9791
 5822SOL     OW28924   0.853   1.376   3.835  0.5343  0.1309 -0.0226
 5822SOL    HW128925   0.774   1.373   3.781  0.3750  0.5875  0.1951
 5822SOL    HW228926   0.869   1.284   3.857  0.8422 -0.3280 -2.1403
 5823SOL     OW28927   4.036   4.280   9.958 -0.4197  0.3584  0.1919
 5823SOL    HW128928   4.123   4.244   9.975 -1.3348 -1.9654  0.0167
 5823SOL    HW228929   4.052   4.371   9.980 -1.1888  0.4193  0.5105
 5824SOL     OW28930   2.148   1.453   0.695  0.2549  0.2343  0.3091
 5824SOL    HW128931   2.199   1.534   0.703  1.0282 -0.2743  0.5045
 5824SOL    HW228932   2.092   1.443   0.772 -0.0272 -0.9361 -0.0527
 5825SOL     OW28933   4.665   3.636   5.856 -0.1032 -0.0071  0.3966
 5825SOL    HW128934   4.640   3.694   5.928 -1.2536 -1.1496  0.9057
 5825SOL    HW228935   4.581   3.629   5.811 -2.0239  0.8705  3.9088
 5826SOL     OW28936   3.714   2.380  17.500 -0.7966  0.1837 -0.5380
 5826SOL    HW128937   3.728   2.474  17.511 -1.1895  0.1506  0.2308
 5826SOL    HW228938   3.636   2.396  17.446 -1.3643 -0.6725  0.0441
 5827SOL     OW28939   4.016   0.754   6.513  0.4919 -0.2202  0.4893
 5827SOL    HW128940   4.041   0.670   6.475 -1.0960 -0.5594  0.1941
 5827SOL    HW228941   4.001   0.724   6.603 -0.0652 -0.0500  0.4559
 5828SOL     OW28942   0.237   2.581   9.045 -0.0767  0.3656 -0.6057
 5828SOL    HW128943   0.174   2.572   9.116 -0.7248  1.2029 -1.0680
 5828SOL    HW228944   0.203   2.666   9.016 -0.5002  0.4036 -0.0039
 5829SOL     OW28945   4.233   1.265   0.755  0.1337 -0.4389  0.1853
 5829SOL    HW128946   4.185   1.185   0.778  0.5582 -0.8803 -0.4682
 5829SOL    HW228947   4.284   1.279   0.834  0.2341  0.8882 -0.1144
 5830SOL     OW28948   3.517   4.232   2.525  0.5971 -0.2492 -0.4540
 5830SOL    HW128949   3.434   4.186   2.515 -1.2754  2.5726  2.2598
 5830SOL    HW228950   3.557   4.225   2.438  1.5488  1.3290 -0.1559
 5831SOL     OW28951   0.188   1.011  15.651 -0.3899  0.1684  0.8028
 5831SOL    HW128952   0.174   0.932  15.704  1.0256  0.1623  1.1803
 5831SOL    HW228953   0.282   1.004  15.635 -0.2311  1.9219  1.0171
 5832SOL     OW28954   0.314   2.847   3.470 -0.2706 -0.7395  0.1433
 5832SOL    HW128955   0.320   2.935   3.432  2.1322 -1.7024 -1.6915
 5832SOL    HW228956   0.252   2.802   3.414 -1.8877  0.4914  0.9264
 5833SOL     OW28957   4.613   3.086  11.926  0.3603  0.2816  0.1588
 5833SOL    HW128958   4.554   3.071  11.852  0.3163  1.3892 -0.0336
 5833SOL    HW228959   4.695   3.112  11.885  0.1444 -1.1021 -1.1271
 5834SOL     OW28960   2.304   1.214   9.428 -0.0105 -0.3759 -0.3342
 5834SOL    HW128961   2.231   1.241   9.372  1.6137  3.3865 -0.6848
 5834SOL    HW228962   2.258   1.192   9.510  2.2354  1.4844  1.4360
 5835SOL     OW28963   3.239   4.032   4.065 -0.0285  0.4859 -0.2958
 5835SOL    HW128964   3.227   3.986   3.981  0.9550  0.7325 -0.5733
 5835SOL    HW228965   3.176   4.102   4.050 -0.6470  0.2371  1.1664
 5836SOL     OW28966   0.026   0.253   4.318  0.0485 -0.1569  0.0540
 5836SOL    HW128967   0.008   0.254   4.412 -2.0417  0.2511 -0.3518
 5836SOL    HW228968   0.099   0.313   4.308 -0.9400  1.1017  0.4173
 5837SOL     OW28969   3.677   3.542   3.346 -0.3723 -0.0802 -0.5482
 5837SOL    HW128970   3.721   3.617   3.386 -1.1884  1.0301 -1.7171
 5837SOL    HW228971   3.587   3.544   3.379  0.3178  0.8861  1.2105
 5838SOL     OW28972   3.913   0.903   7.539  0.2981 -0.1383  0.3264
 5838SOL    HW128973   3.827   0.868   7.565 -0.5058  1.7524  0.2177
 5838SOL    HW228974   3.971   0.837   7.578 -0.3226 -1.3624 -0.8193
 5839SOL     OW28975   3.472   4.422  15.617  0.1305 -0.0473 -0.0630
 5839SOL    HW128976   3.488   4.329  15.630 -0.5925 -0.1758 -0.0833
 5839SOL    HW228977   3.452   4.452  15.705 -0.1639 -0.8689  0.1448
 5840SOL     OW28978   0.817   3.871  14.862 -0.0573  0.5144 -0.0510
 5840SOL    HW128979   0.799   3.964  14.876 -4.8765 -0.5804  1.0159
 5840SOL    HW228980   0.814   3.861  14.767  2.1717  0.7170 -0.1333
 5841SOL     OW28981   3.525   3.948   5.845 -1.0177 -0.2272 -0.5607
 5841SOL    HW128982   3.555   3.930   5.755 -1.2567  2.0872 -1.1063
 5841SOL    HW228983   3.473   4.029   5.837  0.3621  0.6105 -1.1046
 5842SOL     OW28984   1.664   3.409   4.485  0.4361  0.1373  0.0332
 5842SOL    HW128985   1.694   3.354   4.413 -0.0707 -0.0838 -0.0063
 5842SOL    HW228986   1.723   3.485   4.476  0.3184  0.2671  0.3705
 5843SOL     OW28987   2.616   3.010  12.851 -0.2165 -0.0051  0.1207
 5843SOL    HW128988   2.681   3.062  12.898 -1.2592  1.4876 -0.0606
 5843SOL    HW228989   2.623   2.929  12.901  0.7468  0.8351  1.3393
 5844SOL     OW28990   2.797   0.346   3.264  0.2314  0.5431  0.3116
 5844SOL    HW128991   2.850   0.322   3.340  2.4404  1.4511 -0.9198
 5844SOL    HW228992   2.718   0.294   3.276  1.4820 -0.7807  2.6745
 5845SOL     OW28993   3.052   3.543   4.638 -0.6233 -0.4971  0.8552
 5845SOL    HW128994   3.139   3.573   4.663 -0.5455 -0.6707  0.7933
 5845SOL    HW228995   3.065   3.449   4.645  2.0406 -0.0975  1.2112
 5846SOL     OW28996   3.552   2.597   3.940 -0.2393  0.4193  0.0167
 5846SOL    HW128997   3.541   2.587   4.035  2.8388 -0.0926  0.2951
 5846SOL    HW228998   3.592   2.513   3.922  0.5365  0.8199 -0.1252
 5847SOL     OW28999   2.497   1.920   2.544 -0.7745  0.0740 -0.4935
 5847SOL    HW129000   2.417   1.876   2.573  1.2145 -1.2960  2.9430
 5847SOL    HW229001   2.537   1.922   2.631  1.1534 -1.7043 -1.3526
 5848SOL     OW29002   1.189   3.811   2.160 -0.8202 -0.5463  0.3706
 5848SOL    HW129003   1.173   3.893   2.112  1.1248 -0.7446 -0.6120
 5848SOL    HW229004   1.175   3.744   2.093  0.9817 -0.2425 -0.3133
 5849SOL     OW29005   4.062   2.037   6.212 -0.7324 -0.1717  0.2716
 5849SOL    HW129006   4.055   1.943   6.193  0.4321 -0.7772  2.7715
 5849SOL    HW229007   4.082   2.040   6.306  0.6258 -3.4789  0.1007
 5850SOL     OW29008   3.009   2.929   7.745  0.4132 -0.4997  0.0300
 5850SOL    HW129009   3.049   2.842   7.743 -0.9351 -1.1931  2.1998
 5850SOL    HW229010   3.026   2.967   7.831 -0.9072  1.7870 -0.7080
 5851SOL     OW29011   3.402   3.487   6.969  0.9060 -0.9712  0.7266
 5851SOL    HW129012   3.324   3.543   6.973  0.7968 -0.9829 -1.2634
 5851SOL    HW229013   3.424   3.503   7.060  2.0005 -0.2692  0.3317
 5852SOL     OW29014   3.444   0.563  17.199  0.4057  0.0963  0.1874
 5852SOL    HW129015   3.360   0.535  17.236 -0.2625  1.3063 -0.3882
 5852SOL    HW229016   3.414   0.638  17.148  0.8630  1.1807  1.5015
 5853SOL     OW29017   4.548   0.650  16.768  0.1371 -0.7618  0.1366
 5853SOL    HW129018   4.608   0.625  16.838  1.0477  0.2235 -0.2998
 5853SOL    HW229019   4.470   0.679  16.816 -0.4492 -1.7850 -0.1905
 5854SOL     OW29020   1.752   1.141  15.160 -0.5626  0.0162  0.4751
 5854SOL    HW129021   1.793   1.198  15.225  1.4953 -0.8354 -0.1096
 5854SOL    HW229022   1.727   1.065  15.213  0.9917  0.1431  1.3771
 5855SOL     OW29023   3.442   4.470  11.093 -0.0491  0.2067 -0.0728
 5855SOL    HW129024   3.520   4.523  11.080 -0.5100  0.3755 -2.1393
 5855SOL    HW229025   3.465   4.401  11.030 -2.2364 -2.7789  2.4143
 5856SOL     OW29026   0.530   3.646   2.251  0.1339 -0.1840 -0.0885
 5856SOL    HW129027   0.503   3.558   2.229  1.2193 -1.4153  3.5170
 5856SOL    HW229028   0.624   3.641   2.272  0.0378 -0.4625  0.2607
 5857SOL     OW29029   1.914   2.385  15.528 -0.1424  0.6746 -0.1401
 5857SOL    HW129030   2.007   2.370  15.508 -0.1741  0.4647 -0.1335
 5857SOL    HW229031   1.916   2.384  15.624  1.6472  0.5576 -0.1805
 5858SOL     OW29032   3.144   1.189   9.017  0.3658  0.4241 -0.3439
 5858SOL    HW129033   3.140   1.205   9.112  0.2063 -1.5821 -0.0194
 5858SOL    HW229034   3.139   1.095   9.003  0.3654  0.1724  1.2515
 5859SOL     OW29035   3.321   3.596   2.097  0.2222  0.2524  0.1760
 5859SOL    HW129036   3.303   3.664   2.162  0.5997  1.0654 -0.5772
 5859SOL    HW229037   3.360   3.641   2.023 -1.6168  2.7905  0.7409
 5860SOL     OW29038   3.672   3.259   3.906 -0.4244  0.1121  0.0760
 5860SOL    HW129039   3.673   3.354   3.902  0.5635  0.1426  1.1816
 5860SOL    HW229040   3.719   3.239   3.825 -0.1239  0.7162  0.1020
 5861SOL     OW29041   0.956   2.769   1.223 -0.2093 -0.3034  0.3100
 5861SOL    HW129042   1.043   2.748   1.189 -0.2588  0.9409 -0.5880
 5861SOL    HW229043   0.897   2.697   1.198 -1.6259  1.2475 -0.8049
 5862SOL     OW29044   2.706   2.262   8.308 -0.2419 -0.9391  0.6218
 5862SOL    HW129045   2.729   2.190   8.250 -2.0246  0.3870 -1.7541
 5862SOL    HW229046   2.784   2.279   8.360  0.5091 -2.1346 -0.1326
 5863SOL     OW29047   3.471   4.201   0.118 -0.6093 -0.1179  0.4054
 5863SOL    HW129048   3.462   4.274   0.179 -4.1638 -0.8675  0.7604
 5863SOL    HW229049   3.386   4.157   0.125 -0.5071 -0.3377  0.2868
 5864SOL     OW29050   0.518   3.774  10.142  0.2964 -0.4208 -0.1476
 5864SOL    HW129051   0.606   3.747  10.168  1.0805  1.4627 -0.8413
 5864SOL    HW229052   0.470   3.692  10.149 -1.7312  0.6151 -1.8119
 5865SOL     OW29053   0.487   2.239   7.972  0.6425 -0.6002 -0.1562
 5865SOL    HW129054   0.465   2.310   8.032  2.1225  1.8372 -2.4887
 5865SOL    HW229055   0.568   2.272   7.932 -0.5774 -0.4163 -2.5098
 5866SOL     OW29056   1.090   0.019  14.632 -0.2095 -0.1786  0.8962
 5866SOL    HW129057   1.103   0.067  14.550  3.8481 -1.7594  0.6165
 5866SOL    HW229058   1.050   4.661  14.607  1.8661 -1.2589  1.2350
 5867SOL     OW29059   1.165   0.143   6.120  0.1576  0.0494 -0.8227
 5867SOL    HW129060   1.131   0.211   6.063  0.2734 -1.1032 -2.2712
 5867SOL    HW229061   1.123   0.172   6.201 -0.4225 -0.6577 -0.8696
 5868SOL     OW29062   4.362   2.507   3.956 -0.0550  0.3480  0.1679
 5868SOL    HW129063   4.447   2.509   3.913 -1.8540 -0.8884 -3.4822
 5868SOL    HW229064   4.385   2.519   4.048  1.8351  2.9556 -0.6408
 5869SOL     OW29065   3.611   1.288   2.654 -0.4400  0.4638 -0.9699
 5869SOL    HW129066   3.553   1.350   2.699 -0.1065  1.2956 -1.6709
 5869SOL    HW229067   3.627   1.225   2.724 -2.4320 -1.7563 -2.5233
 5870SOL     OW29068   0.531   2.763   4.047  0.2441  0.2799  0.0840
 5870SOL    HW129069   0.539   2.671   4.070  0.0365 -0.0340 -1.0996
 5870SOL    HW229070   0.584   2.787   4.123  1.0805  0.9125 -0.6948
 5871SOL     OW29071   1.678   4.080   6.447  0.0755 -0.1004  0.2928
 5871SOL    HW129072   1.645   4.166   6.421  0.9752  0.3336  0.6016
 5871SOL    HW229073   1.597   4.029   6.448 -0.6554  1.0420 -0.7709
 5872SOL     OW29074   1.867   0.693   4.575  0.1100 -0.5148 -0.1075
 5872SOL    HW129075   1.919   0.616   4.598 -0.8712 -1.1728 -0.0770
 5872SOL    HW229076   1.916   0.732   4.503 -0.7311  0.1526 -0.3198
 5873SOL     OW29077   1.843   1.970   2.155 -0.7327 -0.5843 -0.2756
 5873SOL    HW129078   1.872   1.932   2.238  1.5797 -2.5907 -2.0290
 5873SOL    HW229079   1.780   2.029   2.198 -1.5852 -1.9220  0.2966
 5874SOL     OW29080   1.294   0.594   2.708  0.1907  0.2895  0.1165
 5874SOL    HW129081   1.229   0.565   2.644  1.5050  1.2747 -1.6432
 5874SOL    HW229082   1.242   0.627   2.781  2.6777  0.9806  1.5809
 5875SOL     OW29083   2.370   0.350   8.847  0.0213 -0.3727  0.6146
 5875SOL    HW129084   2.323   0.433   8.838  0.6568 -0.1447 -0.4991
 5875SOL    HW229085   2.357   0.332   8.940 -0.4278  2.3700  1.0730
 5876SOL     OW29086   3.397   0.176   9.058  0.2622 -0.7114  0.1965
 5876SOL    HW129087   3.310   0.210   9.039  0.1902 -1.2516 -0.4283
 5876SOL    HW229088   3.374   0.085   9.073  2.1597 -0.8664  2.2938
 5877SOL     OW29089   0.378   2.715   0.518 -0.1159 -0.8288  0.4393
 5877SOL    HW129090   0.283   2.720   0.502  0.1044 -1.3771 -1.0989
 5877SOL    HW229091   0.411   2.737   0.431  1.9281 -0.6204  1.2688
 5878SOL     OW29092   3.997   1.158   4.693 -0.5090 -0.6170  0.0460
 5878SOL    HW129093   3.910   1.117   4.694 -0.4831 -0.6748 -0.1384
 5878SOL    HW229094   4.029   1.139   4.605 -1.8216 -0.7388 -0.4094
 5879SOL     OW29095   1.541   0.780   7.604 -0.3044  0.5481  0.4745
 5879SOL    HW129096   1.567   0.693   7.634 -1.4233 -0.3358 -1.1146
 5879SOL    HW229097   1.478   0.757   7.536 -1.3360  3.0434  0.5934
 5880SOL     OW29098   4.492   0.971   5.344  0.1142  0.4981  0.1874
 5880SOL    HW129099   4.574   0.923   5.339  0.0179  0.1166  2.1304
 5880SOL    HW229100   4.519   1.063   5.345 -1.7233  1.0362  1.2150
 5881SOL     OW29101   3.698   0.708   1.586  0.0701 -0.1577 -0.3792
 5881SOL    HW129102   3.693   0.641   1.653 -2.9969  0.2002 -0.2201
 5881SOL    HW229103   3.608   0.739   1.597 -0.3617 -2.2365  1.9372
 5882SOL     OW29104   3.079   1.044   9.755 -0.1448 -0.2297  0.4477
 5882SOL    HW129105   3.017   0.978   9.724 -1.7373  0.7941  1.4623
 5882SOL    HW229106   3.110   1.004   9.836 -2.6067 -1.4104  0.8176
 5883SOL     OW29107   0.066   4.186  15.723  0.1717 -0.8032 -0.3944
 5883SOL    HW129108   0.138   4.150  15.774  0.4861 -1.4713 -1.2957
 5883SOL    HW229109   0.042   4.107  15.674 -1.5775 -0.2425 -0.4491
 5884SOL     OW29110   4.412   4.458   6.197  0.2891  0.6042 -0.5516
 5884SOL    HW129111   4.453   4.497   6.120  0.9925 -1.3628 -1.1704
 5884SOL    HW229112   4.320   4.442   6.177  0.2250  0.0133  0.2246
 5885SOL     OW29113   3.637   0.761   3.624 -0.1593  0.2639  0.3595
 5885SOL    HW129114   3.630   0.852   3.595 -0.3894  0.5909  1.4462
 5885SOL    HW229115   3.661   0.709   3.548 -0.0349 -0.5840  0.9880
 5886SOL     OW29116   2.289   0.279  16.390 -0.5749  0.1810 -0.0408
 5886SOL    HW129117   2.258   0.293  16.480  0.6317  0.2802  0.3542
 5886SOL    HW229118   2.374   0.322  16.385  1.5100 -4.0864 -1.1384
 5887SOL     OW29119   0.371   4.278   3.613 -0.3376  0.5016  0.1229
 5887SOL    HW129120   0.292   4.250   3.658 -0.1980 -1.5494 -0.9083
 5887SOL    HW229121   0.356   4.373   3.605 -0.9253  0.4603  0.7472
 5888SOL     OW29122   0.281   1.213   7.642  0.3942 -0.0766  0.3903
 5888SOL    HW129123   0.314   1.200   7.554  2.3157 -3.0344  1.5569
 5888SOL    HW229124   0.326   1.296   7.658  1.3582 -0.6364  0.5970
 5889SOL     OW29125   3.422   2.896   1.059  0.0029  0.1395  0.0559
 5889SOL    HW129126   3.343   2.841   1.053  0.5208 -0.4957 -1.0270
 5889SOL    HW229127   3.383   2.972   1.016 -1.1320 -0.1679  0.5168
 5890SOL     OW29128   3.102   0.746   5.452  0.4615 -0.6735 -0.1159
 5890SOL    HW129129   3.067   0.683   5.388 -0.8322  1.5865 -1.6439
 5890SOL    HW229130   3.097   0.828   5.402  1.0355 -0.3759  0.3198
 5891SOL     OW29131   0.069   4.472   2.170 -0.4864  0.4699 -0.0115
 5891SOL    HW129132   0.137   4.470   2.238 -1.2906  0.4912  0.7918
 5891SOL    HW229133   0.121   4.431   2.100 -1.5942 -3.0399  1.2177
 5892SOL     OW29134   4.038   0.749  14.614  0.1401 -0.2477 -0.1505
 5892SOL    HW129135   3.989   0.826  14.584 -0.1432  0.8882  3.2218
 5892SOL    HW229136   3.989   0.667  14.611 -1.0561  0.5111 -1.6027
 5893SOL     OW29137   0.385   1.519   4.924  0.2986  0.3674 -0.0511
 5893SOL    HW129138   0.461   1.484   4.877  0.1847 -0.7388  0.5756
 5893SOL    HW229139   0.343   1.442   4.963  2.8076 -0.0411  1.8534
 5894SOL     OW29140   3.120   1.959   7.342 -0.1125  0.6243  0.1375
 5894SOL    HW129141   3.027   1.948   7.323 -0.0779 -0.6059  0.6929
 5894SOL    HW229142   3.135   2.027   7.407 -0.3797 -0.6047  1.4706
 5895SOL     OW29143   2.470   1.512   7.598 -0.0093 -0.8268  0.1013
 5895SOL    HW129144   2.493   1.468   7.516  3.0963 -0.9859  1.0352
 5895SOL    HW229145   2.378   1.489   7.611  0.5044 -3.5486 -1.1262
 5896SOL     OW29146   0.949   3.856   9.667  0.0654  0.3539 -0.4554
 5896SOL    HW129147   1.039   3.835   9.691  0.1925  0.4303 -0.8656
 5896SOL    HW229148   0.908   3.780   9.709 -1.3017  1.0298 -0.5628
 5897SOL     OW29149   4.190   0.672   4.396  0.0349 -0.0563 -0.2384
 5897SOL    HW129150   4.234   0.719   4.326 -0.2837  2.5179  1.3145
 5897SOL    HW229151   4.209   0.733   4.467  1.0049 -1.3370  0.6102
 5898SOL     OW29152   3.150   3.816   9.291 -0.5588  0.2823  0.0347
 5898SOL    HW129153   3.186   3.905   9.299  0.8561 -0.3926  1.2086
 5898SOL    HW229154   3.081   3.836   9.353 -0.0049  0.6581  0.5311
 5899SOL     OW29155   4.615   3.876   2.576 -0.2603  0.1994 -0.1677
 5899SOL    HW129156   4.605   3.956   2.628 -0.4694  0.2756 -0.3230
 5899SOL    HW229157   4.623   3.806   2.640 -3.8373 -1.2819 -1.3490
 5900SOL     OW29158   1.082   1.486   7.815 -0.0361  0.0971 -0.5533
 5900SOL    HW129159   0.987   1.488   7.803 -0.1063  1.0376  0.1482
 5900SOL    HW229160   1.081   1.490   7.911  3.0493  2.0419 -0.5947
 5901SOL     OW29161   3.533   4.110   5.001 -0.0729  0.4807  0.4284
 5901SOL    HW129162   3.582   4.031   4.982 -0.6950 -0.1994  1.6737
 5901SOL    HW229163   3.541   4.161   4.921 -0.1905  0.0743  0.1618
 5902SOL     OW29164   1.647   0.314  10.788  0.1048 -0.2111 -0.4260
 5902SOL    HW129165   1.589   0.369  10.842  0.7063  1.7509 -1.7801
 5902SOL    HW229166   1.719   0.312  10.851  1.7395 -1.3834 -2.3287
 5903SOL     OW29167   1.011   3.399  15.875  0.1009  0.0114  0.4263
 5903SOL    HW129168   0.999   3.351  15.793  1.2124  1.2059 -0.4387
 5903SOL    HW229169   1.096   3.363  15.903  0.0525  0.5808  1.3224
 5904SOL     OW29170   2.942   3.447   3.255 -0.6670  0.1830  0.0095
 5904SOL    HW129171   2.970   3.529   3.214 -0.0753  0.7271  1.5222
 5904SOL    HW229172   2.880   3.418   3.187 -1.9059 -0.5029  1.4297
 5905SOL     OW29173   0.605   0.346   1.681 -1.1276  0.1873 -0.0486
 5905SOL    HW129174   0.687   0.381   1.715  1.1072 -2.0621 -3.0647
 5905SOL    HW229175   0.602   0.388   1.595  0.4293 -0.7248 -0.5538
 5906SOL     OW29176   3.990   1.812   6.872  0.0298 -0.2836 -0.8873
 5906SOL    HW129177   3.929   1.780   6.939  0.6242  0.4220 -0.0181
 5906SOL    HW229178   3.971   1.906   6.879  0.7200 -0.1537 -0.7767
 5907SOL     OW29179   3.930   1.854  11.661  0.2986  0.8984 -0.4928
 5907SOL    HW129180   3.953   1.843  11.568 -0.0787  1.5533 -0.6622
 5907SOL    HW229181   3.985   1.932  11.673  1.8242 -0.2808  0.2356
 5908SOL     OW29182   1.027   3.194   2.857  0.9208  0.2392 -0.4297
 5908SOL    HW129183   1.002   3.102   2.851 -0.5759  0.6917 -1.2404
 5908SOL    HW229184   1.016   3.214   2.764 -0.4653  0.2501 -0.2668
 5909SOL     OW29185   0.224   1.723   0.725  0.5116  0.1534 -0.0177
 5909SOL    HW129186   0.145   1.769   0.698 -1.2646 -1.5801  2.2286
 5909SOL    HW229187   0.284   1.796   0.739 -0.8040  1.0113  1.1062
 5910SOL     OW29188   1.392   3.022  17.305  0.3082 -0.3227 -0.7608
 5910SOL    HW129189   1.437   3.030  17.390  0.6363 -1.5249 -0.8264
 5910SOL    HW229190   1.319   3.080  17.327 -0.0140  0.1941 -3.2824
 5911SOL     OW29191   0.568   1.145   4.965  0.4185  0.0898  0.2663
 5911SOL    HW129192   0.643   1.204   4.958  0.0457  0.3472 -1.6141
 5911SOL    HW229193   0.552   1.103   4.880 -0.1698  0.1336  0.3543
 5912SOL     OW29194   3.044   2.450   7.656 -0.1553 -0.1143 -0.3466
 5912SOL    HW129195   3.133   2.418   7.671 -0.2625 -1.1626 -1.9330
 5912SOL    HW229196   3.001   2.450   7.742  2.0299  1.1236  0.7410
 5913SOL     OW29197   0.858   0.927   5.890 -0.3115  0.1553 -0.0851
 5913SOL    HW129198   0.889   0.905   5.978 -0.7190 -0.0522  0.0033
 5913SOL    HW229199   0.886   0.851   5.840  1.9570  0.1177  1.2077
 5914SOL     OW29200   3.448   4.368  16.862  0.5127  0.7927  0.0369
 5914SOL    HW129201   3.502   4.302  16.907 -1.7185 -0.8953  0.2199
 5914SOL    HW229202   3.444   4.437  16.928 -0.7475  2.1843 -1.5192
 5915SOL     OW29203   4.024   0.511   6.398 -0.8134 -0.5594 -0.1991
 5915SOL    HW129204   4.010   0.465   6.482 -0.0640 -1.4215 -0.5415
 5915SOL    HW229205   4.112   0.483   6.376  0.1548  1.1031  1.5325
 5916SOL     OW29206   1.524   3.353   1.288  0.0398  0.0457  0.0332
 5916SOL    HW129207   1.515   3.447   1.269 -1.3985  0.5606  3.2827
 5916SOL    HW229208   1.603   3.351   1.343 -0.8298 -0.1788  1.2819
 5917SOL     OW29209   3.860   0.387  12.475  0.2226  0.2043  0.3146
 5917SOL    HW129210   3.774   0.413  12.509  0.3628  1.1248 -0.0284
 5917SOL    HW229211   3.856   0.402  12.381 -1.0531 -0.6195  0.2296
 5918SOL     OW29212   0.540   2.585   8.782  0.1215 -0.0527  0.0668
 5918SOL    HW129213   0.463   2.620   8.738 -0.3026  0.1498  0.9584
 5918SOL    HW229214   0.603   2.645   8.742 -0.7784 -0.4448 -1.9083
 5919SOL     OW29215   2.274   0.203  11.618 -0.0654  0.3559  0.0881
 5919SOL    HW129216   2.231   0.240  11.695 -0.3110  1.8506 -0.7501
 5919SOL    HW229217   2.354   0.256  11.617  1.1603 -1.5053 -0.8546
 5920SOL     OW29218   4.014   4.680   0.403  0.4521 -0.5289 -0.3120
 5920SOL    HW129219   3.933   0.003   0.390  0.6757  0.7183  2.7879
 5920SOL    HW229220   4.012   4.649   0.313  1.9977 -0.1701 -0.4733
 5921SOL     OW29221   4.413   3.766   4.404  0.2622 -0.4109  0.2091
 5921SOL    HW129222   4.318   3.756   4.402  0.5930 -2.6029 -3.5440
 5921SOL    HW229223   4.442   3.723   4.485  3.1054 -0.1116 -0.6557
 5922SOL     OW29224   3.946   1.460   3.788  0.4568  0.2992 -0.4997
 5922SOL    HW129225   3.951   1.539   3.735 -3.3755 -1.5064 -3.5367
 5922SOL    HW229226   4.037   1.439   3.812 -0.0326 -1.1317  0.0749
 5923SOL     OW29227   3.678   4.158  11.604  0.0549  0.2796 -0.0667
 5923SOL    HW129228   3.592   4.115  11.602  0.6009 -0.8316  0.2587
 5923SOL    HW229229   3.715   4.116  11.526 -2.0498  0.9797 -1.4420
 5924SOL     OW29230   2.074   3.227   3.232 -0.1468 -0.1561  0.4261
 5924SOL    HW129231   2.163   3.251   3.256  0.3367 -1.4001 -0.1001
 5924SOL    HW229232   2.019   3.271   3.297 -0.4627  1.2015 -0.7716
 5925SOL     OW29233   3.982   2.851   3.359  0.6021  0.1020 -0.1778
 5925SOL    HW129234   3.923   2.924   3.379  1.9842  1.5584 -1.4434
 5925SOL    HW229235   3.993   2.823   3.450  1.8301  3.3625  0.6786
 5926SOL     OW29236   2.221   2.044   1.373  0.1325  0.5499 -0.3001
 5926SOL    HW129237   2.254   1.957   1.352 -0.5801 -0.1608  1.5391
 5926SOL    HW229238   2.126   2.039   1.359 -0.2761  1.5029  2.0153
 5927SOL     OW29239   0.205   3.251  17.596  0.0926  0.2787  0.0353
 5927SOL    HW129240   0.219   3.168  17.642  1.0325  1.5724  2.0681
 5927SOL    HW229241   0.256   3.250  17.515 -2.0040 -2.3530 -1.2506
 5928SOL     OW29242   2.990   4.594   4.603  0.2196 -0.3791  0.0885
 5928SOL    HW129243   2.964   4.502   4.595 -0.0780 -0.1649 -1.3939
 5928SOL    HW229244   2.916   4.639   4.562 -0.4184 -0.3564  1.2648
 5929SOL     OW29245   4.503   0.955  15.247  0.5413  0.5021  0.0851
 5929SOL    HW129246   4.585   0.999  15.225  1.4784  0.2713  3.1937
 5929SOL    HW229247   4.441   1.027  15.232 -1.6838 -1.0254  1.8630
 5930SOL     OW29248   1.628   4.620  16.021  0.6821  0.3444 -0.4032
 5930SOL    HW129249   1.599   4.667  16.098  4.1393  0.6249  0.7288
 5930SOL    HW229250   1.608   4.687  15.955 -1.6602  1.1216  1.0802
 5931SOL     OW29251   1.974   4.095  12.546  0.4456 -0.1675 -0.6146
 5931SOL    HW129252   1.903   4.136  12.498 -0.3356 -0.3128  0.4152
 5931SOL    HW229253   1.967   4.001  12.531  0.7856 -0.2204 -0.4534
 5932SOL     OW29254   2.526   3.720   4.039  0.3842  0.4244  0.7115
 5932SOL    HW129255   2.494   3.701   4.127 -0.1043  1.7136  0.8205
 5932SOL    HW229256   2.554   3.812   4.044  0.7772  0.2550  1.5346
 5933SOL     OW29257   1.113   0.138   8.352  0.1297  0.2902  0.1260
 5933SOL    HW129258   1.084   0.229   8.352 -0.2973  0.1570  0.9436
 5933SOL    HW229259   1.039   0.086   8.383 -0.1223  0.6538  0.1360
 5934SOL     OW29260   3.609   4.605   3.374  0.2346 -0.2478  0.2564
 5934SOL    HW129261   3.636   4.635   3.287  2.7050 -0.6191  0.9041
 5934SOL    HW229262   3.587   4.688   3.417  0.7413 -0.1339  0.2971
 5935SOL     OW29263   1.360   3.650  14.422  0.0954  0.4572  0.5932
 5935SOL    HW129264   1.314   3.725  14.384  1.1842  0.0272 -1.5958
 5935SOL    HW229265   1.399   3.614  14.342 -2.7376  0.4954 -0.8161
 5936SOL     OW29266   1.848   1.710  12.032  0.4011 -0.2787 -0.5234
 5936SOL    HW129267   1.821   1.709  12.124 -1.3163  0.0797 -1.0116
 5936SOL    HW229268   1.774   1.670  11.986  0.5614  1.2093 -2.0524
 5937SOL     OW29269   3.997   2.087   4.658  0.2627  0.5016  0.2092
 5937SOL    HW129270   3.949   2.062   4.578 -1.5730 -2.3141  2.2065
 5937SOL    HW229271   4.080   2.040   4.655  0.3775  0.7763 -1.0145
 5938SOL     OW29272   4.330   3.032   5.126  0.4498 -0.1021  0.4045
 5938SOL    HW129273   4.265   3.015   5.194 -1.7127 -0.3335 -1.7006
 5938SOL    HW229274   4.398   2.971   5.153  0.0889 -0.6405  0.0994
 5939SOL     OW29275   2.851   2.532   1.572 -0.1099  0.0322 -0.6371
 5939SOL    HW129276   2.924   2.471   1.570  0.3220  0.5606 -1.2399
 5939SOL    HW229277   2.795   2.492   1.638  0.3721 -1.0495 -0.8994
 5940SOL     OW29278   4.704   2.620   9.987 -1.3126 -0.0878  0.6080
 5940SOL    HW129279   4.640   2.567   9.940 -0.5081 -2.1985  1.8675
 5940SOL    HW229280   4.723   2.553  10.053  2.3051 -0.8054 -1.1977
 5941SOL     OW29281   0.691   0.623   4.401 -0.3882  0.4875  0.3188
 5941SOL    HW129282   0.648   0.689   4.346  0.7951  0.8877 -0.1277
 5941SOL    HW229283   0.736   0.566   4.338  0.6536  0.5922  0.9825
 5942SOL     OW29284   3.048   1.549   2.655  0.4812 -0.0461  0.2298
 5942SOL    HW129285   3.039   1.592   2.570 -0.8431 -1.2255 -0.2180
 5942SOL    HW229286   2.957   1.565   2.679 -0.1292 -2.0433 -0.7565
 5943SOL     OW29287   4.516   1.110   6.851 -0.9694 -0.5613 -0.3882
 5943SOL    HW129288   4.543   1.122   6.760  0.5971  1.6433  0.3619
 5943SOL    HW229289   4.453   1.182   6.862 -0.7277 -0.0091 -2.6757
 5944SOL     OW29290   1.683   4.118   3.714  0.2759 -0.4356 -0.1072
 5944SOL    HW129291   1.659   4.027   3.734 -1.2254 -0.5822 -2.5642
 5944SOL    HW229292   1.666   4.116   3.619  2.8520  0.7144 -0.5671
 5945SOL     OW29293   2.509   0.784   5.176  0.3207 -0.1703 -0.0639
 5945SOL    HW129294   2.550   0.725   5.112  1.3036 -1.2048  1.4951
 5945SOL    HW229295   2.441   0.816   5.117  0.6894  0.8454  0.0634
 5946SOL     OW29296   2.708   3.585   2.842 -0.0063  0.1106  0.4040
 5946SOL    HW129297   2.715   3.680   2.849  1.6601 -0.1412  2.2679
 5946SOL    HW229298   2.741   3.566   2.754  2.1775  0.5043  1.1422
 5947SOL     OW29299   1.504   1.474   8.434 -0.0516 -0.1660 -0.4745
 5947SOL    HW129300   1.507   1.494   8.341 -0.2882  0.5290 -0.3326
 5947SOL    HW229301   1.489   1.561   8.471  1.3702 -0.3126  0.4583
 5948SOL     OW29302   2.639   3.180   5.730 -0.0244 -0.1586 -0.5781
 5948SOL    HW129303   2.583   3.104   5.714  1.2585 -0.8745 -1.7167
 5948SOL    HW229304   2.596   3.258   5.694 -1.0611 -1.1220 -1.4507
 5949SOL     OW29305   4.435   0.243   4.939  0.2695  0.0240 -0.7246
 5949SOL    HW129306   4.379   0.252   4.861 -1.4439  0.4941  0.5637
 5949SOL    HW229307   4.511   0.297   4.915 -0.7619  0.6654 -2.5999
 5950SOL     OW29308   3.737   0.074   8.706 -0.1335 -0.0624  0.0490
 5950SOL    HW129309   3.673   0.004   8.723  2.9533 -3.0285 -0.7177
 5950SOL    HW229310   3.764   0.060   8.616 -1.8659 -2.4430 -0.1285
 5951SOL     OW29311   2.476   1.916  14.225 -0.0478  0.2352  0.7217
 5951SOL    HW129312   2.491   1.866  14.144 -0.6531  0.4566  0.4786
 5951SOL    HW229313   2.412   1.861  14.269 -0.5000  0.3125  0.1554
 5952SOL     OW29314   2.813   1.291  15.507  0.3855 -0.3735  0.4961
 5952SOL    HW129315   2.731   1.289  15.556  1.3103 -0.5916  2.0365
 5952SOL    HW229316   2.790   1.218  15.450 -1.0892  0.3300  0.1926
 5953SOL     OW29317   1.451   0.386   9.204  0.3727  0.1589 -0.6045
 5953SOL    HW129318   1.479   0.354   9.118 -0.6628  1.6048 -1.4733
 5953SOL    HW229319   1.467   0.480   9.199 -1.4368  0.5895  1.4841
 5954SOL     OW29320   4.141   1.717   3.846 -0.3201 -0.3492  0.4820
 5954SOL    HW129321   4.163   1.630   3.811 -0.3359  0.5150 -1.6401
 5954SOL    HW229322   4.119   1.697   3.937  0.2639  0.8140  0.8761
 5955SOL     OW29323   1.121   1.184   2.920  0.0848  0.2037 -0.1538
 5955SOL    HW129324   1.089   1.273   2.934 -0.3915 -0.1860  1.3061
 5955SOL    HW229325   1.188   1.208   2.856 -0.0098 -0.8849 -0.6602
 5956SOL     OW29326   4.391   0.403   3.448 -0.0325  0.3184  0.1321
 5956SOL    HW129327   4.394   0.362   3.535 -0.8151  0.9626  0.4640
 5956SOL    HW229328   4.448   0.341   3.402 -0.3734  0.8081 -0.9480
 5957SOL     OW29329   0.194   1.093  12.986  0.4792 -0.0163  0.5085
 5957SOL    HW129330   0.136   1.156  12.945  0.6290  0.1039  0.4816
 5957SOL    HW229331   0.267   1.149  13.015 -0.1092 -0.5316  3.0114
 5958SOL     OW29332   1.894   4.491   8.622  0.4331 -0.2970 -0.0891
 5958SOL    HW129333   1.818   4.446   8.585 -0.7099  1.0925  0.5831
 5958SOL    HW229334   1.858   4.546   8.691  0.0134  0.0395 -0.5776
 5959SOL     OW29335   1.898   3.806   2.837 -0.6209 -0.5826 -0.4445
 5959SOL    HW129336   1.895   3.816   2.742 -2.9929 -0.9064 -0.3837
 5959SOL    HW229337   1.904   3.711   2.845 -4.3539 -0.9874 -2.6579
 5960SOL     OW29338   0.531   1.273   8.357  0.3932 -0.1770 -0.1571
 5960SOL    HW129339   0.610   1.320   8.332 -0.6884  0.4045 -2.4911
 5960SOL    HW229340   0.554   1.246   8.446 -0.1463 -1.7287 -0.4766
 5961SOL     OW29341   2.265   0.396  16.053 -0.4723 -0.5329  0.1484
 5961SOL    HW129342   2.325   0.441  16.112  0.1508 -0.1329 -0.7976
 5961SOL    HW229343   2.230   0.350  16.129 -1.1714 -0.6301 -0.2364
 5962SOL     OW29344   2.519   3.540  16.710  0.9206 -0.2380  0.0259
 5962SOL    HW129345   2.607   3.566  16.684  0.5865  1.0942  0.2174
 5962SOL    HW229346   2.519   3.555  16.805 -1.1483  2.1323 -0.3399
 5963SOL     OW29347   3.430   3.913  13.839 -0.2489  0.6378  0.3971
 5963SOL    HW129348   3.359   3.864  13.882  1.2434 -0.8533  1.1537
 5963SOL    HW229349   3.386   3.997  13.851 -1.0179  0.4559 -1.0804
 5964SOL     OW29350   1.503   3.163  11.540 -0.1250 -0.4787  0.1413
 5964SOL    HW129351   1.532   3.075  11.561 -2.5597 -0.9867  1.3265
 5964SOL    HW229352   1.545   3.218  11.606 -1.4301  0.8824 -0.1456
 5965SOL     OW29353   3.786   3.739   5.831  0.1016  0.1740  0.5818
 5965SOL    HW129354   3.742   3.782   5.758 -0.9693 -2.4990 -0.3255
 5965SOL    HW229355   3.794   3.811   5.894 -0.9352 -0.9803  2.0508
 5966SOL     OW29356   3.792   0.126   8.435 -0.2682 -0.5582 -0.6333
 5966SOL    HW129357   3.756   0.113   8.347 -0.0718 -1.1821 -0.6200
 5966SOL    HW229358   3.793   0.222   8.433 -0.7114 -0.5300  0.9226
 5967SOL     OW29359   0.046   0.850  14.699  0.1682 -0.0651 -0.1503
 5967SOL    HW129360   4.711   0.922  14.683  1.0293  0.4745 -0.9190
 5967SOL    HW229361   0.052   0.853  14.795  0.6997 -2.3845 -0.1194
 5968SOL     OW29362   2.135   1.254   8.655  0.2573 -0.5156  0.2971
 5968SOL    HW129363   2.174   1.246   8.743 -3.2248  0.8030  1.9459
 5968SOL    HW229364   2.042   1.236   8.661 -0.3199  2.1431 -0.3764
 5969SOL     OW29365   4.716   1.490   3.060 -0.0227  0.9219 -0.3488
 5969SOL    HW129366   0.044   1.456   2.989  1.2600 -0.8270  1.4387
 5969SOL    HW229367   4.663   1.412   3.070  0.6383  0.3246 -1.5118
 5970SOL     OW29368   3.103   4.090  10.035  0.3744  0.7067 -0.1182
 5970SOL    HW129369   3.123   4.074   9.943  1.4815  2.1187 -0.1154
 5970SOL    HW229370   3.054   4.172  10.031  0.8495  1.0361  0.9796
 5971SOL     OW29371   3.163   0.105   9.443 -0.1707 -1.0191  0.4178
 5971SOL    HW129372   3.132   0.099   9.353 -1.1801 -1.5582  0.7998
 5971SOL    HW229373   3.199   0.193   9.436 -0.8225 -0.9737 -2.2238
 5972SOL     OW29374   1.367   3.557  12.842  0.2598  0.2224 -0.2699
 5972SOL    HW129375   1.356   3.528  12.751 -2.6021 -0.3362  0.2619
 5972SOL    HW229376   1.333   3.647  12.844 -0.9824 -0.2613  0.1751
 5973SOL     OW29377   0.261   3.642   5.197  0.2913  0.4842 -0.6968
 5973SOL    HW129378   0.277   3.712   5.259  1.1075  0.7687 -1.2224
 5973SOL    HW229379   0.344   3.632   5.150  1.2622  2.6878  0.5689
 5974SOL     OW29380   0.199   1.772  11.462  0.0916 -0.1797  0.0536
 5974SOL    HW129381   0.235   1.738  11.380 -0.5746 -0.5278 -0.0938
 5974SOL    HW229382   0.107   1.767  11.436 -0.2524  0.5787  1.1283
 5975SOL     OW29383   4.174   4.495   8.196  0.3914  0.3576 -0.4118
 5975SOL    HW129384   4.239   4.431   8.167  0.5875  0.0222  0.7585
 5975SOL    HW229385   4.227   4.527   8.269  0.3666  0.9715 -0.6652
 5976SOL     OW29386   2.879   2.400   3.927  0.4874 -0.3127  0.2059
 5976SOL    HW129387   2.954   2.399   3.868  0.7178  2.6717  0.4199
 5976SOL    HW229388   2.906   2.368   4.014  1.5872 -0.9296 -0.3682
 5977SOL     OW29389   1.318   1.512   2.365 -0.3581 -0.2137 -0.3916
 5977SOL    HW129390   1.354   1.578   2.306 -3.6348  0.4992 -1.6398
 5977SOL    HW229391   1.281   1.459   2.294 -1.4673  0.8191 -0.5948
 5978SOL     OW29392   0.286   2.834   8.927  0.2313 -0.3904 -0.6247
 5978SOL    HW129393   0.377   2.851   8.903 -0.3757  1.9704 -1.2457
 5978SOL    HW229394   0.257   2.796   8.844  0.4979  0.1393 -0.9599
 5979SOL     OW29395   3.967   3.394  13.083 -0.5747 -0.8449  0.2727
 5979SOL    HW129396   4.032   3.404  13.153  0.6479  0.5084 -1.0324
 5979SOL    HW229397   3.902   3.455  13.116 -0.2526 -0.8759  0.9652
 5980SOL     OW29398   4.604   3.048  15.471  0.3844 -0.5848  0.3256
 5980SOL    HW129399   4.672   3.096  15.423 -0.0562 -0.3738 -0.0867
 5980SOL    HW229400   4.637   3.060  15.560  0.8181  0.6730  0.0065
 5981SOL     OW29401   2.472   1.816   8.823 -0.2262 -0.0801  0.3660
 5981SOL    HW129402   2.441   1.783   8.907 -0.7916 -1.6905 -0.4807
 5981SOL    HW229403   2.390   1.818   8.772  0.1391 -2.5185 -0.2995
 5982SOL     OW29404   3.151   1.457   6.287  0.0085  0.7526 -0.6119
 5982SOL    HW129405   3.105   1.472   6.204  1.0510 -3.2403 -1.9400
 5982SOL    HW229406   3.100   1.381   6.316 -1.5561  2.2614  0.5288
 5983SOL     OW29407   4.402   1.655   5.988 -0.1487 -0.4760  0.0570
 5983SOL    HW129408   4.382   1.647   6.081  2.1151  0.4064  0.6066
 5983SOL    HW229409   4.316   1.672   5.948 -0.5241  0.6489  1.3300
 5984SOL     OW29410   4.513   4.361   4.201 -0.1212 -0.1371 -0.2033
 5984SOL    HW129411   4.568   4.439   4.214 -1.8243  0.8545  1.0684
 5984SOL    HW229412   4.509   4.331   4.292  0.7993  0.0990 -0.0804
 5985SOL     OW29413   3.753   3.985  11.410 -0.4359  0.6672 -0.0959
 5985SOL    HW129414   3.821   3.918  11.401  0.1145  1.1990  0.0602
 5985SOL    HW229415   3.682   3.942  11.363 -0.1832 -0.5649  0.6399
 5986SOL     OW29416   3.217   3.942  10.223 -0.2429  0.5924 -0.2379
 5986SOL    HW129417   3.290   4.004  10.232  1.5960 -1.6374  0.3459
 5986SOL    HW229418   3.167   3.988  10.155  2.9919  1.4287 -2.0631
 5987SOL     OW29419   3.245   4.583   8.115 -0.5326 -0.4157 -0.3630
 5987SOL    HW129420   3.325   4.554   8.159 -0.8542  0.2137  0.6196
 5987SOL    HW229421   3.199   4.502   8.091 -1.2379  0.2321 -1.1908
 5988SOL     OW29422   3.350   4.434   1.023 -0.0894 -0.2580 -0.0016
 5988SOL    HW129423   3.261   4.445   0.990  0.4569  0.6500 -1.1849
 5988SOL    HW229424   3.384   4.516   0.987 -1.6290  1.4563  2.4951
 5989SOL     OW29425   2.990   0.703  17.221 -0.5195 -0.2126 -0.3943
 5989SOL    HW129426   3.002   0.796  17.204 -0.7321 -0.5665 -2.4620
 5989SOL    HW229427   2.895   0.690  17.209 -1.1186  1.4418  2.6346
 5990SOL     OW29428   3.000   1.859   0.016  0.1057  0.3213 -0.4124
 5990SOL    HW129429   3.028   1.771   0.042 -1.6610 -0.1628 -0.1918
 5990SOL    HW229430   2.906   1.847   0.005 -0.0063  0.4174  0.4516
 5991SOL     OW29431   4.020   4.045  11.081  0.2634 -0.0736  0.3154
 5991SOL    HW129432   4.070   4.055  11.000 -1.6958  0.9505 -0.7826
 5991SOL    HW229433   4.004   4.138  11.096 -1.4771 -0.0947 -1.4253
 5992SOL     OW29434   1.506   1.704   3.723 -0.5301 -0.2626 -0.0734
 5992SOL    HW129435   1.560   1.655   3.785  0.8804  0.7965 -0.4738
 5992SOL    HW229436   1.474   1.622   3.685  0.5432  0.2153 -2.0259
 5993SOL     OW29437   0.416   2.836   0.257 -0.1229  0.3487 -0.6972
 5993SOL    HW129438   0.339   2.889   0.240  0.0544  0.5138 -0.9765
 5993SOL    HW229439   0.473   2.868   0.188 -1.1763  1.6173 -0.9695
 5994SOL     OW29440   3.708   2.096  15.646 -0.0933 -0.1749 -0.0933
 5994SOL    HW129441   3.687   2.065  15.735 -0.9964 -0.6318 -0.4699
 5994SOL    HW229442   3.647   2.037  15.601  0.5203 -0.2454 -0.8197
 5995SOL     OW29443   0.725   2.079   4.845 -0.3855  0.6474  0.7185
 5995SOL    HW129444   0.696   2.164   4.876 -0.2353  0.6911  0.7374
 5995SOL    HW229445   0.806   2.053   4.889  0.3495  1.0589 -0.3981
 5996SOL     OW29446   0.632   0.738   2.483 -0.1807 -0.0530  0.1226
 5996SOL    HW129447   0.687   0.816   2.481 -2.7938  1.8366  1.5268
 5996SOL    HW229448   0.579   0.760   2.407 -2.2111  1.0707  1.8650
 5997SOL     OW29449   0.752   1.387   8.270 -0.0598 -0.1348 -0.3310
 5997SOL    HW129450   0.828   1.329   8.264 -0.3321 -0.6404  1.2558
 5997SOL    HW229451   0.795   1.465   8.304 -0.2406  0.1303 -0.7119
 5998SOL     OW29452   0.555   0.992   1.446  0.1363  0.3253 -0.3540
 5998SOL    HW129453   0.629   1.017   1.501  0.1203 -2.4189  0.9287
 5998SOL    HW229454   0.536   0.905   1.480  0.0743  0.8458  0.9248
 5999SOL     OW29455   4.623   4.545   8.330  0.1250 -0.1349 -0.0149
 5999SOL    HW129456   4.671   4.499   8.398  1.3320 -0.3985 -1.0552
 5999SOL    HW229457   4.655   4.631   8.357  1.0727 -0.8028  0.9522
 6000SOL     OW29458   0.423   4.620   9.874  0.1540 -0.1379 -0.4199
 6000SOL    HW129459   0.431   4.565   9.796 -2.0985  0.8100 -1.3257
 6000SOL    HW229460   0.360   4.562   9.918  1.1442 -1.3403 -0.5935
 6001SOL     OW29461   1.455   2.178   4.526 -0.2085  0.0430 -0.4325
 6001SOL    HW129462   1.359   2.178   4.535  0.0696 -4.2258  2.6092
 6001SOL    HW229463   1.472   2.272   4.514 -0.4393  0.1453  0.0429
 6002SOL     OW29464   2.888   1.239   3.504 -0.2869 -0.4103 -0.0752
 6002SOL    HW129465   2.820   1.280   3.451 -0.1968 -1.9952 -1.3869
 6002SOL    HW229466   2.850   1.242   3.592 -2.2954  2.2681 -1.0325
 6003SOL     OW29467   4.006   2.836   4.210 -0.0801  0.1146  0.2823
 6003SOL    HW129468   4.001   2.852   4.116 -1.6636  2.0519  0.6790
 6003SOL    HW229469   4.099   2.816   4.215  0.0644  0.6856 -0.1841
 6004SOL     OW29470   2.026   0.448   8.634  0.0686  0.7488 -0.0090
 6004SOL    HW129471   1.990   0.463   8.721 -0.9397  0.8321 -0.4336
 6004SOL    HW229472   2.035   0.537   8.601 -0.8943  0.4546 -1.0982
 6005SOL     OW29473   1.610   1.251  16.672 -0.1998  0.2204 -0.1823
 6005SOL    HW129474   1.644   1.298  16.595 -1.1174  1.7496  0.3564
 6005SOL    HW229475   1.653   1.309  16.734 -2.1580  1.1476  0.2853
 6006SOL     OW29476   3.987   3.523   7.415 -0.7174  0.3830 -0.0197
 6006SOL    HW129477   4.064   3.472   7.389 -0.4427  1.6863 -1.7463
 6006SOL    HW229478   4.024   3.558   7.496  1.1154 -0.6085 -0.4216
 6007SOL     OW29479   4.027   3.011  17.688  0.0649 -0.1464  0.0973
 6007SOL    HW129480   4.104   2.986  17.638 -1.6509 -2.2469 -1.5022
 6007SOL    HW229481   4.023   3.105  17.670 -2.0451 -0.0013  1.3034
 6008SOL     OW29482   2.800   1.516  10.087  0.1386 -0.1911  1.0854
 6008SOL    HW129483   2.826   1.505   9.995 -0.4945  0.5450  0.8180
 6008SOL    HW229484   2.719   1.568  10.084 -0.0879 -0.5246  1.3780
 6009SOL     OW29485   3.297   0.449   6.944 -0.4639  0.1721  0.0373
 6009SOL    HW129486   3.283   0.354   6.944  0.5417  0.0324  1.4540
 6009SOL    HW229487   3.349   0.464   7.023  2.3997 -2.7236 -1.2880
 6010SOL     OW29488   4.320   0.804   8.758 -0.4944  0.3858  0.1351
 6010SOL    HW129489   4.332   0.898   8.773  0.3726  0.1717  0.7563
 6010SOL    HW229490   4.362   0.775   8.839 -0.3343 -2.0808 -0.8354
 6011SOL     OW29491   3.876   2.619   4.966  0.3677 -0.2275 -0.2416
 6011SOL    HW129492   3.950   2.679   4.958  0.2921  0.0544  1.2836
 6011SOL    HW229493   3.863   2.624   5.061 -0.3003  1.1112 -0.4075
 6012SOL     OW29494   3.523   1.028   0.837 -0.0482 -0.2910  0.5401
 6012SOL    HW129495   3.434   0.998   0.819 -0.5265  0.6893  1.3244
 6012SOL    HW229496   3.516   1.033   0.932  1.2737  0.5721  0.5895
 6013SOL     OW29497   3.143   1.645   0.111  0.1202  0.5618 -0.2253
 6013SOL    HW129498   3.205   1.672   0.043  0.2249  0.2385 -0.2550
 6013SOL    HW229499   3.197   1.662   0.188  0.8813 -0.5508 -0.5135
 6014SOL     OW29500   4.316   1.490  10.702 -0.0343 -0.0747  0.4871
 6014SOL    HW129501   4.266   1.552  10.648 -0.2547 -1.8527 -1.3637
 6014SOL    HW229502   4.312   1.535  10.786  1.4225  1.3896 -0.1993
 6015SOL     OW29503   3.425   1.673  12.392 -0.0402  0.6023  0.1395
 6015SOL    HW129504   3.346   1.622  12.412  0.6411 -0.4433  0.1621
 6015SOL    HW229505   3.485   1.615  12.438 -1.2811 -0.4296  0.4807
 6016SOL     OW29506   0.108   2.595   7.608  0.1611 -0.3070 -0.1119
 6016SOL    HW129507   0.036   2.537   7.630 -0.0328 -0.1204 -0.2563
 6016SOL    HW229508   0.177   2.576   7.672 -1.4939  1.0953  2.1071
 6017SOL     OW29509   2.453   3.525   4.700  0.1186 -0.5116  0.9736
 6017SOL    HW129510   2.543   3.503   4.723  0.1842  0.1584  1.3638
 6017SOL    HW229511   2.415   3.443   4.670  0.0093 -0.8819  2.1315
 6018SOL     OW29512   0.904   1.313   9.014 -0.2132 -0.1108  0.0353
 6018SOL    HW129513   0.872   1.223   9.007  1.7510 -0.4545 -4.0281
 6018SOL    HW229514   0.944   1.311   9.101 -0.1503  1.1520  0.0326
 6019SOL     OW29515   2.826   1.908   7.821  0.0163  0.2654 -0.3693
 6019SOL    HW129516   2.811   2.001   7.804  1.9103  0.7051  0.3429
 6019SOL    HW229517   2.753   1.861   7.780 -1.6266  2.1679  0.3607
 6020SOL     OW29518   3.392   1.067   2.287  0.2355  0.5911  0.5303
 6020SOL    HW129519   3.360   1.097   2.371 -0.1968  2.1762 -0.2061
 6020SOL    HW229520   3.405   0.973   2.304 -3.0226  0.1162  0.2939
 6021SOL     OW29521   1.414   2.647  14.060  0.0204  0.1753 -0.3498
 6021SOL    HW129522   1.328   2.609  14.081  0.3734 -0.2543  0.3040
 6021SOL    HW229523   1.471   2.571  14.065 -0.0110  0.2758  1.4535
 6022SOL     OW29524   0.659   1.859   4.695 -0.5027  0.2267 -0.2844
 6022SOL    HW129525   0.680   1.934   4.751 -0.8758  0.5534 -0.5827
 6022SOL    HW229526   0.564   1.850   4.702 -0.3441 -0.3043  1.0299
 6023SOL     OW29527   3.012   0.302   5.928 -0.3089 -0.0344 -0.3481
 6023SOL    HW129528   3.095   0.332   5.889 -0.1139  0.3427  0.3479
 6023SOL    HW229529   3.033   0.209   5.930  0.7483  0.2311  1.5163
 6024SOL     OW29530   0.197   0.415   5.082 -0.4727 -0.5419  0.3118
 6024SOL    HW129531   0.260   0.362   5.034 -0.3154 -1.3132  1.3636
 6024SOL    HW229532   0.189   0.364   5.163  1.7756  0.5048  1.1938
 6025SOL     OW29533   2.893   3.698   4.829 -0.0091  0.0458  0.4753
 6025SOL    HW129534   2.939   3.632   4.777  1.1566  0.8823  0.4604
 6025SOL    HW229535   2.964   3.752   4.863  0.1620  0.3477 -0.3824
 6026SOL     OW29536   0.758   2.248   1.427 -0.5908  0.0882  0.0704
 6026SOL    HW129537   0.803   2.234   1.344  2.5974  2.5144  1.4039
 6026SOL    HW229538   0.736   2.342   1.426 -0.8818  0.0194 -0.0886
 6027SOL     OW29539   0.968   3.952   9.066 -0.2456 -0.6043  0.4371
 6027SOL    HW129540   1.052   3.965   9.109 -0.9367  1.5208  1.1520
 6027SOL    HW229541   0.970   3.858   9.048 -2.5720  0.2682 -4.4309
 6028SOL     OW29542   4.242   0.032  12.581 -0.5784  0.4122  0.0789
 6028SOL    HW129543   4.183   0.101  12.551 -2.8865 -0.9264  1.5328
 6028SOL    HW229544   4.186   4.681  12.598  1.0840 -0.8370 -0.0357
 6029SOL     OW29545   0.404   0.685   6.623  0.4234  0.1471  0.5945
 6029SOL    HW129546   0.492   0.696   6.588 -0.0801  0.2479 -0.6428
 6029SOL    HW229547   0.348   0.754   6.587 -0.2576 -0.4026  0.6055
 6030SOL     OW29548   4.629   3.111  13.718  0.6157  0.0187  0.4127
 6030SOL    HW129549   4.622   3.057  13.639  1.0699  1.5633 -0.6792
 6030SOL    HW229550   4.658   3.188  13.670  0.9338 -0.1438  0.3438
 6031SOL     OW29551   4.333   4.009   8.819 -0.0291  0.1079 -0.1655
 6031SOL    HW129552   4.247   4.022   8.859 -0.0163 -0.1774 -0.0396
 6031SOL    HW229553   4.320   4.042   8.730 -1.7889 -1.4663 -0.4960
 6032SOL     OW29554   4.518   2.027   7.417  0.2945  0.3489  0.1407
 6032SOL    HW129555   4.482   2.110   7.449 -0.0337  0.3909 -0.3365
 6032SOL    HW229556   4.576   2.057   7.347 -0.4349 -1.1980 -1.1409
 6033SOL     OW29557   3.065   1.352   3.931  0.2763 -0.0042  0.3278
 6033SOL    HW129558   3.050   1.407   3.854 -1.8122 -1.7673 -0.5398
 6033SOL    HW229559   2.978   1.358   3.971 -0.4419  2.3043 -1.5546
 6034SOL     OW29560   4.692   3.808   3.373 -0.3495  0.0872 -0.4287
 6034SOL    HW129561   4.708   3.761   3.455  1.2116 -1.0160 -1.3543
 6034SOL    HW229562   0.055   3.825   3.341 -0.6695  1.0320 -0.8060
 6035SOL     OW29563   1.459   2.692   3.612 -0.0958  1.0050 -0.0400
 6035SOL    HW129564   1.415   2.611   3.585 -2.0375  0.9538  3.3092
 6035SOL    HW229565   1.477   2.663   3.702 -3.1157 -0.6726  0.0272
 6036SOL     OW29566   1.539   3.946  12.161  0.6374  0.3270 -0.6237
 6036SOL    HW129567   1.500   3.874  12.112 -0.6924  0.2501  0.5398
 6036SOL    HW229568   1.531   4.010  12.089  0.7634  0.8112 -0.2080
 6037SOL     OW29569   2.027   3.516   5.860  0.7376 -0.1572  0.1816
 6037SOL    HW129570   1.945   3.564   5.865  0.5345 -0.3352 -1.4311
 6037SOL    HW229571   2.003   3.439   5.910  0.3390  0.8662  1.5682
 6038SOL     OW29572   1.674   3.377   5.530 -0.4547 -0.6625  0.0061
 6038SOL    HW129573   1.718   3.321   5.594 -0.2702  0.1294  0.5648
 6038SOL    HW229574   1.626   3.324   5.466 -1.5748  2.7051 -1.9293
 6039SOL     OW29575   4.301   4.545   5.472  0.3360  0.4699  0.4695
 6039SOL    HW129576   4.234   4.488   5.433 -0.4874  1.4883  0.3755
 6039SOL    HW229577   4.370   4.498   5.518  0.2314 -0.6848 -0.5342
 6040SOL     OW29578   3.713   0.960   9.695  0.0773 -0.2188  0.0732
 6040SOL    HW129579   3.623   0.992   9.693  0.5966  1.2299  0.6430
 6040SOL    HW229580   3.729   0.953   9.789  0.3072  0.2123  0.0618
 6041SOL     OW29581   1.453   3.976   1.533  0.1861 -0.2665 -0.6962
 6041SOL    HW129582   1.400   3.898   1.514 -0.5244 -0.4741  2.1523
 6041SOL    HW229583   1.446   4.022   1.449 -3.0764  0.2409 -0.1414
 6042SOL     OW29584   2.378   4.672   6.425  0.2874 -0.1992 -0.7213
 6042SOL    HW129585   2.305   4.613   6.408  0.1790 -0.4243  0.4796
 6042SOL    HW229586   2.445   4.633   6.368  2.0394  1.4910  0.1496
 6043SOL     OW29587   2.668   2.376   4.490  0.1635 -0.6621  0.3527
 6043SOL    HW129588   2.663   2.285   4.462  1.2249 -0.7495  0.4387
 6043SOL    HW229589   2.761   2.389   4.471 -0.0115  1.5547  1.0297
 6044SOL     OW29590   2.708   0.771  17.233  0.2565 -0.0142  0.0905
 6044SOL    HW129591   2.673   0.709  17.296 -1.5353  0.1691 -0.7325
 6044SOL    HW229592   2.635   0.828  17.209 -0.2360  0.1873  2.1377
 6045SOL     OW29593   2.545   3.764   7.333  0.1001 -0.4650 -0.0141
 6045SOL    HW129594   2.450   3.765   7.322 -0.0203 -0.6451  1.0015
 6045SOL    HW229595   2.556   3.674   7.301  0.8559 -0.6252  0.6888
 6046SOL     OW29596   1.826   0.363   3.731  0.3239 -0.2846 -0.5510
 6046SOL    HW129597   1.790   0.327   3.812  0.5876  0.8530  0.0525
 6046SOL    HW229598   1.909   0.318   3.718  0.5436 -0.2556  0.8373
 6047SOL     OW29599   1.385   3.423  16.869 -0.1227  0.0329  0.1809
 6047SOL    HW129600   1.379   3.336  16.908  3.5126  0.1918  1.1065
 6047SOL    HW229601   1.304   3.468  16.893  0.1996 -0.3610  2.0164
 6048SOL     OW29602   4.089   3.644   0.191  0.2428 -0.1188 -0.7972
 6048SOL    HW129603   4.090   3.634   0.286  1.8198  0.7437 -0.7170
 6048SOL    HW229604   4.134   3.727   0.174 -1.4524  0.7877 -0.9100
 6049SOL     OW29605   4.599   1.783   5.679 -0.2988  0.3668 -0.0987
 6049SOL    HW129606   4.504   1.782   5.667 -0.7040  0.0491  3.0690
 6049SOL    HW229607   4.621   1.876   5.679  1.7371 -0.1147  2.5388
 6050SOL     OW29608   2.165   0.937   0.972 -0.3339  0.1737 -0.1635
 6050SOL    HW129609   2.232   0.902   0.914 -1.9017  0.1843 -1.9832
 6050SOL    HW229610   2.106   0.863   0.957 -0.0872 -0.3101  1.2492
 6051SOL     OW29611   1.385   0.032   2.000 -0.8102  0.0158 -0.0309
 6051SOL    HW129612   1.363   0.009   2.091  2.7116  0.1036  0.8377
 6051SOL    HW229613   1.386   0.128   1.997  0.4525  0.0621  2.0113
 6052SOL     OW29614   4.015   3.010  12.794  0.1178 -0.2557 -0.6732
 6052SOL    HW129615   4.097   2.983  12.752  0.7137  0.4027  0.0578
 6052SOL    HW229616   4.053   3.078  12.851 -0.5744 -0.2594 -0.2053
 6053SOL     OW29617   1.818   3.744   8.484 -0.4396 -0.1052  0.1321
 6053SOL    HW129618   1.785   3.688   8.554 -1.9974 -0.8567 -1.1840
 6053SOL    HW229619   1.858   3.684   8.420 -1.6059  0.8633 -1.5069
 6054SOL     OW29620   1.089   0.421  14.377 -0.0012  0.5720 -0.0059
 6054SOL    HW129621   1.110   0.484  14.445  1.0109  1.4253 -1.1118
 6054SOL    HW229622   1.100   0.329  14.402 -1.9430  0.0283 -1.1511
 6055SOL     OW29623   1.313   3.520   4.889 -0.2748  0.2680 -0.1495
 6055SOL    HW129624   1.371   3.454   4.852  0.6623  1.7802 -1.3582
 6055SOL    HW229625   1.251   3.468   4.939 -3.9635  2.3497 -2.5804
 6056SOL     OW29626   1.587   2.212   4.971  0.4237 -1.0067  0.7532
 6056SOL    HW129627   1.673   2.174   4.952  0.6578 -1.4523  2.7258
 6056SOL    HW229628   1.566   2.263   4.893 -1.1277  0.9969  2.4887
 6057SOL     OW29629   4.121   3.992   9.312  0.4213 -0.8103  0.0503
 6057SOL    HW129630   4.064   4.069   9.310 -0.8676 -1.7761 -0.3651
 6057SOL    HW229631   4.083   3.941   9.384 -1.0118 -1.1474 -0.9404
 6058SOL     OW29632   2.096   2.815   1.830  0.3922  0.4789  0.8012
 6058SOL    HW129633   2.083   2.822   1.735  0.0512 -1.1557  0.7121
 6058SOL    HW229634   2.034   2.752   1.868 -1.1396  0.6202 -1.4625
 6059SOL     OW29635   2.779   0.961   8.121 -0.3741 -0.3150 -0.1128
 6059SOL    HW129636   2.775   0.911   8.203  0.5060  0.0061  0.1253
 6059SOL    HW229637   2.705   1.022   8.126  0.0299  0.2124 -0.5642
 6060SOL     OW29638   1.031   2.634   3.393  0.0844 -0.4396  0.3095
 6060SOL    HW129639   0.977   2.663   3.320  1.4356  0.6017 -0.2773
 6060SOL    HW229640   1.037   2.543   3.364  1.1441  0.1796 -1.4107
 6061SOL     OW29641   3.552   0.045   4.613  0.3874 -0.6016 -0.3389
 6061SOL    HW129642   3.544   4.685   4.570  1.0808 -0.1314 -1.3981
 6061SOL    HW229643   3.598   0.026   4.694  0.3286 -1.7058 -0.5686
 6062SOL     OW29644   2.792   0.371   1.356  0.5402 -0.4076  0.1884
 6062SOL    HW129645   2.727   0.302   1.342 -0.1626 -0.3636  3.2158
 6062SOL    HW229646   2.870   0.343   1.309  0.4933  2.0405 -1.3550
 6063SOL     OW29647   4.459   2.376   7.347 -0.7132  0.3549  0.0802
 6063SOL    HW129648   4.511   2.309   7.391 -0.7395  0.8638  0.8995
 6063SOL    HW229649   4.445   2.441   7.416  0.7507  0.4511  0.3020
 6064SOL     OW29650   0.455   4.158   8.609 -0.3909  0.6985 -0.1661
 6064SOL    HW129651   0.403   4.182   8.532 -0.5675  0.3136 -0.1657
 6064SOL    HW229652   0.387   4.120   8.665 -0.1484  0.6473  0.0945
 6065SOL     OW29653   3.664   4.146  13.282  0.1184  0.2304 -0.3644
 6065SOL    HW129654   3.599   4.101  13.337 -0.6378  1.7131 -0.0328
 6065SOL    HW229655   3.661   4.235  13.317  1.6823 -0.5042  1.6218
 6066SOL     OW29656   4.130   1.501   8.849  0.5631  0.4501  0.5858
 6066SOL    HW129657   4.087   1.524   8.766 -1.1819  1.9396  1.9054
 6066SOL    HW229658   4.133   1.405   8.849 -0.1764  0.4264 -0.5341
 6067SOL     OW29659   2.123   0.472   9.178  0.5125 -0.2578  0.1892
 6067SOL    HW129660   2.038   0.445   9.142  1.0146  0.3665 -1.4663
 6067SOL    HW229661   2.093   0.477   9.269 -0.3532  0.8105 -0.1435
 6068SOL     OW29662   4.311   3.809   2.616  0.6863 -0.1523 -0.3657
 6068SOL    HW129663   4.312   3.856   2.700  0.8485 -0.4824 -0.1855
 6068SOL    HW229664   4.226   3.843   2.588 -0.0671 -0.6918  1.2453
 6069SOL     OW29665   1.028   3.192   2.577  0.0472  0.4691  0.8197
 6069SOL    HW129666   1.030   3.101   2.605  0.6779 -0.3988 -1.9871
 6069SOL    HW229667   1.021   3.193   2.481 -3.4067  0.2696  1.0861
 6070SOL     OW29668   0.500   3.365   6.650 -0.0741 -0.0552 -0.0443
 6070SOL    HW129669   0.417   3.373   6.698  0.4326  3.1987  0.2571
 6070SOL    HW229670   0.510   3.270   6.660 -0.3857  0.4109  4.5067
 6071SOL     OW29671   3.961   3.788  10.970 -0.0256 -0.0284  0.2071
 6071SOL    HW129672   3.955   3.808  10.877  0.2377 -0.5104  0.0873
 6071SOL    HW229673   3.987   3.876  10.999 -2.3945  0.2612  1.4576
 6072SOL     OW29674   4.461   1.151   7.410 -0.1091  0.0258 -0.4304
 6072SOL    HW129675   4.524   1.171   7.341 -3.1548  2.6386 -2.4647
 6072SOL    HW229676   4.416   1.233   7.429  0.4137  0.2457 -0.1533
 6073SOL     OW29677   1.478   2.105   6.013  0.5662  0.4132  0.1566
 6073SOL    HW129678   1.404   2.166   6.006  2.1400  2.1426 -1.2747
 6073SOL    HW229679   1.443   2.037   5.954  0.4901  0.1410  0.5133
 6074SOL     OW29680   2.161   2.728  12.204  0.0874  0.0211  0.4219
 6074SOL    HW129681   2.129   2.701  12.118 -0.4462  0.9172  0.3333
 6074SOL    HW229682   2.209   2.648  12.226  0.4502  0.8569  2.6600
 6075SOL     OW29683   0.635   3.953  14.132  0.1866 -0.1468  0.5859
 6075SOL    HW129684   0.586   4.029  14.161  0.3483  0.2633 -0.2134
 6075SOL    HW229685   0.560   3.899  14.108  0.2767 -0.2048  0.4320
 6076SOL     OW29686   3.382   1.997   3.361  0.2291  0.1816  0.1585
 6076SOL    HW129687   3.470   1.982   3.395 -0.1716  0.7807  1.4602
 6076SOL    HW229688   3.392   2.062   3.291 -1.6515  0.8867  0.5567
 6077SOL     OW29689   0.826   2.188   7.246 -0.4184  0.1953  0.1826
 6077SOL    HW129690   0.828   2.104   7.200  1.2697 -0.7213  1.8946
 6077SOL    HW229691   0.850   2.255   7.182 -0.1879  0.1952  0.2698
 6078SOL     OW29692   2.336   1.158  12.279  0.0519 -0.4295  0.6324
 6078SOL    HW129693   2.308   1.231  12.223  0.6772  0.2717  1.2292
 6078SOL    HW229694   2.258   1.103  12.281 -1.7260  2.0606 -0.2623
 6079SOL     OW29695   3.688   0.585   6.517  0.3595  0.2712 -0.4935
 6079SOL    HW129696   3.686   0.527   6.441 -2.9950 -3.4879  2.4963
 6079SOL    HW229697   3.662   0.521   6.584  1.8663  0.1560 -0.0084
 6080SOL     OW29698   2.815   0.388   7.928 -0.1948 -1.1482 -0.0823
 6080SOL    HW129699   2.786   0.469   7.886  0.6535 -0.4315  0.7200
 6080SOL    HW229700   2.895   0.356   7.885 -1.1973 -1.6999 -1.5431
 6081SOL     OW29701   0.337   4.588   2.722  0.2276  0.3990 -0.0861
 6081SOL    HW129702   0.286   4.601   2.642 -2.8782 -2.4754  1.4179
 6081SOL    HW229703   0.391   4.514   2.695  0.8637  0.6456  0.4935
 6082SOL     OW29704   1.218   3.880   4.214 -0.6568 -0.3445 -0.2446
 6082SOL    HW129705   1.297   3.925   4.184 -1.5695  1.0114 -0.5703
 6082SOL    HW229706   1.170   3.957   4.244  1.5022  0.8278  0.2251
 6083SOL     OW29707   3.449   4.465   8.234  0.1806 -0.3580  0.4644
 6083SOL    HW129708   3.461   4.371   8.222  0.4624 -0.0800 -1.4485
 6083SOL    HW229709   3.542   4.487   8.247  0.3971 -1.0395  0.1173
 6084SOL     OW29710   0.582   0.680   7.731 -0.2327 -0.8086  0.0768
 6084SOL    HW129711   0.524   0.658   7.658 -1.0086 -0.1671  0.5031
 6084SOL    HW229712   0.656   0.718   7.683  0.3991 -0.2243  1.4967
 6085SOL     OW29713   1.698   2.713   4.901  0.0308 -0.4833 -0.8127
 6085SOL    HW129714   1.759   2.779   4.931  0.6984 -0.3578 -2.4562
 6085SOL    HW229715   1.715   2.644   4.966 -1.4504  2.5487  2.8151
 6086SOL     OW29716   3.730   2.367   3.451  0.5790 -0.2627 -0.5459
 6086SOL    HW129717   3.666   2.417   3.401  0.3159  1.8765  1.9137
 6086SOL    HW229718   3.802   2.428   3.469  0.1922 -0.3688  1.3349
 6087SOL     OW29719   4.310   2.218   5.610  0.4876  0.0595 -0.3621
 6087SOL    HW129720   4.246   2.194   5.543 -0.2201 -1.7337  0.9760
 6087SOL    HW229721   4.270   2.227   5.696  1.0160 -0.9096 -0.0076
 6088SOL     OW29722   0.575   2.913   2.071 -0.4246 -0.0372 -0.3959
 6088SOL    HW129723   0.588   2.984   2.009  0.6420  1.0499  1.0682
 6088SOL    HW229724   0.659   2.867   2.078 -0.2651  0.2709 -0.3024
 6089SOL     OW29725   4.421   3.723   7.276 -0.5764 -0.2456  0.2554
 6089SOL    HW129726   4.496   3.763   7.232 -0.1430  0.8644  2.0129
 6089SOL    HW229727   4.437   3.755   7.365 -0.6540  0.1729  0.1188
 6090SOL     OW29728   1.120   0.641  13.696  0.0057  0.5448  0.2500
 6090SOL    HW129729   1.128   0.719  13.752  1.1100  0.8403 -0.3227
 6090SOL    HW229730   1.137   0.569  13.757  3.2569  0.2296 -1.0285
 6091SOL     OW29731   0.874   4.579   3.961 -0.0954  0.3001 -0.0377
 6091SOL    HW129732   0.858   4.645   4.029 -0.4338 -0.1607  0.3256
 6091SOL    HW229733   0.793   4.529   3.960 -0.5699  1.1509 -2.0840
 6092SOL     OW29734   2.755   4.463   4.314  0.2237  0.2726  0.1626
 6092SOL    HW129735   2.668   4.503   4.311 -0.0970 -0.5131 -0.9818
 6092SOL    HW229736   2.791   4.522   4.380  0.6798 -0.7439  0.8272
 6093SOL     OW29737   2.983   0.070   6.703 -0.3337  0.7718 -0.4991
 6093SOL    HW129738   2.991   0.006   6.632 -0.1532  1.5698 -1.2049
 6093SOL    HW229739   2.940   0.022   6.774  0.5773  0.2917 -0.2674
 6094SOL     OW29740   0.273   3.527   0.914 -0.1990  0.7840  0.1414
 6094SOL    HW129741   0.264   3.432   0.924  1.0070  0.7248  0.6671
 6094SOL    HW229742   0.354   3.542   0.962 -0.8214  3.4100  0.3507
 6095SOL     OW29743   1.807   3.723   6.530 -0.0783 -0.0629  0.2093
 6095SOL    HW129744   1.804   3.745   6.623 -3.0801 -4.1591  1.0948
 6095SOL    HW229745   1.813   3.627   6.534 -0.8977 -0.0374  1.7073
 6096SOL     OW29746   4.550   4.463   2.444  0.0982 -0.8630  0.4712
 6096SOL    HW129747   4.583   4.544   2.404  0.4486 -2.7439 -3.1308
 6096SOL    HW229748   4.484   4.430   2.382  0.8189 -1.4260  0.0009
 6097SOL     OW29749   3.424   2.079  12.357  0.0374 -0.5336 -0.4955
 6097SOL    HW129750   3.484   2.045  12.424 -0.4867  1.8053  1.1664
 6097SOL    HW229751   3.419   2.172  12.381 -0.2510 -0.2624 -1.5855
 6098SOL     OW29752   0.247   2.693   2.762  0.0683 -0.3903  0.6188
 6098SOL    HW129753   0.272   2.627   2.697 -3.0440 -1.8094  0.8646
 6098SOL    HW229754   0.327   2.697   2.814  1.0895  0.4568 -1.0028
 6099SOL     OW29755   2.368   1.247  15.953 -0.1551 -0.1920 -0.3169
 6099SOL    HW129756   2.357   1.332  15.910  1.0660  0.4820  0.6867
 6099SOL    HW229757   2.276   1.227  15.969 -0.8610  1.2406 -2.6750
 6100SOL     OW29758   1.743   1.997   1.482 -0.1828 -0.4248 -0.4900
 6100SOL    HW129759   1.700   1.991   1.567 -0.2199  1.5884 -0.3797
 6100SOL    HW229760   1.664   2.003   1.430 -0.1107 -0.4280 -0.6005
 6101SOL     OW29761   0.906   3.463   2.163 -0.1079 -0.1700  0.0988
 6101SOL    HW129762   0.896   3.528   2.232 -1.2031  0.6575 -0.8362
 6101SOL    HW229763   0.825   3.413   2.177  0.0371 -0.2784  0.5338
 6102SOL     OW29764   4.137   1.844  10.132 -0.3261  0.1626 -0.3170
 6102SOL    HW129765   4.139   1.769  10.190  0.5459  1.9284  1.9374
 6102SOL    HW229766   4.232   1.853  10.121  0.1301 -3.0533  0.9989
 6103SOL     OW29767   0.086   3.376   7.719  0.2175 -0.0762  0.1269
 6103SOL    HW129768   0.085   3.460   7.766  1.2668 -0.9023  1.6181
 6103SOL    HW229769   0.043   3.320   7.783  0.9307 -0.8679 -0.0925
 6104SOL     OW29770   0.967   0.822   1.215  0.1357 -0.4201 -0.8069
 6104SOL    HW129771   0.875   0.849   1.206 -0.0978 -0.1556  2.6805
 6104SOL    HW229772   1.011   0.893   1.262  0.0008 -0.3494 -0.7854
 6105SOL     OW29773   3.745   0.117  11.182 -0.0289  0.0256 -0.3311
 6105SOL    HW129774   3.841   0.113  11.174 -0.0793  1.1479 -1.3865
 6105SOL    HW229775   3.746   0.195  11.238  1.9168  0.0217 -0.3553
 6106SOL     OW29776   3.686   4.269   3.814  0.2569 -0.3190 -0.0214
 6106SOL    HW129777   3.617   4.308   3.762 -0.3250  0.1940  1.1427
 6106SOL    HW229778   3.663   4.283   3.906 -0.9518  1.0742 -0.5472
 6107SOL     OW29779   2.374   3.436  14.830 -0.2198  0.4557  0.2759
 6107SOL    HW129780   2.318   3.418  14.754 -1.5174 -0.0702  1.3474
 6107SOL    HW229781   2.460   3.432  14.789 -0.3555  2.9177 -0.2074
 6108SOL     OW29782   0.749   2.577   5.464  0.2822  0.6240 -0.0156
 6108SOL    HW129783   0.696   2.526   5.525  1.7782  0.3837  1.0834
 6108SOL    HW229784   0.815   2.613   5.524 -0.9205  1.2657  0.9254
 6109SOL     OW29785   2.853   1.009   8.846  0.8644  0.1150  0.0979
 6109SOL    HW129786   2.885   1.033   8.933  1.8724 -0.0515 -0.2213
 6109SOL    HW229787   2.759   1.020   8.862  0.7114 -0.0144 -0.7396
 6110SOL     OW29788   0.601   1.771   7.136 -0.0740  0.5472 -0.1233
 6110SOL    HW129789   0.639   1.744   7.052  0.9057  0.3454  0.3909
 6110SOL    HW229790   0.567   1.690   7.173  3.7756 -1.6241 -1.2664
 6111SOL     OW29791   0.963   0.606  10.221 -0.6097 -0.4409 -0.0019
 6111SOL    HW129792   1.026   0.668  10.184 -0.5726  1.2525  2.8867
 6111SOL    HW229793   0.879   0.634  10.184 -0.4183  1.2415  0.8555
 6112SOL     OW29794   3.150   2.264   4.984  0.4842 -0.0284 -0.6618
 6112SOL    HW129795   3.075   2.266   4.924  0.1739 -0.5734 -0.2984
 6112SOL    HW229796   3.161   2.353   5.017 -0.1099  0.0090 -0.5668
 6113SOL     OW29797   2.182   3.031   0.315 -0.6530  0.0612 -0.5202
 6113SOL    HW129798   2.240   2.992   0.249  1.0203 -0.9368  1.5176
 6113SOL    HW229799   2.180   2.958   0.377  0.3300  1.9066  1.6899
 6114SOL     OW29800   0.489   3.532   1.073  0.4539  0.6624 -0.1545
 6114SOL    HW129801   0.481   3.623   1.100 -0.4534  0.3673  0.5613
 6114SOL    HW229802   0.575   3.517   1.111  1.4673 -0.2487 -2.8231
 6115SOL     OW29803   0.962   1.311   9.314 -0.2580 -0.0307  0.2498
 6115SOL    HW129804   0.906   1.372   9.361 -0.5407  1.0636 -1.5380
 6115SOL    HW229805   0.993   1.257   9.387 -1.9824  0.2422  1.1810
 6116SOL     OW29806   0.902   2.092  16.247  0.4025 -0.6747  0.2154
 6116SOL    HW129807   0.825   2.077  16.303 -0.9147 -1.7143 -1.8430
 6116SOL    HW229808   0.948   2.161  16.294 -1.3274  1.3799 -1.0888
 6117SOL     OW29809   0.526   2.122   2.085 -0.0715 -0.4610  0.3425
 6117SOL    HW129810   0.493   2.198   2.037  1.5039  0.9265  1.4461
 6117SOL    HW229811   0.481   2.046   2.049 -0.6972 -0.4161  1.0123
 6118SOL     OW29812   2.521   0.438   4.991  0.1483  0.1967  0.3351
 6118SOL    HW129813   2.523   0.360   4.936  2.3323 -1.7409  3.2036
 6118SOL    HW229814   2.599   0.490   4.973 -0.0730  0.5309  0.3281
 6119SOL     OW29815   3.029   0.510   8.764 -0.0471  0.0602  0.8110
 6119SOL    HW129816   3.023   0.604   8.747 -1.4720 -0.2629 -0.4262
 6119SOL    HW229817   3.123   0.497   8.778  0.2024  2.7347  1.6782
 6120SOL     OW29818   4.307   4.238   9.196  0.5925  0.5912  0.1731
 6120SOL    HW129819   4.223   4.234   9.241  1.0433 -1.6894  0.8113
 6120SOL    HW229820   4.364   4.221   9.271 -3.4821  0.0239  3.1497
 6121SOL     OW29821   2.627   2.033   6.465  0.2316  0.0623 -0.1290
 6121SOL    HW129822   2.654   2.075   6.547  1.7474 -3.1077  0.9978
 6121SOL    HW229823   2.536   2.059   6.450  0.4537  1.7007  1.4687
 6122SOL     OW29824   1.718   3.118   6.336  0.1829 -0.3260 -0.2952
 6122SOL    HW129825   1.700   3.153   6.249 -0.5356 -1.2715 -0.5293
 6122SOL    HW229826   1.748   3.029   6.315 -1.6749 -0.9661 -0.2811
 6123SOL     OW29827   2.450   0.472  15.088  0.6120  0.2499 -0.6300
 6123SOL    HW129828   2.487   0.416  15.156  2.2173 -0.2549 -1.9184
 6123SOL    HW229829   2.481   0.418  15.015  1.6532 -1.6192  1.1948
 6124SOL     OW29830   1.421   0.227   7.253  0.1527  0.0937  0.1318
 6124SOL    HW129831   1.400   0.229   7.159 -3.7295 -0.3234  0.9764
 6124SOL    HW229832   1.379   0.141   7.258 -0.9421  0.6430  0.3477
 6125SOL     OW29833   4.532   0.323   9.151  0.1162 -0.2074  0.3175
 6125SOL    HW129834   4.488   0.331   9.067  0.7163  2.2532  0.2447
 6125SOL    HW229835   4.471   0.281   9.212  2.0739  0.2682  2.6198
 6126SOL     OW29836   0.634   3.401   8.021 -0.2082  0.3033 -0.1296
 6126SOL    HW129837   0.689   3.447   8.086  1.6316 -0.9375 -0.8045
 6126SOL    HW229838   0.617   3.480   7.970 -0.6578 -1.2342 -2.3395
 6127SOL     OW29839   0.714   3.775   6.019 -0.3271 -0.6355  0.2875
 6127SOL    HW129840   0.783   3.839   6.039  0.2647 -0.5661 -2.0641
 6127SOL    HW229841   0.712   3.724   6.101  3.4816  0.8062  1.3006
 6128SOL     OW29842   1.972   0.733   5.509  0.2438 -0.3408  0.3419
 6128SOL    HW129843   1.994   0.663   5.447  0.7870 -1.2791  1.5824
 6128SOL    HW229844   1.921   0.786   5.448 -0.3454 -1.0027  0.2601
 6129SOL     OW29845   4.634   1.497  16.612 -0.7033  0.2113 -0.3511
 6129SOL    HW129846   4.563   1.508  16.549 -1.9581 -0.3524  0.9676
 6129SOL    HW229847   4.714   1.503  16.561 -0.4205 -1.8133 -0.1332
 6130SOL     OW29848   4.073   2.356  12.223  0.2898 -0.2961 -0.2243
 6130SOL    HW129849   4.059   2.442  12.184  0.3092  1.4858  3.6589
 6130SOL    HW229850   3.987   2.317  12.206  0.1553  0.6790 -1.7432
 6131SOL     OW29851   1.762   0.259   5.817  0.1520  0.2778 -0.5460
 6131SOL    HW129852   1.720   0.287   5.735  0.8073 -0.4726 -1.1357
 6131SOL    HW229853   1.829   0.326   5.833 -2.0138  2.8438 -2.1265
 6132SOL     OW29854   0.109   1.381   7.359 -0.0329 -0.4870  0.2864
 6132SOL    HW129855   0.071   1.319   7.298 -0.7380  1.9128 -1.6948
 6132SOL    HW229856   0.192   1.336   7.379 -0.4195 -0.7085  1.4131
 6133SOL     OW29857   1.759   4.612   3.992  0.0536  0.5705 -0.0459
 6133SOL    HW129858   1.812   4.543   3.954 -0.2875 -0.4587  1.3770
 6133SOL    HW229859   1.814   4.682   4.027  0.8408  0.4935 -1.1333
 6134SOL     OW29860   0.070   0.282   6.636 -1.3251  0.0159 -0.4160
 6134SOL    HW129861   0.080   0.315   6.547  2.0291  1.2626  0.4117
 6134SOL    HW229862   0.085   0.362   6.687 -1.2174  0.5292 -1.2603
 6135SOL     OW29863   3.653   2.332   4.616  0.2860  0.5756  0.2133
 6135SOL    HW129864   3.739   2.327   4.657 -1.0131 -3.1963  2.4795
 6135SOL    HW229865   3.625   2.411   4.663  1.4815  1.0060  0.2016
 6136SOL     OW29866   3.919   4.570   0.169 -0.4924  0.1062 -0.1059
 6136SOL    HW129867   3.837   4.523   0.154 -1.0189  1.4413 -1.4589
 6136SOL    HW229868   3.920   4.621   0.088  0.3709 -0.6741 -0.5821
 6137SOL     OW29869   2.975   0.209  12.446  0.3928 -0.2830  0.2054
 6137SOL    HW129870   2.939   0.294  12.471 -0.3190 -0.1801 -1.1855
 6137SOL    HW229871   3.053   0.198  12.499  1.3284 -0.7606 -1.2795
 6138SOL     OW29872   2.774   2.124   9.566 -0.5963  0.0090  0.1732
 6138SOL    HW129873   2.839   2.073   9.615  0.1484 -0.6767 -1.5528
 6138SOL    HW229874   2.807   2.137   9.478 -1.8517  0.8429 -0.1663
 6139SOL     OW29875   3.378   4.628   7.659  0.0612 -0.2619 -0.2915
 6139SOL    HW129876   3.294   4.610   7.618  0.5476  2.4170 -2.4756
 6139SOL    HW229877   3.379   4.555   7.720 -3.3749  0.3045  0.4311
 6140SOL     OW29878   0.235   1.006  15.284  0.1411 -0.1376 -0.3598
 6140SOL    HW129879   0.234   0.935  15.220  0.1549 -0.8141  0.3951
 6140SOL    HW229880   0.285   0.969  15.357  0.1931  0.4190 -0.1165
 6141SOL     OW29881   0.124   3.090   7.045  0.5543  0.7469  0.0683
 6141SOL    HW129882   0.041   3.137   7.054 -0.6191 -1.4314  0.6694
 6141SOL    HW229883   0.109   3.025   6.977 -4.7655  1.7255  0.3171
 6142SOL     OW29884   1.790   2.187   6.883 -0.1357 -0.0663 -0.1794
 6142SOL    HW129885   1.771   2.258   6.821  0.1376 -1.4704 -1.8814
 6142SOL    HW229886   1.830   2.238   6.953  0.3122 -0.0521 -0.4447
 6143SOL     OW29887   4.165   4.602   9.445  0.1337 -0.3455 -0.0438
 6143SOL    HW129888   4.243   4.573   9.492  0.2821 -0.5769 -0.4294
 6143SOL    HW229889   4.120   4.517   9.448  0.0843 -0.2026  3.0200
 6144SOL     OW29890   3.985   0.385   2.775  0.4662 -0.2813  0.3472
 6144SOL    HW129891   4.053   0.320   2.757  2.3276  1.2002  2.0978
 6144SOL    HW229892   4.010   0.404   2.865 -1.0483  0.5701  0.5917
 6145SOL     OW29893   3.632   4.378   9.813 -0.1416 -0.3735 -0.4550
 6145SOL    HW129894   3.684   4.338   9.883  0.9012  0.6531 -0.6572
 6145SOL    HW229895   3.601   4.452   9.865 -0.9596 -0.9554 -0.0938
 6146SOL     OW29896   2.377   4.625   3.194 -0.2519 -0.2436  0.0751
 6146SOL    HW129897   2.326   4.641   3.115  0.1844 -0.6537 -0.2933
 6146SOL    HW229898   2.399   4.532   3.183 -1.9468 -0.5076 -1.0334
 6147SOL     OW29899   2.235   3.009  11.843  0.0552 -0.3504 -0.0168
 6147SOL    HW129900   2.211   2.917  11.850 -1.1482 -0.0442 -0.0075
 6147SOL    HW229901   2.187   3.027  11.762  3.0607  2.4661 -1.1824
 6148SOL     OW29902   4.194   0.461   8.327  0.0496  0.5796  0.4515
 6148SOL    HW129903   4.100   0.460   8.347 -0.3549 -1.2508 -1.5124
 6148SOL    HW229904   4.230   0.445   8.414 -0.0772 -1.9882  0.0490
 6149SOL     OW29905   2.228   1.738  11.851 -0.3996  0.0276  0.6788
 6149SOL    HW129906   2.299   1.674  11.861  0.4971  1.6003  4.2466
 6149SOL    HW229907   2.262   1.778  11.770 -1.6433  2.6974  1.4694
 6150SOL     OW29908   2.508   2.499   1.882 -0.1050 -0.6164 -0.2509
 6150SOL    HW129909   2.460   2.577   1.909  2.5252 -0.0955  2.9662
 6150SOL    HW229910   2.532   2.460   1.966 -0.1950  1.5051  0.7558
 6151SOL     OW29911   0.812   1.931   7.138 -0.2296  0.5177 -0.2075
 6151SOL    HW129912   0.739   1.870   7.138  0.3761 -0.1951 -2.0034
 6151SOL    HW229913   0.870   1.873   7.186  1.0367  0.6677 -1.5511
 6152SOL     OW29914   3.630   2.017   8.386  0.6436  0.6288  0.5060
 6152SOL    HW129915   3.549   2.042   8.431  0.4750  0.3525  0.3576
 6152SOL    HW229916   3.674   2.098   8.361 -0.8381  1.2850 -0.0094
 6153SOL     OW29917   3.281   3.617  13.056  0.5677 -0.3209 -0.0085
 6153SOL    HW129918   3.309   3.550  12.993  2.2057 -0.2343  0.6216
 6153SOL    HW229919   3.201   3.577  13.090  0.3589 -0.4528 -0.6425
 6154SOL     OW29920   3.744   0.335   0.448  0.0007  0.3036 -0.3543
 6154SOL    HW129921   3.739   0.317   0.542  0.7836 -0.5871 -0.4822
 6154SOL    HW229922   3.763   0.246   0.418  0.3043  1.0599 -2.3743
 6155SOL     OW29923   1.390   1.277   7.888  0.5235 -0.0471 -0.0028
 6155SOL    HW129924   1.414   1.363   7.923 -0.7321 -0.4944  1.9642
 6155SOL    HW229925   1.471   1.234   7.862 -0.4309 -0.9781 -1.4685
 6156SOL     OW29926   4.640   4.160   4.682 -0.4799  0.0199  0.3888
 6156SOL    HW129927   4.648   4.198   4.769 -0.6693  1.8090 -0.3811
 6156SOL    HW229928   0.006   4.132   4.677 -1.6069 -3.6634  0.1099
 6157SOL     OW29929   2.135   1.944  15.908  0.0888 -0.5776 -0.3183
 6157SOL    HW129930   2.150   1.852  15.928 -1.6833 -0.3722  1.9352
 6157SOL    HW229931   2.146   1.940  15.813  2.8819 -1.3492  0.0401
 6158SOL     OW29932   2.302   4.215   9.056 -0.3021 -0.1394 -0.0705
 6158SOL    HW129933   2.365   4.284   9.036 -1.0886 -0.0397 -2.1505
 6158SOL    HW229934   2.224   4.245   9.010  0.4591 -1.7800 -2.4607
 6159SOL     OW29935   3.289   0.342   9.427  0.8210 -0.0136  0.0946
 6159SOL    HW129936   3.341   0.391   9.364  1.7652 -2.1698 -0.8211
 6159SOL    HW229937   3.255   0.410   9.486  1.3561 -0.3062  0.7387
 6160SOL     OW29938   4.137   1.618   4.393  0.2272 -0.1422  0.1540
 6160SOL    HW129939   4.122   1.705   4.429 -1.4726 -1.0488  1.6593
 6160SOL    HW229940   4.052   1.594   4.356  0.2572 -1.0635  0.6656
 6161SOL     OW29941   1.053   4.230   8.218 -0.4390  0.4223 -0.0310
 6161SOL    HW129942   0.977   4.173   8.209 -0.7334  0.9459 -0.8424
 6161SOL    HW229943   1.014   4.316   8.204  1.6753  1.5350  0.7943
 6162SOL     OW29944   2.861   4.168  12.760 -0.3958 -0.3185  0.9735
 6162SOL    HW129945   2.907   4.224  12.698  0.3312 -0.0007  1.8008
 6162SOL    HW229946   2.844   4.087  12.713  2.4039  3.4539 -6.5007
 6163SOL     OW29947   3.446   3.467   6.700  0.2749  0.1502  0.4471
 6163SOL    HW129948   3.360   3.428   6.718  0.0331  0.4996  0.0384
 6163SOL    HW229949   3.445   3.511   6.785 -0.8130 -0.4720  0.7642
 6164SOL     OW29950   1.801   0.824   7.586 -0.6279  0.2981  0.2355
 6164SOL    HW129951   1.831   0.819   7.676  1.3889  1.7596 -0.3551
 6164SOL    HW229952   1.708   0.802   7.589 -0.6111  0.2475  0.3958
 6165SOL     OW29953   0.667   2.739  14.849  0.0343  0.3034 -0.1515
 6165SOL    HW129954   0.673   2.679  14.923 -0.8849 -0.1800 -0.4700
 6165SOL    HW229955   0.572   2.743  14.847  0.0429 -0.3380 -2.4885
 6166SOL     OW29956   4.164   3.373   3.806  0.0400  0.2560 -0.8685
 6166SOL    HW129957   4.254   3.401   3.786 -0.1427  0.3449 -1.5593
 6166SOL    HW229958   4.158   3.420   3.890 -0.0639 -0.9169 -0.2148
 6167SOL     OW29959   3.074   2.658   8.110 -0.6002 -0.1870  0.3252
 6167SOL    HW129960   3.058   2.594   8.179  1.9774  0.4990  1.5474
 6167SOL    HW229961   3.151   2.622   8.067 -0.4076 -0.3956  0.8488
 6168SOL     OW29962   0.434   2.211   5.218 -0.1971 -0.3398 -0.1237
 6168SOL    HW129963   0.493   2.140   5.191 -0.6226 -0.5098 -0.6301
 6168SOL    HW229964   0.442   2.195   5.312  0.8418  1.3866  0.0944
 6169SOL     OW29965   1.171   1.689   0.029  1.0204 -0.4273  0.1546
 6169SOL    HW129966   1.145   1.599   0.048 -2.7303  0.3137 -1.5593
 6169SOL    HW229967   1.245   1.665  17.675  1.2768 -2.3704  1.3229
 6170SOL     OW29968   0.544   2.545   2.089  0.3601  0.5219 -0.1507
 6170SOL    HW129969   0.512   2.465   2.047  2.3214 -1.1776  1.6175
 6170SOL    HW229970   0.488   2.604   2.038 -1.8746 -0.2735  1.3754
 6171SOL     OW29971   3.676   1.772   7.641 -0.0341 -0.1696 -0.2748
 6171SOL    HW129972   3.667   1.791   7.548  2.3064  0.2942 -0.4037
 6171SOL    HW229973   3.614   1.831   7.683 -0.6991  0.3000 -1.9196
 6172SOL     OW29974   1.819   1.381   3.199 -0.1496  0.1018  0.3354
 6172SOL    HW129975   1.805   1.372   3.105  0.8979  1.1489  0.0850
 6172SOL    HW229976   1.894   1.439   3.208  0.3098 -0.0410 -2.4607
 6173SOL     OW29977   0.262   4.227   8.434  0.4203  0.2937 -0.1515
 6173SOL    HW129978   0.168   4.218   8.449  0.2122  1.9422 -0.4416
 6173SOL    HW229979   0.262   4.321   8.419 -1.1409  0.4759  1.0742
 6174SOL     OW29980   2.933   0.168   2.020  0.3284  0.3763 -0.5906
 6174SOL    HW129981   2.866   0.103   2.001  1.4349 -1.3160  1.2876
 6174SOL    HW229982   2.876   0.244   2.011  1.9648  1.5045 -1.2878
 6175SOL     OW29983   0.194   1.881   8.582 -0.1286  0.1479 -0.4472
 6175SOL    HW129984   0.173   1.973   8.566 -1.2537  0.0938  0.7838
 6175SOL    HW229985   0.244   1.881   8.663  2.1542 -1.7132 -1.8543
 6176SOL     OW29986   2.768   2.186   7.848  0.0261 -0.2314 -0.2995
 6176SOL    HW129987   2.749   2.194   7.941  1.8509  1.2511 -0.0313
 6176SOL    HW229988   2.703   2.253   7.825  0.0475  0.4098  1.5292
 6177SOL     OW29989   3.421   0.516   6.680 -0.6736 -0.2045 -0.0266
 6177SOL    HW129990   3.494   0.454   6.681 -0.4829  0.0389  1.0964
 6177SOL    HW229991   3.381   0.506   6.767  0.3895  0.7610  0.5544
 6178SOL     OW29992   3.540   1.463   9.485 -0.1078 -0.0415  0.3480
 6178SOL    HW129993   3.614   1.523   9.483  0.4063 -0.7099 -1.0754
 6178SOL    HW229994   3.490   1.519   9.426 -1.9637 -0.9743  1.0395
 6179SOL     OW29995   2.317   4.472   3.984 -0.3256  0.9615  0.0091
 6179SOL    HW129996   2.328   4.379   3.963 -0.4701  1.0610 -0.5118
 6179SOL    HW229997   2.323   4.510   3.896 -2.3332  0.4127 -0.3658
 6180SOL     OW29998   2.184   2.933  12.767 -0.6680 -0.1423 -0.4566
 6180SOL    HW129999   2.123   3.007  12.774  0.2752  0.6734 -0.8213
 6180SOL    HW230000   2.202   2.903  12.856  0.4315  1.2607 -0.2106
 6181SOL     OW30001   0.589   3.646   9.764  0.3685 -0.2767 -0.0124
 6181SOL    HW130002   0.536   3.567   9.751  1.0054 -0.7333  0.1875
 6181SOL    HW230003   0.525   3.711   9.735 -0.0571 -0.6081  0.1967
 6182SOL     OW30004   0.585   2.507   4.160  0.2062 -0.0216  0.2724
 6182SOL    HW130005   0.570   2.421   4.200  2.1018 -0.1312  0.7538
 6182SOL    HW230006   0.643   2.545   4.226  0.0020  0.8173 -0.0248
 6183SOL     OW30007   3.645   4.680   1.191  0.4923  0.0180 -1.2257
 6183SOL    HW130008   3.717   0.011   1.220 -0.9175  1.2030 -0.0561
 6183SOL    HW230009   3.606   4.641   1.269  0.2994  0.8752 -0.8922
 6184SOL     OW30010   0.385   2.721  11.092 -0.2391 -0.2609  0.1332
 6184SOL    HW130011   0.321   2.662  11.132 -0.5517 -0.3769 -0.5418
 6184SOL    HW230012   0.343   2.807  11.084  1.8373  0.7231 -0.1110
 6185SOL     OW30013   3.206   4.605  13.247 -0.1515  0.3508 -0.3356
 6185SOL    HW130014   3.208   4.699  13.228  0.4845  0.4199  0.0975
 6185SOL    HW230015   3.188   4.567  13.161  0.5068  0.8502 -0.6941
 6186SOL     OW30016   2.352   1.800   1.357  0.2157  0.3444 -0.1348
 6186SOL    HW130017   2.357   1.817   1.451 -0.1926 -0.7347  0.0835
 6186SOL    HW230018   2.443   1.788   1.331  0.8573  2.7540  1.0326
 6187SOL     OW30019   1.487   2.835   4.196  0.0154  0.8309  0.2166
 6187SOL    HW130020   1.546   2.761   4.207 -0.6605  0.4378  1.0912
 6187SOL    HW230021   1.520   2.874   4.114  2.2313  0.7422  1.0723
 6188SOL     OW30022   0.167   3.793  11.791 -0.0651  0.0809 -0.8742
 6188SOL    HW130023   0.247   3.828  11.830 -1.5659  1.5058  0.9828
 6188SOL    HW230024   0.114   3.821  11.866  1.0163 -0.3540  0.0433
 6189SOL     OW30025   3.768   1.196   5.325 -0.2471 -0.2894  0.1107
 6189SOL    HW130026   3.686   1.155   5.297 -1.2214  0.3152  2.1020
 6189SOL    HW230027   3.759   1.291   5.319 -1.1303 -0.2778  1.5850
 6190SOL     OW30028   1.042   2.064   1.722  0.1368  0.3405 -0.3232
 6190SOL    HW130029   1.097   1.987   1.714  1.0671  1.0428 -0.6294
 6190SOL    HW230030   1.023   2.098   1.634  1.0430  1.4174 -0.1065
 6191SOL     OW30031   0.206   2.783   6.627  0.3309  0.1390  0.7865
 6191SOL    HW130032   0.265   2.803   6.700  1.0351  0.5643  0.1005
 6191SOL    HW230033   0.249   2.818   6.549 -2.2070 -0.0157 -0.6852
 6192SOL     OW30034   4.178   0.155  11.928 -0.3188  0.2320 -0.0164
 6192SOL    HW130035   4.246   0.222  11.930  0.2230 -0.2513 -2.5244
 6192SOL    HW230036   4.222   0.085  11.975  1.0621 -0.3351 -2.1382
 6193SOL     OW30037   4.134   1.277  11.610 -0.5017 -0.1003 -0.0462
 6193SOL    HW130038   4.123   1.280  11.515  1.8625  2.3056 -0.1994
 6193SOL    HW230039   4.041   1.261  11.628 -0.1953 -0.1695  1.4676
 6194SOL     OW30040   1.850   4.107   3.188  0.1145  0.4536  0.4201
 6194SOL    HW130041   1.770   4.069   3.152  1.3044 -1.4907 -0.1436
 6194SOL    HW230042   1.858   4.185   3.133  1.4892 -1.0980 -1.6186
 6195SOL     OW30043   3.987   3.845   0.862 -0.1093  0.4087 -0.2254
 6195SOL    HW130044   3.975   3.810   0.951  0.5850 -0.1644 -0.3554
 6195SOL    HW230045   4.022   3.931   0.887  1.6773 -0.1574 -0.7633
 6196SOL     OW30046   1.439   1.605   5.939  0.4058  0.5654 -0.4395
 6196SOL    HW130047   1.384   1.662   5.993  3.7139  0.5877  2.8999
 6196SOL    HW230048   1.396   1.609   5.854 -3.0736 -0.0393  1.2495
 6197SOL     OW30049   3.216   0.599   7.918 -0.8082 -0.2912 -0.4577
 6197SOL    HW130050   3.274   0.674   7.910  0.1019 -0.6602  2.5565
 6197SOL    HW230051   3.283   0.531   7.911  1.0578  1.3970  0.7993
 6198SOL     OW30052   2.136   0.976   0.650 -0.1474 -0.1150 -0.1621
 6198SOL    HW130053   2.224   0.940   0.661 -0.4578 -1.3645 -1.6731
 6198SOL    HW230054   2.077   0.904   0.669 -0.4240  0.5727  1.5718
 6199SOL     OW30055   2.776   2.444   1.821  0.3995  0.2569 -0.1817
 6199SOL    HW130056   2.682   2.458   1.829  0.4633  0.8272 -0.4792
 6199SOL    HW230057   2.795   2.360   1.865 -2.1951 -0.1330  0.1752
 6200SOL     OW30058   3.476   3.087   3.803 -0.2325  0.4320  0.1778
 6200SOL    HW130059   3.526   3.101   3.884  1.4491 -0.1941 -0.7500
 6200SOL    HW230060   3.455   2.996   3.822  0.6579  0.1576 -0.1605
 6201SOL     OW30061   0.874   0.897   8.742 -0.6910 -0.0857  0.1216
 6201SOL    HW130062   0.822   0.970   8.776  0.2513  0.4881  0.3032
 6201SOL    HW230063   0.827   0.878   8.661  0.2343  0.5616 -0.5471
 6202SOL     OW30064   4.467   4.503   7.210 -0.0816  0.9855  0.3439
 6202SOL    HW130065   4.437   4.412   7.204 -0.8019  1.3291 -1.2760
 6202SOL    HW230066   4.419   4.545   7.138 -0.6800  0.6034  0.5152
 6203SOL     OW30067   3.466   2.286   5.700  0.3866 -0.3833 -0.4504
 6203SOL    HW130068   3.536   2.222   5.693  0.5941 -0.2914  0.8378
 6203SOL    HW230069   3.506   2.352   5.756 -0.9883 -0.4501  0.6026
 6204SOL     OW30070   0.608   1.506   6.008 -0.7147  0.0773 -0.3211
 6204SOL    HW130071   0.559   1.561   5.946 -1.1973 -1.8466 -1.6291
 6204SOL    HW230072   0.599   1.566   6.082  0.4760  1.0299 -0.9431
 6205SOL     OW30073   3.413   3.785   9.950  0.3658  0.2480  0.4716
 6205SOL    HW130074   3.392   3.709  10.004 -0.3357 -1.7714 -2.6592
 6205SOL    HW230075   3.481   3.831  10.000  0.3137  1.0815 -0.2229
 6206SOL     OW30076   3.410   3.992   8.067  0.2049  0.1556 -0.4056
 6206SOL    HW130077   3.449   3.939   8.137  1.6787  1.4241 -0.2592
 6206SOL    HW230078   3.343   3.933   8.035 -0.7727  0.2058  1.5540
 6207SOL     OW30079   3.103   0.850   3.988  0.1167 -0.0137 -0.0198
 6207SOL    HW130080   3.113   0.939   3.955 -1.9638  0.0671 -0.4295
 6207SOL    HW230081   3.195   0.826   3.996  0.7798  1.7606 -2.4210
 6208SOL     OW30082   3.239   0.590   6.422 -0.2353 -0.4642  0.3769
 6208SOL    HW130083   3.226   0.612   6.514 -2.3325  2.2886 -0.5972
 6208SOL    HW230084   3.289   0.670   6.405 -0.8389 -0.0287  0.6672
 6209SOL     OW30085   1.649   0.352   5.235 -0.3683  0.7294 -0.0468
 6209SOL    HW130086   1.661   0.434   5.284 -1.8189 -0.2058  1.8642
 6209SOL    HW230087   1.653   0.384   5.144  3.2394  2.4010  0.6931
 6210SOL     OW30088   0.953   2.666  16.080  0.3700 -0.3200  0.2187
 6210SOL    HW130089   0.938   2.658  15.986 -1.1291  0.0132  0.4343
 6210SOL    HW230090   0.993   2.582  16.103 -0.9402 -1.1717 -0.6508
 6211SOL     OW30091   1.412   1.126  11.855  0.2870  0.4660 -0.0590
 6211SOL    HW130092   1.414   1.084  11.941  0.9072  0.8374  0.1151
 6211SOL    HW230093   1.483   1.078  11.810  0.0177 -0.1734  0.2002
 6212SOL     OW30094   0.621   0.562   8.385 -0.2896 -0.2349  0.0910
 6212SOL    HW130095   0.646   0.476   8.350 -1.1165 -0.7614  0.8092
 6212SOL    HW230096   0.698   0.597   8.430  0.1868 -1.1269 -0.0237
 6213SOL     OW30097   3.723   2.313   6.792 -1.1071  0.2072  0.1225
 6213SOL    HW130098   3.690   2.393   6.751  0.6211  0.8725  0.0211
 6213SOL    HW230099   3.720   2.251   6.719  2.7515 -0.7524  0.7893
 6214SOL     OW30100   2.337   0.396   6.184  0.2682 -0.4557  0.6467
 6214SOL    HW130101   2.353   0.343   6.263 -1.1724 -0.9750  0.6013
 6214SOL    HW230102   2.242   0.412   6.187  0.6951  2.2841 -0.8454
 6215SOL     OW30103   2.615   3.251  13.772 -0.1703 -0.2480  0.5511
 6215SOL    HW130104   2.608   3.245  13.867 -0.5596  2.3316  0.6949
 6215SOL    HW230105   2.668   3.177  13.744  0.7148  0.9658 -0.9954
 6216SOL     OW30106   0.854   1.640  15.083 -0.5505  0.4324 -0.3474
 6216SOL    HW130107   0.881   1.555  15.119  0.0472  1.3712  1.4150
 6216SOL    HW230108   0.913   1.701  15.126  0.5705  1.9251 -4.0297
 6217SOL     OW30109   0.511   1.721   0.850  0.5047  0.1297 -0.3371
 6217SOL    HW130110   0.589   1.767   0.879  1.0944 -1.1830  0.1373
 6217SOL    HW230111   0.479   1.673   0.926  0.6891 -1.1501 -1.0598
 6218SOL     OW30112   4.276   4.192   6.496  0.1858  0.0279 -0.2177
 6218SOL    HW130113   4.349   4.148   6.452 -1.2750 -1.3281 -1.3150
 6218SOL    HW230114   4.207   4.190   6.429 -0.5549  0.5485  0.5203
 6219SOL     OW30115   3.962   2.251  16.531  0.1259 -0.4638  0.4572
 6219SOL    HW130116   4.051   2.214  16.526  0.8850  1.4271 -0.0619
 6219SOL    HW230117   3.948   2.255  16.625  3.3477  1.0018  0.8687
 6220SOL     OW30118   3.287   3.703  10.393  0.0407 -0.0551  0.4879
 6220SOL    HW130119   3.268   3.776  10.335  3.0310 -0.9414 -1.5884
 6220SOL    HW230120   3.370   3.731  10.433  0.6763 -1.4601  0.1525
 6221SOL     OW30121   0.474   4.240  10.869  0.4373  0.4613 -0.0939
 6221SOL    HW130122   0.455   4.296  10.793  1.1481  1.3672  0.4005
 6221SOL    HW230123   0.406   4.268  10.930  1.2252  2.0927  0.0282
 6222SOL     OW30124   1.009   0.191   7.694  0.0551  0.9761  0.0413
 6222SOL    HW130125   1.034   0.246   7.619 -1.1098  0.9156 -0.3949
 6222SOL    HW230126   0.973   0.249   7.761  1.9386 -0.3791  2.1922
 6223SOL     OW30127   1.728   0.450   7.098 -0.1122  0.4519 -0.4204
 6223SOL    HW130128   1.750   0.465   7.006 -0.8014  1.5867 -0.4148
 6223SOL    HW230129   1.723   0.355   7.093  0.5817  0.4448 -1.1045
 6224SOL     OW30130   3.280   4.039   5.604 -0.4108 -0.2459 -0.1496
 6224SOL    HW130131   3.293   3.993   5.521  0.2617 -1.2213  0.5073
 6224SOL    HW230132   3.309   4.128   5.584  2.3191 -0.4113  3.2130
 6225SOL     OW30133   4.077   3.172   8.756  0.2585  0.4094 -0.0548
 6225SOL    HW130134   4.029   3.247   8.792 -1.1356 -0.5121 -0.0045
 6225SOL    HW230135   4.006   3.150   8.696  0.4435 -2.4856  0.8078
 6226SOL     OW30136   1.681   3.736   1.890  0.1805 -0.0275  0.4138
 6226SOL    HW130137   1.594   3.746   1.851 -0.8862 -2.1310  2.2648
 6226SOL    HW230138   1.734   3.811   1.862 -2.7661  1.3095 -1.6151
 6227SOL     OW30139   2.879   3.881   8.652  0.3968  0.1260 -0.5192
 6227SOL    HW130140   2.874   3.948   8.584  0.0092 -0.0716 -0.6856
 6227SOL    HW230141   2.840   3.927   8.727  4.6660  0.1519  1.7064
 6228SOL     OW30142   4.395   1.238   6.373 -0.0829  0.1707 -0.4314
 6228SOL    HW130143   4.340   1.198   6.440 -0.1393 -1.6572 -1.5803
 6228SOL    HW230144   4.411   1.317   6.425 -0.8774 -0.3466  0.6222
 6229SOL     OW30145   1.619   4.589   2.263 -0.8533 -0.1390  0.1593
 6229SOL    HW130146   1.525   4.590   2.245 -0.8638 -0.3573  0.2091
 6229SOL    HW230147   1.659   4.661   2.212  0.8760 -1.2603 -0.0672
 6230SOL     OW30148   3.489   1.627   7.240  0.0570 -0.0797  0.7776
 6230SOL    HW130149   3.553   1.557   7.251  0.4181  0.5499  2.7137
 6230SOL    HW230150   3.548   1.697   7.268  0.5204 -0.2660  0.2595
 6231SOL     OW30151   1.280   3.116  11.891  0.2925  0.3758  0.5715
 6231SOL    HW130152   1.226   3.190  11.863  0.4266  0.8646  1.6191
 6231SOL    HW230153   1.263   3.132  11.984 -2.7026  0.0273  0.0606
 6232SOL     OW30154   3.456   0.143   1.068 -0.3899  0.0223 -0.1389
 6232SOL    HW130155   3.372   0.162   1.109 -0.4249  2.3116 -1.3203
 6232SOL    HW230156   3.503   0.089   1.133  1.1046 -0.7885 -1.8765
 6233SOL     OW30157   1.077   0.627   5.211  0.0525 -0.2586  0.4367
 6233SOL    HW130158   1.137   0.679   5.263 -0.0817  1.0415 -0.6878
 6233SOL    HW230159   1.090   0.537   5.240 -0.3680 -0.5480 -0.2413
 6234SOL     OW30160   2.401   3.334   8.066  0.6069  0.3970 -0.7891
 6234SOL    HW130161   2.320   3.345   8.017  0.4535  0.1224 -0.5934
 6234SOL    HW230162   2.404   3.239   8.070 -1.8122  0.4949  3.1617
 6235SOL     OW30163   1.776   1.126   6.003 -0.3087 -0.0432 -0.0678
 6235SOL    HW130164   1.722   1.179   6.061 -2.0415 -0.5443 -1.1917
 6235SOL    HW230165   1.781   1.045   6.053  3.4683 -0.1281 -0.6013
 6236SOL     OW30166   4.262   4.646   6.490  0.4504  0.2129 -0.5959
 6236SOL    HW130167   4.232   4.700   6.417  0.7542  1.4011  0.1749
 6236SOL    HW230168   4.182   4.594   6.494 -0.1662  1.0492 -1.9477
 6237SOL     OW30169   4.516   0.644   4.561  0.1827 -0.0870  0.2639
 6237SOL    HW130170   4.471   0.719   4.523 -0.0110 -0.2314  0.2061
 6237SOL    HW230171   4.578   0.678   4.626  1.0855 -0.1997 -0.5317
 6238SOL     OW30172   0.290   2.643  14.410 -0.0487 -0.1659 -0.1650
 6238SOL    HW130173   0.244   2.597  14.481  1.3766 -0.5298  0.5107
 6238SOL    HW230174   0.356   2.693  14.458 -1.7794  0.9305  1.0813
 6239SOL     OW30175   2.300   0.602   3.644  0.2376  0.0403 -0.7797
 6239SOL    HW130176   2.208   0.620   3.626  0.3508  1.0236 -0.3808
 6239SOL    HW230177   2.294   0.509   3.666  0.1114 -0.6245 -3.6693
 6240SOL     OW30178   2.998   0.248   6.965 -0.0322 -0.2435  0.2633
 6240SOL    HW130179   2.942   0.191   6.913 -0.1013 -0.7939  0.9423
 6240SOL    HW230180   3.027   0.185   7.031  0.1931  0.5625  0.9511
 6241SOL     OW30181   0.664   0.698   1.276 -0.1445 -0.5633  0.0393
 6241SOL    HW130182   0.621   0.747   1.347  0.2825 -2.4900  1.6254
 6241SOL    HW230183   0.697   0.765   1.216 -0.4672  0.2121  0.7199
 6242SOL     OW30184   4.058   3.758   5.488 -0.3273 -0.1554  0.2795
 6242SOL    HW130185   4.083   3.850   5.483 -0.3286 -0.2141 -0.8968
 6242SOL    HW230186   4.119   3.718   5.426 -0.6051  1.5390 -1.0851
 6243SOL     OW30187   0.685   4.497   4.504  0.3833 -0.3710  0.2181
 6243SOL    HW130188   0.678   4.438   4.579 -0.8720  0.0855  0.4639
 6243SOL    HW230189   0.623   4.463   4.440 -0.2003 -1.3371  1.2949
 6244SOL     OW30190   2.554   1.597  14.372 -0.4290  0.0426 -0.4005
 6244SOL    HW130191   2.596   1.514  14.396  0.4585  1.3603  2.6700
 6244SOL    HW230192   2.630   1.653  14.357  0.0321 -0.5433 -0.2523
 6245SOL     OW30193   3.737   1.167   2.400  0.6627  0.3319 -0.7369
 6245SOL    HW130194   3.684   1.202   2.328 -2.9227 -2.0258  0.7480
 6245SOL    HW230195   3.707   1.212   2.478  1.0385  1.3631 -1.1815
 6246SOL     OW30196   4.066   0.496   3.777 -0.5454  0.2536 -0.3668
 6246SOL    HW130197   4.137   0.532   3.722 -1.2526  0.7753 -0.9399
 6246SOL    HW230198   4.104   0.425   3.828  2.2617  1.7482 -0.3379
 6247SOL     OW30199   4.673   0.949   7.192  0.1122 -0.0225  0.6161
 6247SOL    HW130200   4.648   1.042   7.198 -1.3711 -0.4407  1.1282
 6247SOL    HW230201   4.599   0.918   7.139  0.8866 -0.6158 -0.1258
 6248SOL     OW30202   3.123   4.332   7.281 -0.5871 -0.3604  0.2003
 6248SOL    HW130203   3.073   4.260   7.319 -0.9721  0.7801  1.8796
 6248SOL    HW230204   3.213   4.301   7.277 -0.1695  0.9746 -0.7342
 6249SOL     OW30205   1.680   3.966   5.601  0.0960 -0.2940 -0.0595
 6249SOL    HW130206   1.668   3.947   5.694 -1.8860  3.0786  0.3670
 6249SOL    HW230207   1.761   3.925   5.571 -1.1653 -1.9773 -1.1996
 6250SOL     OW30208   1.099   3.169   7.391 -0.1839  0.1313  0.0544
 6250SOL    HW130209   1.016   3.154   7.436 -0.4331  0.1002 -0.4246
 6250SOL    HW230210   1.085   3.128   7.306 -1.4183  0.9359 -0.1175
 6251SOL     OW30211   3.407   4.260   6.094  0.1627  0.3941  0.6327
 6251SOL    HW130212   3.472   4.322   6.127  0.5722  0.8077 -0.9406
 6251SOL    HW230213   3.419   4.260   5.999 -2.8457  0.0828  0.2628
 6252SOL     OW30214   2.263   0.186  14.168  0.4438  0.1877  0.4676
 6252SOL    HW130215   2.238   0.221  14.254  2.3614  2.3530  0.1438
 6252SOL    HW230216   2.204   0.111  14.168 -2.2064  2.2497 -0.7442
 6253SOL     OW30217   2.653   0.190  11.268 -0.3362 -0.1722  0.0739
 6253SOL    HW130218   2.655   0.257  11.337  0.4630 -0.6750  0.5386
 6253SOL    HW230219   2.609   0.126  11.323  0.6080  0.6139  1.7651
 6254SOL     OW30220   1.110   2.658   0.534 -0.1572  0.2013 -0.0825
 6254SOL    HW130221   1.168   2.679   0.460 -0.5024  1.1284 -0.0815
 6254SOL    HW230222   1.031   2.708   0.516 -0.9271 -0.9556  0.0543
 6255SOL     OW30223   3.546   0.398   9.297  0.1108 -0.1701  0.2497
 6255SOL    HW130224   3.586   0.421   9.381 -0.3272  0.7365  0.2029
 6255SOL    HW230225   3.567   0.305   9.290  1.2099  0.0658  0.3397
 6256SOL     OW30226   4.541   0.405   2.139  0.4942 -0.2559 -0.3827
 6256SOL    HW130227   4.619   0.357   2.112  0.8410 -0.6214  1.2618
 6256SOL    HW230228   4.568   0.486   2.184  0.1902 -0.5332  0.3013
 6257SOL     OW30229   0.317   0.292   6.842  0.1346  0.0122  0.3269
 6257SOL    HW130230   0.347   0.347   6.770  0.0363 -0.8901 -0.4121
 6257SOL    HW230231   0.389   0.229   6.845 -0.3588 -0.4857  1.8647
 6258SOL     OW30232   3.805   3.253   5.764 -0.1138  0.3668  0.5884
 6258SOL    HW130233   3.712   3.259   5.742 -0.1702 -2.9013 -0.1618
 6258SOL    HW230234   3.795   3.268   5.857  0.2523 -1.4443  0.9321
 6259SOL     OW30235   4.189   4.499  17.045  0.1175 -0.0686 -0.2562
 6259SOL    HW130236   4.102   4.483  17.080 -0.0299  0.7450 -0.2614
 6259SOL    HW230237   4.228   4.549  17.117  1.2291  0.2494 -1.0786
 6260SOL     OW30238   0.448   4.560   7.166  0.1243  0.9344 -0.3091
 6260SOL    HW130239   0.370   4.539   7.217  1.3714 -4.7761 -0.7869
 6260SOL    HW230240   0.403   4.573   7.082 -0.1313  2.4849  0.0774
 6261SOL     OW30241   4.338   4.090   0.128  0.4443 -0.5026 -0.0095
 6261SOL    HW130242   4.271   4.093   0.196  2.0038  2.7940  1.3866
 6261SOL    HW230243   4.322   4.177   0.090  0.3850  0.2526  1.7231
 6262SOL     OW30244   2.851   4.348   3.516  0.0973  0.2785  0.1008
 6262SOL    HW130245   2.899   4.389   3.587  0.0621  2.3552 -1.0663
 6262SOL    HW230246   2.784   4.415   3.498 -1.1461 -1.3605 -1.4503
 6263SOL     OW30247   3.520   0.828  10.057  0.2159  0.1474  0.0520
 6263SOL    HW130248   3.495   0.837  10.149  2.5026  0.8397  0.5995
 6263SOL    HW230249   3.463   0.899  10.026  0.0820  1.0972  2.5237
 6264SOL     OW30250   2.545   3.138   3.620 -0.6890  0.2821  0.3503
 6264SOL    HW130251   2.457   3.173   3.634 -0.9570 -0.0973 -0.3802
 6264SOL    HW230252   2.581   3.141   3.708 -2.6194 -0.9164  1.1829
 6265SOL     OW30253   1.488   3.222   3.603  0.3588 -0.2623  0.4005
 6265SOL    HW130254   1.444   3.188   3.681  1.7555  0.8736  1.6852
 6265SOL    HW230255   1.536   3.144   3.576 -0.3132 -0.4922 -0.1296
 6266SOL     OW30256   1.612   0.721   1.900 -1.2096 -0.2280 -0.0420
 6266SOL    HW130257   1.598   0.797   1.956  1.2477 -2.0573  3.0602
 6266SOL    HW230258   1.556   0.739   1.825 -1.7505 -1.1040  0.1560
 6267SOL     OW30259   1.291   4.432  15.058 -0.2069  0.2809  0.3137
 6267SOL    HW130260   1.361   4.407  15.119 -0.8133 -0.1016  0.8543
 6267SOL    HW230261   1.306   4.527  15.053 -0.7077  0.3644  0.3727
 6268SOL     OW30262   3.743   3.611  10.489  0.4973 -0.4819 -0.0696
 6268SOL    HW130263   3.690   3.532  10.500  0.2317 -0.3701 -0.5411
 6268SOL    HW230264   3.830   3.575  10.505 -0.1502 -1.8161  0.4691
 6269SOL     OW30265   3.639   2.256  12.629 -0.0810 -0.5187  0.0651
 6269SOL    HW130266   3.587   2.257  12.549 -2.9500 -0.9256  1.8920
 6269SOL    HW230267   3.672   2.167  12.616  1.9442  0.4127 -1.0825
 6270SOL     OW30268   0.432   3.509   1.375  0.3879 -0.2611 -1.2104
 6270SOL    HW130269   0.504   3.527   1.436 -0.0399  0.5845 -0.9526
 6270SOL    HW230270   0.432   3.594   1.331 -0.3411  1.4202  2.0760
 6271SOL     OW30271   2.103   3.663   5.244  0.1895  0.2810 -0.2470
 6271SOL    HW130272   2.033   3.728   5.235  0.6042  1.1015  2.6585
 6271SOL    HW230273   2.070   3.610   5.317 -0.2058 -2.9830 -2.8000
 6272SOL     OW30274   0.771   2.563  10.441 -0.1464  0.1264  0.3153
 6272SOL    HW130275   0.853   2.577  10.393  0.0810 -0.6935  0.4717
 6272SOL    HW230276   0.721   2.636  10.405 -0.0812  1.4756  2.9823
 6273SOL     OW30277   1.236   2.277   8.097 -0.7401 -0.8362  0.0003
 6273SOL    HW130278   1.246   2.182   8.108  1.8340 -0.4148  1.3438
 6273SOL    HW230279   1.308   2.293   8.036 -0.7435  0.1494  0.2530
 6274SOL     OW30280   2.073   1.184   9.277 -0.3388  0.5822 -0.3542
 6274SOL    HW130281   2.010   1.129   9.324  0.2229 -0.0345 -0.3339
 6274SOL    HW230282   2.007   1.242   9.240 -1.1334  0.2800  0.5983
 6275SOL     OW30283   0.183   1.842  12.105 -0.0210  0.2693 -0.0189
 6275SOL    HW130284   0.263   1.792  12.122  0.2534  0.5995 -0.3541
 6275SOL    HW230285   0.117   1.778  12.132 -0.1246 -0.6400 -2.4326
 6276SOL     OW30286   2.592   1.365  15.683 -0.9766 -0.0642 -0.5440
 6276SOL    HW130287   2.568   1.375  15.590  0.5144  1.2976 -0.7794
 6276SOL    HW230288   2.567   1.274  15.702  1.7140 -1.0004 -1.5694
 6277SOL     OW30289   2.292   3.116  14.277 -0.7342  0.6781  0.0374
 6277SOL    HW130290   2.338   3.032  14.287  1.0936  1.7148  0.2162
 6277SOL    HW230291   2.213   3.079  14.238  0.4505 -1.1976 -0.6198
 6278SOL     OW30292   3.302   3.980   8.457  0.0107  0.6472 -0.5776
 6278SOL    HW130293   3.289   4.062   8.505  0.5919  1.1360 -1.2634
 6278SOL    HW230294   3.309   3.926   8.536  0.5035  1.6209  0.0532
 6279SOL     OW30295   3.274   3.141  12.516 -0.0907 -0.5134  0.0587
 6279SOL    HW130296   3.322   3.067  12.480 -1.5920 -0.7716 -1.3923
 6279SOL    HW230297   3.195   3.100  12.553 -0.5504  2.3934  2.3571
 6280SOL     OW30298   0.107   1.816   2.889 -0.2299  0.2543 -0.2568
 6280SOL    HW130299   0.012   1.817   2.878 -0.0301  0.6413 -1.9967
 6280SOL    HW230300   0.131   1.753   2.820 -2.0547 -1.4475  0.6540
 6281SOL     OW30301   2.703   3.028   5.507 -0.4300 -0.3080 -0.3888
 6281SOL    HW130302   2.655   2.981   5.575  0.2250 -1.6997 -0.8683
 6281SOL    HW230303   2.794   3.029   5.535 -0.6424 -0.4149  0.2867
 6282SOL     OW30304   1.748   1.613   5.686 -0.5107 -0.3689  0.3140
 6282SOL    HW130305   1.788   1.581   5.605  0.5328 -0.4560  0.8727
 6282SOL    HW230306   1.676   1.549   5.677 -0.9217 -0.1596  2.2236
 6283SOL     OW30307   3.970   1.849   3.304  0.0799 -0.3055 -0.6147
 6283SOL    HW130308   4.063   1.873   3.296 -0.1589  0.5079 -0.9162
 6283SOL    HW230309   3.935   1.914   3.364  1.0886 -1.0349  0.7594
 6284SOL     OW30310   3.306   1.746   0.320 -0.6284  0.3676  0.3357
 6284SOL    HW130311   3.400   1.729   0.323 -0.5195  0.8877 -0.3322
 6284SOL    HW230312   3.310   1.791   0.236 -3.1032  2.7181  1.4785
 6285SOL     OW30313   1.681   3.842   4.834  0.4496 -0.1918  0.7379
 6285SOL    HW130314   1.715   3.765   4.788  1.9102  1.8567 -1.5918
 6285SOL    HW230315   1.710   3.917   4.783 -0.8934 -1.0297 -1.2378
 6286SOL     OW30316   2.987   3.903  10.715 -0.8784  0.0219  0.6272
 6286SOL    HW130317   3.017   3.941  10.798  0.4623 -1.0277  0.6347
 6286SOL    HW230318   2.915   3.963  10.695 -0.2634  0.7543  0.6307
 6287SOL     OW30319   2.698   3.774  14.819  0.0490 -0.2795  0.2499
 6287SOL    HW130320   2.604   3.771  14.804  0.3921 -1.4681 -1.6051
 6287SOL    HW230321   2.727   3.742  14.734  0.5018  2.1861 -0.5132
 6288SOL     OW30322   3.504   0.499   5.036 -0.2272  0.2869 -0.3426
 6288SOL    HW130323   3.486   0.586   5.072 -3.3820  0.5152 -2.5273
 6288SOL    HW230324   3.520   0.520   4.944  2.0707  1.9722  0.4343
 6289SOL     OW30325   4.412   4.155  16.950  0.0488  0.0403 -0.0222
 6289SOL    HW130326   4.376   4.172  17.037  1.5146  0.4998  0.5105
 6289SOL    HW230327   4.335   4.156  16.893 -1.1764 -1.6776  1.6087
 6290SOL     OW30328   1.721   1.843   4.406 -0.3383 -0.8497  0.1968
 6290SOL    HW130329   1.630   1.866   4.422  0.3691 -0.0107  2.9796
 6290SOL    HW230330   1.749   1.898   4.332 -0.1900 -0.8966  0.2179
 6291SOL     OW30331   0.866   4.252   4.456  0.5059 -0.2526 -0.0287
 6291SOL    HW130332   0.835   4.305   4.529 -0.3658 -0.6816 -0.0826
 6291SOL    HW230333   0.814   4.172   4.462 -1.8573  1.3027  0.2902
 6292SOL     OW30334   2.324   2.381  16.892 -0.6674  0.8325  0.1662
 6292SOL    HW130335   2.387   2.340  16.833  0.4825  0.5892  1.5425
 6292SOL    HW230336   2.294   2.454  16.839  1.5267  0.5535 -1.4676
 6293SOL     OW30337   3.142   0.222   8.940  0.5884 -0.2646 -0.2117
 6293SOL    HW130338   3.144   0.157   8.869 -4.6342 -0.6098  0.0214
 6293SOL    HW230339   3.058   0.260   8.917  0.7185  0.7650  1.0240
 6294SOL     OW30340   4.568   2.080   2.056 -0.1012  0.0969  0.3067
 6294SOL    HW130341   4.611   2.162   2.079  0.0499  0.0258  0.2752
 6294SOL    HW230342   4.494   2.115   2.006  1.1709 -1.5554 -2.7220
 6295SOL     OW30343   4.599   3.567   9.957  0.2195 -0.2277 -0.7113
 6295SOL    HW130344   4.504   3.569   9.971  0.9187  1.2007  3.8339
 6295SOL    HW230345   4.625   3.646  10.004 -1.5814  1.8638 -3.1703
 6296SOL     OW30346   2.980   0.533   2.056 -0.3429  0.1147 -0.1352
 6296SOL    HW130347   2.986   0.511   2.149  1.6795  0.8521 -0.0902
 6296SOL    HW230348   3.023   0.459   2.014  0.1055 -1.3727  3.0246
 6297SOL     OW30349   0.183   3.992   4.809  0.1277  0.2894  0.6427
 6297SOL    HW130350   0.154   3.995   4.900 -0.2703  3.6715  0.4295
 6297SOL    HW230351   0.258   3.934   4.806 -0.0819  0.1396 -2.0783
 6298SOL     OW30352   3.696   1.564   2.333 -0.2921 -0.5600 -0.0618
 6298SOL    HW130353   3.741   1.492   2.290  2.4444  2.5178 -2.3446
 6298SOL    HW230354   3.606   1.556   2.299 -0.0457  2.4196 -1.3780
 6299SOL     OW30355   1.783   2.465   4.725  0.2413 -0.1018 -0.3618
 6299SOL    HW130356   1.769   2.540   4.783 -0.0161  0.2458 -0.8743
 6299SOL    HW230357   1.848   2.414   4.772  0.9479  0.0812 -1.1444
 6300SOL     OW30358   1.574   1.241   0.404 -0.2632  0.1725 -0.0473
 6300SOL    HW130359   1.589   1.152   0.435  0.1969  1.1543  2.4948
 6300SOL    HW230360   1.529   1.209   0.325 -0.5363  0.4220  0.0091
 6301SOL     OW30361   0.381   1.760   5.063  0.4454 -0.4182 -0.0854
 6301SOL    HW130362   0.416   1.681   5.021 -0.8695 -1.4904  0.8676
 6301SOL    HW230363   0.409   1.745   5.153  0.6629 -0.0562 -0.0913
 6302SOL     OW30364   3.681   4.656   4.011 -0.5779 -0.2623 -0.3478
 6302SOL    HW130365   3.743   0.003   3.994 -1.2014  0.7016  1.5227
 6302SOL    HW230366   3.657   4.638   3.920  0.7533 -1.7645 -0.4066
 6303SOL     OW30367   4.499   1.870   5.411 -0.0581 -0.3659  0.6983
 6303SOL    HW130368   4.589   1.838   5.415  0.2282  0.4339  0.6200
 6303SOL    HW230369   4.490   1.877   5.316  1.8136  1.8003  0.6951
 6304SOL     OW30370   0.146   4.200   2.399 -0.4081  0.5120 -0.0698
 6304SOL    HW130371   0.052   4.212   2.407 -0.5069  0.3970 -1.0227
 6304SOL    HW230372   0.144   4.107   2.374  0.9856  0.8019 -1.3012
 6305SOL     OW30373   1.281   0.334  11.775 -0.3332  0.2606  0.1322
 6305SOL    HW130374   1.275   0.256  11.831  2.5617 -0.0167  0.0928
 6305SOL    HW230375   1.236   0.305  11.695  1.6628 -0.3538 -0.7740
 6306SOL     OW30376   4.264   3.973  12.020  0.3423 -0.3612  0.3694
 6306SOL    HW130377   4.214   3.971  12.101  0.9063  1.6174  0.7472
 6306SOL    HW230378   4.337   3.914  12.039  0.8301  0.3599  0.7257
 6307SOL     OW30379   3.476   0.245  13.571  0.8006 -0.0268 -0.5251
 6307SOL    HW130380   3.490   0.258  13.664 -0.6988  4.0763 -0.8763
 6307SOL    HW230381   3.448   0.153  13.577 -1.8879  0.7199 -1.5553
 6308SOL     OW30382   3.126   1.393   3.468  0.2546  0.0966  0.6747
 6308SOL    HW130383   3.136   1.400   3.373  1.7107 -2.1137  0.6828
 6308SOL    HW230384   3.069   1.316   3.465 -1.2805  1.2994 -1.3441
 6309SOL     OW30385   3.024   0.967  17.163  0.8708 -0.2773 -0.4351
 6309SOL    HW130386   3.010   0.964  17.069  1.8678 -2.0529 -0.5299
 6309SOL    HW230387   2.979   1.050  17.180  0.8462 -0.4080  0.1512
 6310SOL     OW30388   0.139   3.554   4.621 -0.3094 -0.1181  0.0549
 6310SOL    HW130389   0.132   3.489   4.551 -0.8749 -0.8056  0.7455
 6310SOL    HW230390   0.210   3.611   4.591 -0.5083  0.2715  0.3279
 6311SOL     OW30391   2.164   2.922   8.707  0.5877  0.8131  0.9255
 6311SOL    HW130392   2.122   2.929   8.792  0.8732 -1.5652  1.2417
 6311SOL    HW230393   2.206   3.008   8.698  1.2700  0.3173 -0.8131
 6312SOL     OW30394   1.803   3.451   6.549 -0.9534  0.1870  0.6217
 6312SOL    HW130395   1.787   3.418   6.638 -1.9575 -3.8930 -1.0517
 6312SOL    HW230396   1.856   3.380   6.512 -0.6261  0.6412  0.2228
 6313SOL     OW30397   2.307   0.272   9.125 -0.0067  0.0500 -0.1543
 6313SOL    HW130398   2.345   0.241   9.208 -0.9791 -0.0486  0.2534
 6313SOL    HW230399   2.250   0.341   9.160  1.6629  0.4325  1.7867
 6314SOL     OW30400   3.634   4.212  16.533 -0.6970  0.1356  0.4265
 6314SOL    HW130401   3.581   4.206  16.612 -2.2767  1.9917 -0.4867
 6314SOL    HW230402   3.588   4.145  16.482 -0.1136  0.4754 -0.5522
 6315SOL     OW30403   0.456   3.786   5.694  0.3419 -0.1153  0.3565
 6315SOL    HW130404   0.466   3.702   5.650  0.7231  0.5153 -0.7706
 6315SOL    HW230405   0.371   3.781   5.739 -0.1944  0.6157 -0.5546
 6316SOL     OW30406   3.214   4.254   8.014 -0.5000  0.2818 -0.8190
 6316SOL    HW130407   3.139   4.198   8.034 -1.4424  1.3899 -1.2794
 6316SOL    HW230408   3.282   4.227   8.077  0.1712  1.8115 -0.9012
 6317SOL     OW30409   1.408   3.691  16.472 -0.0921 -0.0073  0.1704
 6317SOL    HW130410   1.382   3.766  16.418 -1.9689 -2.0189 -1.6771
 6317SOL    HW230411   1.322   3.650  16.464  0.3869 -0.8811 -0.4883
 6318SOL     OW30412   1.843   4.013   6.658  0.7513 -0.0473 -0.1724
 6318SOL    HW130413   1.795   4.023   6.576 -2.7327 -0.3411  1.8154
 6318SOL    HW230414   1.917   3.961   6.629  1.3977  0.6998  0.1372
 6319SOL     OW30415   2.564   0.456   7.237 -0.1196  0.6941  0.4424
 6319SOL    HW130416   2.580   0.538   7.191 -1.3765  1.7957  1.9448
 6319SOL    HW230417   2.523   0.410   7.164 -0.8858  0.6304  0.9074
 6320SOL     OW30418   3.032   2.853   6.894  0.2493 -0.7792 -0.2415
 6320SOL    HW130419   3.012   2.945   6.910  2.2310 -0.4169  0.0745
 6320SOL    HW230420   3.022   2.858   6.799  3.3023  2.5485 -0.3567
 6321SOL     OW30421   3.398   4.647   6.051 -0.0735 -0.5760 -0.1644
 6321SOL    HW130422   3.327   4.584   6.042 -1.1360  0.8388 -1.6238
 6321SOL    HW230423   3.355   0.003   6.076 -2.0826 -1.4786 -0.7265
 6322SOL     OW30424   4.569   1.188   3.633  0.0310 -0.1813  0.4347
 6322SOL    HW130425   4.519   1.138   3.569 -0.3092  0.4976  0.1653
 6322SOL    HW230426   4.613   1.116   3.678  2.1792  0.2800 -0.9345
 6323SOL     OW30427   2.455   1.701   3.785 -0.3468 -0.4119  0.4510
 6323SOL    HW130428   2.364   1.731   3.796 -0.1416  0.4540 -0.2503
 6323SOL    HW230429   2.501   1.755   3.849  1.4604 -1.0893 -0.2667
 6324SOL     OW30430   0.701   3.770   9.085 -0.3498  0.2352 -0.4976
 6324SOL    HW130431   0.668   3.700   9.141  1.1887 -1.6650 -1.9351
 6324SOL    HW230432   0.657   3.764   8.999  0.7508  1.2508 -1.1224
 6325SOL     OW30433   3.947   3.483  11.279 -0.5657  0.0174  0.1633
 6325SOL    HW130434   3.980   3.510  11.193 -0.9604 -1.5695 -0.4894
 6325SOL    HW230435   3.934   3.389  11.266 -0.5603  0.5668 -3.7464
 6326SOL     OW30436   1.044   4.395   3.457 -0.6142  0.1645 -0.2853
 6326SOL    HW130437   1.112   4.416   3.521 -0.5359  1.2292 -0.7114
 6326SOL    HW230438   1.017   4.484   3.435 -1.5150  0.4700  2.0370
 6327SOL     OW30439   2.169   1.109   5.506 -0.1970 -0.3958  0.5323
 6327SOL    HW130440   2.174   1.041   5.438  1.2965 -1.5655  1.8136
 6327SOL    HW230441   2.077   1.096   5.527  0.0804 -2.9035  0.2296
 6328SOL     OW30442   4.235   0.385   8.567  0.5433  0.2404  0.1307
 6328SOL    HW130443   4.283   0.434   8.634  0.3250  0.8580 -0.1699
 6328SOL    HW230444   4.159   0.364   8.621  1.5189  0.6028  1.6646
 6329SOL     OW30445   0.527   3.960  13.676 -0.5553 -0.1740  0.2072
 6329SOL    HW130446   0.491   3.872  13.687 -0.8093 -0.0762  0.1568
 6329SOL    HW230447   0.479   4.010  13.742 -1.3535  0.2988 -0.7302
 6330SOL     OW30448   0.207   3.687   7.588 -0.3493  0.2380  0.0413
 6330SOL    HW130449   0.278   3.740   7.552 -0.6118  1.2132  0.9472
 6330SOL    HW230450   0.192   3.725   7.675  2.8163  1.0832  0.1902
 6331SOL     OW30451   4.669   1.544   7.561 -0.5574  0.1114 -0.2718
 6331SOL    HW130452   4.719   1.516   7.485  0.0085 -0.8112  0.4450
 6331SOL    HW230453   4.651   1.638   7.558  2.1741  0.6105 -0.6877
 6332SOL     OW30454   3.182   3.781   5.228 -0.2280  0.2402 -0.1869
 6332SOL    HW130455   3.213   3.864   5.265 -1.1622  0.1894  0.7199
 6332SOL    HW230456   3.220   3.785   5.140 -0.4854 -1.5345 -0.3766
 6333SOL     OW30457   2.210   1.640   0.039 -0.0467 -0.2967  0.3716
 6333SOL    HW130458   2.232   1.634  17.648 -1.9809 -0.9447 -0.0382
 6333SOL    HW230459   2.191   1.552   0.070  1.1300 -0.5041  0.4801
 6334SOL     OW30460   0.058   0.721   6.468  0.3988  0.6191  0.0247
 6334SOL    HW130461   0.113   0.695   6.394  1.3158  0.9623  0.5906
 6334SOL    HW230462   0.000   0.778   6.417 -0.8556 -0.9789 -0.3481
 6335SOL     OW30463   1.221   0.118   4.594 -0.2709 -0.2822 -0.1535
 6335SOL    HW130464   1.131   0.125   4.561  0.5253  0.3054 -2.2230
 6335SOL    HW230465   1.207   0.086   4.683  0.2694 -0.2004 -0.0443
 6336SOL     OW30466   0.233   4.640   6.626 -0.8014  0.1049  0.1202
 6336SOL    HW130467   0.197   4.721   6.663  0.5247  1.1899 -0.9305
 6336SOL    HW230468   0.159   4.581   6.615  0.3306 -1.3048  0.0582
 6337SOL     OW30469   1.769   1.513   6.540 -0.7226  0.2961 -0.1647
 6337SOL    HW130470   1.758   1.479   6.629 -1.6779 -1.5280 -0.9651
 6337SOL    HW230471   1.731   1.599   6.555  0.8878  0.5122  2.5347
 6338SOL     OW30472   3.350   3.650   7.226  0.4597  0.1105  0.0657
 6338SOL    HW130473   3.281   3.656   7.292  0.0428 -2.0973 -0.1914
 6338SOL    HW230474   3.425   3.623   7.279 -0.9801  0.8810  2.4984
 6339SOL     OW30475   4.029   1.305   6.952 -0.1913 -0.0445  0.5277
 6339SOL    HW130476   3.985   1.373   6.900 -2.6150 -2.8509 -1.1579
 6339SOL    HW230477   3.952   1.266   6.994 -0.1709 -2.0998 -1.3459
 6340SOL     OW30478   4.256   2.456   1.738  0.3611 -0.4285 -0.5760
 6340SOL    HW130479   4.171   2.411   1.730  1.1760 -1.9609 -0.6693
 6340SOL    HW230480   4.283   2.485   1.651  4.3401 -1.1268  0.4079
 6341SOL     OW30481   1.472   3.847   2.258 -0.6608  0.3022  0.0747
 6341SOL    HW130482   1.376   3.849   2.249 -0.7321 -0.0079  0.8083
 6341SOL    HW230483   1.495   3.923   2.206  0.3724 -0.1850 -0.1751
 6342SOL     OW30484   0.080   0.480   5.348 -1.0579 -0.8325 -0.4808
 6342SOL    HW130485   0.074   0.548   5.416 -2.8176 -1.5614  0.0930
 6342SOL    HW230486   0.102   0.533   5.271 -1.5194  0.6545  0.4168
 6343SOL     OW30487   2.970   2.579   8.942 -0.0418 -0.0758 -0.0126
 6343SOL    HW130488   3.065   2.587   8.954  0.3938 -3.0850 -1.3898
 6343SOL    HW230489   2.956   2.491   8.906 -0.1761 -0.2375  0.4438
 6344SOL     OW30490   0.216   3.929   5.341  0.0115  0.1661  0.7921
 6344SOL    HW130491   0.306   3.960   5.342 -0.3869  1.3237  1.6189
 6344SOL    HW230492   0.195   3.898   5.429  3.8603  0.7711  1.9069
 6345SOL     OW30493   4.040   0.185   6.369 -0.6432  0.0175  0.0550
 6345SOL    HW130494   3.969   0.128   6.398  0.1248 -0.2723  1.4188
 6345SOL    HW230495   4.006   0.251   6.310 -0.2434 -0.1540 -0.3705
 6346SOL     OW30496   3.130   4.249  10.708 -0.1254 -0.0864  0.5698
 6346SOL    HW130497   3.152   4.167  10.753  1.9057  1.3177  2.1494
 6346SOL    HW230498   3.052   4.276  10.757 -2.6583 -1.7042 -2.5785
 6347SOL     OW30499   3.979   2.267   6.506  0.2164 -0.4342  0.3528
 6347SOL    HW130500   3.924   2.317   6.446  2.5761  0.9591 -0.6723
 6347SOL    HW230501   3.916   2.208   6.547  1.7869 -2.1854  0.2659
 6348SOL     OW30502   1.558   1.538   7.799  0.1287  0.7585  0.1446
 6348SOL    HW130503   1.543   1.581   7.883  2.3932  2.3906 -0.2842
 6348SOL    HW230504   1.488   1.577   7.747  1.0718  0.5972 -1.2261
 6349SOL     OW30505   1.023   4.654   7.600 -0.2752  0.6095  0.1713
 6349SOL    HW130506   1.025   0.020   7.629 -2.0700 -0.0350  2.3191
 6349SOL    HW230507   0.963   4.659   7.525 -1.0454 -0.2268  0.7464
 6350SOL     OW30508   3.921   0.026   4.343  0.0667  0.3457  0.8170
 6350SOL    HW130509   3.956   0.049   4.429 -0.5956 -1.9185  1.6839
 6350SOL    HW230510   3.937   4.658   4.332  1.4940  0.6579  0.1489
 6351SOL     OW30511   0.964   0.123   4.468  0.5449 -0.2558  0.0381
 6351SOL    HW130512   0.886   0.085   4.510  1.8021 -0.9218  1.7621
 6351SOL    HW230513   0.991   0.044   4.421 -0.9955 -0.9044  0.2110
 6352SOL     OW30514   2.567   2.187  14.198  0.4925 -0.0355 -0.0478
 6352SOL    HW130515   2.551   2.093  14.206  1.5578 -0.3156 -1.1555
 6352SOL    HW230516   2.513   2.190  14.119 -1.2230  0.5093  1.1499
 6353SOL     OW30517   1.829   3.624   7.082 -0.4097  0.2802 -0.6809
 6353SOL    HW130518   1.913   3.642   7.041 -0.1995  2.2030  0.5768
 6353SOL    HW230519   1.816   3.530   7.076 -3.1539  0.5985  0.3462
 6354SOL     OW30520   0.441   1.656   5.867  0.0268  0.3965  0.8511
 6354SOL    HW130521   0.422   1.719   5.798  0.2482  0.6469  1.0182
 6354SOL    HW230522   0.356   1.657   5.912 -1.2890 -2.7163 -1.5714
 6355SOL     OW30523   4.397   2.259   8.002 -0.4191 -0.1208 -0.4635
 6355SOL    HW130524   4.340   2.184   7.986  0.1762 -0.9018  1.0285
 6355SOL    HW230525   4.478   2.224   7.966 -1.3628 -1.2555 -1.4733
 6356SOL     OW30526   3.437   4.357   8.780 -0.5271 -0.4874  0.2025
 6356SOL    HW130527   3.485   4.329   8.702  0.9138  0.7752  0.6373
 6356SOL    HW230528   3.449   4.284   8.841  0.2341  1.3718  2.3075
 6357SOL     OW30529   0.259   0.202  14.387  0.2403  0.3597 -0.2474
 6357SOL    HW130530   0.253   0.253  14.306 -2.0246 -1.2951 -1.1385
 6357SOL    HW230531   0.292   0.268  14.448  0.2228  0.3581 -0.2362
 6358SOL     OW30532   4.020   3.829  10.643 -0.2142  0.0279 -0.2669
 6358SOL    HW130533   4.029   3.846  10.549  1.2885  2.6730  0.3329
 6358SOL    HW230534   4.030   3.737  10.667 -0.0203 -0.0317 -0.5778
 6359SOL     OW30535   0.967   3.211   1.469 -0.1041 -0.5073  0.3910
 6359SOL    HW130536   0.899   3.241   1.409 -0.8556 -1.8760  0.5533
 6359SOL    HW230537   0.953   3.279   1.534  0.1655  0.2273 -0.3155
 6360SOL     OW30538   4.251   4.582   1.059 -0.0672  0.7047  0.4915
 6360SOL    HW130539   4.209   4.667   1.047 -1.9976 -0.4304 -0.8977
 6360SOL    HW230540   4.191   4.552   0.991 -0.0316 -0.4400  0.9540
 6361SOL     OW30541   0.193   1.194   8.836  0.1384  0.2226  0.2268
 6361SOL    HW130542   0.235   1.242   8.765 -1.9243 -0.5151 -1.4815
 6361SOL    HW230543   0.245   1.240   8.903 -0.2253  1.1565 -0.1429
 6362SOL     OW30544   2.207   4.273  13.954  0.0648 -0.0729  0.5449
 6362SOL    HW130545   2.302   4.287  13.950  0.1557 -0.5306  1.0953
 6362SOL    HW230546   2.171   4.361  13.944 -0.3005 -0.0857  1.7399
 6363SOL     OW30547   3.343   2.520   9.299 -0.4000 -0.3590  0.3857
 6363SOL    HW130548   3.396   2.445   9.328  0.4465  0.3163  0.5628
 6363SOL    HW230549   3.348   2.567   9.382 -1.1477 -1.0278  0.8094
 6364SOL     OW30550   2.066   4.703   8.448 -0.1591  0.2805 -0.5676
 6364SOL    HW130551   2.044   4.619   8.488  1.2720 -0.2716 -0.9487
 6364SOL    HW230552   2.089   4.665   8.363  3.2635 -3.1553  1.9039
 6365SOL     OW30553   2.725   0.648  10.911  0.5841 -0.7481  0.0238
 6365SOL    HW130554   2.649   0.600  10.943  1.2344 -2.2974 -0.7199
 6365SOL    HW230555   2.750   0.708  10.981 -0.8236  1.5806 -1.4843
 6366SOL     OW30556   2.589   4.048   7.363  0.3411 -0.1512  0.0479
 6366SOL    HW130557   2.529   3.974   7.351 -2.4762  1.9039  1.4144
 6366SOL    HW230558   2.663   4.004   7.322  1.6298  2.4918 -0.4269
 6367SOL     OW30559   4.480   3.298  10.350  0.3089  0.5887  0.0715
 6367SOL    HW130560   4.543   3.357  10.308  1.1148 -0.1364  0.2453
 6367SOL    HW230561   4.519   3.210  10.343 -2.5282 -0.8231  1.9545
 6368SOL     OW30562   2.071   0.471   6.146  0.0207 -0.3845  0.1828
 6368SOL    HW130563   2.081   0.468   6.051 -1.0876  1.7685 -0.0012
 6368SOL    HW230564   2.013   0.546   6.161  1.2869  0.8268 -0.9360
 6369SOL     OW30565   0.029   1.439   6.434 -0.5122  0.3189 -0.3973
 6369SOL    HW130566   0.122   1.458   6.447 -1.2804  2.0408  2.7915
 6369SOL    HW230567   0.020   1.428   6.340  0.8385 -2.3006 -0.2054
 6370SOL     OW30568   2.134   4.568  10.764 -0.8209  0.7091  0.3237
 6370SOL    HW130569   2.113   4.661  10.779  0.6711  1.1963 -0.6793
 6370SOL    HW230570   2.133   4.545  10.857 -0.9825  2.5500  0.7819
 6371SOL     OW30571   2.387   0.716   2.668  0.1958 -0.0812 -0.4612
 6371SOL    HW130572   2.320   0.738   2.603 -0.3223  0.9537  0.4462
 6371SOL    HW230573   2.425   0.792   2.712 -1.1925  0.7229 -0.6562
 6372SOL     OW30574   3.027   4.069   7.369 -0.4555  0.2019 -0.1093
 6372SOL    HW130575   2.951   4.015   7.349 -0.0112 -0.2226 -0.6411
 6372SOL    HW230576   3.101   4.013   7.392 -1.8910 -1.7932 -0.4017
 6373SOL     OW30577   0.932   4.444   7.131  0.2032 -0.0106 -0.3018
 6373SOL    HW130578   0.842   4.435   7.164  0.1005  2.0630 -0.0227
 6373SOL    HW230579   0.982   4.477   7.205 -0.8791  1.9131 -0.4238
 6374SOL     OW30580   2.678   0.460   6.841 -0.0103 -0.5753  0.1902
 6374SOL    HW130581   2.591   0.437   6.874  0.1569  1.1625  1.8203
 6374SOL    HW230582   2.721   0.374   6.836  0.8035 -0.2081  0.9211
 6375SOL     OW30583   3.195   1.204  16.983  0.5862  0.4418  0.7305
 6375SOL    HW130584   3.190   1.293  16.947  0.9594 -0.7919 -2.3618
 6375SOL    HW230585   3.259   1.214  17.053  0.6572  1.2526  0.5554
 6376SOL     OW30586   0.006   3.597   5.054 -0.3041  0.1938  0.6589
 6376SOL    HW130587   0.039   3.543   4.982  1.1886  2.3475 -0.2378
 6376SOL    HW230588   0.079   3.585   5.115 -0.2789 -1.8725  0.2240
 6377SOL     OW30589   3.393   0.686   3.717 -0.1199 -0.3136 -0.4017
 6377SOL    HW130590   3.380   0.631   3.639 -0.1412 -0.9535  0.0577
 6377SOL    HW230591   3.481   0.720   3.704  0.4332 -1.3941  0.5440
 6378SOL     OW30592   1.080   2.000   5.438 -0.7788 -0.1828 -0.0599
 6378SOL    HW130593   1.092   1.915   5.395  2.5780 -0.9175  2.3050
 6378SOL    HW230594   1.093   2.064   5.369  0.0672  0.0980  0.3635
 6379SOL     OW30595   0.066   0.168   2.370 -0.5202  0.2395 -0.1272
 6379SOL    HW130596   0.014   0.234   2.416 -3.4236 -1.8368 -0.4446
 6379SOL    HW230597   0.089   0.218   2.292 -2.2911  0.6641 -0.3826
 6380SOL     OW30598   1.440   2.185   9.256  0.4115  0.4211  0.0853
 6380SOL    HW130599   1.385   2.116   9.219  2.6778 -0.5570 -1.4350
 6380SOL    HW230600   1.505   2.137   9.307  3.2703  2.0867 -2.0546
 6381SOL     OW30601   0.652   4.167   2.779 -0.1189  0.0812  0.3936
 6381SOL    HW130602   0.577   4.110   2.796 -1.6314  1.7908 -0.4461
 6381SOL    HW230603   0.612   4.223   2.712 -0.0250  0.3640  0.5761
 6382SOL     OW30604   4.249   2.612   9.653  0.2300 -0.6006  0.0245
 6382SOL    HW130605   4.224   2.665   9.577 -0.1175  0.9029  1.1863
 6382SOL    HW230606   4.178   2.635   9.714  0.2299  0.0058 -0.1989
 6383SOL     OW30607   4.141   0.733   2.699  0.2389 -0.3217 -0.4145
 6383SOL    HW130608   4.068   0.786   2.668 -1.3025 -1.5722  1.1402
 6383SOL    HW230609   4.134   0.662   2.635  0.2144 -1.2205  0.5851
 6384SOL     OW30610   3.608   4.438   4.956  0.1206  0.1046  0.3700
 6384SOL    HW130611   3.654   4.364   4.917  1.1060  0.6350  0.5231
 6384SOL    HW230612   3.575   4.475   4.874  0.1283 -0.8022 -0.0475
 6385SOL     OW30613   4.126   1.642   7.986 -0.5163 -0.1144  0.1609
 6385SOL    HW130614   4.096   1.721   8.032 -1.4919  0.0213 -0.7036
 6385SOL    HW230615   4.179   1.598   8.053  0.9488  0.7291 -0.4508
 6386SOL     OW30616   4.331   4.098   7.739  0.3126 -0.1689 -0.4558
 6386SOL    HW130617   4.399   4.166   7.743  0.2551 -0.0917 -0.8133
 6386SOL    HW230618   4.260   4.121   7.679  0.1945 -1.9923 -1.0262
 6387SOL     OW30619   0.725   1.947   0.428 -0.2196  0.0405 -0.1393
 6387SOL    HW130620   0.794   1.958   0.362 -1.3234  0.8067 -1.1591
 6387SOL    HW230621   0.749   1.860   0.462  0.7316 -0.7196 -2.7627
 6388SOL     OW30622   2.017   2.881   0.806  0.2233 -0.4796  0.3769
 6388SOL    HW130623   2.094   2.853   0.758 -0.1179 -0.5966 -0.1055
 6388SOL    HW230624   1.998   2.965   0.764 -3.5132 -1.4473  0.0711
 6389SOL     OW30625   1.919   3.314  14.553 -0.1443 -0.1065 -0.1316
 6389SOL    HW130626   1.930   3.233  14.504  0.6818  0.5428 -1.0046
 6389SOL    HW230627   1.837   3.348  14.516  2.1271  4.1395 -1.1510
 6390SOL     OW30628   2.374   2.551   8.258 -0.1771  0.7494  0.1247
 6390SOL    HW130629   2.352   2.495   8.332 -1.0150  0.6071 -0.2326
 6390SOL    HW230630   2.469   2.552   8.260 -0.1993 -1.5295  2.2753
 6391SOL     OW30631   0.777   3.255   1.304  0.3967 -0.1516 -0.5433
 6391SOL    HW130632   0.775   3.252   1.209 -0.9262  0.1950 -0.5255
 6391SOL    HW230633   0.720   3.181   1.326 -0.4148 -0.0532 -2.3571
 6392SOL     OW30634   1.001   3.300  10.562 -0.0735  0.4712  0.4663
 6392SOL    HW130635   1.061   3.374  10.560 -0.2294  0.6617  2.9379
 6392SOL    HW230636   1.020   3.257  10.478  1.5189 -0.7004  1.4042
 6393SOL     OW30637   1.291   2.051  15.927  0.4893  0.4846  0.0449
 6393SOL    HW130638   1.242   1.983  15.972  0.3697  0.4343 -0.1608
 6393SOL    HW230639   1.272   2.120  15.991  1.9296 -0.8107  1.8921
 6394SOL     OW30640   1.167   3.543  16.423 -0.5899  0.3365  0.4144
 6394SOL    HW130641   1.167   3.450  16.447 -1.3053  0.3303  0.3738
 6394SOL    HW230642   1.160   3.547  16.327  3.1624 -1.8366  0.0312
 6395SOL     OW30643   3.534   2.300   4.362  0.1569 -0.3412  0.2769
 6395SOL    HW130644   3.595   2.302   4.436  1.1833 -0.4058 -0.5725
 6395SOL    HW230645   3.518   2.206   4.352 -0.3356 -0.1076 -1.2313
 6396SOL     OW30646   2.218   1.110   3.062 -0.2452  0.1460 -0.0220
 6396SOL    HW130647   2.256   1.024   3.081 -0.6638 -0.2892 -1.1946
 6396SOL    HW230648   2.267   1.170   3.119  0.7559 -1.9951  1.3949
 6397SOL     OW30649   2.431   4.148   4.729 -0.4154  0.5811 -0.0284
 6397SOL    HW130650   2.513   4.107   4.757 -1.0863 -0.2237  0.7583
 6397SOL    HW230651   2.455   4.186   4.644 -0.3596  0.7192  0.0475
 6398SOL     OW30652   1.049   1.551  17.401 -0.1140  0.6639  0.2540
 6398SOL    HW130653   1.074   1.463  17.427 -2.9012 -0.1558  0.0756
 6398SOL    HW230654   0.954   1.550  17.408 -0.1970 -0.0331 -0.9718
 6399SOL     OW30655   4.383   2.700   5.556 -0.2767  0.2650  0.1031
 6399SOL    HW130656   4.426   2.724   5.638  0.5507 -1.1446  0.0821
 6399SOL    HW230657   4.448   2.641   5.517 -0.0004  0.5057  0.2013
 6400SOL     OW30658   2.944   0.673   4.424  0.2269  0.1912  0.3711
 6400SOL    HW130659   2.877   0.734   4.455 -0.8515  0.4380 -2.4149
 6400SOL    HW230660   3.019   0.693   4.481 -0.9079 -0.1378  1.9506
 6401SOL     OW30661   0.137   2.554   4.483 -0.0290 -0.0748 -0.1736
 6401SOL    HW130662   0.043   2.544   4.472  0.0523  0.3336 -1.1770
 6401SOL    HW230663   0.165   2.566   4.393  0.9763  1.6918  0.3765
 6402SOL     OW30664   0.922   0.222   4.884 -0.3211  0.4738 -0.0953
 6402SOL    HW130665   0.865   0.174   4.945  1.3455  1.1633  2.0344
 6402SOL    HW230666   0.967   0.150   4.841 -0.7591 -0.0184  0.2669
 6403SOL     OW30667   1.185   3.571   5.842 -0.0353  0.0661  0.4827
 6403SOL    HW130668   1.194   3.476   5.834 -1.1435  0.1937 -2.4054
 6403SOL    HW230669   1.122   3.584   5.913 -0.6749 -0.1340 -0.0417
 6404SOL     OW30670   4.358   0.722   3.183  0.0957  0.4556 -0.7730
 6404SOL    HW130671   4.322   0.804   3.216 -0.9776 -1.5326  2.9774
 6404SOL    HW230672   4.277   0.680   3.154  1.5246 -1.8359 -1.4311
 6405SOL     OW30673   4.568   3.253  10.800 -0.4004 -0.1970 -0.1304
 6405SOL    HW130674   4.655   3.251  10.840 -0.3857 -0.7658 -0.1892
 6405SOL    HW230675   4.533   3.330  10.845  1.7044  0.1267  0.9522
 6406SOL     OW30676   4.102   4.487   0.809 -0.2171  0.1294  0.5874
 6406SOL    HW130677   4.012   4.460   0.793 -0.2221  0.2812  0.3654
 6406SOL    HW230678   4.145   4.431   0.745  3.2649  0.3080  2.7789
 6407SOL     OW30679   0.760   3.825   5.235  0.3698  0.3220  0.6511
 6407SOL    HW130680   0.825   3.837   5.305  1.8357 -2.1702 -0.3070
 6407SOL    HW230681   0.809   3.823   5.153  0.7245  0.8779  0.8406
 6408SOL     OW30682   2.322   1.803   2.735 -0.1330  0.4741  0.7759
 6408SOL    HW130683   2.237   1.759   2.739 -0.7060  1.2567 -2.4191
 6408SOL    HW230684   2.337   1.824   2.827 -0.7368  1.1369  0.7255
 6409SOL     OW30685   0.925   0.694   5.714  0.5909  0.2961  0.3730
 6409SOL    HW130686   0.971   0.611   5.728 -1.4170 -0.9075 -0.1359
 6409SOL    HW230687   0.975   0.757   5.662 -0.6137  0.5680 -0.4755
 6410SOL     OW30688   1.123   0.213   5.779  0.0757 -0.2198 -0.2975
 6410SOL    HW130689   1.167   0.250   5.855 -1.5495 -0.2349  0.6607
 6410SOL    HW230690   1.153   0.123   5.791 -0.4337 -0.4470 -0.7499
 6411SOL     OW30691   4.159   1.765   8.629  0.7390 -0.2703 -0.1933
 6411SOL    HW130692   4.187   1.795   8.543  0.0044  0.8631 -0.0312
 6411SOL    HW230693   4.069   1.736   8.618  0.6426 -0.0886  0.1165
 6412SOL     OW30694   0.215   0.863   2.015  0.1925 -0.4743  0.5998
 6412SOL    HW130695   0.201   0.834   1.925 -0.0104  0.7932  0.2181
 6412SOL    HW230696   0.268   0.943   2.013 -1.3502  0.5082 -0.9652
 6413SOL     OW30697   2.781   0.328   2.571  0.3314 -0.3195 -0.3982
 6413SOL    HW130698   2.745   0.357   2.655 -0.6144 -1.5968 -0.3448
 6413SOL    HW230699   2.859   0.288   2.610  1.2136  0.5976 -1.2277
 6414SOL     OW30700   0.300   3.528   8.372  0.7659  0.4054 -0.0263
 6414SOL    HW130701   0.237   3.514   8.443 -0.7308 -0.6063 -1.5485
 6414SOL    HW230702   0.365   3.581   8.418 -0.5097  0.5096  1.6505
 6415SOL     OW30703   3.032   3.209   2.959 -0.4468  0.0158  0.1929
 6415SOL    HW130704   2.937   3.207   2.945 -0.0637 -1.7984 -2.1424
 6415SOL    HW230705   3.040   3.304   2.961  0.1212 -0.0392  0.5101
 6416SOL     OW30706   3.240   3.104   2.244 -0.1589 -0.0115  0.0560
 6416SOL    HW130707   3.169   3.167   2.228  0.0427  0.0301 -0.6978
 6416SOL    HW230708   3.183   3.033   2.274 -2.5458  1.1215 -1.8195
 6417SOL     OW30709   2.038   3.387   7.670 -0.2054  0.6614 -0.0194
 6417SOL    HW130710   2.011   3.295   7.672  0.7632  0.3644 -0.7522
 6417SOL    HW230711   2.035   3.401   7.576  1.1474  2.4009  0.1903
 6418SOL     OW30712   2.558   2.685   6.347 -0.0843  0.4071  0.4516
 6418SOL    HW130713   2.637   2.737   6.333 -0.6663  0.5101 -2.5494
 6418SOL    HW230714   2.590   2.595   6.352 -3.1311 -0.8999 -3.5340
 6419SOL     OW30715   1.077   1.210   7.480  0.0873 -0.0889  0.1197
 6419SOL    HW130716   1.115   1.193   7.567  0.3953 -0.1951 -0.0361
 6419SOL    HW230717   1.090   1.304   7.473  1.7610 -0.2187  1.3805
 6420SOL     OW30718   2.498   1.887  15.329  0.2838 -0.1601 -0.1564
 6420SOL    HW130719   2.497   1.791  15.325 -0.8716 -0.2441  2.2725
 6420SOL    HW230720   2.430   1.917  15.268 -1.1997 -0.7117  1.2338
 6421SOL     OW30721   2.047   3.192   1.319  0.1858  0.3126  0.3215
 6421SOL    HW130722   2.013   3.280   1.303 -2.5203 -0.6157  0.8742
 6421SOL    HW230723   2.034   3.193   1.413 -1.0641 -1.4129  0.1646
 6422SOL     OW30724   2.191   1.112   3.720 -0.3154  0.6711 -0.4920
 6422SOL    HW130725   2.242   1.033   3.702 -0.3559  0.8865 -1.6105
 6422SOL    HW230726   2.122   1.064   3.765 -0.4392  1.5348  0.2416
 6423SOL     OW30727   0.819   1.458   4.213 -0.6789 -0.0539 -0.3749
 6423SOL    HW130728   0.737   1.491   4.176 -1.5293 -0.0188  1.5370
 6423SOL    HW230729   0.865   1.539   4.190  2.0427 -0.7991  2.5303
 6424SOL     OW30730   0.422   3.965   2.819 -0.2100 -0.9120 -0.1918
 6424SOL    HW130731   0.361   3.911   2.868  0.6575 -1.3071  0.4578
 6424SOL    HW230732   0.430   3.909   2.742 -0.3819 -1.8213  0.4547
 6425SOL     OW30733   4.312   2.711   2.566 -0.0592 -0.2219 -0.3802
 6425SOL    HW130734   4.251   2.756   2.508 -1.1257 -1.0233  0.1177
 6425SOL    HW230735   4.283   2.622   2.548 -0.8431 -0.2901  1.1867
 6426SOL     OW30736   1.344   2.192   7.631  0.0123  0.5329 -0.0009
 6426SOL    HW130737   1.303   2.123   7.683 -0.1399 -0.0728 -0.9180
 6426SOL    HW230738   1.395   2.138   7.570  1.3814  0.7700  0.9447
 6427SOL     OW30739   0.049   1.112   8.234  0.6418  0.5594 -0.2216
 6427SOL    HW130740   0.027   1.083   8.145  1.5593  0.8128 -0.5337
 6427SOL    HW230741   0.144   1.120   8.221  0.9835 -0.7831  1.5540
 6428SOL     OW30742   3.560   3.736  13.644 -0.0080  0.6517  0.3696
 6428SOL    HW130743   3.520   3.777  13.721  0.8982  1.7183  0.2719
 6428SOL    HW230744   3.652   3.751  13.665  0.6603 -1.3987 -1.0968
 6429SOL     OW30745   3.817   0.540   1.812 -0.5936 -0.0963  0.2069
 6429SOL    HW130746   3.889   0.591   1.775  0.4844 -1.7764 -0.0379
 6429SOL    HW230747   3.848   0.510   1.897  0.3505 -2.9640 -1.1269
 6430SOL     OW30748   3.424   3.225   2.490  0.2066 -0.2611  0.6757
 6430SOL    HW130749   3.503   3.258   2.533  1.6403 -2.0930 -0.5484
 6430SOL    HW230750   3.359   3.257   2.553 -0.6402 -2.2583  0.8172
 6431SOL     OW30751   3.544   0.098   7.570  0.6180  0.0364 -0.1720
 6431SOL    HW130752   3.485   0.040   7.618  0.0720  0.9109  0.2112
 6431SOL    HW230753   3.597   0.135   7.641 -1.2288 -0.3003  1.3697
 6432SOL     OW30754   2.515   4.415   7.754 -0.0912  0.0892 -0.1241
 6432SOL    HW130755   2.569   4.345   7.719  0.9603  0.4816  0.7271
 6432SOL    HW230756   2.536   4.401   7.846 -0.8745 -3.0368 -0.4376
 6433SOL     OW30757   3.395   4.241   7.147 -0.2267  0.3636 -0.3773
 6433SOL    HW130758   3.485   4.231   7.116  0.4828  0.8611  1.4768
 6433SOL    HW230759   3.410   4.234   7.241 -1.5905 -1.7352 -0.3274
 6434SOL     OW30760   4.214   0.094   9.264  0.3306  0.2232 -0.6293
 6434SOL    HW130761   4.180   0.020   9.314 -0.3139  0.1605 -1.1550
 6434SOL    HW230762   4.298   0.098   9.310 -0.8215  0.3236  1.4452
 6435SOL     OW30763   0.552   3.972   3.724  0.3053  0.1622  0.3237
 6435SOL    HW130764   0.646   3.964   3.740  0.4164  0.6303 -0.0794
 6435SOL    HW230765   0.544   3.921   3.644 -1.0156  1.1357 -0.1597
 6436SOL     OW30766   2.176   4.724  15.797  0.3869  0.1096  0.2551
 6436SOL    HW130767   2.219   0.019  15.880  2.3818 -0.1296 -0.7177
 6436SOL    HW230768   2.252   4.721  15.739  0.1445  1.1627 -0.1271
 6437SOL     OW30769   1.561   3.554   6.866 -0.2063 -0.1167  0.0795
 6437SOL    HW130770   1.573   3.608   6.944  0.3920  0.0262 -0.1126
 6437SOL    HW230771   1.525   3.619   6.806  0.1157 -0.8384 -0.9010
 6438SOL     OW30772   0.752   1.241  15.766 -0.0692  0.5737 -0.6003
 6438SOL    HW130773   0.743   1.172  15.832 -0.5750  1.7302  0.5342
 6438SOL    HW230774   0.704   1.305  15.819 -0.5074 -0.2832  0.0332
 6439SOL     OW30775   0.761   2.762   6.065 -0.0666  0.4018 -0.0678
 6439SOL    HW130776   0.774   2.748   6.159  3.7960  1.4647 -0.4595
 6439SOL    HW230777   0.812   2.683   6.047 -2.1465 -1.1359  0.6716
 6440SOL     OW30778   0.783   1.522  17.396 -0.5291 -0.0448 -0.1182
 6440SOL    HW130779   0.730   1.443  17.384  0.1063 -0.0145 -3.0511
 6440SOL    HW230780   0.742   1.579  17.331 -1.5847 -0.3907  0.2340
 6441SOL     OW30781   0.034   2.222   1.422  0.3263 -0.0591  0.3145
 6441SOL    HW130782   0.064   2.224   1.331 -1.4780 -0.6679 -0.3087
 6441SOL    HW230783   4.685   2.281   1.406  1.0055  1.2091  1.8282
 6442SOL     OW30784   0.736   1.976   9.361 -0.1546 -0.6535 -0.6253
 6442SOL    HW130785   0.688   1.899   9.392 -0.7745  0.3766  0.9271
 6442SOL    HW230786   0.731   2.027   9.441  2.1064 -0.2767 -0.7303
 6443SOL     OW30787   2.029   0.529  11.074  0.7990  0.3996 -0.4802
 6443SOL    HW130788   1.979   0.454  11.108  1.4189 -0.1071 -0.6881
 6443SOL    HW230789   1.998   0.511  10.985  1.2263  2.4270 -1.0180
 6444SOL     OW30790   1.253   1.698  17.285  0.5822  0.1361 -0.5009
 6444SOL    HW130791   1.223   1.704  17.194 -0.9423 -2.8607 -0.1951
 6444SOL    HW230792   1.176   1.659  17.326  1.4077 -1.5841 -0.6065
 6445SOL     OW30793   1.256   1.150  15.671  0.0363  0.2089  0.4583
 6445SOL    HW130794   1.226   1.239  15.655 -0.5110 -0.3648 -1.6827
 6445SOL    HW230795   1.175   1.099  15.669 -0.2499  0.6992 -0.3227
 6446SOL     OW30796   2.908   0.356   5.078  0.3221 -0.3104  0.4293
 6446SOL    HW130797   2.961   0.295   5.027  1.9503  0.3080  1.3886
 6446SOL    HW230798   2.870   0.293   5.140 -2.6554  1.2102  0.1704
 6447SOL     OW30799   0.895   2.142  17.557  0.0736 -0.3653 -0.0336
 6447SOL    HW130800   0.848   2.196  17.621  2.5725  3.1882 -1.2058
 6447SOL    HW230801   0.960   2.099  17.613 -0.0539  0.6654  0.9045
 6448SOL     OW30802   0.961   2.969   8.228  0.4305 -0.0658 -0.0488
 6448SOL    HW130803   1.006   3.006   8.304  1.0711  0.1165 -0.5202
 6448SOL    HW230804   1.011   3.000   8.153  2.6656 -2.6249  0.3579
 6449SOL     OW30805   0.590   2.018  13.201 -0.4203 -0.5694  0.1185
 6449SOL    HW130806   0.523   1.956  13.231 -0.1268 -1.0892 -0.2972
 6449SOL    HW230807   0.592   1.987  13.111 -1.3723  2.2932 -0.8853
 6450SOL     OW30808   1.097   0.344   4.251 -0.2809  0.2351  0.4525
 6450SOL    HW130809   1.060   0.328   4.337 -1.1393 -1.7007 -0.2610
 6450SOL    HW230810   1.021   0.368   4.198  1.4064  0.8744 -1.6929
 6451SOL     OW30811   1.766   3.614   5.835  0.0025 -0.2874  0.1705
 6451SOL    HW130812   1.703   3.552   5.799  1.2262 -1.6668  0.4076
 6451SOL    HW230813   1.726   3.698   5.810 -0.8960 -0.7016  0.2256
 6452SOL     OW30814   2.068   3.308  16.415  0.2397 -0.2181  0.2370
 6452SOL    HW130815   1.997   3.359  16.376  0.2743  0.2519  0.8040
 6452SOL    HW230816   2.103   3.253  16.344  0.3426 -0.1852  0.2624
 6453SOL     OW30817   3.643   2.140   7.404  0.0113 -0.6030  0.2236
 6453SOL    HW130818   3.715   2.188   7.446  0.9295 -1.3760 -0.4714
 6453SOL    HW230819   3.583   2.209   7.377 -2.0454 -0.7219  4.4287
 6454SOL     OW30820   4.068   1.314  15.215  0.4251  0.2225 -0.2470
 6454SOL    HW130821   3.996   1.269  15.259  2.6235 -0.7863  2.2492
 6454SOL    HW230822   4.039   1.405  15.207 -1.9234 -0.5637 -0.5906
 6455SOL     OW30823   0.435   3.541   7.239 -0.1807  0.4331  0.1041
 6455SOL    HW130824   0.502   3.518   7.174 -1.0524  0.2387 -0.7432
 6455SOL    HW230825   0.440   3.636   7.239 -1.6116  0.5082 -0.2231
 6456SOL     OW30826   2.075   1.688   4.153  0.0908  0.1901  0.6442
 6456SOL    HW130827   2.041   1.760   4.099  0.9955  0.2672  0.1883
 6456SOL    HW230828   2.021   1.619   4.116  0.3065 -0.2498  1.1467
 6457SOL     OW30829   1.465   4.713   6.260 -0.4844  0.2174  0.0130
 6457SOL    HW130830   1.412   4.642   6.224  0.8951 -0.2301 -1.1545
 6457SOL    HW230831   1.450   0.055   6.193 -0.4498  0.6163  0.4041
 6458SOL     OW30832   2.800   1.013   2.608 -0.2683  0.2650  0.4494
 6458SOL    HW130833   2.804   0.925   2.570  1.0110  0.7719 -0.5698
 6458SOL    HW230834   2.854   1.067   2.550 -0.5210  0.3556  0.2956
 6459SOL     OW30835   1.846   2.271   1.466 -0.6203  0.5126  0.4165
 6459SOL    HW130836   1.790   2.261   1.389 -1.0086 -0.3279  0.8040
 6459SOL    HW230837   1.816   2.189   1.505  0.7948 -0.1230  0.1641
 6460SOL     OW30838   0.629   0.146  10.378 -0.0498 -0.4669 -0.0791
 6460SOL    HW130839   0.680   0.114  10.304 -2.7637  0.0058 -2.1742
 6460SOL    HW230840   0.541   0.165  10.344  0.5660  0.3155 -1.2525
 6461SOL     OW30841   1.930   4.632   3.700  0.5733  0.2747  0.1727
 6461SOL    HW130842   1.874   4.698   3.743  0.8514  0.8513 -0.3523
 6461SOL    HW230843   1.951   4.570   3.770 -1.9402  2.1121  2.5845
 6462SOL     OW30844   2.393   1.101   2.475 -0.2741 -0.0366  0.7419
 6462SOL    HW130845   2.442   1.046   2.414 -0.0387 -0.0635  0.9492
 6462SOL    HW230846   2.304   1.108   2.441  0.4115 -1.9376 -1.4222
 6463SOL     OW30847   1.390   3.561   6.255  0.2874 -0.1159  0.2524
 6463SOL    HW130848   1.429   3.522   6.178 -0.7566 -0.8635  0.1043
 6463SOL    HW230849   1.446   3.518   6.319 -0.5482 -1.4422  0.0804
 6464SOL     OW30850   1.763   1.259   7.535 -0.1167 -0.3362 -0.0855
 6464SOL    HW130851   1.738   1.341   7.494 -2.1219 -1.4259 -1.0162
 6464SOL    HW230852   1.803   1.215   7.460 -1.5153 -1.4207 -0.1770
 6465SOL     OW30853   2.767   4.465  12.875  0.1547 -0.2528  0.0439
 6465SOL    HW130854   2.744   4.502  12.960 -0.2148  0.7853 -0.5139
 6465SOL    HW230855   2.801   4.380  12.905 -0.3254 -0.6719 -0.6041
 6466SOL     OW30856   1.970   2.575   7.523  0.5172  0.1668  0.0417
 6466SOL    HW130857   2.006   2.600   7.608 -2.1464  2.0139  0.6074
 6466SOL    HW230858   1.929   2.490   7.541  0.8810 -0.2428 -1.0368
 6467SOL     OW30859   2.852   2.794  14.704 -0.3723  0.1621 -0.2989
 6467SOL    HW130860   2.779   2.815  14.647 -0.0425  2.4114  0.1053
 6467SOL    HW230861   2.848   2.875  14.755  0.6559  0.4479 -0.6718
 6468SOL     OW30862   1.880   0.499   7.951  0.2996 -0.0144 -0.8267
 6468SOL    HW130863   1.876   0.541   8.037  1.9116  3.4879 -2.4636
 6468SOL    HW230864   1.943   0.429   7.969 -0.9148 -1.0006 -0.4370
 6469SOL     OW30865   3.084   2.017   4.540  0.6917 -0.4876 -0.1306
 6469SOL    HW130866   2.990   2.003   4.536  0.7808 -0.5919 -2.0005
 6469SOL    HW230867   3.079   2.106   4.576  1.5620 -1.2578  1.8928
 6470SOL     OW30868   2.311   2.967  17.234 -0.3952 -0.2965  0.6567
 6470SOL    HW130869   2.270   3.045  17.196 -0.6166 -1.2638 -1.1045
 6470SOL    HW230870   2.385   2.952  17.176 -0.2865  0.6328  0.5537
 6471SOL     OW30871   2.599   2.641   8.823 -0.2515 -0.2459  1.0611
 6471SOL    HW130872   2.601   2.736   8.817 -0.7226 -0.2504  0.7898
 6471SOL    HW230873   2.650   2.635   8.904 -1.3285  0.6522  1.8116
 6472SOL     OW30874   3.878   3.662   9.955 -0.3380  0.2675 -0.2720
 6472SOL    HW130875   3.920   3.576   9.942 -0.7889  0.0934 -0.5642
 6472SOL    HW230876   3.818   3.641  10.027  0.1102  0.0513  0.0435
 6473SOL     OW30877   0.924   3.812  15.098  0.1347  0.2744 -0.1606
 6473SOL    HW130878   0.913   3.853  15.012  0.6515 -0.5625 -0.6325
 6473SOL    HW230879   0.883   3.873  15.159 -0.5445  0.3316 -0.6767
 6474SOL     OW30880   0.693   4.074  12.660 -0.1690  0.3499  0.0955
 6474SOL    HW130881   0.665   4.031  12.741 -0.6270 -0.3764 -0.4467
 6474SOL    HW230882   0.774   4.025  12.651 -0.1341  0.5152 -0.5490
 6475SOL     OW30883   0.182   3.677   1.616 -0.0837 -0.0467 -0.5491
 6475SOL    HW130884   0.093   3.711   1.627 -0.5498 -2.7436  4.1744
 6475SOL    HW230885   0.185   3.674   1.521  0.2838 -0.3389 -0.5269
 6476SOL     OW30886   1.868   4.394  14.981  0.4119  0.0749 -0.0610
 6476SOL    HW130887   1.798   4.345  15.024  0.0486 -0.1053 -0.8541
 6476SOL    HW230888   1.935   4.413  15.047  0.4936 -0.1463 -0.0824
 6477SOL     OW30889   3.236   2.023  12.159 -0.5287 -0.6420 -0.2150
 6477SOL    HW130890   3.177   2.089  12.196 -0.4084 -0.7590  0.1883
 6477SOL    HW230891   3.313   2.030  12.215 -0.7253 -1.5895  0.1795
 6478SOL     OW30892   2.207   4.621   4.188  0.3714 -0.2995  0.1306
 6478SOL    HW130893   2.281   4.587   4.139  0.2435 -1.2931  0.6267
 6478SOL    HW230894   2.160   4.538   4.195 -1.5053  0.8043  0.6358
 6479SOL     OW30895   0.152   2.158   8.514  0.0897 -0.1214  0.3093
 6479SOL    HW130896   0.077   2.209   8.543 -2.2098 -2.8459 -0.9476
 6479SOL    HW230897   0.214   2.221   8.476 -0.4867 -0.8850 -1.9266
 6480SOL     OW30898   1.184   3.425   2.873 -0.3292  0.1973  0.1726
 6480SOL    HW130899   1.145   3.338   2.875  0.0472  0.0861  2.5219
 6480SOL    HW230900   1.212   3.423   2.781  0.4210 -0.9276  0.4244
 6481SOL     OW30901   0.103   2.092   4.095 -0.4063  0.4213 -0.2696
 6481SOL    HW130902   0.090   2.004   4.131  3.7462 -0.2984 -0.5406
 6481SOL    HW230903   0.196   2.104   4.117 -0.0747  0.8460 -1.8750
 6482SOL     OW30904   1.354   3.838   2.864  0.4368 -0.1810 -0.1458
 6482SOL    HW130905   1.444   3.826   2.897 -0.1044  2.5080  2.3199
 6482SOL    HW230906   1.344   3.932   2.878  1.0582 -0.1419  0.0348
 6483SOL     OW30907   2.544   0.109   5.666 -0.5038 -0.0860  0.9378
 6483SOL    HW130908   2.490   0.129   5.589 -0.6527  1.7558  1.5254
 6483SOL    HW230909   2.603   0.183   5.654  0.5553 -0.8639  1.3620
 6484SOL     OW30910   1.767   1.962   7.881  0.4758 -0.2435 -0.4078
 6484SOL    HW130911   1.757   1.871   7.853  1.1831 -0.3384 -0.3526
 6484SOL    HW230912   1.862   1.973   7.883  0.7874 -2.6797 -1.5791
 6485SOL     OW30913   2.734   0.647   9.717 -0.9306 -0.1753 -0.2486
 6485SOL    HW130914   2.761   0.587   9.786 -0.2796  1.2881  0.7762
 6485SOL    HW230915   2.660   0.685   9.763  0.5777  0.4099  1.7095
 6486SOL     OW30916   1.076   2.985  11.532  0.0683 -0.6080  0.3602
 6486SOL    HW130917   1.089   2.979  11.627  1.6340 -0.5752  0.1415
 6486SOL    HW230918   1.036   2.901  11.509 -0.4525 -0.2322 -0.1210
 6487SOL     OW30919   4.652   1.174   4.565  0.2901  0.4765 -0.0292
 6487SOL    HW130920   4.650   1.090   4.610 -0.1759  0.2220 -0.5243
 6487SOL    HW230921   4.702   1.231   4.623  0.6652  1.5618 -1.4133
 6488SOL     OW30922   3.393   4.657   2.064 -0.0979 -0.0018 -0.2753
 6488SOL    HW130923   3.388   4.640   1.970 -2.0719 -0.9053 -0.0209
 6488SOL    HW230924   3.333   0.007   2.063 -0.9385 -0.7190 -2.6335
 6489SOL     OW30925   3.598   4.385   2.735  0.0626  0.1395 -0.0049
 6489SOL    HW130926   3.606   4.479   2.722 -2.2044  0.0069 -2.4028
 6489SOL    HW230927   3.547   4.363   2.658 -1.4498  0.9687  0.7744
 6490SOL     OW30928   1.615   3.983   3.114 -0.8142  0.5325  0.5120
 6490SOL    HW130929   1.623   3.931   3.034 -1.2769  0.7982  0.2922
 6490SOL    HW230930   1.615   3.911   3.176  0.5307 -1.2348 -1.5353
 6491SOL     OW30931   2.268   3.814   7.316 -0.1932  0.6495 -0.1367
 6491SOL    HW130932   2.266   3.874   7.390 -1.1092  0.3952  0.0373
 6491SOL    HW230933   2.215   3.740   7.346  1.8925  0.1661  2.3884
 6492SOL     OW30934   1.610   2.204   7.930  0.0764 -0.5978 -0.3755
 6492SOL    HW130935   1.637   2.130   7.875  1.7736  0.4532 -0.9512
 6492SOL    HW230936   1.684   2.224   7.988  0.6351 -0.7704 -1.0277
 6493SOL     OW30937   4.109   0.661   9.062 -0.1458 -0.3064  0.3100
 6493SOL    HW130938   4.130   0.754   9.068 -0.4478 -0.3208  1.4373
 6493SOL    HW230939   4.128   0.645   8.969  1.0234  0.1541  0.4688
 6494SOL     OW30940   2.018   3.582   0.772 -0.2929  0.2169 -0.0690
 6494SOL    HW130941   2.026   3.487   0.779  3.2494  0.6167  1.7656
 6494SOL    HW230942   2.033   3.584   0.678 -0.9804 -1.1071 -0.1983
 6495SOL     OW30943   0.574   2.073  10.588  0.3635 -0.3850 -0.4670
 6495SOL    HW130944   0.485   2.094  10.614  1.3883  0.8568  2.1136
 6495SOL    HW230945   0.564   1.995  10.534  1.8458  0.0821 -1.4337
 6496SOL     OW30946   1.099   1.167  12.074  0.2523 -0.1990 -0.1836
 6496SOL    HW130947   1.137   1.080  12.060  1.2176  0.2680 -0.4335
 6496SOL    HW230948   1.114   1.199  11.985 -0.7781  1.8938  0.4002
 6497SOL     OW30949   1.470   1.916   5.016 -0.4937 -0.3496 -0.2234
 6497SOL    HW130950   1.557   1.905   5.053 -0.0590 -0.5573 -1.3203
 6497SOL    HW230951   1.494   1.994   4.967 -1.5718 -1.6726 -2.8380
 6498SOL     OW30952   1.332   3.780  11.734  0.0417 -0.0919  0.6191
 6498SOL    HW130953   1.237   3.775  11.738 -0.0742  2.4029  1.4092
 6498SOL    HW230954   1.339   3.837  11.658  1.6136 -2.1425 -0.7630
 6499SOL     OW30955   2.465   0.047   7.449  0.6059  0.1604 -0.5332
 6499SOL    HW130956   2.511   0.050   7.365  2.7720  1.1985  0.6998
 6499SOL    HW230957   2.430   4.683   7.451 -0.7506  0.7287  0.9361
 6500SOL     OW30958   3.865   0.331   7.792 -0.2777  0.2125  0.2285
 6500SOL    HW130959   3.859   0.239   7.766 -1.6420  0.6268 -0.8939
 6500SOL    HW230960   3.958   0.338   7.814 -0.0419 -1.5820 -0.1518
 6501SOL     OW30961   2.961   4.585   9.342  0.0361  0.2183  0.4822
 6501SOL    HW130962   2.927   4.607   9.429 -2.9512  2.6708 -1.3051
 6501SOL    HW230963   3.049   4.621   9.340  0.3063 -0.4869 -0.3090
 6502SOL     OW30964   2.102   2.861  14.330  0.1259 -0.1357  0.3125
 6502SOL    HW130965   2.150   2.811  14.395 -1.4814 -1.3455  0.5775
 6502SOL    HW230966   2.134   2.823  14.249  1.8310  0.8305  0.5454
 6503SOL     OW30967   1.790   4.256  17.076 -0.1750 -0.1456 -0.8333
 6503SOL    HW130968   1.737   4.282  17.001 -0.5166  1.2679 -0.0967
 6503SOL    HW230969   1.777   4.163  17.094 -0.1963  0.0866  0.3950
 6504SOL     OW30970   2.824   2.882   9.936 -0.2563 -0.5434  0.1223
 6504SOL    HW130971   2.759   2.855   9.871 -0.8510  4.0709 -1.1617
 6504SOL    HW230972   2.902   2.831   9.913 -0.4818 -1.4369  1.3869
 6505SOL     OW30973   2.378   0.897   3.169  0.0081  0.0844  0.2758
 6505SOL    HW130974   2.449   0.842   3.136  0.4274  0.4392  0.5981
 6505SOL    HW230975   2.394   0.875   3.261  0.5418 -0.1284  0.1279
 6506SOL     OW30976   1.594   2.016   4.133  0.0081 -0.3458  0.2340
 6506SOL    HW130977   1.519   1.964   4.162  0.1147  0.6010  2.2045
 6506SOL    HW230978   1.591   1.986   4.042 -0.5036 -0.6303  0.3456
 6507SOL     OW30979   2.896   4.587   7.653 -0.5974 -0.2256  0.4403
 6507SOL    HW130980   2.844   4.541   7.586 -1.2227  3.3065 -1.5344
 6507SOL    HW230981   2.983   4.570   7.618 -1.0465  0.5930 -1.0641
 6508SOL     OW30982   4.319   0.548   5.422  0.2174  0.0923  0.1523
 6508SOL    HW130983   4.378   0.473   5.417 -0.4490 -0.3847 -0.5488
 6508SOL    HW230984   4.244   0.524   5.366  0.6613  1.2312 -0.9340
 6509SOL     OW30985   1.224   2.933   3.716 -0.3115 -0.3378  0.1161
 6509SOL    HW130986   1.302   2.983   3.740 -0.4168 -1.1535  2.2245
 6509SOL    HW230987   1.211   2.881   3.796  1.7061 -3.7865 -1.8221
 6510SOL     OW30988   1.110   1.811   1.600  0.2905  0.5520  0.2526
 6510SOL    HW130989   1.050   1.816   1.525 -0.2350 -0.1068  0.6261
 6510SOL    HW230990   1.055   1.778   1.672 -0.2934 -1.7507 -1.2133
 6511SOL     OW30991   4.642   4.049   3.270 -0.9245 -0.4527 -0.1220
 6511SOL    HW130992   4.670   3.971   3.318  1.7971 -0.3901 -1.5878
 6511SOL    HW230993   4.649   4.029   3.177 -2.6753 -0.2504 -0.2907
 6512SOL     OW30994   2.920   3.357  10.222  0.0847  0.0488 -0.3525
 6512SOL    HW130995   2.960   3.295  10.160 -0.4163 -1.8185  1.1976
 6512SOL    HW230996   2.900   3.295  10.293 -1.0084  1.6207  0.6967
 6513SOL     OW30997   1.831   3.076   7.908  0.1658 -0.3536  0.6860
 6513SOL    HW130998   1.851   3.150   7.966 -1.5490  1.2832 -0.8019
 6513SOL    HW230999   1.770   3.029   7.966  0.6637 -0.6033  1.0064
 6514SOL     OW31000   4.003   2.808   5.411  0.0100  0.2405 -0.3125
 6514SOL    HW131001   3.987   2.756   5.490  0.2812 -1.1508 -1.1851
 6514SOL    HW231002   3.914   2.837   5.390 -0.1257 -0.4919 -0.7545
 6515SOL     OW31003   1.868   0.337   8.819  0.4080 -0.0093  0.5323
 6515SOL    HW131004   1.891   0.288   8.740  0.6945  0.1690  0.5050
 6515SOL    HW231005   1.785   0.376   8.792 -0.3200 -2.1353 -0.3364
 6516SOL     OW31006   4.109   1.549   8.349  0.2817  0.1586  0.1146
 6516SOL    HW131007   4.142   1.501   8.273  0.2906  1.0820 -0.4669
 6516SOL    HW231008   4.017   1.520   8.344  0.1108  0.4496  1.7914
 6517SOL     OW31009   3.284   1.060   4.332 -0.0494  0.1333  0.3638
 6517SOL    HW131010   3.363   1.112   4.344  0.2052 -0.2117  0.1933
 6517SOL    HW231011   3.224   1.121   4.289 -0.8249 -1.2700 -0.5475
 6518SOL     OW31012   2.136   3.612   4.656  0.0304 -0.3389 -0.5311
 6518SOL    HW131013   2.083   3.650   4.726  1.6034  1.3517 -0.2524
 6518SOL    HW231014   2.129   3.518   4.676  1.0861 -0.3352 -0.1106
 6519SOL     OW31015   3.267   0.061   6.282 -0.4633 -0.0002 -0.3953
 6519SOL    HW131016   3.291   0.139   6.331  1.8252 -1.0534  0.1697
 6519SOL    HW231017   3.174   0.071   6.259 -0.4080  0.5284 -0.3888
 6520SOL     OW31018   2.935   1.120   2.413 -0.0671  0.2413 -0.0806
 6520SOL    HW131019   3.008   1.182   2.419  0.4052 -0.3037 -0.1154
 6520SOL    HW231020   2.868   1.173   2.371 -1.5928 -0.4412  1.5135
 6521SOL     OW31021   2.208   4.631   1.331 -1.0271 -0.1255  0.7328
 6521SOL    HW131022   2.136   4.574   1.304 -0.4451 -0.5729  0.1453
 6521SOL    HW231023   2.219   4.690   1.257 -0.5683 -1.2768 -0.1157
 6522SOL     OW31024   1.537   1.048   7.506 -0.1944 -0.2872  0.0963
 6522SOL    HW131025   1.603   1.108   7.473 -1.1245  0.6595 -0.0224
 6522SOL    HW231026   1.577   1.005   7.582 -0.2275 -1.2570 -0.4306
 6523SOL     OW31027   4.684   0.475   9.558  0.2694  0.2531  0.0975
 6523SOL    HW131028   4.590   0.458   9.559  0.5144 -1.1440  0.5985
 6523SOL    HW231029   4.715   0.393   9.599  1.8113  0.4190 -0.7384
 6524SOL     OW31030   0.233   3.577  14.257  0.4529  0.0235 -0.2257
 6524SOL    HW131031   0.161   3.620  14.212 -2.0107 -2.0075  1.7842
 6524SOL    HW231032   0.209   3.595  14.348 -0.0995 -0.4195 -0.2884
 6525SOL     OW31033   1.074   2.547   3.766  0.2863 -0.4247 -0.4001
 6525SOL    HW131034   1.120   2.570   3.846 -0.0067  3.9075 -1.4308
 6525SOL    HW231035   1.033   2.464   3.789  0.0163 -0.3070 -0.4533
 6526SOL     OW31036   1.724   3.460   3.615  0.1214 -0.4852 -0.1531
 6526SOL    HW131037   1.677   3.445   3.697  1.1397  0.3992  0.5743
 6526SOL    HW231038   1.659   3.439   3.547 -0.2901 -1.8477  0.6605
 6527SOL     OW31039   3.868   1.713   5.253 -0.3229  0.2528  0.1253
 6527SOL    HW131040   3.835   1.801   5.231 -0.6742  0.1845  0.3730
 6527SOL    HW231041   3.952   1.707   5.208  0.6266  3.0304  1.5058
 6528SOL     OW31042   2.306   2.538  12.330 -0.2936  0.1170 -0.5540
 6528SOL    HW131043   2.388   2.493  12.310 -1.3550 -1.5667 -1.0281
 6528SOL    HW231044   2.315   2.549  12.425  1.5586 -1.2639 -0.5663
 6529SOL     OW31045   4.656   4.130   8.858 -0.1764 -0.0852  0.2935
 6529SOL    HW131046   4.610   4.072   8.920  0.5734  1.9947  2.7984
 6529SOL    HW231047   4.612   4.106   8.776 -1.7137  1.4742  0.6530
 6530SOL     OW31048   2.043   4.616   7.525 -0.0381 -0.1648  0.1296
 6530SOL    HW131049   1.995   4.602   7.443 -1.6752  1.9971  0.6922
 6530SOL    HW231050   2.108   4.683   7.505 -0.2142 -0.2149 -0.6083
 6531SOL     OW31051   1.028   1.006  15.166  0.5249 -0.0532 -0.8607
 6531SOL    HW131052   1.046   1.062  15.241  2.9663 -0.5967 -1.0286
 6531SOL    HW231053   1.093   1.042  15.105  1.3751  2.3554  1.4971
 6532SOL     OW31054   4.313   0.127  14.236 -0.5109  0.3967  0.0258
 6532SOL    HW131055   4.392   0.127  14.183 -1.1764 -0.9655 -0.9530
 6532SOL    HW231056   4.281   0.213  14.208 -0.0293  0.4734 -0.2818
 6533SOL     OW31057   0.961   1.993   7.484  0.0988 -0.2319  0.5169
 6533SOL    HW131058   0.961   2.073   7.433  1.4010  0.7511  2.0601
 6533SOL    HW231059   0.867   1.980   7.499  0.2770  1.9408  3.4436
 6534SOL     OW31060   3.147   4.685   5.731  0.1184  0.2379 -0.0328
 6534SOL    HW131061   3.157   0.004   5.647 -0.7175 -0.1425 -0.3294
 6534SOL    HW231062   3.224   4.720   5.776  0.1954 -1.6092  1.2996
 6535SOL     OW31063   3.186   2.221   4.040  0.5594 -0.0131  0.1720
 6535SOL    HW131064   3.166   2.313   4.027 -2.7717 -0.4021  2.5201
 6535SOL    HW231065   3.194   2.221   4.136  2.3720 -0.8052  0.0176
 6536SOL     OW31066   3.639   0.088   5.313  0.1921 -0.4895 -0.0903
 6536SOL    HW131067   3.617   0.133   5.231  0.7257  0.4049  0.2506
 6536SOL    HW231068   3.573   0.019   5.318  0.6448 -0.9078  0.1676
 6537SOL     OW31069   2.526   1.632  15.402  0.1900 -0.2944 -0.0607
 6537SOL    HW131070   2.602   1.602  15.352  1.7599  1.1042  1.4882
 6537SOL    HW231071   2.493   1.547  15.429 -0.7389 -0.3935 -1.4858
 6538SOL     OW31072   2.342   0.235   2.021  0.0185  0.1737 -0.0647
 6538SOL    HW131073   2.428   0.196   2.003 -0.3373 -0.6253 -0.0125
 6538SOL    HW231074   2.328   0.234   2.115 -2.8698 -0.2209 -0.5192
 6539SOL     OW31075   3.830   1.664  16.741  0.3588 -0.2209 -0.5587
 6539SOL    HW131076   3.888   1.617  16.801 -0.0216  0.8632  0.6547
 6539SOL    HW231077   3.900   1.698  16.686  0.9768 -0.4106  0.1069
 6540SOL     OW31078   4.616   0.314   8.368 -0.0490 -0.2741  0.0170
 6540SOL    HW131079   4.709   0.325   8.387  0.0722  0.1466 -0.8176
 6540SOL    HW231080   4.598   0.260   8.446  2.1272  0.8967  1.3208
 6541SOL     OW31081   0.938   1.363  15.132 -0.1364 -0.0009  0.0801
 6541SOL    HW131082   0.957   1.353  15.226  1.2907  2.6363  0.0818
 6541SOL    HW231083   1.007   1.305  15.099 -0.9807 -0.4172 -0.9268
 6542SOL     OW31084   0.601   0.272   2.236  0.2440  0.1463  0.7069
 6542SOL    HW131085   0.573   0.350   2.188  1.1657 -0.9947 -1.6837
 6542SOL    HW231086   0.654   0.231   2.168  0.5808 -1.1851  1.7779
 6543SOL     OW31087   2.624   3.558   8.097  0.5043  0.1856  0.0332
 6543SOL    HW131088   2.657   3.536   8.010  1.0125 -3.0173  1.0295
 6543SOL    HW231089   2.564   3.484   8.087 -0.9018  1.3314 -0.1125
 6544SOL     OW31090   2.649   3.105   5.992 -0.6130  0.4481 -0.3187
 6544SOL    HW131091   2.654   3.149   5.908  0.4073  0.2438 -0.3641
 6544SOL    HW231092   2.587   3.033   5.982 -0.7367  0.4915  0.1198
 6545SOL     OW31093   2.143   1.398   5.297  0.6188 -0.1490 -0.5085
 6545SOL    HW131094   2.221   1.352   5.267  0.8737 -0.2533  0.3028
 6545SOL    HW231095   2.129   1.454   5.221 -1.1899  1.5798  1.0924
 6546SOL     OW31096   2.320   4.593   9.127 -0.0453  0.1516  0.4835
 6546SOL    HW131097   2.309   4.565   9.218  0.7738  0.3788  0.6505
 6546SOL    HW231098   2.237   4.639   9.114  0.5255  0.4217 -2.3004
 6547SOL     OW31099   3.221   1.935   4.166 -0.2580  0.1669 -0.1028
 6547SOL    HW131100   3.273   1.931   4.086  0.6695  1.7499  0.4197
 6547SOL    HW231101   3.149   1.995   4.145 -1.3151 -0.2661  2.2352
 6548SOL     OW31102   3.703   2.940   5.644 -0.3527  0.1429  0.4230
 6548SOL    HW131103   3.753   2.957   5.723  1.5253 -2.6206 -0.1843
 6548SOL    HW231104   3.615   2.931   5.682 -0.6851  1.1569 -0.0956
 6549SOL     OW31105   1.705   2.012   6.566  0.0843 -0.0791 -0.2443
 6549SOL    HW131106   1.675   1.928   6.531 -1.7387  0.4640  0.0326
 6549SOL    HW231107   1.624   2.062   6.568 -1.4172 -2.5831  1.5972
 6550SOL     OW31108   4.606   3.350   1.930 -0.2205  0.0626  0.2886
 6550SOL    HW131109   4.513   3.335   1.947 -0.2196  1.5978  1.6134
 6550SOL    HW231110   4.618   3.444   1.945 -2.3036  0.6981 -1.9751
 6551SOL     OW31111   2.060   0.101   2.128 -0.1451 -0.1081 -0.0272
 6551SOL    HW131112   2.115   0.118   2.052 -1.4988 -1.7508 -1.3806
 6551SOL    HW231113   2.067   0.006   2.136 -1.1864 -0.1466  0.5209
 6552SOL     OW31114   3.801   0.793   4.407  0.4710 -0.2947 -0.1109
 6552SOL    HW131115   3.844   0.815   4.490 -0.1459  0.8550 -0.1059
 6552SOL    HW231116   3.805   0.698   4.420  2.7294 -0.1790 -0.0166
 6553SOL     OW31117   2.596   3.422   1.306  0.6329  0.0982  0.1115
 6553SOL    HW131118   2.627   3.361   1.373  2.1535  0.4115 -0.3048
 6553SOL    HW231119   2.519   3.468   1.339  0.1681  0.7513 -1.8391
 6554SOL     OW31120   1.651   0.222   4.177 -0.0197  0.1420  0.1777
 6554SOL    HW131121   1.713   0.290   4.202 -0.3574  0.8851 -1.0103
 6554SOL    HW231122   1.708   0.145   4.168  1.2191  0.4293  5.6827
 6555SOL     OW31123   3.349   1.789   0.028  0.6398  0.2120 -0.1748
 6555SOL    HW131124   3.418   1.726   0.010 -1.2427 -1.9055  0.0506
 6555SOL    HW231125   3.401   1.867   0.047 -0.3612  0.8290  0.0564
 6556SOL     OW31126   2.481   3.180  12.611 -0.0430 -0.7144 -0.0736
 6556SOL    HW131127   2.388   3.201  12.612  0.1806  0.3764 -1.5587
 6556SOL    HW231128   2.495   3.121  12.685 -0.6894 -1.7996 -0.8182
 6557SOL     OW31129   2.148   0.012   8.779 -0.1048 -0.0946 -0.5867
 6557SOL    HW131130   2.055   0.027   8.760 -0.4280 -1.4205 -0.0667
 6557SOL    HW231131   2.143   0.010   8.874 -0.4751  1.1505 -0.5759
 6558SOL     OW31132   0.901   4.047  16.967 -0.4953  0.3875  0.0665
 6558SOL    HW131133   0.819   4.083  17.001  0.9018  4.0644 -0.4741
 6558SOL    HW231134   0.851   3.979  16.921 -0.0280  0.0330  0.0787
 6559SOL     OW31135   2.897   4.003   2.403 -0.1191 -0.6787  0.8187
 6559SOL    HW131136   2.900   4.096   2.382 -0.6325 -0.3495  2.2319
 6559SOL    HW231137   2.853   3.962   2.328 -0.0839 -0.5006  0.6984
 6560SOL     OW31138   4.328   0.802   7.197  0.3866 -0.4753 -0.5445
 6560SOL    HW131139   4.354   0.777   7.109  0.3044  1.1538 -1.0317
 6560SOL    HW231140   4.341   0.719   7.243 -0.7055 -0.0360  0.5770
 6561SOL     OW31141   2.977   3.178   6.692  0.7871 -0.2077  0.8728
 6561SOL    HW131142   2.898   3.232   6.685  0.4639 -0.7996 -0.1756
 6561SOL    HW231143   2.929   3.098   6.712 -2.4644  1.4405 -0.1728
 6562SOL     OW31144   4.408   2.309  16.081 -0.7650 -0.2731 -0.1841
 6562SOL    HW131145   4.352   2.386  16.078 -0.7178 -0.1177  2.6502
 6562SOL    HW231146   4.376   2.258  16.006  1.4401 -2.1174  0.1342
 6563SOL     OW31147   2.196   1.647   6.476 -0.1694 -0.3534  0.1254
 6563SOL    HW131148   2.266   1.667   6.413 -1.1276  0.9513 -0.5253
 6563SOL    HW231149   2.228   1.701   6.548  0.7062  0.4683 -0.8883
 6564SOL     OW31150   3.218   0.492  14.991 -0.3553  0.4675  0.4367
 6564SOL    HW131151   3.167   0.414  14.970  1.0323 -0.3615  0.1513
 6564SOL    HW231152   3.244   0.466  15.080  0.7466 -0.0707 -0.0435
 6565SOL     OW31153   4.376   3.232   4.456  0.0056  0.1339  0.3648
 6565SOL    HW131154   4.307   3.236   4.523  2.6482  0.8185  3.0453
 6565SOL    HW231155   4.457   3.215   4.505 -1.0100 -1.7612  1.4118
 6566SOL     OW31156   2.520   0.850   6.957  0.0415 -0.5063  0.3313
 6566SOL    HW131157   2.445   0.815   7.005  0.5879 -0.4309  1.2273
 6566SOL    HW231158   2.500   0.943   6.958  0.7719 -0.3498  0.1358
 6567SOL     OW31159   3.413   1.153   3.182 -0.4657  0.1650  0.3883
 6567SOL    HW131160   3.461   1.221   3.229  1.0989  0.9797 -2.4041
 6567SOL    HW231161   3.322   1.182   3.184 -0.8912 -1.0447 -1.7242
 6568SOL     OW31162   0.432   1.191   2.698  0.5725  0.2486 -0.1831
 6568SOL    HW131163   0.449   1.274   2.653 -0.9219  0.0079 -1.1845
 6568SOL    HW231164   0.449   1.214   2.789 -0.2141 -0.7770  0.2226
 6569SOL     OW31165   3.900   1.618  16.133  0.8493 -0.5620  0.1146
 6569SOL    HW131166   3.932   1.661  16.054  1.1243  1.5057  1.3518
 6569SOL    HW231167   3.875   1.534  16.094  0.6055  0.1830 -1.3033
 6570SOL     OW31168   1.415   4.206  13.330 -0.8324  0.2181 -0.1600
 6570SOL    HW131169   1.343   4.254  13.289 -0.9406  0.0268 -0.1940
 6570SOL    HW231170   1.366   4.133  13.368  2.3081 -2.1840 -0.6326
 6571SOL     OW31171   2.799   1.335   3.767  0.0590  0.2463 -0.1764
 6571SOL    HW131172   2.725   1.396   3.774  0.2826  0.1897  2.4660
 6571SOL    HW231173   2.869   1.399   3.769 -0.6947  1.0019  2.3154
 6572SOL     OW31174   1.993   2.176   9.830  0.1528 -0.6965 -0.2794
 6572SOL    HW131175   2.041   2.174   9.913  2.4871  1.4325 -1.5492
 6572SOL    HW231176   1.939   2.253   9.848  1.1592 -0.3219  1.1118
 6573SOL     OW31177   4.075   1.114   9.502  0.0731 -0.2815  0.1735
 6573SOL    HW131178   4.106   1.205   9.505 -0.2939 -0.1385 -0.5947
 6573SOL    HW231179   3.993   1.133   9.458  2.1573  0.0878 -3.5860
 6574SOL     OW31180   3.336   3.393   2.952 -0.8738  0.2872 -0.2609
 6574SOL    HW131181   3.245   3.421   2.949 -0.7606  0.6231 -0.5065
 6574SOL    HW231182   3.368   3.435   3.032  0.2973 -1.3191  0.1162
 6575SOL     OW31183   0.994   2.847   1.469  0.6703  0.3786 -0.3152
 6575SOL    HW131184   1.002   2.760   1.509 -1.2689  0.9251  1.2924
 6575SOL    HW231185   0.969   2.814   1.383  1.5813 -0.0927 -0.3867
 6576SOL     OW31186   4.356   0.037  16.122 -0.0240 -0.5946  0.0459
 6576SOL    HW131187   4.294   0.109  16.129 -0.1157 -0.4323 -2.5488
 6576SOL    HW231188   4.299   4.691  16.092 -2.3650  1.8562 -1.3007
 6577SOL     OW31189   3.911   2.304   4.798 -0.3581  0.2704 -0.4619
 6577SOL    HW131190   3.936   2.220   4.760  0.0797  0.4289 -0.5216
 6577SOL    HW231191   3.995   2.345   4.817 -0.5724  0.0190  1.0150
 6578SOL     OW31192   3.061   3.198  13.682 -0.6663 -0.4809 -0.4975
 6578SOL    HW131193   3.054   3.138  13.756  1.4529  0.3010  0.3186
 6578SOL    HW231194   3.057   3.140  13.605  2.4555  0.0247 -1.0534
 6579SOL     OW31195   2.107   3.642   6.511 -0.1442 -0.3173  0.5657
 6579SOL    HW131196   2.026   3.593   6.527 -0.3168 -0.3479 -0.3912
 6579SOL    HW231197   2.116   3.623   6.417 -1.4159 -1.0429  0.5905
 6580SOL     OW31198   2.885   3.632  13.030  0.2018 -0.4276 -0.6457
 6580SOL    HW131199   2.858   3.583  12.952 -1.8939 -1.4459  0.7157
 6580SOL    HW231200   2.829   3.708  13.015 -0.1291 -0.7529 -1.0444
 6581SOL     OW31201   4.314   0.872  11.768 -0.0326 -0.2581  0.6098
 6581SOL    HW131202   4.348   0.947  11.719 -0.1299 -1.8752 -1.9336
 6581SOL    HW231203   4.304   0.806  11.700  1.0797  0.8146 -0.5950
 6582SOL     OW31204   0.843   1.598   8.845  0.1457  0.2803 -0.4322
 6582SOL    HW131205   0.799   1.521   8.809 -1.3053  0.7038  0.4427
 6582SOL    HW231206   0.858   1.650   8.766  2.0055 -0.8432 -0.8022
 6583SOL     OW31207   2.504   1.947   3.268 -0.0641 -0.1954 -0.3351
 6583SOL    HW131208   2.571   1.918   3.206  0.8536  1.8732 -0.3211
 6583SOL    HW231209   2.489   1.869   3.322  0.3985 -0.0430  0.0152
 6584SOL     OW31210   2.700   1.758  15.034  0.4069  0.2040  0.6001
 6584SOL    HW131211   2.768   1.709  15.080  1.0684 -1.2431 -1.9851
 6584SOL    HW231212   2.620   1.708  15.051  0.4316 -0.3532 -1.0033
 6585SOL     OW31213   0.056   3.150   3.722  0.1765 -0.0591 -0.2568
 6585SOL    HW131214   0.091   3.067   3.689 -0.3325  0.5910 -2.4642
 6585SOL    HW231215   0.025   3.186   3.639  0.0088 -1.1003 -0.6433
 6586SOL     OW31216   1.431   0.140   2.762 -0.2002  0.2930  0.7454
 6586SOL    HW131217   1.486   0.074   2.805 -1.7242 -0.9571  0.8030
 6586SOL    HW231218   1.467   0.136   2.673 -0.7070 -0.7285  0.5761
 6587SOL     OW31219   0.099   1.197   1.728  0.0616 -0.3540  0.1922
 6587SOL    HW131220   0.125   1.288   1.711 -1.0273 -0.3704 -1.5310
 6587SOL    HW231221   0.158   1.152   1.667 -2.5774  0.0895 -2.6694
 6588SOL     OW31222   3.511   4.616  13.425 -0.5289 -0.7013 -0.2033
 6588SOL    HW131223   3.430   4.651  13.461 -2.0538 -1.9388 -2.4798
 6588SOL    HW231224   3.571   4.683  13.458 -0.0199 -1.1540 -0.2039
 6589SOL     OW31225   4.263   2.728   0.167 -0.6815 -0.0457  0.0702
 6589SOL    HW131226   4.206   2.792   0.125 -1.4059 -0.3724  0.5407
 6589SOL    HW231227   4.351   2.764   0.158 -0.2733 -0.5068  2.2610
 6590SOL     OW31228   3.428   3.598   3.116  0.1390  0.6732  0.7728
 6590SOL    HW131229   3.439   3.633   3.205  3.1211  0.9619  0.2768
 6590SOL    HW231230   3.490   3.652   3.068 -0.0582 -0.1897 -0.4399
 6591SOL     OW31231   1.490   4.117   7.570  0.2455 -0.3251 -0.0005
 6591SOL    HW131232   1.406   4.144   7.606  0.8047  2.1591 -0.5499
 6591SOL    HW231233   1.538   4.115   7.653  1.8650 -2.0520 -0.9683
 6592SOL     OW31234   0.818   2.739   4.840 -0.3084 -0.1416 -0.4374
 6592SOL    HW131235   0.769   2.770   4.763  0.6166  0.2580 -0.8551
 6592SOL    HW231236   0.828   2.826   4.879 -0.0430 -0.7540  0.8541
 6593SOL     OW31237   2.143   1.445  14.258 -0.7160  0.0281 -0.8328
 6593SOL    HW131238   2.153   1.535  14.289 -0.4084  0.0137 -0.8922
 6593SOL    HW231239   2.143   1.400  14.343 -0.6086  3.2689  0.8926
 6594SOL     OW31240   0.503   0.697   7.201  0.5791 -0.0176  0.3064
 6594SOL    HW131241   0.414   0.669   7.221  0.3941  1.6681  1.7280
 6594SOL    HW231242   0.534   0.623   7.148 -0.3353 -0.1225 -0.0742
 6595SOL     OW31243   4.624   3.165   9.442 -0.3960 -0.4420  0.0692
 6595SOL    HW131244   4.693   3.206   9.494 -2.9392  0.8448  2.4477
 6595SOL    HW231245   4.547   3.182   9.496  0.0584  1.5811  0.0831
 6596SOL     OW31246   3.618   2.436   1.441  0.3093 -0.5233 -0.0605
 6596SOL    HW131247   3.585   2.425   1.352 -1.6980 -1.0540  0.7511
 6596SOL    HW231248   3.658   2.523   1.434 -0.1713 -0.2969  0.0678
 6597SOL     OW31249   1.102   1.299  17.451 -0.0005 -0.1420  0.2984
 6597SOL    HW131250   1.090   1.224  17.509 -1.1087  1.4556  2.1192
 6597SOL    HW231251   1.050   1.273  17.375 -1.1348  1.4172  0.5573
 6598SOL     OW31252   4.233   0.462   5.715 -0.5877  1.2047  0.2730
 6598SOL    HW131253   4.258   0.463   5.623  0.5972 -2.4548  0.5412
 6598SOL    HW231254   4.320   0.448   5.752  0.0931  0.9491 -1.4490
 6599SOL     OW31255   2.611   4.099   0.212  0.7925  0.1475 -0.0510
 6599SOL    HW131256   2.594   4.171   0.152  0.6143  0.2991  0.1848
 6599SOL    HW231257   2.526   4.058   0.228  1.0869 -0.1510  0.7434
 6600SOL     OW31258   0.272   4.144   7.318 -0.0727 -0.9931  0.1265
 6600SOL    HW131259   0.259   4.183   7.231 -1.2772  0.1141  0.8064
 6600SOL    HW231260   0.360   4.110   7.299  0.0313  0.0994 -1.3584
 6601SOL     OW31261   0.045   3.181   3.991  0.2028  0.9123 -0.3259
 6601SOL    HW131262   0.046   3.176   3.895  3.0478 -1.9330 -0.1383
 6601SOL    HW231263   4.698   3.121   4.011  0.2461  0.9792  0.0290
 6602SOL     OW31264   1.849   1.108  12.750  0.1417 -0.0771 -0.2572
 6602SOL    HW131265   1.822   1.132  12.661 -0.1262 -1.4791 -0.5560
 6602SOL    HW231266   1.784   1.168  12.786  2.0110  0.9999  1.2897
 6603SOL     OW31267   3.297   4.068   9.427  0.1163 -0.2405 -0.4663
 6603SOL    HW131268   3.352   4.053   9.503 -0.2416  1.7749  0.1834
 6603SOL    HW231269   3.207   4.084   9.455 -0.4141 -1.1367 -1.6241
 6604SOL     OW31270   4.546   0.521   1.669  0.6416 -0.2041  0.2429
 6604SOL    HW131271   4.579   0.445   1.718  0.5128  1.1025  2.3784
 6604SOL    HW231272   4.503   0.577   1.733 -0.1792  0.0006 -0.4966
 6605SOL     OW31273   0.925   4.691   3.727 -0.2770  0.4098  0.0011
 6605SOL    HW131274   0.892   4.636   3.799  0.2209  2.5476  1.8324
 6605SOL    HW231275   1.008   4.724   3.759 -0.5828 -0.4897  1.7358
 6606SOL     OW31276   1.724   3.267   3.911  0.5800 -0.2663  0.3300
 6606SOL    HW131277   1.651   3.230   3.862  0.4266  1.8480 -1.0630
 6606SOL    HW231278   1.801   3.224   3.875  0.7866 -1.9119  2.7582
 6607SOL     OW31279   0.153   2.159   8.835  0.0741  0.0447 -0.1537
 6607SOL    HW131280   0.066   2.126   8.813  0.0122  0.0245  0.1187
 6607SOL    HW231281   0.210   2.094   8.792 -0.1451 -0.2445 -0.0039
 6608SOL     OW31282   1.364   4.521   4.817  0.0786  0.1901 -0.5970
 6608SOL    HW131283   1.284   4.475   4.845  0.4096  0.4526  0.7957
 6608SOL    HW231284   1.397   4.465   4.747 -0.8515  0.0462 -0.9295
 6609SOL     OW31285   2.234   2.812   2.821 -0.0076 -0.1086  0.6551
 6609SOL    HW131286   2.281   2.857   2.751 -0.6011 -1.7461 -0.8023
 6609SOL    HW231287   2.299   2.818   2.890  0.4789  1.8072  0.0461
 6610SOL     OW31288   0.205   3.847  10.759 -0.0243 -0.4729 -0.4452
 6610SOL    HW131289   0.266   3.889  10.819 -0.0648 -2.3965  0.9403
 6610SOL    HW231290   0.258   3.860  10.681 -1.3435  0.4104 -1.2013
 6611SOL     OW31291   1.548   1.596   3.406 -0.0953  0.2449 -0.0390
 6611SOL    HW131292   1.527   1.543   3.329  0.8621  0.1797 -0.2565
 6611SOL    HW231293   1.511   1.529   3.465 -0.3978 -0.2754 -0.8139
 6612SOL     OW31294   0.216   2.520   6.313  0.6807  0.0472 -0.5206
 6612SOL    HW131295   0.282   2.489   6.376  1.0063 -1.8430 -1.7717
 6612SOL    HW231296   0.142   2.560   6.358  1.5654  1.0446  0.0482
 6613SOL     OW31297   2.053   4.267  16.911  0.7488  0.0505 -0.0008
 6613SOL    HW131298   1.970   4.260  16.958  0.7379  0.1580 -0.0059
 6613SOL    HW231299   2.036   4.233  16.823 -0.0764 -0.4183  0.3360
 6614SOL     OW31300   4.432   2.069   0.567  0.1655 -0.3887  0.5570
 6614SOL    HW131301   4.359   2.014   0.596 -0.1199  0.2371  1.0121
 6614SOL    HW231302   4.458   2.026   0.486  1.2045 -1.3499  1.4092
 6615SOL     OW31303   3.917   4.347   4.654  0.0378  0.0504  0.1663
 6615SOL    HW131304   3.888   4.267   4.610 -1.2740  0.4548  0.2937
 6615SOL    HW231305   3.896   4.320   4.743  0.7348  0.1742  0.3633
 6616SOL     OW31306   1.860   4.631  14.703 -0.9172  0.1233  0.3411
 6616SOL    HW131307   1.901   4.579  14.635  0.8946 -0.2947  1.7383
 6616SOL    HW231308   1.850   4.574  14.780 -0.7325  0.9206  0.9603
 6617SOL     OW31309   1.046   3.562  16.144  0.1039  0.4975 -0.1241
 6617SOL    HW131310   0.981   3.505  16.186  0.1029 -0.4382 -1.4017
 6617SOL    HW231311   1.053   3.531  16.054 -0.5647  2.1014 -0.7205
 6618SOL     OW31312   4.336   1.019   2.390  0.3949 -0.0305  0.6817
 6618SOL    HW131313   4.337   1.099   2.442 -0.5055  0.8636 -0.6915
 6618SOL    HW231314   4.406   0.975   2.439  0.8360 -0.8744 -0.7263
 6619SOL     OW31315   2.614   2.480  14.652  0.2124  0.2327 -0.1935
 6619SOL    HW131316   2.551   2.548  14.630 -0.2764  0.7878  2.9787
 6619SOL    HW231317   2.673   2.489  14.577 -0.2764  1.8632 -0.3931
 6620SOL     OW31318   2.363   0.824   7.670 -0.3181 -0.5208 -0.0267
 6620SOL    HW131319   2.329   0.738   7.645  0.2785 -0.7427 -0.0691
 6620SOL    HW231320   2.280   0.870   7.681 -0.0199  0.0859 -0.3038
 6621SOL     OW31321   2.395   2.766  12.856 -0.1477 -0.1275  0.1600
 6621SOL    HW131322   2.414   2.827  12.784 -1.3244  0.5199  0.3995
 6621SOL    HW231323   2.481   2.753  12.896  0.0242  1.2439  0.2220
 6622SOL     OW31324   2.951   0.577   2.519 -0.5138  0.1770  0.0295
 6622SOL    HW131325   2.889   0.647   2.499 -1.9339 -0.8521  0.8606
 6622SOL    HW231326   2.954   0.520   2.442  2.5624  0.1355  0.1557
 6623SOL     OW31327   1.698   3.012   3.716 -1.0087 -0.1987  0.0135
 6623SOL    HW131328   1.629   2.980   3.658 -0.9696 -0.9330  0.3730
 6623SOL    HW231329   1.768   3.016   3.651 -0.3826 -0.8362  0.6528
 6624SOL     OW31330   1.177   4.105   5.460  0.4644  0.1990 -0.3806
 6624SOL    HW131331   1.261   4.076   5.496  0.4898  1.2029  0.3732
 6624SOL    HW231332   1.182   4.059   5.377  4.0249 -1.7566  0.9206
 6625SOL     OW31333   3.109   4.443   8.501 -0.1621 -0.3782  0.0928
 6625SOL    HW131334   3.083   4.533   8.479  0.5811 -0.1434  0.1569
 6625SOL    HW231335   3.161   4.460   8.580  1.2746  0.6090 -1.0744
 6626SOL     OW31336   3.557   4.411   6.888 -0.2241 -0.0676 -0.0026
 6626SOL    HW131337   3.544   4.316   6.886 -0.9928  0.0443 -0.3071
 6626SOL    HW231338   3.609   4.425   6.967 -0.2268 -1.6958  0.2881
 6627SOL     OW31339   3.614   1.711   3.952  0.2575  0.2847  0.5780
 6627SOL    HW131340   3.576   1.798   3.939  1.1678  0.9098  2.1675
 6627SOL    HW231341   3.564   1.692   4.031 -1.5625 -0.1456 -0.6723
 6628SOL     OW31342   2.178   3.866   8.761 -0.2183 -0.3492 -0.2207
 6628SOL    HW131343   2.173   3.955   8.725  1.0936 -0.0606  0.3113
 6628SOL    HW231344   2.252   3.877   8.820  0.6450  0.5111 -1.4715
 6629SOL     OW31345   3.550   2.939   8.172 -0.2716  0.5216 -0.1361
 6629SOL    HW131346   3.611   2.954   8.245 -2.9863  0.6230  2.1048
 6629SOL    HW231347   3.462   2.944   8.208 -0.0799  0.3686  0.3554
 6630SOL     OW31348   0.734   2.124   6.801  0.2767  0.1202 -0.5510
 6630SOL    HW131349   0.742   2.102   6.709 -2.2112 -2.3447 -0.1870
 6630SOL    HW231350   0.694   2.040   6.821  2.1166 -0.3284  1.2853
 6631SOL     OW31351   2.693   2.623   8.016  0.3564  0.1405 -0.2613
 6631SOL    HW131352   2.701   2.588   8.105  2.4613  1.4458  0.0731
 6631SOL    HW231353   2.645   2.556   7.968 -0.9595  1.4132 -0.7191
 6632SOL     OW31354   0.569   3.069  14.044 -0.0491 -0.2218 -0.3812
 6632SOL    HW131355   0.489   3.122  14.049  0.8818  1.0836  0.4209
 6632SOL    HW231356   0.564   3.018  14.124 -0.2420  0.2839 -0.0715
 6633SOL     OW31357   2.554   0.036  11.451 -0.1050 -1.1431  0.0535
 6633SOL    HW131358   2.519   4.673  11.436 -0.3481 -0.9904 -0.2770
 6633SOL    HW231359   2.638   0.013  11.489  1.1934 -0.3503 -2.3534
 6634SOL     OW31360   3.898   4.338   2.773 -0.1321  0.0749 -0.3150
 6634SOL    HW131361   3.810   4.342   2.735  0.1268 -0.1179 -0.9488
 6634SOL    HW231362   3.900   4.433   2.783  1.9275  0.3268 -3.0398
 6635SOL     OW31363   1.197   2.468   8.278 -0.4783  0.0964 -0.1893
 6635SOL    HW131364   1.139   2.525   8.227  1.0218  0.9580 -0.9331
 6635SOL    HW231365   1.208   2.392   8.221  1.5297  0.6084 -0.5115
 6636SOL     OW31366   3.905   3.138   2.515  0.3086  0.4588 -0.2833
 6636SOL    HW131367   3.999   3.125   2.526 -0.2130 -1.1819  2.2599
 6636SOL    HW231368   3.906   3.229   2.484  0.9977  0.4334 -0.3507
 6637SOL     OW31369   2.451   0.365   6.993 -1.0095 -0.6667 -0.0445
 6637SOL    HW131370   2.372   0.396   6.949  0.0663  0.0682 -1.4624
 6637SOL    HW231371   2.436   0.271   6.997 -0.9860 -0.5850  1.7797
 6638SOL     OW31372   0.970   0.767   8.249  0.4404  0.6959 -0.0409
 6638SOL    HW131373   1.006   0.831   8.187  1.4867  0.4899  0.3609
 6638SOL    HW231374   0.998   0.694   8.195  0.0919 -0.4832  1.3604
 6639SOL     OW31375   2.381   3.160   7.005 -0.5461  0.2755 -0.3383
 6639SOL    HW131376   2.456   3.209   6.972 -0.2191  0.7536  1.0895
 6639SOL    HW231377   2.416   3.072   7.017  2.0244  1.2038 -1.0321
 6640SOL     OW31378   1.609   1.922   8.135  0.2230 -0.1910  0.1833
 6640SOL    HW131379   1.636   1.925   8.043 -0.4262  0.2565  0.0030
 6640SOL    HW231380   1.603   2.017   8.148 -1.9197 -0.3997  0.8523
 6641SOL     OW31381   0.021   1.179   1.996  0.5862  0.5130  0.1838
 6641SOL    HW131382   0.077   1.186   2.074  1.3125 -1.2823 -0.1678
 6641SOL    HW231383   0.082   1.169   1.923 -0.2864 -0.7193 -0.3788
 6642SOL     OW31384   2.455   4.463   8.904  0.0303  0.0750  0.3728
 6642SOL    HW131385   2.410   4.509   8.976 -0.0770  1.0803 -0.3341
 6642SOL    HW231386   2.382   4.450   8.844  0.5476 -1.9999  0.1993
 6643SOL     OW31387   0.167   2.906   3.684 -0.0309  0.0679 -0.2452
 6643SOL    HW131388   0.244   2.913   3.742  0.8180 -0.4982 -1.3130
 6643SOL    HW231389   0.212   2.878   3.605  0.8227  0.9419 -0.0806
 6644SOL     OW31390   3.272   1.054   8.639  0.5238 -1.1798  0.4129
 6644SOL    HW131391   3.241   1.059   8.548 -2.1488 -0.3524  1.3788
 6644SOL    HW231392   3.292   0.961   8.649 -0.0987 -1.6652 -2.8587
 6645SOL     OW31393   4.516   3.759  15.603 -0.2939 -0.4030 -0.3826
 6645SOL    HW131394   4.441   3.747  15.545 -0.0568 -1.3182 -0.5044
 6645SOL    HW231395   4.468   3.764  15.686  0.3115 -2.3886  0.0943
 6646SOL     OW31396   2.964   4.558   1.663  0.1825  0.1317  0.2455
 6646SOL    HW131397   2.919   4.571   1.580  1.9919 -0.3140 -0.8030
 6646SOL    HW231398   3.055   4.551   1.634  0.2344  1.2490  0.1384
 6647SOL     OW31399   1.288   2.724   4.968 -0.2831  0.0499  0.0794
 6647SOL    HW131400   1.278   2.652   4.906 -1.5027  0.3052 -0.0306
 6647SOL    HW231401   1.348   2.693   5.035  1.1228  1.2569 -0.6177
 6648SOL     OW31402   0.733   4.316  13.626  0.3395  0.4432 -0.4929
 6648SOL    HW131403   0.730   4.227  13.591 -3.3484  0.1079  0.6479
 6648SOL    HW231404   0.823   4.336  13.603  1.0560 -0.8790  1.1512
 6649SOL     OW31405   1.021   2.557  17.544  0.3799  0.1618 -0.4950
 6649SOL    HW131406   1.089   2.615  17.509 -0.8576  1.2832 -1.0532
 6649SOL    HW231407   1.055   2.473  17.514 -0.0141  0.2962 -1.3346
 6650SOL     OW31408   2.726   1.597   0.190 -0.5673  0.4333 -0.1447
 6650SOL    HW131409   2.766   1.521   0.148  0.1232  1.2119 -0.9184
 6650SOL    HW231410   2.669   1.556   0.254  1.0963  0.7962  1.5501
 6651SOL     OW31411   0.021   0.140   4.630  0.1518  0.5269 -0.3304
 6651SOL    HW131412   4.667   0.132   4.577  1.0523  1.9817 -1.9152
 6651SOL    HW231413   0.026   0.052   4.667 -1.7959 -0.1031 -1.6103
 6652SOL     OW31414   4.114   2.682   8.540 -0.4894  0.2152 -0.4137
 6652SOL    HW131415   4.192   2.640   8.577 -0.5051  0.6493  0.1130
 6652SOL    HW231416   4.134   2.774   8.556 -0.1117  0.1235 -0.3702
 6653SOL     OW31417   2.585   1.667  10.004  0.1505  0.0126  0.0268
 6653SOL    HW131418   2.533   1.737  10.044 -0.7194 -0.0382 -1.0055
 6653SOL    HW231419   2.555   1.683   9.915  1.2461 -1.2277 -0.5605
 6654SOL     OW31420   0.850   2.087  10.701 -0.4171  0.1592  0.1996
 6654SOL    HW131421   0.778   2.051  10.648  0.4568 -1.4017  0.0944
 6654SOL    HW231422   0.881   2.163  10.651 -0.4686  0.8103  1.1459
 6655SOL     OW31423   0.696   0.432  14.998  0.0466 -0.3309  0.1839
 6655SOL    HW131424   0.612   0.480  14.998 -0.0137 -0.4257 -0.4497
 6655SOL    HW231425   0.750   0.481  15.060  1.7258 -0.4977 -1.1499
 6656SOL     OW31426   3.144   1.417   9.531  0.9462 -0.0870 -0.2026
 6656SOL    HW131427   3.107   1.415   9.619  0.9036 -0.2133 -0.2233
 6656SOL    HW231428   3.092   1.481   9.482  1.1559  1.7244  1.9593
 6657SOL     OW31429   4.397   3.817   3.987  0.3478  0.7315  0.5829
 6657SOL    HW131430   4.492   3.827   3.989  0.4568  0.0190 -1.8291
 6657SOL    HW231431   4.398   3.725   3.960  2.7057  1.6032 -2.2754
 6658SOL     OW31432   3.240   0.026   4.253 -0.0330 -0.2535  0.7494
 6658SOL    HW131433   3.300   0.086   4.297  1.2123  0.1620 -1.5532
 6658SOL    HW231434   3.218   0.077   4.175  0.2051 -1.3669 -0.0243
 6659SOL     OW31435   1.383   0.910   8.450  0.0936  0.2990 -0.0413
 6659SOL    HW131436   1.296   0.873   8.465 -0.1647  0.7335 -0.4542
 6659SOL    HW231437   1.373   1.000   8.482 -0.5133  0.6344 -1.1598
 6660SOL     OW31438   1.899   2.221   7.839  0.4546 -0.1400 -0.2319
 6660SOL    HW131439   1.871   2.249   7.926  0.6645  1.4914 -0.6981
 6660SOL    HW231440   1.986   2.260   7.829 -0.2226  1.9091  1.8169
 6661SOL     OW31441   0.185   4.017   3.821  0.3467 -0.7706  0.0358
 6661SOL    HW131442   0.110   4.021   3.761  1.2156 -2.8502 -1.1832
 6661SOL    HW231443   0.244   3.967   3.765  0.0571  0.2228 -1.1429
 6662SOL     OW31444   1.170   0.530   7.140  0.2821 -0.2972  0.7907
 6662SOL    HW131445   1.259   0.566   7.134 -0.1650  0.8143  0.7551
 6662SOL    HW231446   1.133   0.588   7.207  0.9817 -0.2060  1.0982
 6663SOL     OW31447   1.670   1.295   6.422  0.0632  0.2259 -0.0021
 6663SOL    HW131448   1.744   1.263   6.474 -0.4737 -1.5460 -0.3279
 6663SOL    HW231449   1.667   1.383   6.459  1.3960 -0.0075  0.6801
 6664SOL     OW31450   2.931   4.601   1.374 -0.0112  0.0302  0.0604
 6664SOL    HW131451   2.852   4.553   1.400  2.8307 -3.5252  2.2381
 6664SOL    HW231452   2.898   4.687   1.351  1.0163  0.6396  0.8602
 6665SOL     OW31453   3.173   1.634   4.022 -0.1827 -0.2451  0.4097
 6665SOL    HW131454   3.104   1.700   4.032  1.0430  1.2338 -0.8218
 6665SOL    HW231455   3.179   1.638   3.926  2.1016 -1.6185  0.4919
 6666SOL     OW31456   1.834   3.532   4.793 -0.0515 -0.0995  0.1238
 6666SOL    HW131457   1.809   3.440   4.785  1.0817 -0.4327  0.4486
 6666SOL    HW231458   1.833   3.550   4.699 -1.6035 -0.3405  0.0894
 6667SOL     OW31459   1.448   2.477   1.032  0.0987 -1.3118  0.6020
 6667SOL    HW131460   1.494   2.394   1.032  0.0746 -1.3185 -1.0705
 6667SOL    HW231461   1.365   2.458   1.075 -0.0608  0.5018  1.1142
 6668SOL     OW31462   0.285   2.297   6.115  0.2452  0.4074  0.4110
 6668SOL    HW131463   0.191   2.297   6.102  0.3861 -1.1497 -0.6438
 6668SOL    HW231464   0.289   2.373   6.173  2.3405  0.2097  0.5511
 6669SOL     OW31465   3.829   1.199   9.440  0.2756  0.7885  0.9998
 6669SOL    HW131466   3.757   1.185   9.502 -0.8471  0.4830 -0.3766
 6669SOL    HW231467   3.785   1.165   9.362 -1.3921 -0.2938  2.4191
 6670SOL     OW31468   4.109   3.425   8.551 -0.1540 -0.0760  0.3533
 6670SOL    HW131469   4.185   3.371   8.571 -0.0408 -0.9852 -2.5050
 6670SOL    HW231470   4.115   3.419   8.455 -1.7982  1.2014  0.1542
 6671SOL     OW31471   0.046   1.239   2.899 -0.2409 -0.2756 -0.4111
 6671SOL    HW131472   0.029   1.312   2.839 -0.3084  0.3772  0.3978
 6671SOL    HW231473   0.119   1.196   2.856  0.1764  1.1835 -1.1207
 6672SOL     OW31474   2.701   4.149   3.200 -0.6181 -0.1066 -0.4788
 6672SOL    HW131475   2.652   4.171   3.279 -1.1397 -1.4665 -0.4248
 6672SOL    HW231476   2.625   4.149   3.142 -0.6678  0.8602 -0.4032
 6673SOL     OW31477   2.522   1.374   8.603 -0.0035  0.1532 -0.2827
 6673SOL    HW131478   2.566   1.434   8.543 -1.6632  3.0456  1.3782
 6673SOL    HW231479   2.568   1.399   8.683 -1.7273  1.6498  0.2401
 6674SOL     OW31480   1.693   1.967   2.454 -0.1225 -0.5521  0.0139
 6674SOL    HW131481   1.652   2.052   2.437  2.0140  0.3975 -0.4371
 6674SOL    HW231482   1.782   2.003   2.452  0.1279 -1.1512  0.8930
 6675SOL     OW31483   0.407   3.972   8.218 -0.1127 -0.1571  0.0960
 6675SOL    HW131484   0.354   4.050   8.234  0.7473  0.8168 -1.8437
 6675SOL    HW231485   0.473   3.975   8.288  3.2527 -0.7841 -3.0648
 6676SOL     OW31486   3.507   0.545   0.654 -0.0079  0.4153  0.1278
 6676SOL    HW131487   3.557   0.602   0.596 -0.0555 -0.9855 -1.2905
 6676SOL    HW231488   3.427   0.537   0.602 -0.4520  0.6999  0.7556
 6677SOL     OW31489   2.322   0.659  15.220  0.1985 -0.1806 -0.0295
 6677SOL    HW131490   2.380   0.730  15.195 -0.2139 -0.3361 -1.4168
 6677SOL    HW231491   2.364   0.591  15.168 -2.6245 -3.0605  1.4820
 6678SOL     OW31492   2.059   2.639  12.825 -0.6417 -0.0222 -0.3422
 6678SOL    HW131493   1.985   2.689  12.788 -0.7020 -0.4294 -0.7729
 6678SOL    HW231494   2.016   2.603  12.903  0.0448  0.4581  0.2539
 6679SOL     OW31495   0.435   2.863   3.806 -0.3789 -0.2960  0.2148
 6679SOL    HW131496   0.447   2.828   3.894  0.0229  0.1481  0.3361
 6679SOL    HW231497   0.483   2.795   3.759 -0.9334 -0.1590 -0.5451
 6680SOL     OW31498   0.207   4.285  10.265 -0.0545 -0.3115  0.8444
 6680SOL    HW131499   0.268   4.301  10.336  1.0031 -0.6097 -0.0047
 6680SOL    HW231500   0.229   4.368  10.223 -0.3789 -0.8032 -0.3177
 6681SOL     OW31501   2.147   4.685   8.145 -0.4178  0.2440  0.1768
 6681SOL    HW131502   2.076   4.656   8.088 -0.7299 -2.1692  1.8062
 6681SOL    HW231503   2.228   4.671   8.096 -1.7929 -0.9681 -1.7619
 6682SOL     OW31504   0.214   1.629   6.746 -0.1944  0.0288 -0.3255
 6682SOL    HW131505   0.190   1.538   6.731 -0.2318  0.0208 -0.2176
 6682SOL    HW231506   0.195   1.642   6.839  2.8189 -1.0232  0.4181
 6683SOL     OW31507   0.874   0.079   0.190 -0.1469  0.3390 -0.1385
 6683SOL    HW131508   0.797   0.086   0.246 -0.1049  0.6731 -0.1238
 6683SOL    HW231509   0.851   0.003   0.136  0.4679  0.5812 -0.7409
 6684SOL     OW31510   4.294   0.685   3.681  0.0133  0.2042 -0.0216
 6684SOL    HW131511   4.341   0.691   3.598  0.8104 -1.8135  0.2794
 6684SOL    HW231512   4.371   0.675   3.738  0.3131 -0.5277 -0.5424
 6685SOL     OW31513   0.386   3.066   2.900  0.4977 -0.0422  0.3167
 6685SOL    HW131514   0.443   2.994   2.874  1.6332  1.9281 -2.6800
 6685SOL    HW231515   0.413   3.131   2.835  0.4271 -1.0903 -0.7872
 6686SOL     OW31516   0.076   3.346   1.111 -0.3622  0.4039 -0.1246
 6686SOL    HW131517   0.124   3.367   1.191 -0.4528  1.0496 -0.2363
 6686SOL    HW231518   0.150   3.343   1.051 -0.6270 -0.2810 -0.4087
 6687SOL     OW31519   0.194   2.310   9.042  0.4540 -0.3351  0.3114
 6687SOL    HW131520   0.177   2.270   8.956 -0.9228 -0.1559  0.5030
 6687SOL    HW231521   0.223   2.399   9.026  2.1392 -1.2696 -1.7670
 6688SOL     OW31522   4.186   2.294  13.850 -0.1083  0.4018 -0.4047
 6688SOL    HW131523   4.272   2.291  13.891  0.6415  3.3816 -1.7601
 6688SOL    HW231524   4.121   2.262  13.912  0.8335  0.4942  0.6080
 6689SOL     OW31525   0.149   1.450   4.459  0.2190 -0.2470  0.1241
 6689SOL    HW131526   0.124   1.462   4.550 -0.4000 -1.3429  0.1038
 6689SOL    HW231527   0.091   1.510   4.411  0.0078 -0.8833 -0.4223
 6690SOL     OW31528   1.851   1.256  14.867  0.6133 -0.0185 -0.4546
 6690SOL    HW131529   1.928   1.212  14.831  2.9905  0.7552  3.6825
 6690SOL    HW231530   1.891   1.325  14.920  0.2363 -0.4584  0.4021
 6691SOL     OW31531   0.383   4.292   1.216 -0.1700  0.1056  0.1740
 6691SOL    HW131532   0.368   4.335   1.300  1.4209 -2.5406  1.7791
 6691SOL    HW231533   0.323   4.344   1.162  0.6763  0.5458 -0.3513
 6692SOL     OW31534   1.196   4.522   7.343 -0.0418 -0.2160 -0.1453
 6692SOL    HW131535   1.167   4.534   7.433 -1.1883  1.0494 -0.6820
 6692SOL    HW231536   1.220   4.430   7.337  0.8921 -0.0953  1.9212
 6693SOL     OW31537   1.618   3.053   8.874  0.1783 -0.7086 -0.2376
 6693SOL    HW131538   1.609   2.986   8.807 -0.5876 -0.6207 -0.2253
 6693SOL    HW231539   1.552   3.114   8.842  0.5293 -0.7029 -0.9309
 6694SOL     OW31540   2.569   3.278  14.025  0.7577  0.4080 -0.3164
 6694SOL    HW131541   2.495   3.224  14.052  0.4289  1.3770  0.7298
 6694SOL    HW231542   2.634   3.260  14.093 -1.2805  1.6285  1.9474
 6695SOL     OW31543   2.113   0.842   8.350  0.5512 -0.1316 -0.6549
 6695SOL    HW131544   2.159   0.874   8.428  1.9302 -0.7619 -1.2238
 6695SOL    HW231545   2.173   0.846   8.276 -0.0236 -0.8640 -1.1660
 6696SOL     OW31546   1.039   0.633   2.287 -0.0396 -0.0389 -0.4016
 6696SOL    HW131547   1.047   0.716   2.334  0.9087  1.1064 -2.5801
 6696SOL    HW231548   0.944   0.621   2.275 -0.4742  0.9762  2.0319
 6697SOL     OW31549   0.536   0.220   9.138 -0.2081  0.0173  0.0695
 6697SOL    HW131550   0.458   0.229   9.083 -2.1202 -0.6673  2.6297
 6697SOL    HW231551   0.489   0.266   9.208 -1.6540 -0.2317 -0.7284
 6698SOL     OW31552   2.427   1.197   4.915  0.7323 -0.2304 -0.3851
 6698SOL    HW131553   2.508   1.221   4.961  1.2138 -1.5452 -0.5461
 6698SOL    HW231554   2.463   1.134   4.852  0.0571  0.3070 -1.3129
 6699SOL     OW31555   1.952   2.321  15.786 -0.1376 -0.0564  0.2533
 6699SOL    HW131556   2.032   2.268  15.782 -1.3004 -1.9799  2.9052
 6699SOL    HW231557   1.886   2.254  15.767  0.5241 -0.4766 -0.5519
 6700SOL     OW31558   1.030   3.053  15.406 -0.0162  0.5096 -0.8133
 6700SOL    HW131559   1.076   2.971  15.425 -1.1080  0.0261 -0.2638
 6700SOL    HW231560   0.942   3.016  15.401  0.7269 -1.2504 -0.6538
 6701SOL     OW31561   0.528   3.993   9.286 -0.1126  0.3674  0.1367
 6701SOL    HW131562   0.449   3.939   9.292  0.5271 -0.5865 -0.0187
 6701SOL    HW231563   0.531   4.049   9.364 -1.1903  1.3050 -0.5134
 6702SOL     OW31564   3.865   2.398  14.387  0.1745 -0.2743 -0.2403
 6702SOL    HW131565   3.922   2.379  14.462  1.5296  2.9053 -0.4663
 6702SOL    HW231566   3.783   2.352  14.405 -0.1850 -0.0241 -1.2875
 6703SOL     OW31567   2.849   1.463   8.419 -0.0168  0.5759 -0.3584
 6703SOL    HW131568   2.758   1.483   8.395  0.0626  0.5179 -0.7048
 6703SOL    HW231569   2.864   1.384   8.369 -1.2949 -1.4206  2.4115
 6704SOL     OW31570   4.082   3.274  11.042 -0.0205 -0.2944 -0.4111
 6704SOL    HW131571   4.092   3.369  11.034  1.7339 -0.4420  0.0077
 6704SOL    HW231572   4.172   3.254  11.015 -0.0514  1.1105 -1.5346
 6705SOL     OW31573   2.758   3.830   2.604 -0.1703 -0.0143  0.7424
 6705SOL    HW131574   2.773   3.877   2.522 -0.0229 -0.4378  0.5262
 6705SOL    HW231575   2.842   3.788   2.618 -0.5278 -0.6946  0.8464
 6706SOL     OW31576   2.929   0.034  10.656  0.0138 -0.0999 -0.1125
 6706SOL    HW131577   2.929   0.127  10.678 -0.7005 -0.2539  0.5353
 6706SOL    HW231578   2.903   0.012  10.746  0.8652 -2.2846 -0.4040
 6707SOL     OW31579   0.028   0.453   7.776 -0.4366 -0.6006  0.0157
 6707SOL    HW131580   0.022   0.540   7.815 -0.3637 -0.5560 -0.0729
 6707SOL    HW231581   4.663   0.425   7.793 -0.0792 -2.3382 -0.9107
 6708SOL     OW31582   4.115   1.446  15.706  0.8306 -0.5893 -0.1838
 6708SOL    HW131583   4.119   1.535  15.671  1.4536  0.3688  2.3207
 6708SOL    HW231584   4.138   1.400  15.625  0.1809  0.5962 -1.0470
 6709SOL     OW31585   0.294   3.016  17.691  0.1050  0.4859  0.1955
 6709SOL    HW131586   0.375   2.966  17.701 -1.9483 -2.8788  0.1470
 6709SOL    HW231587   0.256   2.996   0.074  0.2370 -1.0910 -0.1118
 6710SOL     OW31588   3.457   1.243   7.598 -0.1915  0.0036 -0.0593
 6710SOL    HW131589   3.539   1.224   7.644  0.2849  0.2573 -0.8001
 6710SOL    HW231590   3.403   1.174   7.636 -0.5109  0.9672  1.2417
 6711SOL     OW31591   2.655   4.658   2.569  0.0580  0.1083  0.5106
 6711SOL    HW131592   2.576   4.617   2.535 -0.6804  0.6229  1.5895
 6711SOL    HW231593   2.622   4.675   2.658 -0.4076 -1.9945  0.7294
 6712SOL     OW31594   1.461   0.536  11.409 -0.2763  0.0098  0.5272
 6712SOL    HW131595   1.433   0.470  11.472 -1.6376  1.0426  0.9999
 6712SOL    HW231596   1.554   0.543  11.427 -0.3701  0.3746  0.8729
 6713SOL     OW31597   1.340   0.581   5.624 -0.6681  0.5776  0.5512
 6713SOL    HW131598   1.359   0.623   5.540 -0.8454 -1.3205 -0.4392
 6713SOL    HW231599   1.365   0.650   5.685  2.2127 -0.1554  0.2486
 6714SOL     OW31600   1.119   3.378   5.035  0.1894  0.4464  0.0210
 6714SOL    HW131601   1.027   3.400   5.019  0.4895  1.4639 -0.3000
 6714SOL    HW231602   1.102   3.296   5.081  0.5298  0.2973 -0.1176
 6715SOL     OW31603   0.493   4.293   4.357  0.8862 -0.2034  0.2817
 6715SOL    HW131604   0.576   4.266   4.318  2.2791  1.5933  2.0493
 6715SOL    HW231605   0.439   4.257   4.286  2.3164 -1.8463  0.0228
 6716SOL     OW31606   2.498   1.132  11.170  0.0973 -0.5719 -0.1792
 6716SOL    HW131607   2.490   1.190  11.246  0.4596 -1.8297  0.8124
 6716SOL    HW231608   2.431   1.067  11.188  0.7445 -0.0844  3.8999
 6717SOL     OW31609   0.626   3.042   0.712  0.1153  0.1243 -0.6552
 6717SOL    HW131610   0.697   3.106   0.720  0.0247  0.2276 -0.6797
 6717SOL    HW231611   0.642   2.998   0.629 -0.7815  0.3291 -0.9334
 6718SOL     OW31612   2.003   1.461   6.371  0.0497  0.2021  0.2295
 6718SOL    HW131613   1.933   1.480   6.434 -0.8082 -0.1018 -0.6262
 6718SOL    HW231614   2.057   1.538   6.389  1.4857  0.0733 -3.5865
 6719SOL     OW31615   4.093   0.274   5.046 -0.7919 -0.6618  0.3248
 6719SOL    HW131616   4.031   0.289   4.975  0.9748  1.1523 -0.8298
 6719SOL    HW231617   4.129   0.360   5.064  0.9002 -0.6606 -3.1282
 6720SOL     OW31618   0.619   3.991   3.001  0.2642 -0.3904  0.1566
 6720SOL    HW131619   0.554   3.975   2.933 -0.1060 -1.3328  0.7234
 6720SOL    HW231620   0.591   4.077   3.031  1.6142 -0.1899  0.8371
 6721SOL     OW31621   0.112   0.644  12.611  0.1877 -0.1401 -0.1530
 6721SOL    HW131622   0.155   0.662  12.528 -1.7371 -0.5490 -1.2528
 6721SOL    HW231623   0.140   0.726  12.650  1.1821  0.4626 -2.1666
 6722SOL     OW31624   0.324   1.052   3.365 -0.0566 -0.5079 -0.1266
 6722SOL    HW131625   0.238   1.093   3.355  0.2020  0.5295  2.0939
 6722SOL    HW231626   0.332   0.996   3.287  1.3511  0.0113 -0.3499
 6723SOL     OW31627   1.138   0.724  10.756 -0.0850  0.1555  0.1524
 6723SOL    HW131628   1.115   0.798  10.699  1.6707  0.5350 -0.0531
 6723SOL    HW231629   1.057   0.675  10.767 -0.4145  0.6208 -0.1681
 6724SOL     OW31630   0.829   3.759   6.602  0.2042 -0.3725  0.7567
 6724SOL    HW131631   0.864   3.782   6.516 -0.9203 -1.9105 -0.1236
 6724SOL    HW231632   0.869   3.829   6.654  0.3160 -0.2480  0.5011
 6725SOL     OW31633   4.190   2.644   7.003  0.0752 -0.0336 -0.0609
 6725SOL    HW131634   4.156   2.593   7.076  0.0425  2.1640  1.4656
 6725SOL    HW231635   4.172   2.733   7.033  1.5409  0.3166 -0.2189
 6726SOL     OW31636   4.436   0.687   8.043 -0.0801  0.7050 -0.2280
 6726SOL    HW131637   4.394   0.768   8.072  0.5211  1.1131 -0.4881
 6726SOL    HW231638   4.447   0.642   8.126 -0.1376  1.6837  0.3096
 6727SOL     OW31639   2.089   2.561  16.900  0.7539  0.2515 -0.2373
 6727SOL    HW131640   2.058   2.475  16.870  1.2145  0.1788 -0.5089
 6727SOL    HW231641   2.146   2.580  16.825 -0.3030  0.5457 -0.9621
 6728SOL     OW31642   2.041   2.883   1.562  0.1390  0.4577  0.2317
 6728SOL    HW131643   1.959   2.878   1.513 -0.1037  0.6402  0.6267
 6728SOL    HW231644   2.096   2.838   1.497 -1.2550  0.1993 -0.7765
 6729SOL     OW31645   3.060   4.644   8.978  0.0014 -0.1666 -0.2377
 6729SOL    HW131646   2.991   4.695   8.936  1.6779 -0.1378 -2.9122
 6729SOL    HW231647   3.022   4.556   8.980 -0.9067  0.2785  2.0358
 6730SOL     OW31648   2.854   4.065  10.240  0.3989 -0.2278 -0.0523
 6730SOL    HW131649   2.905   4.125  10.186 -0.2423 -0.3034 -0.7501
 6730SOL    HW231650   2.919   4.020  10.294 -0.2832  0.6655  1.5249
 6731SOL     OW31651   2.605   0.175   3.265  0.0128  1.0847  0.0583
 6731SOL    HW131652   2.592   0.080   3.267 -0.2903  1.0891 -2.8769
 6731SOL    HW231653   2.518   0.201   3.296 -0.2779  0.9629 -0.6670
 6732SOL     OW31654   2.402   3.912   2.344 -0.6188 -0.2474 -0.1044
 6732SOL    HW131655   2.352   3.837   2.312 -2.2460  1.0843 -0.6841
 6732SOL    HW231656   2.451   3.945   2.268  1.2693 -2.1919  0.2596
 6733SOL     OW31657   0.058   0.378  15.642 -0.0660 -0.0368  0.2399
 6733SOL    HW131658   4.719   0.440  15.676 -1.7890 -0.4258 -2.3251
 6733SOL    HW231659   0.032   0.293  15.678  0.2406 -0.2337 -0.0002
 6734SOL     OW31660   2.129   4.520  14.260  0.6464  0.2576  0.5858
 6734SOL    HW131661   2.205   4.468  14.286  0.4296  0.8839  2.4856
 6734SOL    HW231662   2.089   4.522  14.346  3.2325  1.5581  1.7663
 6735SOL     OW31663   0.844   2.286   5.613  0.1488  0.1618  0.1541
 6735SOL    HW131664   0.799   2.261   5.533 -0.1142  0.9550  0.0557
 6735SOL    HW231665   0.930   2.315   5.584 -0.8348  2.2120 -0.6874
 6736SOL     OW31666   1.461   0.473   7.999 -0.0275 -0.0458  0.2574
 6736SOL    HW131667   1.389   0.417   7.971 -0.4087  0.9054 -0.6953
 6736SOL    HW231668   1.414   0.554   8.014 -0.2705 -0.2734  0.7001
 6737SOL     OW31669   0.096   1.602  10.919  0.2267 -0.4649  0.2610
 6737SOL    HW131670   0.011   1.601  10.875 -0.1645 -0.1154  1.0186
 6737SOL    HW231671   0.152   1.575  10.845  3.1567  0.4294  2.1417
 6738SOL     OW31672   2.898   0.056  13.310 -0.1223  0.1136 -0.5302
 6738SOL    HW131673   2.850   0.048  13.392 -0.0937 -0.8985 -0.6058
 6738SOL    HW231674   2.830   0.078  13.246  0.5616  1.6450 -0.7202
 6739SOL     OW31675   1.364   2.263   6.389 -0.6287 -0.4605 -0.8149
 6739SOL    HW131676   1.348   2.175   6.354 -1.0216 -0.0138 -1.7820
 6739SOL    HW231677   1.304   2.260   6.463  0.1075 -1.9512 -0.2822
 6740SOL     OW31678   1.897   1.075   5.522  0.1838 -0.3750  0.0643
 6740SOL    HW131679   1.836   1.079   5.595  0.2161 -0.5801  0.1026
 6740SOL    HW231680   1.860   0.998   5.481 -0.5218 -0.4380  0.8318
 6741SOL     OW31681   2.716   2.938   7.110 -0.1147 -0.0812  0.0897
 6741SOL    HW131682   2.630   2.913   7.076 -1.0984  1.7506  1.1897
 6741SOL    HW231683   2.689   2.941   7.202  1.4054  0.5815  0.5304
 6742SOL     OW31684   0.741   1.780  10.025  0.6304  0.1230 -0.1052
 6742SOL    HW131685   0.724   1.689  10.001  0.2224  0.0385  0.5067
 6742SOL    HW231686   0.663   1.803  10.075 -0.4211  1.0866 -2.2066
 6743SOL     OW31687   0.805   0.490   6.144  0.4346  0.0466 -0.0545
 6743SOL    HW131688   0.722   0.529   6.118  0.4530 -1.4289 -2.3571
 6743SOL    HW231689   0.817   0.548   6.220  2.2226  0.3843 -0.5830
 6744SOL     OW31690   0.330   3.997  12.882 -0.4990 -0.2874 -0.2204
 6744SOL    HW131691   0.318   4.055  12.808  1.6278  0.5774  0.1204
 6744SOL    HW231692   0.326   3.916  12.831  1.9073  0.3920 -1.5052
 6745SOL     OW31693   3.220   1.633   7.140  0.0673  0.1370 -0.1701
 6745SOL    HW131694   3.194   1.616   7.230 -2.0695  0.8667 -0.6489
 6745SOL    HW231695   3.302   1.682   7.148  0.2524 -0.3326  0.8335
 6746SOL     OW31696   2.842   1.563   5.730 -0.3507 -0.6570  0.0280
 6746SOL    HW131697   2.803   1.529   5.649 -1.1580 -0.3551  0.2926
 6746SOL    HW231698   2.800   1.509   5.796  0.5810 -1.4209 -0.0189
 6747SOL     OW31699   4.190   3.042   9.634  0.1134  0.0290 -0.0828
 6747SOL    HW131700   4.242   3.119   9.613 -0.4059  0.2896 -0.4216
 6747SOL    HW231701   4.107   3.087   9.652 -0.0658 -1.0461  1.8736
 6748SOL     OW31702   2.588   3.831   8.772 -0.0703 -0.1783  0.4891
 6748SOL    HW131703   2.534   3.881   8.833  0.8412 -0.2957  1.3788
 6748SOL    HW231704   2.542   3.848   8.689  3.4712 -1.8267 -1.7895
 6749SOL     OW31705   1.163   3.161   6.683 -0.7675 -0.0444 -0.6292
 6749SOL    HW131706   1.257   3.166   6.701 -1.1365  0.4674  1.1026
 6749SOL    HW231707   1.130   3.159   6.773 -2.7886 -3.6343 -1.4472
 6750SOL     OW31708   3.683   4.614  11.061  0.0251  0.5711  0.1842
 6750SOL    HW131709   3.761   4.561  11.048 -0.2647  0.3268 -0.5463
 6750SOL    HW231710   3.718   4.677  11.125  0.5124 -0.4809  0.9419
 6751SOL     OW31711   3.148   0.083   8.716  0.0516 -0.2237  0.5483
 6751SOL    HW131712   3.182   0.113   8.632 -0.3613  1.4050  0.9770
 6751SOL    HW231713   3.207   0.009   8.733 -0.3435 -0.2698  1.6828
 6752SOL     OW31714   3.575   4.393   1.939  0.7428  0.3780 -0.0180
 6752SOL    HW131715   3.482   4.400   1.959  0.6234 -1.0797 -0.0986
 6752SOL    HW231716   3.583   4.300   1.959 -2.2737 -0.0530 -0.8086
 6753SOL     OW31717   3.877   0.307   6.807  0.0217 -0.0551 -0.2658
 6753SOL    HW131718   3.897   0.310   6.901 -1.6317 -2.2194  0.1619
 6753SOL    HW231719   3.948   0.247   6.782  0.8895 -0.0654  2.1424
 6754SOL     OW31720   1.727   4.036   2.702 -0.1875 -0.4715  0.2188
 6754SOL    HW131721   1.690   3.978   2.769 -1.4405  0.7706  0.5909
 6754SOL    HW231722   1.723   3.978   2.625 -2.3197 -0.4201  0.2822
 6755SOL     OW31723   0.395   2.061   6.350 -0.2696 -0.4173  0.1101
 6755SOL    HW131724   0.372   1.991   6.290 -1.9429  2.1510 -2.2133
 6755SOL    HW231725   0.309   2.081   6.388 -1.2778  2.0854 -3.5217
 6756SOL     OW31726   0.016   3.294   7.450  0.3346  0.3383  0.3456
 6756SOL    HW131727   0.025   3.324   7.540 -1.9682  2.4291 -0.1199
 6756SOL    HW231728   0.101   3.323   7.417 -0.1241  0.1475 -1.0178
 6757SOL     OW31729   4.541   4.333   2.118 -0.3342 -0.5357  0.1171
 6757SOL    HW131730   4.562   4.240   2.114 -3.1910 -1.2834  2.9167
 6757SOL    HW231731   4.620   4.362   2.163 -1.2693 -0.0004  1.4389
 6758SOL     OW31732   2.116   4.501   7.766  0.0454 -0.4231 -0.5770
 6758SOL    HW131733   2.105   4.533   7.677 -0.2079 -0.4266 -0.5454
 6758SOL    HW231734   2.026   4.507   7.797  0.0072  0.8060 -0.9269
 6759SOL     OW31735   4.525   1.416   6.550 -0.0769 -0.3180 -0.4589
 6759SOL    HW131736   4.608   1.421   6.502 -0.5830 -0.5419 -1.3586
 6759SOL    HW231737   4.540   1.488   6.612 -2.0311 -1.2361  1.0933
 6760SOL     OW31738   3.468   0.217   8.773 -0.3316  0.2783  0.0548
 6760SOL    HW131739   3.425   0.213   8.859  0.4218  0.1288  0.4277
 6760SOL    HW231740   3.532   0.147   8.787 -0.5754 -0.3909 -2.2898
 6761SOL     OW31741   2.812   4.302   9.400 -0.4560  0.7856  0.4263
 6761SOL    HW131742   2.731   4.277   9.446  0.9656 -0.8137  2.0768
 6761SOL    HW231743   2.780   4.305   9.310  0.0782  1.6445  0.2758
 6762SOL     OW31744   2.686   0.320   2.091  0.0964 -0.1588 -0.0859
 6762SOL    HW131745   2.651   0.243   2.046  0.2920  0.1688 -0.8174
 6762SOL    HW231746   2.611   0.362   2.133  1.0619  1.3537  0.1340
 6763SOL     OW31747   3.683   3.110   0.162  0.0922  0.3431  0.9343
 6763SOL    HW131748   3.656   3.164   0.236  0.0195 -1.2711  2.0877
 6763SOL    HW231749   3.763   3.157   0.142  0.0513 -0.3566 -0.8473
 6764SOL     OW31750   2.671   4.693   3.690 -0.0747 -0.5081 -0.3448
 6764SOL    HW131751   2.579   4.702   3.715 -0.3701  0.2867 -1.7315
 6764SOL    HW231752   2.661   4.635   3.615 -0.5529 -1.2881  0.3166
 6765SOL     OW31753   0.301   1.536   2.337  0.0971 -0.2843 -0.2279
 6765SOL    HW131754   0.281   1.596   2.266 -0.7293  0.0107  0.2612
 6765SOL    HW231755   0.381   1.580   2.367 -0.8899  2.2694 -1.3758
 6766SOL     OW31756   3.977   3.840   4.951  0.1641  0.5395  0.4244
 6766SOL    HW131757   4.009   3.756   4.983 -0.8434 -1.2399 -3.2670
 6766SOL    HW231758   4.061   3.881   4.930  1.1140 -1.4437  0.3118
 6767SOL     OW31759   2.285   4.484   4.521 -0.0086 -0.0685  0.3467
 6767SOL    HW131760   2.283   4.391   4.543  0.7831 -0.3134 -0.5987
 6767SOL    HW231761   2.191   4.496   4.534 -0.0454  1.1077 -0.9817
 6768SOL     OW31762   0.256   1.588  15.544  0.7308  0.2315 -0.2773
 6768SOL    HW131763   0.282   1.560  15.632 -0.9519  1.1078  0.5129
 6768SOL    HW231764   0.310   1.667  15.531  1.0389 -0.0179 -0.5047
 6769SOL     OW31765   0.275   4.035   9.028 -0.6858  0.2401  0.5837
 6769SOL    HW131766   0.319   4.109   9.070 -2.4844  0.9983  1.1284
 6769SOL    HW231767   0.331   3.961   9.050  1.3536  1.8222  0.8270
 6770SOL     OW31768   0.685   4.115   6.999 -0.9320 -0.2025  0.3874
 6770SOL    HW131769   0.684   4.206   6.969 -1.7050  0.2396  1.7715
 6770SOL    HW231770   0.682   4.066   6.916  0.0057  0.9663 -0.3365
 6771SOL     OW31771   0.406   1.807  13.564  0.3494  0.1606  0.1202
 6771SOL    HW131772   0.443   1.781  13.649  3.0149  0.6646 -0.8824
 6771SOL    HW231773   0.457   1.887  13.551  0.3354  0.0645 -0.5012
 6772SOL     OW31774   0.627   4.333  15.661  0.1595 -0.5417 -0.1378
 6772SOL    HW131775   0.573   4.254  15.655  1.3521 -1.1527 -2.7424
 6772SOL    HW231776   0.657   4.358  15.574  2.4366  0.6615  0.9841
 6773SOL     OW31777   4.086   3.379  10.299 -0.4464  0.7892  0.4212
 6773SOL    HW131778   4.072   3.469  10.269 -0.5548  1.3605  2.2247
 6773SOL    HW231779   4.037   3.330  10.233  0.2103  0.7415 -0.0347
 6774SOL     OW31780   4.091   3.125  11.899  0.2727 -0.8494  0.4537
 6774SOL    HW131781   4.097   3.188  11.827  0.4836  1.4475  2.4749
 6774SOL    HW231782   4.035   3.168  11.963  2.9917  1.4587  1.3069
 6775SOL     OW31783   3.116   4.721   0.587 -0.2710  0.2558  0.0465
 6775SOL    HW131784   3.117   4.643   0.642  2.8108 -1.0327 -1.8162
 6775SOL    HW231785   3.071   0.052   0.650 -1.8286 -0.3058 -0.5837
 6776SOL     OW31786   3.167   0.321  12.673 -0.4657 -0.2276 -0.6362
 6776SOL    HW131787   3.097   0.293  12.732  1.9423 -0.1909  2.2555
 6776SOL    HW231788   3.142   0.413  12.668  0.3750 -0.0142 -1.0039
 6777SOL     OW31789   3.804   1.557  15.484  0.1741 -0.3811  0.0093
 6777SOL    HW131790   3.782   1.575  15.393  1.7385  4.0938  0.5314
 6777SOL    HW231791   3.897   1.538  15.471  0.2357  0.6787 -1.0668
 6778SOL     OW31792   3.778   3.354   2.177  0.0872 -0.5458 -0.7961
 6778SOL    HW131793   3.775   3.415   2.103  1.7119 -0.0076 -0.4035
 6778SOL    HW231794   3.758   3.272   2.132  0.8923  0.5742 -3.1444
 6779SOL     OW31795   2.525   4.508  16.025 -0.2325 -0.7797  0.2295
 6779SOL    HW131796   2.587   4.540  16.091 -1.4920  0.6207  0.7443
 6779SOL    HW231797   2.539   4.414  16.028 -1.6641 -1.0441 -1.4392
 6780SOL     OW31798   4.549   3.654   6.305  0.1971 -0.0606  0.0073
 6780SOL    HW131799   4.609   3.685   6.373 -1.0137  3.9640 -0.7395
 6780SOL    HW231800   4.570   3.561   6.303 -1.1481 -0.3365 -1.0180
 6781SOL     OW31801   4.688   0.240  14.984 -0.2835 -0.4673 -0.2135
 6781SOL    HW131802   4.709   0.200  15.068 -0.2871  0.8935  0.4238
 6781SOL    HW231803   4.659   0.324  15.019  1.3086 -0.4034  0.9342
 6782SOL     OW31804   0.450   3.387  13.839 -0.1279  0.5887 -0.3226
 6782SOL    HW131805   0.416   3.301  13.865 -0.3955  1.0439  0.8266
 6782SOL    HW231806   0.411   3.442  13.907 -0.6171 -0.8239  0.5459
 6783SOL     OW31807   4.593   1.474   9.021  0.0770  0.1590 -0.2209
 6783SOL    HW131808   4.608   1.534   8.948  0.1306 -0.1972 -0.5013
 6783SOL    HW231809   4.511   1.507   9.057 -1.1896 -1.6735 -1.5053
 6784SOL     OW31810   1.789   2.837   6.674 -0.2652  0.1464 -0.5092
 6784SOL    HW131811   1.881   2.849   6.699 -0.3381  0.4201 -0.3710
 6784SOL    HW231812   1.758   2.915   6.720  0.5995 -0.0478  0.3933
 6785SOL     OW31813   2.678   1.368  14.393 -0.2916 -0.0191 -0.1609
 6785SOL    HW131814   2.668   1.285  14.440  0.8911  1.3196  2.4734
 6785SOL    HW231815   2.718   1.335  14.312 -2.3329 -0.2491 -1.0678
 6786SOL     OW31816   0.539   4.245  16.010 -0.7742 -0.0969  0.2910
 6786SOL    HW131817   0.572   4.163  15.975 -0.0271  1.0905 -1.8419
 6786SOL    HW231818   0.615   4.294  16.040 -0.1621 -1.2681  0.6138
 6787SOL     OW31819   4.619   3.514   3.692 -0.1293  0.2510 -0.0893
 6787SOL    HW131820   4.602   3.472   3.607  0.8061 -1.8903  0.8047
 6787SOL    HW231821   4.678   3.586   3.671 -1.6536  1.7336  0.6439
 6788SOL     OW31822   2.080   2.480   5.983 -0.4817  0.1062  0.0017
 6788SOL    HW131823   2.116   2.404   6.029 -0.7515  0.0492  0.1162
 6788SOL    HW231824   2.136   2.476   5.905 -0.9456  0.8754 -0.3672
 6789SOL     OW31825   4.512   3.470   1.341  0.2528  0.2680  0.7873
 6789SOL    HW131826   4.572   3.501   1.409  1.3739 -0.3214  0.0616
 6789SOL    HW231827   4.537   3.530   1.270 -0.1207  0.6136  0.9426
 6790SOL     OW31828   2.491   1.488  16.803  0.4995 -0.5413 -0.0283
 6790SOL    HW131829   2.443   1.536  16.735  0.6206  1.6949  1.4907
 6790SOL    HW231830   2.433   1.513  16.874  1.3284  1.0397  0.1110
 6791SOL     OW31831   1.662   0.466   6.109  0.1987 -0.1343  0.2168
 6791SOL    HW131832   1.610   0.450   6.030  0.1550 -0.2386  0.2673
 6791SOL    HW231833   1.702   0.550   6.086 -1.8031 -0.4442 -4.4903
 6792SOL     OW31834   3.592   2.540   6.722 -0.1136 -0.1475  0.2172
 6792SOL    HW131835   3.585   2.617   6.778  0.2601 -1.3441  1.9216
 6792SOL    HW231836   3.506   2.523   6.683 -0.2196 -0.1899  0.4699
 6793SOL     OW31837   1.610   1.640   4.815 -0.3224 -0.2478  0.2943
 6793SOL    HW131838   1.657   1.712   4.775  0.2480 -1.1106 -0.5885
 6793SOL    HW231839   1.655   1.649   4.898  1.0530 -2.2415 -0.2275
 6794SOL     OW31840   3.223   4.447   9.901  0.1471  0.6587  0.1047
 6794SOL    HW131841   3.175   4.442   9.984 -2.7732  0.4213 -1.6378
 6794SOL    HW231842   3.154   4.477   9.843  1.4042 -2.7326 -3.1108
 6795SOL     OW31843   1.740   1.755  12.316 -0.7859  0.1205 -0.3278
 6795SOL    HW131844   1.770   1.673  12.355  0.2172 -0.0931 -1.5607
 6795SOL    HW231845   1.818   1.807  12.299 -1.1858 -0.4854 -3.9052
 6796SOL     OW31846   0.331   3.538   8.010  0.2692 -0.4755  0.5429
 6796SOL    HW131847   0.381   3.516   7.931 -0.0300  1.3206 -0.1426
 6796SOL    HW231848   0.352   3.467   8.070  1.8183 -1.2938 -0.9696
 6797SOL     OW31849   4.295   3.531  16.892  0.5116 -0.1056 -0.0634
 6797SOL    HW131850   4.374   3.584  16.902 -0.3431  0.8708  1.4399
 6797SOL    HW231851   4.263   3.541  16.802 -0.8676 -1.4328  0.2729
 6798SOL     OW31852   4.259   3.279  10.481  0.0568 -0.5998 -0.5462
 6798SOL    HW131853   4.213   3.308  10.402  2.1235  0.5062 -1.3284
 6798SOL    HW231854   4.345   3.274  10.440  0.1688  3.5247 -0.7951
 6799SOL     OW31855   1.453   0.944   6.485 -0.4521  0.0103  0.3402
 6799SOL    HW131856   1.544   0.970   6.477  0.5764 -3.2544  1.6570
 6799SOL    HW231857   1.458   0.898   6.569  1.0328  0.2673  0.3835
 6800SOL     OW31858   0.564   4.076  15.622  0.8316 -0.0996  0.1611
 6800SOL    HW131859   0.486   4.063  15.568 -0.3654  2.2001  1.3496
 6800SOL    HW231860   0.605   3.992  15.600 -1.1025 -1.5263  2.1093
 6801SOL     OW31861   2.954   2.473  13.773  0.1970  1.0274  0.0309
 6801SOL    HW131862   2.871   2.502  13.735  1.1204  2.9498 -0.5154
 6801SOL    HW231863   2.928   2.459  13.864 -0.6908  0.9900 -0.2294
 6802SOL     OW31864   2.097   4.061   7.297  0.9011 -0.5286 -0.7440
 6802SOL    HW131865   2.137   4.148   7.307 -0.1855 -0.3142  1.8437
 6802SOL    HW231866   2.158   4.000   7.338  1.1753 -0.0710 -0.4610
 6803SOL     OW31867   2.020   0.764   6.715  0.1600  0.0294 -0.3640
 6803SOL    HW131868   2.084   0.694   6.730 -0.0511 -0.0110  0.3514
 6803SOL    HW231869   2.056   0.808   6.639 -1.3377  0.3941 -0.8711
 6804SOL     OW31870   3.825   2.953   5.929  0.0456  0.4004  0.8692
 6804SOL    HW131871   3.899   2.913   5.974  1.3069  1.7703  0.0142
 6804SOL    HW231872   3.824   3.039   5.971  1.1907  1.5744 -1.4999
 6805SOL     OW31873   0.367   1.761   6.567 -0.0593  0.0112  0.1261
 6805SOL    HW131874   0.304   1.748   6.496  0.2156 -0.7879  0.0298
 6805SOL    HW231875   0.327   1.708   6.636  0.2813 -1.4797 -0.8412
 6806SOL     OW31876   1.178   3.666   7.811  0.0348 -0.3587 -0.1442
 6806SOL    HW131877   1.133   3.596   7.763 -0.0919  0.9328 -1.9165
 6806SOL    HW231878   1.250   3.676   7.748  0.8331  0.3027  0.8636
 6807SOL     OW31879   3.910   3.723   1.894 -0.0269 -0.2809 -0.1434
 6807SOL    HW131880   3.943   3.718   1.983 -3.9882  4.5167  1.5886
 6807SOL    HW231881   3.816   3.730   1.912 -0.3014 -2.2825 -0.6960
 6808SOL     OW31882   0.119   0.786   1.758 -0.7265  0.6387  0.0568
 6808SOL    HW131883   0.114   0.767   1.664  0.7376 -1.7669  0.4702
 6808SOL    HW231884   0.030   0.821   1.759 -1.0296 -0.1119 -0.3834
 6809SOL     OW31885   0.329   2.596   1.586  0.1069 -0.3809  0.2122
 6809SOL    HW131886   0.242   2.557   1.577 -1.0132  1.9906  0.8453
 6809SOL    HW231887   0.294   2.684   1.580 -0.3550 -0.6477 -1.0348
 6810SOL     OW31888   4.333   0.896   6.474  0.2129  0.0617 -0.3847
 6810SOL    HW131889   4.325   0.850   6.390 -2.5293 -1.4544  0.7006
 6810SOL    HW231890   4.246   0.932   6.487  0.7856  0.4988  2.0878
 6811SOL     OW31891   4.467   3.379   7.540  0.8867  0.2942  0.3247
 6811SOL    HW131892   4.550   3.425   7.525  0.1808  1.4596 -0.0520
 6811SOL    HW231893   4.493   3.288   7.549  1.4334  0.2135 -2.0647
 6812SOL     OW31894   2.307   3.887   3.199  0.2042 -0.0818  0.0415
 6812SOL    HW131895   2.379   3.829   3.227  1.5825  0.9465 -1.4070
 6812SOL    HW231896   2.347   3.974   3.205  0.4148 -0.1091 -1.0572
 6813SOL     OW31897   0.637   1.471   9.032 -0.1615 -0.1512  0.5278
 6813SOL    HW131898   0.732   1.464   9.023 -0.1747  1.9490 -1.3489
 6813SOL    HW231899   0.625   1.465   9.127 -1.3554 -2.3278  0.2291
 6814SOL     OW31900   0.571   1.233   6.402 -0.6187 -0.0243  0.2421
 6814SOL    HW131901   0.615   1.305   6.446 -0.0855 -0.8502  1.0593
 6814SOL    HW231902   0.625   1.166   6.443  0.5482  0.8187  0.0850
 6815SOL     OW31903   1.555   0.934   2.397 -0.5251  0.4352  0.0416
 6815SOL    HW131904   1.544   0.941   2.492  0.6230  1.2320  0.1152
 6815SOL    HW231905   1.547   0.843   2.369 -2.5675  0.3332  0.9247
 6816SOL     OW31906   0.672   1.523  10.003 -0.2008  0.4674 -0.2005
 6816SOL    HW131907   0.660   1.433   9.975  1.3424  0.8100 -1.9754
 6816SOL    HW231908   0.709   1.504  10.089 -5.4866 -2.1827  1.4858
 6817SOL     OW31909   0.515   3.985  14.884  0.4366 -0.2903 -0.1709
 6817SOL    HW131910   0.530   4.076  14.861  2.1367 -1.0160 -1.9100
 6817SOL    HW231911   0.478   3.987  14.973 -0.6506  0.7658 -0.6474
 6818SOL     OW31912   2.958   0.278  10.830  0.2270 -0.2032 -0.1574
 6818SOL    HW131913   2.909   0.267  10.912  0.8193  2.3850  0.5309
 6818SOL    HW231914   3.029   0.338  10.853 -1.1093  1.4712 -0.4104
 6819SOL     OW31915   1.129   2.498   2.206  0.0342  0.1371 -0.3076
 6819SOL    HW131916   1.142   2.412   2.165  3.7286  0.9336 -0.7940
 6819SOL    HW231917   1.075   2.551   2.148 -2.0712 -2.4957 -0.7547
 6820SOL     OW31918   1.499   4.600   9.108  0.2667 -0.2404  0.1181
 6820SOL    HW131919   1.421   4.645   9.140 -0.6289 -0.9626 -1.0322
 6820SOL    HW231920   1.465   4.512   9.096  0.4939 -0.4856  1.3682
 6821SOL     OW31921   2.261   3.176   2.167 -0.2471  0.0976  0.2546
 6821SOL    HW131922   2.216   3.104   2.123 -2.4888 -0.2286  3.1216
 6821SOL    HW231923   2.258   3.246   2.101 -0.3887 -0.4736 -0.3491
 6822SOL     OW31924   1.404   2.227  15.001 -0.1706 -0.1392 -0.7263
 6822SOL    HW131925   1.389   2.158  15.066 -1.5768  0.3075 -0.5693
 6822SOL    HW231926   1.393   2.312  15.043 -0.1183 -0.9831  0.9728
 6823SOL     OW31927   0.301   0.398   3.847  0.0235 -0.3557 -0.2308
 6823SOL    HW131928   0.382   0.443   3.823 -0.2289  1.2021  1.8610
 6823SOL    HW231929   0.336   0.313   3.877  2.4641  0.5346 -0.5431
 6824SOL     OW31930   4.683   2.586   6.889  0.4689  0.4059 -0.0716
 6824SOL    HW131931   4.590   2.579   6.867  0.5177 -0.9713  0.1347
 6824SOL    HW231932   4.699   2.504   6.937  1.1492  0.0109 -0.9731
 6825SOL     OW31933   0.750   1.058  10.880  0.6907 -0.1516  0.0141
 6825SOL    HW131934   0.744   1.129  10.944 -0.9250 -0.4757  0.2072
 6825SOL    HW231935   0.664   1.015  10.884 -0.8467  2.8436 -1.0218
 6826SOL     OW31936   2.468   4.489   2.521 -0.5541  0.3368  0.3854
 6826SOL    HW131937   2.403   4.517   2.456  0.7542  3.6155  0.4925
 6826SOL    HW231938   2.461   4.394   2.519 -2.1951  0.4127  2.0018
 6827SOL     OW31939   1.667   3.620   4.202  0.1886  0.1363 -0.5148
 6827SOL    HW131940   1.669   3.525   4.193  1.0474  0.2695 -1.8781
 6827SOL    HW231941   1.668   3.657   4.113  0.7745  0.0312 -0.5556
 6828SOL     OW31942   4.079   3.008   1.949  0.1667  0.4647 -0.3997
 6828SOL    HW131943   4.018   3.041   2.015 -2.2385 -3.9663 -0.3828
 6828SOL    HW231944   4.167   3.033   1.976 -0.9066  0.9979  2.6038
 6829SOL     OW31945   4.699   2.389  11.666 -0.1533 -0.0164 -0.1941
 6829SOL    HW131946   4.620   2.431  11.698 -0.1368  0.2204 -0.4704
 6829SOL    HW231947   4.723   2.330  11.738  0.2713 -1.0775 -1.2021
 6830SOL     OW31948   0.782   0.997   9.367  0.3481  0.2810 -0.1405
 6830SOL    HW131949   0.828   0.935   9.424  0.6368  0.9212  0.3249
 6830SOL    HW231950   0.740   1.048   9.436  0.7043 -0.4388  0.6110
 6831SOL     OW31951   0.824   4.361   5.867 -0.1598 -0.8256 -0.2987
 6831SOL    HW131952   0.807   4.331   5.956  1.7409 -3.5847 -0.8556
 6831SOL    HW231953   0.789   4.450   5.876  0.6257 -0.4993 -0.4251
 6832SOL     OW31954   3.935   0.054  16.921  0.0132 -0.0820  0.2439
 6832SOL    HW131955   3.916   0.028  17.011  0.3205  2.0855  0.9286
 6832SOL    HW231956   3.850   0.061  16.878  0.8144 -0.4692 -1.4243
 6833SOL     OW31957   4.433   3.426   6.468 -1.0959  0.1530 -0.9601
 6833SOL    HW131958   4.390   3.511   6.458 -1.5345  0.0601  0.1411
 6833SOL    HW231959   4.473   3.415   6.382 -1.0441  1.8011 -1.1609
 6834SOL     OW31960   4.714   1.621  15.533 -0.8701  0.7139  0.2399
 6834SOL    HW131961   0.079   1.632  15.564 -0.3292 -0.1427 -1.0186
 6834SOL    HW231962   0.000   1.600  15.440  0.0809 -1.0036  0.7451
 6835SOL     OW31963   0.329   1.535   0.935  0.0419 -0.2019  0.1683
 6835SOL    HW131964   0.335   1.565   1.026 -0.5239 -2.4729  0.9391
 6835SOL    HW231965   0.289   1.610   0.892  1.3034  1.2958  1.5853
 6836SOL     OW31966   3.849   4.439   1.882 -0.1029  0.1571  0.4109
 6836SOL    HW131967   3.862   4.487   1.800 -0.9537  0.7852  0.6338
 6836SOL    HW231968   3.759   4.407   1.886  0.3995 -1.3041 -0.3651
 6837SOL     OW31969   1.696   1.854   5.770 -0.1320  0.2027 -0.4248
 6837SOL    HW131970   1.693   1.765   5.735  1.9895 -0.3559  0.7884
 6837SOL    HW231971   1.789   1.847   5.792 -0.1669  1.3257  0.0964
 6838SOL     OW31972   4.459   2.825   5.242  0.3455 -0.2394 -0.0236
 6838SOL    HW131973   4.524   2.850   5.308  2.2593  0.7602 -2.2679
 6838SOL    HW231974   4.458   2.730   5.251 -2.6558 -0.1529  0.5072
 6839SOL     OW31975   4.307   2.479  11.043 -0.6762  0.4074 -0.3564
 6839SOL    HW131976   4.268   2.447  11.124 -1.7898 -2.7204 -2.1017
 6839SOL    HW231977   4.380   2.535  11.070 -0.8514  0.2037  0.5349
 6840SOL     OW31978   2.919   2.805   7.443 -0.1561  0.4510 -0.4021
 6840SOL    HW131979   2.905   2.752   7.365 -0.5163  0.1709 -0.1477
 6840SOL    HW231980   3.014   2.815   7.442 -0.2671  1.6038 -0.3323
 6841SOL     OW31981   0.482   2.382   0.137 -0.2300 -0.5748 -0.3233
 6841SOL    HW131982   0.425   2.398   0.213 -1.6485  1.4833 -1.7962
 6841SOL    HW231983   0.434   2.420   0.064  1.3628 -1.7729 -1.9854
 6842SOL     OW31984   0.021   1.939   3.649  0.1735 -0.5120  0.0907
 6842SOL    HW131985   4.690   1.985   3.711 -1.4870 -1.7491 -0.4919
 6842SOL    HW231986   0.091   1.902   3.703  1.4634  1.2386 -0.3389
 6843SOL     OW31987   0.187   0.813   8.881  0.0908 -0.0851  0.3110
 6843SOL    HW131988   0.217   0.899   8.910  0.0908  1.0043 -2.9132
 6843SOL    HW231989   0.271   0.785   8.843 -0.0025  0.3272 -0.1941
 6844SOL     OW31990   0.473   0.429   4.227  0.5114 -0.0026  0.0230
 6844SOL    HW131991   0.382   0.405   4.246 -0.1434  2.0838 -0.4292
 6844SOL    HW231992   0.465   0.523   4.209  0.0479  0.2100  1.3357
 6845SOL     OW31993   2.340   2.119   9.729 -0.0812 -0.0075 -0.0976
 6845SOL    HW131994   2.408   2.056   9.704 -0.5040 -0.3689 -0.3220
 6845SOL    HW231995   2.289   2.073   9.796 -1.8893 -0.1474 -1.5737
 6846SOL     OW31996   0.809   2.140   2.701 -0.5380  0.3595 -0.4955
 6846SOL    HW131997   0.773   2.176   2.782 -2.2818 -0.8636 -0.7188
 6846SOL    HW231998   0.741   2.160   2.637 -1.0389  3.0429  0.9067
 6847SOL     OW31999   1.085   3.589  16.666 -0.0232 -0.3718  0.2982
 6847SOL    HW132000   1.118   3.569  16.578  2.0712  0.2564  0.9266
 6847SOL    HW232001   1.154   3.626  16.721 -0.8998 -1.6110  2.2353
 6848SOL     OW32002   0.419   3.034   4.723  0.4532  0.2619 -0.5667
 6848SOL    HW132003   0.479   3.036   4.798 -1.1403 -0.7158  0.7206
 6848SOL    HW232004   0.373   3.118   4.732  2.2078  0.8048  3.3822
 6849SOL     OW32005   3.821   2.533   4.241 -0.6917 -0.3709 -0.4513
 6849SOL    HW132006   3.852   2.533   4.151  1.4656 -0.5912  0.2904
 6849SOL    HW232007   3.864   2.456   4.279  0.2573  1.1498  1.5683
 6850SOL     OW32008   0.360   2.004   4.205  0.6872  0.2748 -0.5540
 6850SOL    HW132009   0.423   2.076   4.214  0.3087  0.7028 -1.2574
 6850SOL    HW232010   0.301   2.030   4.276  1.8787 -0.4359  0.6796
 6851SOL     OW32011   0.106   3.996  15.406  0.0754  0.1152  0.2722
 6851SOL    HW132012   0.039   3.980  15.340  1.3967 -0.7272 -0.8607
 6851SOL    HW232013   0.066   3.952  15.481 -1.7509  2.3877  0.6349
 6852SOL     OW32014   2.108   0.915   7.669 -0.0584  0.3661  0.1768
 6852SOL    HW132015   2.091   0.886   7.579  1.1816  1.4388 -0.4072
 6852SOL    HW232016   2.026   0.892   7.713 -1.1306 -0.0172 -2.0071
 6853SOL     OW32017   2.475   3.863   5.309 -0.3573  0.3780  0.6159
 6853SOL    HW132018   2.486   3.900   5.397 -0.5618  1.6725  0.1048
 6853SOL    HW232019   2.461   3.939   5.252 -1.3961 -0.4124 -0.1594
 6854SOL     OW32020   4.725   3.555   8.874 -0.5957 -0.2385  0.4941
 6854SOL    HW132021   0.090   3.536   8.847 -0.5226  0.9346 -0.1068
 6854SOL    HW232022   0.018   3.640   8.913  1.9747 -0.5124 -0.1167
 6855SOL     OW32023   4.182   4.102  13.207 -0.0340  0.0409 -0.0519
 6855SOL    HW132024   4.165   4.141  13.293 -0.6923 -0.1163 -0.1127
 6855SOL    HW232025   4.277   4.095  13.199 -0.2710 -3.7577  0.4466
 6856SOL     OW32026   4.600   0.272   3.914  0.3901 -0.5876 -0.0950
 6856SOL    HW132027   4.656   0.291   3.839  0.7378 -1.8700 -0.1581
 6856SOL    HW232028   4.663   0.247   3.981  2.6092  3.8713 -0.5185
 6857SOL     OW32029   3.245   0.130   8.477  0.2358  0.0208  0.3819
 6857SOL    HW132030   3.321   0.077   8.451  0.0975  0.4461 -0.9016
 6857SOL    HW232031   3.180   0.091   8.418  0.7170 -0.1741 -0.0228
 6858SOL     OW32032   1.100   1.759   5.310  0.6920  0.3828 -0.0130
 6858SOL    HW132033   1.177   1.746   5.255  0.6746  1.4873 -0.3022
 6858SOL    HW232034   1.064   1.670   5.309 -0.0736  0.6959 -0.2131
 6859SOL     OW32035   1.414   3.166   2.740 -0.1649  0.1970 -0.1481
 6859SOL    HW132036   1.504   3.131   2.741  0.0997  0.8406 -1.4788
 6859SOL    HW232037   1.354   3.092   2.737 -0.1297  0.1491  0.2979
 6860SOL     OW32038   0.171   3.630   3.940 -0.1231  0.2432 -0.1095
 6860SOL    HW132039   0.090   3.673   3.911  0.7526  1.7781 -0.3070
 6860SOL    HW232040   0.188   3.571   3.867  0.6014  1.0031 -0.5559
 6861SOL     OW32041   3.760   2.742   0.124  0.1171 -0.0329  0.0158
 6861SOL    HW132042   3.764   2.666   0.181 -0.3147 -0.7856 -0.9588
 6861SOL    HW232043   3.815   2.801   0.177 -1.4200  1.7354 -0.3535
 6862SOL     OW32044   2.890   4.275   6.651  0.4567  0.5959 -0.3715
 6862SOL    HW132045   2.944   4.198   6.664 -1.8440 -0.4037  3.0053
 6862SOL    HW232046   2.933   4.342   6.704  0.3493  0.6786 -0.3896
 6863SOL     OW32047   2.205   4.382  14.533 -0.1601 -0.1024 -0.3130
 6863SOL    HW132048   2.143   4.359  14.602 -3.7732  0.8263 -3.2184
 6863SOL    HW232049   2.258   4.304  14.516  0.5828  0.3365 -0.0266
 6864SOL     OW32050   1.018   3.165   2.291 -0.1260 -0.3284 -0.1058
 6864SOL    HW132051   1.030   3.234   2.226 -0.7065  1.0892  1.2937
 6864SOL    HW232052   0.983   3.101   2.229 -1.2344  0.2478 -0.0618
 6865SOL     OW32053   3.254   3.356  10.408 -0.1730 -0.0948 -0.8946
 6865SOL    HW132054   3.234   3.405  10.328  2.4413  0.9374 -0.9225
 6865SOL    HW232055   3.348   3.353  10.389 -0.0484 -2.9245  0.2489
 6866SOL     OW32056   2.439   3.534   7.784 -0.1217 -0.0646 -0.4059
 6866SOL    HW132057   2.381   3.460   7.800 -0.8413  0.3748 -0.9653
 6866SOL    HW232058   2.431   3.578   7.869 -2.3029 -1.1708 -0.0388
 6867SOL     OW32059   4.055   3.728   5.753  0.7479 -0.0828  0.1725
 6867SOL    HW132060   4.072   3.698   5.663 -2.2975 -0.7293 -0.1581
 6867SOL    HW232061   3.962   3.714   5.768  0.7245  1.7036  1.7013
 6868SOL     OW32062   0.774   4.187   8.138  0.3343 -0.6579 -0.4281
 6868SOL    HW132063   0.739   4.104   8.106 -0.1100 -0.2207 -1.0828
 6868SOL    HW232064   0.798   4.216   8.050  0.9909  0.5833  0.1455
 6869SOL     OW32065   2.355   1.869   7.484  0.3936 -0.2519  0.3061
 6869SOL    HW132066   2.439   1.916   7.486 -1.1097  2.4528 -0.6390
 6869SOL    HW232067   2.349   1.843   7.576  0.1308  4.0389  1.4716
 6870SOL     OW32068   2.296   2.803   1.448 -0.6151  0.6030 -0.6377
 6870SOL    HW132069   2.377   2.783   1.494 -0.5783  0.8825 -0.5811
 6870SOL    HW232070   2.272   2.723   1.403  2.3350 -1.2010  1.0037
 6871SOL     OW32071   2.180   1.685  15.970 -0.1945  0.5025 -0.1961
 6871SOL    HW132072   2.150   1.642  16.050 -0.5852  1.1237 -0.0144
 6871SOL    HW232073   2.272   1.656  15.976 -0.5803 -0.3232  1.7587
 6872SOL     OW32074   4.245   1.746   2.169  0.2372 -0.3127 -0.3056
 6872SOL    HW132075   4.300   1.778   2.240  0.2618 -1.1181  0.0459
 6872SOL    HW232076   4.171   1.708   2.215  0.1818 -1.0696 -1.0140
 6873SOL     OW32077   1.569   2.252   1.932 -0.7357  0.1889  0.3306
 6873SOL    HW132078   1.514   2.179   1.904 -1.6337  0.7419  0.6127
 6873SOL    HW232079   1.528   2.325   1.885 -2.8449 -1.9223 -1.0862
 6874SOL     OW32080   1.631   0.335   6.338 -0.0618 -0.2472 -0.4666
 6874SOL    HW132081   1.554   0.386   6.363 -0.0116 -0.6179  0.4740
 6874SOL    HW232082   1.649   0.380   6.256 -1.3132 -0.0926 -0.6582
 6875SOL     OW32083   1.835   1.413   2.922  0.0284 -0.3049  0.4747
 6875SOL    HW132084   1.819   1.494   2.873 -0.7928 -0.7336  0.0281
 6875SOL    HW232085   1.788   1.352   2.864 -2.4248  1.9613  0.0269
 6876SOL     OW32086   3.531   2.185   2.992  0.4039 -0.4947  0.5016
 6876SOL    HW132087   3.572   2.198   2.906  2.0201  1.1768  1.5145
 6876SOL    HW232088   3.606   2.202   3.049 -0.0332 -0.7105  1.1496
 6877SOL     OW32089   2.840   1.485   6.498  0.0573 -0.2457 -0.0189
 6877SOL    HW132090   2.868   1.504   6.588 -1.3676 -0.0096  0.3772
 6877SOL    HW232091   2.891   1.405   6.488  0.0945 -0.2903  0.5388
 6878SOL     OW32092   2.457   4.230   4.481  0.0534  0.2359 -0.2614
 6878SOL    HW132093   2.541   4.234   4.434  1.2595  0.3201  1.9274
 6878SOL    HW232094   2.409   4.151   4.455  2.0650 -1.0897  0.0209
 6879SOL     OW32095   2.330   1.753   5.898  0.5335 -0.7846  0.0631
 6879SOL    HW132096   2.397   1.757   5.966 -0.6266  2.1812  1.0522
 6879SOL    HW232097   2.244   1.731   5.932 -0.6625 -0.3520 -2.6228
 6880SOL     OW32098   0.995   1.704   1.812  0.3666  0.3681  0.2562
 6880SOL    HW132099   1.014   1.749   1.894  0.4103 -1.7957  1.4269
 6880SOL    HW232100   1.062   1.637   1.823 -0.4819 -0.4508  0.4113
 6881SOL     OW32101   3.275   3.229  14.827  0.2581  0.0387 -0.2072
 6881SOL    HW132102   3.210   3.298  14.822 -0.3834 -0.6153 -0.8585
 6881SOL    HW232103   3.320   3.262  14.905  0.1096 -1.8661  0.6942
 6882SOL     OW32104   4.385   2.839   2.250  0.3538 -0.7404  0.7135
 6882SOL    HW132105   4.326   2.763   2.246 -0.9058  0.3089 -0.6982
 6882SOL    HW232106   4.344   2.902   2.190 -0.0529 -1.2843  0.4111
 6883SOL     OW32107   3.663   2.722   2.399  0.3215 -0.4652  0.5967
 6883SOL    HW132108   3.605   2.663   2.351  0.4774 -0.8097  0.8329
 6883SOL    HW232109   3.605   2.798   2.411  1.7164  0.5816  0.7519
 6884SOL     OW32110   2.751   1.556   8.993 -0.1349  0.1373 -0.3894
 6884SOL    HW132111   2.741   1.588   9.083 -0.4882 -2.2102  0.4328
 6884SOL    HW232112   2.842   1.530   9.003  0.7394  3.5157  0.3648
 6885SOL     OW32113   3.707   1.938   6.283 -0.2195  0.4170 -0.0179
 6885SOL    HW132114   3.752   1.878   6.224 -1.2272  0.8741 -1.2884
 6885SOL    HW232115   3.669   1.875   6.344  0.4885 -0.5954 -0.6310
 6886SOL     OW32116   2.798   4.117   3.971 -0.0050  0.1351  0.3466
 6886SOL    HW132117   2.709   4.150   3.959 -0.1955 -0.1999  0.8559
 6886SOL    HW232118   2.817   4.082   3.884 -1.1526 -1.6446  0.8153
 6887SOL     OW32119   2.102   3.879   6.628 -0.9475 -0.1395  0.1401
 6887SOL    HW132120   2.195   3.901   6.633 -1.2088  0.5107  2.3176
 6887SOL    HW232121   2.112   3.803   6.571 -1.0052 -0.7787  0.9871
 6888SOL     OW32122   1.433   1.928  12.429  0.1303 -0.0366 -0.2507
 6888SOL    HW132123   1.354   1.972  12.397  0.1383  0.2469  0.1142
 6888SOL    HW232124   1.485   2.006  12.447 -1.2542  0.7213  0.4802
 6889SOL     OW32125   3.185   0.765   1.715 -0.3389  0.3605 -0.1753
 6889SOL    HW132126   3.127   0.782   1.789 -0.4674  0.4625 -0.2999
 6889SOL    HW232127   3.137   0.702   1.660  1.6758 -0.1129 -1.4256
 6890SOL     OW32128   0.262   3.052   1.749  0.3534 -0.8536 -0.3419
 6890SOL    HW132129   0.272   2.969   1.702  0.4853  0.0163 -1.8586
 6890SOL    HW232130   0.175   3.043   1.788 -0.3019 -0.2532 -1.6495
 6891SOL     OW32131   0.941   0.647   8.983  0.3705  0.0069 -0.1242
 6891SOL    HW132132   1.013   0.584   8.985  0.6885  0.3329 -1.5979
 6891SOL    HW232133   0.975   0.707   8.917 -0.2952  0.4845 -0.0402
 6892SOL     OW32134   3.848   1.369   2.994  0.2756  0.1534  0.1613
 6892SOL    HW132135   3.885   1.456   3.005  1.2452 -0.3451  0.8582
 6892SOL    HW232136   3.829   1.343   3.085  0.4578  0.5662  0.3161
 6893SOL     OW32137   2.400   1.914   5.145 -0.2253 -1.1852  0.0195
 6893SOL    HW132138   2.394   1.964   5.064  0.9417 -2.6714 -0.9688
 6893SOL    HW232139   2.433   1.987   5.199 -0.6229 -1.7301  0.9929
 6894SOL     OW32140   4.367   4.094  10.221  0.2390 -0.2943 -0.0456
 6894SOL    HW132141   4.370   4.163  10.287 -0.2152  1.5708 -1.9688
 6894SOL    HW232142   4.308   4.042  10.276 -0.6104  0.6237 -0.1106
 6895SOL     OW32143   2.538   4.079   2.139 -0.1856  0.6039 -0.7668
 6895SOL    HW132144   2.611   4.039   2.188 -1.4493 -0.5864  0.1526
 6895SOL    HW232145   2.570   4.121   2.059 -1.8852  0.4573 -1.5200
 6896SOL     OW32146   2.058   1.409   9.011  0.1281  0.7572  0.9041
 6896SOL    HW132147   2.014   1.416   8.927 -2.3389 -3.2610  1.8422
 6896SOL    HW232148   1.990   1.381   9.072 -1.0868 -1.4456 -1.4691
 6897SOL     OW32149   0.262   4.382   1.677 -0.3797 -0.2067  0.4132
 6897SOL    HW132150   0.222   4.468   1.673  1.4350  0.6298 -0.1689
 6897SOL    HW232151   0.190   4.320   1.673 -1.0686  0.7291 -1.3610
 6898SOL     OW32152   3.213   2.600   6.386 -0.3167  0.0198  0.0096
 6898SOL    HW132153   3.245   2.603   6.476 -1.3445 -2.8941  0.4575
 6898SOL    HW232154   3.295   2.566   6.349 -0.4829  1.1960 -1.4291
 6899SOL     OW32155   0.380   0.549   8.274 -0.1538  0.0612  0.5912
 6899SOL    HW132156   0.426   0.594   8.203 -1.9534  2.1764  0.7526
 6899SOL    HW232157   0.448   0.548   8.341  0.5282 -4.3679 -0.1951
 6900SOL     OW32158   3.113   3.752   8.719  0.0448  0.4476  0.1369
 6900SOL    HW132159   3.039   3.806   8.693  0.7441  0.2290 -2.3240
 6900SOL    HW232160   3.087   3.736   8.810  0.3453 -0.3611  0.0870
 6901SOL     OW32161   1.606   2.768  14.427  0.0607 -0.2692  0.0074
 6901SOL    HW132162   1.612   2.803  14.339  1.9402  1.9536  0.9994
 6901SOL    HW232163   1.683   2.711  14.423  0.1377 -0.1249 -0.5644
 6902SOL     OW32164   1.367   1.890   1.228  0.4059  0.3577  0.2273
 6902SOL    HW132165   1.302   1.959   1.212  0.2328  0.5832  1.8758
 6902SOL    HW232166   1.305   1.821   1.253  2.7084 -1.4159  0.9974
 6903SOL     OW32167   1.824   4.061   4.337  0.3096  0.1291 -0.4537
 6903SOL    HW132168   1.823   4.048   4.243  1.1024 -1.7364 -0.1940
 6903SOL    HW232169   1.905   4.016   4.360  0.7442  2.1436  2.0128
 6904SOL     OW32170   4.225   3.490   5.911 -0.4194 -0.3448 -0.1055
 6904SOL    HW132171   4.157   3.467   5.848  0.5072 -0.9542 -0.8774
 6904SOL    HW232172   4.206   3.432   5.985 -0.0195  2.3188  2.0968
 6905SOL     OW32173   3.207   3.554   5.423 -0.2941  0.0024  0.3250
 6905SOL    HW132174   3.303   3.549   5.430 -0.3651  2.0705  2.8101
 6905SOL    HW232175   3.192   3.627   5.362  0.6238 -1.3662 -1.5443
 6906SOL     OW32176   1.355   0.638   4.797 -0.1265  0.0759 -0.1908
 6906SOL    HW132177   1.306   0.677   4.869  1.8501  1.5982  0.3393
 6906SOL    HW232178   1.359   0.548   4.831  0.6009  0.9606  2.0803
 6907SOL     OW32179   3.809   1.964  16.571  0.0657 -0.4672  0.0807
 6907SOL    HW132180   3.830   1.913  16.492 -1.8761 -0.7625 -0.2576
 6907SOL    HW232181   3.877   1.934  16.631 -0.5334 -1.0285  0.4777
 6908SOL     OW32182   0.164   1.392   5.718  0.4801 -0.4132  0.3580
 6908SOL    HW132183   0.137   1.451   5.648 -1.8086  0.8349  2.2835
 6908SOL    HW232184   0.259   1.401   5.720  0.1894  2.4752  1.2033
 6909SOL     OW32185   3.164   3.801   7.988 -0.3650  0.2529  0.6907
 6909SOL    HW132186   3.132   3.711   7.987  2.0057 -0.5785  0.1301
 6909SOL    HW232187   3.083   3.839   8.022 -0.3797  0.5442  0.3299
 6910SOL     OW32188   3.403   3.716   5.917  0.2124 -1.0087  0.1120
 6910SOL    HW132189   3.417   3.807   5.891  3.8354 -0.9728  2.2015
 6910SOL    HW232190   3.308   3.706   5.920  0.1957 -0.9453 -0.3002
 6911SOL     OW32191   2.451   2.733  10.742  0.1729 -0.1136  0.0675
 6911SOL    HW132192   2.547   2.733  10.744  0.1723 -0.9461 -0.2571
 6911SOL    HW232193   2.443   2.788  10.664  0.1141 -1.9031 -1.1688
 6912SOL     OW32194   1.384   1.390   1.536 -0.8640 -0.1022  0.3493
 6912SOL    HW132195   1.467   1.363   1.496 -1.7961 -0.3906 -1.4161
 6912SOL    HW232196   1.367   1.469   1.484 -2.0480 -1.6179 -1.5987
 6913SOL     OW32197   0.766   4.546   9.324  0.2208 -0.6767  0.5133
 6913SOL    HW132198   0.763   4.637   9.353 -1.9027 -0.9975  1.2829
 6913SOL    HW232199   0.830   4.515   9.388  0.1196 -0.7444  0.5807
 6914SOL     OW32200   1.952   2.277  12.113  0.4091  0.0441  0.0836
 6914SOL    HW132201   2.029   2.282  12.170 -0.1990  0.9700  0.8230
 6914SOL    HW232202   1.989   2.310  12.031 -0.4273 -1.6820 -0.9885
 6915SOL     OW32203   2.245   4.171   3.509 -0.3035  0.3505 -0.3004
 6915SOL    HW132204   2.173   4.206   3.457  0.3054  1.7806 -0.1818
 6915SOL    HW232205   2.236   4.078   3.488 -0.3688  0.9107 -2.7554
 6916SOL     OW32206   3.193   0.062   4.667 -0.2637  0.5190 -0.0174
 6916SOL    HW132207   3.110   0.020   4.645  0.5937 -2.1741  1.8189
 6916SOL    HW232208   3.254   0.013   4.613 -2.3032  2.0804 -3.7023
 6917SOL     OW32209   1.058   1.978   9.339  0.6204 -0.0339  0.2517
 6917SOL    HW132210   1.056   1.889   9.303 -0.8374  0.0182  0.2305
 6917SOL    HW232211   0.966   1.989   9.360  0.3676 -0.1330 -0.7640
 6918SOL     OW32212   1.189   2.893   5.803 -0.5082 -0.2791 -0.1834
 6918SOL    HW132213   1.220   2.924   5.887  0.3147  0.2356 -0.6787
 6918SOL    HW232214   1.171   2.800   5.821  0.0227 -0.4102 -0.3186
 6919SOL     OW32215   3.013   1.883   2.672  0.5215  0.7923  0.7761
 6919SOL    HW132216   3.091   1.855   2.625 -1.5807 -0.5909 -1.8799
 6919SOL    HW232217   3.059   1.935   2.738  3.5752 -0.4622 -0.3803
 6920SOL     OW32218   1.630   3.805   2.911  0.0254 -0.0616  0.0293
 6920SOL    HW132219   1.725   3.803   2.917 -0.0915 -0.4588  1.7680
 6920SOL    HW232220   1.616   3.713   2.934 -2.3401  0.9617  2.7030
 6921SOL     OW32221   2.944   0.709   7.169 -0.0578  0.2054 -0.2093
 6921SOL    HW132222   2.967   0.622   7.136 -0.8183  0.1278 -0.5514
 6921SOL    HW232223   2.950   0.763   7.090  2.9898  3.4037  2.2124
 6922SOL     OW32224   3.146   4.385  10.211  0.0138 -0.3172 -0.3267
 6922SOL    HW132225   3.055   4.384  10.179 -0.1731 -0.2926  0.2058
 6922SOL    HW232226   3.135   4.318  10.278 -3.6967  1.2232  0.6321
 6923SOL     OW32227   0.553   1.630   6.276 -0.7393  0.4566 -0.3594
 6923SOL    HW132228   0.502   1.579   6.340 -1.0677  0.1476 -0.8710
 6923SOL    HW232229   0.495   1.701   6.248 -1.2515 -0.1720 -0.8787
 6924SOL     OW32230   2.134   2.087   0.206  0.3286  0.7391 -0.1437
 6924SOL    HW132231   2.040   2.080   0.191  0.1544 -0.7869  1.6997
 6924SOL    HW232232   2.157   2.179   0.194 -1.9056  1.4755  1.3568
 6925SOL     OW32233   3.368   4.288  11.354 -0.1268  0.2697  0.1888
 6925SOL    HW132234   3.418   4.341  11.292  0.0751  0.6110  0.6378
 6925SOL    HW232235   3.391   4.202  11.318 -3.3692  0.4398 -2.2458
 6926SOL     OW32236   3.114   3.116   4.835  0.2170  0.0303  0.3969
 6926SOL    HW132237   3.088   3.135   4.744  0.6651 -0.3906  0.1787
 6926SOL    HW232238   3.206   3.141   4.839 -0.5524  2.9634 -0.1783
 6927SOL     OW32239   2.384   3.333  15.809 -0.0301 -0.1058 -0.3790
 6927SOL    HW132240   2.359   3.332  15.716 -2.3099 -2.5843  0.2869
 6927SOL    HW232241   2.351   3.416  15.845  1.7463 -0.1611  1.3803
 6928SOL     OW32242   2.842   4.652   6.044 -0.1693  0.0107  0.1771
 6928SOL    HW132243   2.766   4.667   5.988 -0.6830  0.2784  0.9408
 6928SOL    HW232244   2.815   4.570   6.086  1.9162 -1.3011 -1.0209
 6929SOL     OW32245   0.795   2.616   8.319 -0.2278  0.3396  0.0817
 6929SOL    HW132246   0.856   2.684   8.348  1.0131 -0.1172 -1.4686
 6929SOL    HW232247   0.840   2.541   8.356  0.3452  0.7220  0.1601
 6930SOL     OW32248   2.627   3.215   1.118 -0.2525  0.1990  0.3343
 6930SOL    HW132249   2.615   3.292   1.173  1.2000  0.2580  0.5609
 6930SOL    HW232250   2.539   3.178   1.112 -1.7014  3.4430  1.4393
 6931SOL     OW32251   1.142   2.141   5.205  0.4972 -0.1618 -0.2511
 6931SOL    HW132252   1.181   2.103   5.126 -1.4577  0.1441 -1.3854
 6931SOL    HW232253   1.219   2.196   5.219 -0.2750  0.8438  0.1363
 6932SOL     OW32254   1.661   4.140   8.325  0.9072  0.2009  0.2236
 6932SOL    HW132255   1.628   4.055   8.353 -3.3103  1.3553 -1.3004
 6932SOL    HW232256   1.587   4.176   8.277  0.3535  0.2459  1.1126
 6933SOL     OW32257   1.672   3.116   2.784 -0.1353  0.0503  0.1344
 6933SOL    HW132258   1.755   3.069   2.783 -0.7766 -1.1330  2.3986
 6933SOL    HW232259   1.703   3.183   2.846  0.4794  1.0281 -1.2457
 6934SOL     OW32260   2.119   0.388   4.411  0.1307 -0.0551  0.0894
 6934SOL    HW132261   2.103   0.459   4.349  1.5038  0.5463  0.4126
 6934SOL    HW232262   2.103   0.315   4.351 -0.5920 -0.6599  1.0164
 6935SOL     OW32263   3.288   3.512   9.013 -0.6108 -0.0283 -0.0874
 6935SOL    HW132264   3.366   3.461   8.989 -0.1963  0.4884  0.1412
 6935SOL    HW232265   3.225   3.487   8.946 -0.8667  1.5707 -0.4468
 6936SOL     OW32266   2.621   3.043   7.950  0.1094  0.5726 -0.2380
 6936SOL    HW132267   2.647   3.085   7.868  4.0994  0.1233  0.8304
 6936SOL    HW232268   2.536   3.004   7.928  1.4232 -2.6584  0.5839
 6937SOL     OW32269   1.631   1.490   7.508  0.0217 -0.2430  0.0419
 6937SOL    HW132270   1.556   1.461   7.560  1.4064 -1.5179  1.2968
 6937SOL    HW232271   1.678   1.550   7.566 -0.2751 -1.2761  1.3559
 6938SOL     OW32272   0.126   1.587   3.942  0.2109 -0.0185  0.2570
 6938SOL    HW132273   0.095   1.514   3.888  0.1285 -0.4036  0.8165
 6938SOL    HW232274   0.213   1.552   3.963 -1.1127 -2.7365  1.2224
 6939SOL     OW32275   4.672   3.122   4.768 -0.0745 -0.3449 -0.1013
 6939SOL    HW132276   4.674   3.185   4.840  1.7650 -1.1256  0.5293
 6939SOL    HW232277   4.582   3.092   4.762 -0.8607  2.0403 -0.2298
 6940SOL     OW32278   4.077   4.347   2.484 -0.5378 -0.1725  0.5664
 6940SOL    HW132279   4.105   4.320   2.572  1.4071 -0.3702 -0.1102
 6940SOL    HW232280   4.102   4.438   2.501  1.0691 -0.1314 -2.0078
 6941SOL     OW32281   3.645   4.234  10.576  0.1830 -0.1663 -0.1061
 6941SOL    HW132282   3.725   4.286  10.585 -0.4280  0.8383 -0.4002
 6941SOL    HW232283   3.612   4.278  10.497  2.0594 -0.2977 -0.9628
 6942SOL     OW32284   0.847   2.693  11.725 -0.5344  0.0974 -0.2213
 6942SOL    HW132285   0.760   2.661  11.748 -1.2753  1.7425 -0.7188
 6942SOL    HW232286   0.822   2.748  11.651  2.5535  1.2378 -0.4225
 6943SOL     OW32287   0.684   4.027   4.451 -0.5442  0.1822  1.2147
 6943SOL    HW132288   0.652   4.018   4.541 -0.1337  0.9459  1.4375
 6943SOL    HW232289   0.611   3.986   4.403 -0.1137  1.5147 -0.5976
 6944SOL     OW32290   3.736   1.680  11.907  0.4557 -0.3502  0.1222
 6944SOL    HW132291   3.785   1.663  11.987 -0.8236 -1.1409  0.7370
 6944SOL    HW232292   3.668   1.613  11.896 -2.9863  3.1378 -0.1494
 6945SOL     OW32293   2.820   0.984  14.376 -0.6937 -0.3404  0.2398
 6945SOL    HW132294   2.771   1.028  14.445  0.7455 -0.6368  1.4562
 6945SOL    HW232295   2.835   0.894  14.405  1.2778  0.5868  2.1507
 6946SOL     OW32296   0.874   1.638   8.339  0.1446 -0.9175 -0.4305
 6946SOL    HW132297   0.847   1.725   8.312  2.3471  0.2213  1.0346
 6946SOL    HW232298   0.968   1.636   8.322  0.3021  1.6263  0.1626
 6947SOL     OW32299   3.030   2.511  15.062  0.4664  0.0313 -0.3940
 6947SOL    HW132300   2.974   2.588  15.075  1.1977  0.4614  0.2042
 6947SOL    HW232301   2.960   2.445  15.065  1.0937 -0.5839  0.6720
 6948SOL     OW32302   0.047   1.776   4.550 -0.0455  0.0791 -0.1874
 6948SOL    HW132303   0.115   1.786   4.616 -0.7516 -0.5253  0.6263
 6948SOL    HW232304   4.722   1.857   4.553 -0.5138 -0.2699  1.4488
 6949SOL     OW32305   1.792   2.603  17.593  0.1663  0.1542 -0.4725
 6949SOL    HW132306   1.873   2.655  17.594  0.2886 -0.0329 -0.8194
 6949SOL    HW232307   1.815   2.526  17.645  1.2995  0.0962 -1.0537
 6950SOL     OW32308   0.717   0.657   3.666  0.2908 -0.2946  0.1958
 6950SOL    HW132309   0.723   0.696   3.579 -0.3629 -0.0631  0.2528
 6950SOL    HW232310   0.809   0.657   3.693  0.6535  0.2253 -1.0527
 6951SOL     OW32311   1.496   0.770   0.195  0.5751  0.4840  0.1371
 6951SOL    HW132312   1.424   0.715   0.224  0.0451  0.3068 -1.4889
 6951SOL    HW232313   1.548   0.725   0.127 -1.8430 -0.3126 -1.1877
 6952SOL     OW32314   3.001   2.443   3.651 -0.1945  0.2554  0.1099
 6952SOL    HW132315   3.089   2.466   3.680 -0.1832  0.2748  0.0591
 6952SOL    HW232316   2.986   2.514   3.588 -0.0170  0.6759  0.5438
 6953SOL     OW32317   1.320   2.126   4.825  0.3582 -0.3536 -0.4449
 6953SOL    HW132318   1.283   2.211   4.847  0.3637  0.0632 -2.0111
 6953SOL    HW232319   1.409   2.132   4.860  1.0482 -2.6261 -1.7866
 6954SOL     OW32320   2.304   4.198   7.627  0.0238  0.3674 -0.2706
 6954SOL    HW132321   2.340   4.282   7.659 -0.0215  0.9189 -1.6774
 6954SOL    HW232322   2.219   4.235   7.604 -0.1746 -0.0082 -0.1302
 6955SOL     OW32323   3.971   0.760   3.721 -0.2753 -0.2473 -0.4143
 6955SOL    HW132324   3.938   0.730   3.636  2.3129 -2.7846 -0.4937
 6955SOL    HW232325   4.001   0.678   3.760 -0.0940  0.0815  0.1411
 6956SOL     OW32326   4.586   4.055   7.340 -0.2446 -0.2825  0.1616
 6956SOL    HW132327   4.671   4.014   7.328  0.4872  1.1571  0.4351
 6956SOL    HW232328   4.542   3.984   7.387 -1.5104  0.3264 -0.0862
 6957SOL     OW32329   3.461   1.235   8.697  0.0404  0.3908  0.0598
 6957SOL    HW132330   3.391   1.172   8.681 -0.6981  1.6446 -1.7478
 6957SOL    HW232331   3.470   1.243   8.792  2.0831  0.3592 -0.1422
 6958SOL     OW32332   3.151   2.503   5.160 -0.1943 -0.0556  0.6023
 6958SOL    HW132333   3.184   2.438   5.221 -1.4008  0.2678  1.5976
 6958SOL    HW232334   3.231   2.534   5.117 -1.6458 -0.1417 -2.2021
 6959SOL     OW32335   0.810   1.613   1.651 -0.4757 -0.0190  0.3086
 6959SOL    HW132336   0.867   1.658   1.714 -0.3106 -0.3661  0.4044
 6959SOL    HW232337   0.871   1.556   1.606 -0.3651  1.9931 -2.0818
 6960SOL     OW32338   0.619   3.033   1.316 -0.3825 -0.1446 -0.1491
 6960SOL    HW132339   0.579   3.083   1.245  0.5949  0.5631 -0.2064
 6960SOL    HW232340   0.614   2.946   1.279 -1.0823 -0.4301  0.6126
 6961SOL     OW32341   4.514   3.299   9.857 -0.0726 -0.1588  0.3349
 6961SOL    HW132342   4.565   3.237   9.910 -0.9054 -1.5955 -0.5366
 6961SOL    HW232343   4.557   3.382   9.876  0.6794 -0.3206 -0.6779
 6962SOL     OW32344   0.037   1.640  12.225  0.4353  0.1899  0.7668
 6962SOL    HW132345   0.001   1.554  12.205  4.2960 -0.7771 -1.9371
 6962SOL    HW232346   0.028   1.655  12.319 -2.1760  2.2939  0.1563
 6963SOL     OW32347   2.111   4.038   0.320 -0.5991 -0.7212 -0.0148
 6963SOL    HW132348   2.054   4.021   0.245  0.7100  0.3780 -1.2550
 6963SOL    HW232349   2.193   4.036   0.270  1.4567 -1.8282  3.3967
 6964SOL     OW32350   2.191   0.043   6.146 -0.0121  0.2046 -0.3923
 6964SOL    HW132351   2.119   0.098   6.176  0.3835  0.5014  0.0133
 6964SOL    HW232352   2.195   4.697   6.210 -1.2541  0.4166 -0.0686
 6965SOL     OW32353   2.369   3.520   3.327 -0.3088  0.0452 -0.6970
 6965SOL    HW132354   2.406   3.606   3.307  1.1148 -0.1275  1.2681
 6965SOL    HW232355   2.384   3.510   3.421 -0.0133 -0.1199 -0.7605
 6966SOL     OW32356   1.352   1.499   2.840 -0.5142  0.3617  0.9122
 6966SOL    HW132357   1.257   1.487   2.844 -0.7309  1.4599 -0.7018
 6966SOL    HW232358   1.361   1.594   2.850  2.6867  0.2359 -0.6284
 6967SOL     OW32359   1.094   2.040   7.726 -0.2668  0.2541  0.2442
 6967SOL    HW132360   1.034   2.107   7.759 -1.6000 -0.5153 -0.6437
 6967SOL    HW232361   1.053   2.017   7.643  1.5515  4.1795 -1.7211
 6968SOL     OW32362   4.271   2.133  12.126 -0.1837 -0.0468 -1.1264
 6968SOL    HW132363   4.188   2.177  12.147 -1.1450 -1.7233 -1.3671
 6968SOL    HW232364   4.325   2.197  12.081  0.6306  0.4520  0.5847
 6969SOL     OW32365   3.829   1.787  15.641 -0.2290  0.4702 -0.3761
 6969SOL    HW132366   3.809   1.712  15.585  3.6162 -1.6443  1.0832
 6969SOL    HW232367   3.761   1.766  15.704  0.7709  2.6047  1.4105
 6970SOL     OW32368   3.966   2.338   2.832  0.1607  0.1073 -0.1915
 6970SOL    HW132369   3.924   2.421   2.853  0.0740  0.2186 -0.7961
 6970SOL    HW232370   3.973   2.303   2.921  0.7248  1.0320  0.1252
 6971SOL     OW32371   4.367   1.064   5.015 -0.2084 -0.5108  0.1705
 6971SOL    HW132372   4.405   1.146   4.983 -2.3890  0.6320  0.5220
 6971SOL    HW232373   4.441   1.050   5.075  1.8317 -1.1668 -2.4778
 6972SOL     OW32374   1.790   0.787  11.643  0.1351  0.3371  0.0050
 6972SOL    HW132375   1.880   0.757  11.630  0.2685  0.8813 -0.3556
 6972SOL    HW232376   1.809   0.853  11.710 -2.2369  1.6756 -0.6271
 6973SOL     OW32377   0.343   0.829   3.186  0.0118  0.5832 -0.1275
 6973SOL    HW132378   0.257   0.790   3.168  0.0043  0.8292 -0.6231
 6973SOL    HW232379   0.403   0.755   3.198  0.1348  0.6891 -0.0858
 6974SOL     OW32380   2.517   3.443   6.075  0.4608 -0.2144 -1.0059
 6974SOL    HW132381   2.534   3.382   6.147 -1.6033 -0.5475 -0.8155
 6974SOL    HW232382   2.527   3.528   6.117  1.6651 -0.7076 -0.3173
 6975SOL     OW32383   1.240   2.177  17.101  0.5501 -0.0751 -0.2268
 6975SOL    HW132384   1.273   2.184  17.191 -0.7058  0.4474  0.2020
 6975SOL    HW232385   1.304   2.123  17.056 -0.5459  0.1782 -2.0913
 6976SOL     OW32386   0.696   0.652  16.427  0.1550 -0.2365  0.1682
 6976SOL    HW132387   0.614   0.639  16.381 -0.6039 -0.0047  1.4676
 6976SOL    HW232388   0.666   0.696  16.506  2.4143  0.0425  0.8920
 6977SOL     OW32389   1.968   2.267   8.349 -0.3053  0.7656  0.1953
 6977SOL    HW132390   1.972   2.290   8.442  0.1917 -0.1727  0.4096
 6977SOL    HW232391   1.956   2.172   8.353 -2.4225  1.1580  3.2572
 6978SOL     OW32392   4.311   1.547   5.044 -0.1621 -0.0302 -0.8951
 6978SOL    HW132393   4.253   1.506   5.108  0.4436 -0.3221 -0.5417
 6978SOL    HW232394   4.366   1.474   5.016 -1.0930 -0.5474 -1.3679
 6979SOL     OW32395   0.737   4.498   8.041  0.2087 -0.3563 -0.8210
 6979SOL    HW132396   0.704   4.408   8.050 -0.1468 -0.0545  0.8373
 6979SOL    HW232397   0.821   4.500   7.995  0.4333 -0.3684 -0.4146
 6980SOL     OW32398   4.530   2.070   6.838 -0.2567  0.4241  0.0103
 6980SOL    HW132399   4.446   2.031   6.861 -0.2756  0.7810  0.5445
 6980SOL    HW232400   4.487   2.139   6.787  1.5805 -1.0393 -3.4982
 6981SOL     OW32401   2.743   4.640  11.180 -0.1674 -0.5094 -0.4600
 6981SOL    HW132402   2.710   4.688  11.255 -2.2103 -1.0712 -0.9747
 6981SOL    HW232403   2.830   4.618  11.213 -0.3509  2.4163  1.8778
 6982SOL     OW32404   1.789   1.677   0.927 -0.5728  0.1726 -0.0510
 6982SOL    HW132405   1.802   1.751   0.987  0.1387  1.3827 -1.7041
 6982SOL    HW232406   1.859   1.687   0.864 -1.5851 -0.1553 -1.2336
 6983SOL     OW32407   4.301   2.013   2.699 -0.2861  0.1038  0.3886
 6983SOL    HW132408   4.221   2.062   2.681  0.3920  0.9449 -0.3561
 6983SOL    HW232409   4.282   1.974   2.784 -0.6052 -0.1101  0.2172
 6984SOL     OW32410   0.956   3.763   8.136 -0.3049  0.0112 -0.6337
 6984SOL    HW132411   0.904   3.684   8.125 -2.4509  1.4758 -0.9453
 6984SOL    HW232412   1.047   3.733   8.133 -0.9017 -1.6000 -2.0729
 6985SOL     OW32413   1.676   3.956   5.085  0.1507  0.0747  0.1484
 6985SOL    HW132414   1.683   3.873   5.037  0.4437 -0.3612  0.9365
 6985SOL    HW232415   1.581   3.957   5.089  0.1162  1.6925 -1.2032
 6986SOL     OW32416   0.274   4.235  16.031  0.4484  0.0527 -0.0074
 6986SOL    HW132417   0.264   4.174  15.957  0.9032 -0.5133  0.3963
 6986SOL    HW232418   0.367   4.253  16.015  0.3060  0.6674 -0.1111
 6987SOL     OW32419   3.702   1.268   6.515 -0.0401  0.1247  0.4989
 6987SOL    HW132420   3.694   1.230   6.428  3.4548 -0.3665  0.3684
 6987SOL    HW232421   3.797   1.269   6.533 -0.1318 -3.0362  1.1735
 6988SOL     OW32422   0.741   3.596  15.089 -0.4120 -0.2188  0.5194
 6988SOL    HW132423   0.780   3.683  15.086 -0.2239 -0.3404 -0.6079
 6988SOL    HW232424   0.783   3.572  15.172  0.7293 -0.2677 -0.0724
 6989SOL     OW32425   0.841   3.379   5.296  0.1845  0.0662  0.0719
 6989SOL    HW132426   0.894   3.337   5.364  0.9122  0.3668 -0.3185
 6989SOL    HW232427   0.803   3.296   5.265  1.0447 -1.1986  2.4221
 6990SOL     OW32428   1.289   2.720   8.120  0.1055 -0.2604 -0.6042
 6990SOL    HW132429   1.342   2.792   8.087  0.2960  1.5066  3.6405
 6990SOL    HW232430   1.302   2.738   8.213  0.3009  0.0049 -0.6827
 6991SOL     OW32431   4.052   3.395   4.325  0.1980  0.2404  0.1294
 6991SOL    HW132432   4.032   3.302   4.329  0.6284  0.1148 -0.6105
 6991SOL    HW232433   4.128   3.395   4.266 -0.1990  0.4875 -0.3803
 6992SOL     OW32434   0.698   2.752   5.133  0.5631  0.4697 -0.2399
 6992SOL    HW132435   0.754   2.722   5.062  0.9945 -0.2549  0.3986
 6992SOL    HW232436   0.767   2.764   5.199  0.1355  1.7872 -0.0362
 6993SOL     OW32437   1.600   4.236  15.611  0.3183 -0.1936 -0.4597
 6993SOL    HW132438   1.678   4.225  15.665 -0.8605 -1.1665  1.0474
 6993SOL    HW232439   1.567   4.320  15.644 -0.9935  0.2067 -2.7749
 6994SOL     OW32440   4.072   4.131   5.013  0.3034  0.4976 -0.0485
 6994SOL    HW132441   4.167   4.125   4.999  0.8444  1.9308  3.1061
 6994SOL    HW232442   4.049   4.058   5.071 -0.1331  1.0382  0.4522
 6995SOL     OW32443   2.237   2.090   0.634 -0.1590 -0.1633  0.4527
 6995SOL    HW132444   2.248   1.999   0.609 -0.1047  0.3098 -1.2501
 6995SOL    HW232445   2.282   2.098   0.718 -0.3746  2.9529  0.2746
 6996SOL     OW32446   1.058   4.469   5.760  0.0735 -0.1829  0.2212
 6996SOL    HW132447   0.976   4.435   5.797 -1.0760  1.6133 -0.7099
 6996SOL    HW232448   1.119   4.397   5.777  1.1806  0.5658 -0.5618
 6997SOL     OW32449   1.588   4.344   5.022  0.2460  0.3235  0.0871
 6997SOL    HW132450   1.673   4.345   5.067  1.7599  2.0096 -2.8236
 6997SOL    HW232451   1.554   4.432   5.042 -0.4887 -0.0556  0.5053
 6998SOL     OW32452   1.478   1.909   3.897 -0.1279 -0.1048 -0.5255
 6998SOL    HW132453   1.421   1.866   3.962  0.6408 -1.4688 -0.7548
 6998SOL    HW232454   1.509   1.836   3.844  2.6283  1.0624 -0.4976
 6999SOL     OW32455   1.766   3.192   8.604 -0.0593 -0.2358 -0.4693
 6999SOL    HW132456   1.813   3.134   8.664 -3.2844 -0.2610  1.9808
 6999SOL    HW232457   1.829   3.259   8.577  0.6270 -0.9404 -0.6387
 7000SOL     OW32458   1.935   4.006   1.168  0.1985  0.1796  0.1899
 7000SOL    HW132459   1.955   4.019   1.076  0.4138 -0.1394  0.1898
 7000SOL    HW232460   2.016   3.967   1.201 -0.2026 -0.1281  0.8342
 7001SOL     OW32461   0.801   0.808   8.511 -0.7841 -0.2587 -0.3246
 7001SOL    HW132462   0.828   0.768   8.429  1.1306  1.9997 -0.7814
 7001SOL    HW232463   0.710   0.835   8.499 -0.6204  1.4470  2.2405
 7002SOL     OW32464   2.482   4.623   2.796 -0.4680 -0.0782 -0.1588
 7002SOL    HW132465   2.432   4.544   2.818  0.6089 -1.0994 -1.3257
 7002SOL    HW232466   2.405   4.679   2.792  0.5910  1.6384  3.5243
 7003SOL     OW32467   2.706   4.331   2.544  0.0446  0.2151 -0.3809
 7003SOL    HW132468   2.662   4.416   2.552 -1.4746 -0.8229  2.2000
 7003SOL    HW232469   2.628   4.276   2.533  1.5722 -1.7410 -1.5107
 7004SOL     OW32470   2.734   1.873   0.411 -0.2419 -0.3786 -0.4856
 7004SOL    HW132471   2.704   1.946   0.358  0.1253 -0.3287 -0.6222
 7004SOL    HW232472   2.693   1.895   0.495  0.2049  1.4809 -0.7577
 7005SOL     OW32473   3.398   1.631   2.586  0.0513 -0.6572 -0.0586
 7005SOL    HW132474   3.375   1.557   2.643  2.7079 -1.5678 -0.1933
 7005SOL    HW232475   3.485   1.653   2.621 -0.8030  0.1921  1.5535
 7006SOL     OW32476   1.960   3.830  17.059 -0.1344 -0.4708 -0.1668
 7006SOL    HW132477   1.873   3.792  17.074 -0.3165 -0.2864 -0.7656
 7006SOL    HW232478   1.954   3.917  17.098  2.0622 -0.9296  1.2049
 7007SOL     OW32479   4.332   4.538   6.977 -0.2375 -0.6866  0.7569
 7007SOL    HW132480   4.262   4.475   6.957  2.0182 -2.6693 -0.8281
 7007SOL    HW232481   4.340   4.570   6.887 -3.4533  0.9653  1.0522
 7008SOL     OW32482   2.465   1.702  14.653 -0.0492 -0.4610  0.0673
 7008SOL    HW132483   2.513   1.621  14.635  1.3100  0.6284 -1.2087
 7008SOL    HW232484   2.380   1.660  14.668 -1.0506  1.3110 -0.6949
 7009SOL     OW32485   3.547   4.567   1.421 -0.1895 -0.1162 -0.3660
 7009SOL    HW132486   3.519   4.573   1.512 -2.8795 -1.9828 -1.0841
 7009SOL    HW232487   3.519   4.479   1.396 -0.3951  0.4540 -2.1432
 7010SOL     OW32488   1.188   4.644   8.930  0.3484 -0.0288 -0.1849
 7010SOL    HW132489   1.180   4.558   8.972 -0.6899 -0.1764 -0.6921
 7010SOL    HW232490   1.123   4.690   8.983  1.6117  0.7380  0.6844
 7011SOL     OW32491   0.630   2.385  11.099  0.1902 -0.8714 -0.3039
 7011SOL    HW132492   0.619   2.407  11.191 -1.4689  1.9928 -1.1787
 7011SOL    HW232493   0.664   2.296  11.104 -0.9092 -1.2557  0.3943
 7012SOL     OW32494   3.170   1.416   3.215 -0.4304  0.3008  0.3143
 7012SOL    HW132495   3.227   1.488   3.185  0.3050  0.0069  0.9790
 7012SOL    HW232496   3.121   1.394   3.137  1.3032 -2.4848  0.0465
 7013SOL     OW32497   1.745   0.064   4.401 -0.1080  0.2453  0.0056
 7013SOL    HW132498   1.745   4.701   4.439 -2.1697  0.0685 -0.4494
 7013SOL    HW232499   1.771   0.113   4.479 -0.9016 -1.3840  1.2900
 7014SOL     OW32500   2.265   4.319   2.301  0.3228 -0.2687  0.2407
 7014SOL    HW132501   2.172   4.344   2.299 -0.0230 -1.2500  3.2485
 7014SOL    HW232502   2.294   4.338   2.212 -3.3262  1.2302 -0.6282
 7015SOL     OW32503   0.173   0.515  13.555  0.6572  0.5530  0.2601
 7015SOL    HW132504   0.211   0.593  13.513 -0.1377 -0.5409 -2.4897
 7015SOL    HW232505   0.080   0.538  13.555  1.2490  3.0029 -0.2928
 7016SOL     OW32506   2.577   2.230   6.231 -0.2645 -0.3852 -0.0348
 7016SOL    HW132507   2.525   2.157   6.265 -0.6056  0.0926  0.4669
 7016SOL    HW232508   2.576   2.292   6.303 -1.2623 -0.4221 -0.0163
 7017SOL     OW32509   3.850   1.161   7.581 -0.0400 -0.1004  0.7167
 7017SOL    HW132510   3.886   1.073   7.570 -0.0289 -0.0512  0.3539
 7017SOL    HW232511   3.884   1.181   7.669 -0.0428 -1.6553  1.0714
 7018SOL     OW32512   0.817   4.562  11.868  0.4518  0.3704  0.2491
 7018SOL    HW132513   0.838   4.487  11.813 -0.1198 -0.7132  1.5139
 7018SOL    HW232514   0.823   4.642  11.815 -2.1282  0.0954 -0.4490
 7019SOL     OW32515   2.285   2.899   4.249  0.3155  0.1994  0.0020
 7019SOL    HW132516   2.360   2.943   4.208  1.0127 -1.3571 -0.4012
 7019SOL    HW232517   2.233   2.894   4.168  1.0653 -0.8340 -0.4179
 7020SOL     OW32518   2.189   1.484  13.985 -0.2390 -0.4418  0.1526
 7020SOL    HW132519   2.173   1.479  14.079  1.7705  4.5620  0.7570
 7020SOL    HW232520   2.190   1.388  13.974  1.1988 -0.6616  2.1780
 7021SOL     OW32521   3.634   4.338  10.299 -0.6992  0.2700  0.3834
 7021SOL    HW132522   3.694   4.371  10.232 -2.5690  0.6674 -1.1169
 7021SOL    HW232523   3.564   4.404  10.296  0.5605  1.6656  1.6698
 7022SOL     OW32524   0.747   3.236   8.948  0.1706 -0.0269 -0.9521
 7022SOL    HW132525   0.802   3.163   8.977  0.6215  1.2157  1.3177
 7022SOL    HW232526   0.739   3.286   9.029 -1.2882  0.5116 -1.4232
 7023SOL     OW32527   0.210   3.846  12.683 -0.0980 -0.0689 -0.2238
 7023SOL    HW132528   0.129   3.830  12.732 -0.4531  0.4749 -0.6306
 7023SOL    HW232529   0.182   3.816  12.597  2.0592 -0.1976 -0.8767
 7024SOL     OW32530   2.501   1.123  15.751  1.0453 -0.0062  0.0644
 7024SOL    HW132531   2.415   1.116  15.710  1.3881 -1.7539 -0.3818
 7024SOL    HW232532   2.473   1.167  15.830 -3.2412 -1.9330 -0.3657
 7025SOL     OW32533   1.364   1.175  15.294  0.3847  0.3091 -0.6401
 7025SOL    HW132534   1.399   1.101  15.345 -1.0446  2.0272  2.8595
 7025SOL    HW232535   1.269   1.177  15.302  0.5671  0.6199  1.5445
 7026SOL     OW32536   4.683   2.300  15.990  0.4522 -0.8842  0.2114
 7026SOL    HW132537   4.674   2.250  15.909  0.7375 -1.3506  0.4731
 7026SOL    HW232538   4.595   2.291  16.028  0.4213 -2.2619 -0.1912
 7027SOL     OW32539   1.835   1.970  16.620 -0.1801  0.3285 -0.5734
 7027SOL    HW132540   1.811   2.016  16.701  1.5678 -0.1598  0.2155
 7027SOL    HW232541   1.900   2.029  16.581  0.8818 -0.2740  0.2749
 7028SOL     OW32542   0.522   3.904  11.697 -0.0625 -0.2640  0.0346
 7028SOL    HW132543   0.434   3.897  11.660 -0.2272  3.4805 -0.2585
 7028SOL    HW232544   0.510   3.876  11.787  2.1499 -1.0263  0.1130
 7029SOL     OW32545   0.794   2.401   8.662  0.6070 -0.4385  1.2689
 7029SOL    HW132546   0.819   2.430   8.750 -1.4762  1.9690  1.0716
 7029SOL    HW232547   0.756   2.316   8.685 -1.8071  1.1114  2.8995
 7030SOL     OW32548   0.089   1.817   1.728  0.5659  0.0946 -0.3402
 7030SOL    HW132549   0.036   1.841   1.804  0.6720 -0.3108 -0.1387
 7030SOL    HW232550   0.059   1.879   1.661 -0.5654  1.5259  1.4820
 7031SOL     OW32551   4.588   1.520   2.265 -0.2355 -0.2733 -0.2630
 7031SOL    HW132552   4.626   1.576   2.197  2.0192 -1.7257 -0.2170
 7031SOL    HW232553   4.520   1.571   2.309 -0.7868 -0.0231 -1.4153
 7032SOL     OW32554   2.897   2.307   4.182  0.0084  0.2969  0.3449
 7032SOL    HW132555   2.979   2.339   4.221 -0.9200  2.8530  0.2236
 7032SOL    HW232556   2.867   2.239   4.242  1.9650 -0.7748  0.1254
 7033SOL     OW32557   1.903   2.147   2.510 -0.1751 -0.2752  0.4032
 7033SOL    HW132558   1.887   2.230   2.465 -0.9254  0.6954  2.4603
 7033SOL    HW232559   1.978   2.120   2.456 -0.0228  1.8425 -0.4407
 7034SOL     OW32560   0.839   2.042  17.296  0.3593  0.0357  0.3101
 7034SOL    HW132561   0.872   2.072  17.380  0.4710 -2.2709  1.0943
 7034SOL    HW232562   0.762   1.992  17.326 -0.0582  1.6242  1.8787
 7035SOL     OW32563   2.182   3.933   4.660 -0.1822 -0.0577  0.0317
 7035SOL    HW132564   2.218   3.971   4.739 -0.8618  1.4322 -0.3706
 7035SOL    HW232565   2.260   3.892   4.623  0.8241  2.3210 -0.4416
 7036SOL     OW32566   3.919   2.697   8.124 -0.0687  0.1944  0.1346
 7036SOL    HW132567   3.973   2.771   8.098  0.1286  0.2370  0.6620
 7036SOL    HW232568   3.840   2.701   8.069 -0.7276  1.3695  1.1486
 7037SOL     OW32569   4.268   3.014   3.852  0.0007  0.1731 -0.1943
 7037SOL    HW132570   4.194   3.069   3.827  0.1513  0.6006  0.3141
 7037SOL    HW232571   4.340   3.072   3.831 -0.5883  0.5843 -1.0754
 7038SOL     OW32572   1.022   0.971  16.679  0.6148  0.3124  0.2318
 7038SOL    HW132573   1.102   1.004  16.638 -1.1923  5.2195  0.6938
 7038SOL    HW232574   0.954   1.011  16.625  1.0329  1.9479  0.9374
 7039SOL     OW32575   2.363   2.521   7.750  0.0704 -0.2110 -0.2681
 7039SOL    HW132576   2.344   2.582   7.679 -0.8971 -0.2256 -0.0147
 7039SOL    HW232577   2.326   2.567   7.825  0.0876 -0.7919  0.1010
 7040SOL     OW32578   4.076   2.442   2.036  0.8106  1.3861 -0.1882
 7040SOL    HW132579   4.100   2.353   2.061 -2.9236 -0.2769 -2.6607
 7040SOL    HW232580   4.015   2.428   1.964  1.0811  0.0247 -0.1405
 7041SOL     OW32581   1.665   0.569   5.381  0.4118  0.2050  0.3761
 7041SOL    HW132582   1.721   0.635   5.421 -0.2744  0.7035  0.5017
 7041SOL    HW232583   1.584   0.615   5.361 -0.0855 -0.2461  1.3566
 7042SOL     OW32584   3.405   0.200   9.666  0.1433  0.0868  0.7774
 7042SOL    HW132585   3.487   0.244   9.689  1.9461 -2.7251 -0.2260
 7042SOL    HW232586   3.367   0.258   9.600  1.0993  3.5540  3.2265
 7043SOL     OW32587   4.448   0.179   3.606 -0.0044  0.3970 -0.5649
 7043SOL    HW132588   4.424   0.114   3.540 -3.1292 -1.1335  2.0727
 7043SOL    HW232589   4.540   0.162   3.627 -0.1841  0.8898  0.6128
 7044SOL     OW32590   4.373   3.426   2.959  0.3250  0.2832  0.6311
 7044SOL    HW132591   4.365   3.412   2.864  3.5831  0.5939  0.3041
 7044SOL    HW232592   4.462   3.462   2.962  1.1258 -1.8317  1.9634
 7045SOL     OW32593   3.731   0.480   4.474  0.1691  0.2049  0.5070
 7045SOL    HW132594   3.652   0.471   4.421  0.3992 -0.5286  0.3019
 7045SOL    HW232595   3.731   0.393   4.514  2.0008 -0.3194 -0.6607
 7046SOL     OW32596   4.451   3.572   7.792 -0.0382  0.1854 -0.1985
 7046SOL    HW132597   4.445   3.667   7.803  0.8316  0.5277 -2.4653
 7046SOL    HW232598   4.446   3.566   7.696  2.3034  1.3670 -0.4080
 7047SOL     OW32599   0.878   4.082   6.578  0.5438 -0.5546  0.1499
 7047SOL    HW132600   0.953   4.122   6.622  1.0410  0.2557 -1.4318
 7047SOL    HW232601   0.907   4.002   6.535  1.7137  0.0773 -0.2212
 7048SOL     OW32602   3.104   3.692   6.140  0.4029  0.1996 -0.4852
 7048SOL    HW132603   3.108   3.614   6.195  0.8380 -0.2356 -1.1385
 7048SOL    HW232604   3.101   3.768   6.198  2.3078  0.5438 -0.8465
 7049SOL     OW32605   0.376   4.126   6.228 -0.8355 -0.7236 -0.0328
 7049SOL    HW132606   0.343   4.078   6.152 -0.0276 -1.3116 -0.0123
 7049SOL    HW232607   0.380   4.211   6.184 -0.5995 -0.3076  0.7848
 7050SOL     OW32608   3.348   2.505  12.280  0.0416 -0.1005  0.2095
 7050SOL    HW132609   3.262   2.547  12.286  0.6481  0.8217  2.1889
 7050SOL    HW232610   3.405   2.562  12.228 -0.0689  0.1792  0.3961
 7051SOL     OW32611   3.758   2.870   4.295  0.6896 -0.6478 -0.2467
 7051SOL    HW132612   3.851   2.864   4.275  0.6238  2.0414 -1.4240
 7051SOL    HW232613   3.724   2.871   4.205 -0.7770  0.0525  0.3003
 7052SOL     OW32614   3.744   1.593  15.222  0.5438 -0.8073 -0.5490
 7052SOL    HW132615   3.663   1.641  15.239  0.5922 -1.1329  0.5625
 7052SOL    HW232616   3.725   1.558  15.135 -1.0432 -1.9270  0.2661
 7053SOL     OW32617   4.255   2.910  12.733 -0.2599  0.3954 -0.0254
 7053SOL    HW132618   4.325   2.961  12.693  0.5133 -1.7032 -1.3438
 7053SOL    HW232619   4.243   2.839  12.670  0.5478  0.9867 -0.8384
 7054SOL     OW32620   0.475   4.325   0.117 -0.4818 -0.0003 -0.3358
 7054SOL    HW132621   0.489   4.314   0.211  1.0005  0.6930 -0.4744
 7054SOL    HW232622   0.391   4.278   0.113 -0.7230  0.5214 -1.2234
 7055SOL     OW32623   0.525   1.452  13.314  0.2833  0.2218  0.6644
 7055SOL    HW132624   0.537   1.461  13.219 -0.2621  0.9611  0.6618
 7055SOL    HW232625   0.455   1.387  13.312  1.5833 -1.0658 -3.6646
 7056SOL     OW32626   3.496   2.960   2.714 -0.4205 -0.3307 -0.0310
 7056SOL    HW132627   3.457   2.963   2.801 -1.6805  2.5526 -0.6984
 7056SOL    HW232628   3.571   3.019   2.715 -1.7581  1.3805 -2.5542
 7057SOL     OW32629   0.729   2.312   5.167  0.2121 -0.6765 -0.0425
 7057SOL    HW132630   0.700   2.297   5.077  2.0347 -0.6159 -0.6339
 7057SOL    HW232631   0.670   2.385   5.186  0.4276 -0.3858 -0.4760
 7058SOL     OW32632   4.713   0.369   1.433  0.1653  0.6948  0.4608
 7058SOL    HW132633   4.634   0.316   1.417  0.4326  0.6729 -0.8201
 7058SOL    HW232634   0.025   0.340   1.516  1.4818  0.8577 -0.0704
 7059SOL     OW32635   4.234   2.405   4.701  0.1981 -0.0770  0.3793
 7059SOL    HW132636   4.320   2.366   4.717  1.1292  1.5627 -0.6319
 7059SOL    HW232637   4.204   2.367   4.619  3.1539  0.5188 -0.9744
 7060SOL     OW32638   3.178   4.277   2.326 -0.0695 -0.5993 -0.0167
 7060SOL    HW132639   3.090   4.258   2.294  0.4871 -1.0003 -1.2822
 7060SOL    HW232640   3.175   4.251   2.418 -0.2423  0.5386  0.3041
 7061SOL     OW32641   3.962   0.099   7.656 -0.2456 -0.1112 -0.2342
 7061SOL    HW132642   4.019   0.033   7.698 -0.8187 -0.0897  0.5723
 7061SOL    HW232643   3.902   0.039   7.611  0.1661 -0.1011 -0.8040
 7062SOL     OW32644   3.554   2.197   5.321 -0.5159 -0.1442  0.0207
 7062SOL    HW132645   3.552   2.290   5.342  1.8270 -0.1763  0.3557
 7062SOL    HW232646   3.626   2.174   5.380  1.3213  1.8564 -1.4730
 7063SOL     OW32647   3.789   0.650   7.286 -0.3882  0.7442  0.1376
 7063SOL    HW132648   3.848   0.725   7.274 -0.8281  1.0716  0.0585
 7063SOL    HW232649   3.848   0.574   7.292 -0.1199  0.8085 -1.6249
 7064SOL     OW32650   0.117   1.522   0.474  0.1553 -0.0009 -0.3298
 7064SOL    HW132651   0.120   1.512   0.569  1.6096 -2.5091 -0.6344
 7064SOL    HW232652   0.207   1.496   0.456  0.0427  0.8092 -2.0081
 7065SOL     OW32653   2.623   1.358   3.423 -0.4793  0.1895  0.0211
 7065SOL    HW132654   2.538   1.328   3.455 -0.5626  1.3073  0.8439
 7065SOL    HW232655   2.591   1.404   3.346  1.0550  0.6083 -0.3511
 7066SOL     OW32656   4.518   0.189   1.435  0.1676  0.1414 -0.1264
 7066SOL    HW132657   4.454   0.134   1.391 -0.8665  1.3633 -0.1448
 7066SOL    HW232658   4.478   0.190   1.522  0.0766  0.1828 -0.1686
 7067SOL     OW32659   3.606   1.751   0.324 -0.0257  0.3252  0.5552
 7067SOL    HW132660   3.572   1.736   0.412  1.9978  1.5122  1.5399
 7067SOL    HW232661   3.687   1.701   0.332 -0.7012 -0.7123  0.8720
 7068SOL     OW32662   2.175   0.130  16.182  0.0431  0.7955  0.3490
 7068SOL    HW132663   2.242   0.098  16.123 -0.0320 -1.1283  1.3138
 7068SOL    HW232664   2.220   0.188  16.244  1.2677  1.6637 -1.3512
 7069SOL     OW32665   4.221   3.162   4.910  0.4933  0.0770 -0.2478
 7069SOL    HW132666   4.246   3.101   4.981  0.4004 -1.1360 -1.2587
 7069SOL    HW232667   4.138   3.132   4.873  1.0945 -1.0117 -0.7208
 7070SOL     OW32668   0.644   3.878  14.539 -0.0752 -0.0522 -0.1267
 7070SOL    HW132669   0.552   3.871  14.563 -0.8755 -1.4768 -3.6719
 7070SOL    HW232670   0.687   3.792  14.549 -3.4699 -1.9679 -1.9643
 7071SOL     OW32671   0.542   4.343   5.288 -0.4484 -0.5615 -0.0837
 7071SOL    HW132672   0.553   4.372   5.378 -0.2233  1.8145 -0.8486
 7071SOL    HW232673   0.452   4.310   5.285 -0.8957  0.6654 -0.2384
 7072SOL     OW32674   1.669   3.422   2.303 -0.3236 -0.1183  0.0523
 7072SOL    HW132675   1.589   3.458   2.263 -1.7150 -0.3411  2.6500
 7072SOL    HW232676   1.643   3.375   2.382 -0.4470  2.2035  1.3741
 7073SOL     OW32677   4.695   3.310  15.107  0.2120  0.3609  0.2400
 7073SOL    HW132678   4.661   3.382  15.056 -0.5705 -1.0812 -1.2562
 7073SOL    HW232679   4.712   3.362  15.185 -1.0661  1.4855 -0.2453
 7074SOL     OW32680   4.620   3.541   3.011 -0.2842  0.2872 -0.0043
 7074SOL    HW132681   4.713   3.518   3.012 -1.1511 -3.2201 -1.2122
 7074SOL    HW232682   4.617   3.592   3.092  0.4692  2.5854 -1.3970
 7075SOL     OW32683   3.724   3.109  12.961  0.1189 -0.0923  0.7667
 7075SOL    HW132684   3.694   3.191  13.001  0.8206  0.8013 -0.5142
 7075SOL    HW232685   3.805   3.091  13.007  1.3932  0.2840 -1.3306
 7076SOL     OW32686   0.608   1.261   9.934  0.1247 -0.2699 -0.2559
 7076SOL    HW132687   0.535   1.225   9.985 -1.7736  3.5587 -0.3320
 7076SOL    HW232688   0.681   1.200   9.948  0.4231  0.0638 -0.3563
 7077SOL     OW32689   0.324   0.529  14.794 -0.1427  0.3100 -0.4990
 7077SOL    HW132690   0.306   0.494  14.707  1.9910 -2.8777  0.3212
 7077SOL    HW232691   0.284   0.468  14.856  3.3329  0.9762  2.4366
 7078SOL     OW32692   0.206   0.374   7.571  0.2961  0.2168  0.2510
 7078SOL    HW132693   0.226   0.293   7.618  1.2048 -0.3039 -1.0384
 7078SOL    HW232694   0.145   0.419   7.631  1.3331  0.4244  1.1501
 7079SOL     OW32695   1.596   0.717  11.964 -0.7274  0.1155 -0.3121
 7079SOL    HW132696   1.508   0.740  11.933 -0.0183  1.5631 -1.2550
 7079SOL    HW232697   1.617   0.628  11.939 -0.3660  0.6561 -1.9057
 7080SOL     OW32698   1.732   0.650  15.073  0.0103  0.1802 -0.0470
 7080SOL    HW132699   1.744   0.555  15.070  1.0778  0.2595  1.3942
 7080SOL    HW232700   1.764   0.680  15.158 -1.1653  1.7753 -0.1644
 7081SOL     OW32701   1.602   3.893   8.403 -0.8772  0.3626  0.5138
 7081SOL    HW132702   1.683   3.849   8.428 -2.0407 -1.7952  0.4792
 7081SOL    HW232703   1.567   3.829   8.341  0.7916 -0.4734  0.4251
 7082SOL     OW32704   2.546   2.281  16.744  0.0543 -0.6152 -0.1395
 7082SOL    HW132705   2.574   2.349  16.682 -3.9216  0.0107 -1.2632
 7082SOL    HW232706   2.615   2.216  16.731  0.5344  0.2277 -1.7801
 7083SOL     OW32707   0.234   1.672   6.044  0.0129 -0.1653  0.2525
 7083SOL    HW132708   0.185   1.591   6.058 -3.1811  1.4768 -1.4272
 7083SOL    HW232709   0.157   1.717   6.008  0.3619  0.9258  0.8629
 7084SOL     OW32710   3.729   0.325  14.419 -0.2148 -0.3180  0.4667
 7084SOL    HW132711   3.753   0.308  14.328 -1.8911  0.0666 -0.0419
 7084SOL    HW232712   3.721   0.236  14.453  2.4182 -0.7068  0.0233
 7085SOL     OW32713   4.438   2.024   2.956 -0.3081  0.3573  0.0942
 7085SOL    HW132714   4.466   2.114   2.938 -1.4504  0.6246 -0.3128
 7085SOL    HW232715   4.495   1.998   3.029 -1.3586  0.1630  0.8505
 7086SOL     OW32716   2.842   3.471   2.315  0.2308 -0.0726  0.3391
 7086SOL    HW132717   2.925   3.512   2.288  1.2860 -0.0830  3.5433
 7086SOL    HW232718   2.775   3.539   2.306 -1.4650 -1.7637  0.1349
 7087SOL     OW32719   4.152   2.951   8.562 -0.0618  0.5262  0.3880
 7087SOL    HW132720   4.137   3.004   8.640  2.9625  2.7102 -0.5037
 7087SOL    HW232721   4.128   3.012   8.493 -1.9901 -0.9209 -0.2128
 7088SOL     OW32722   1.553   2.833  14.183  0.5841  0.3879  0.7450
 7088SOL    HW132723   1.506   2.770  14.127 -0.5981  0.0675  2.0963
 7088SOL    HW232724   1.634   2.845  14.133  0.1618  0.7173  0.1337
 7089SOL     OW32725   0.266   2.407   4.902  0.1972  0.0686  0.0142
 7089SOL    HW132726   0.272   2.490   4.855  2.5703 -0.5191 -0.7070
 7089SOL    HW232727   0.295   2.433   4.989 -0.1006  1.2607 -0.2386
 7090SOL     OW32728   2.476   4.643  11.013  0.2530 -0.1042 -0.6077
 7090SOL    HW132729   2.530   4.596  11.076 -1.2370 -0.0948  0.6854
 7090SOL    HW232730   2.536   4.667  10.942 -0.8317  2.6100 -0.6210
 7091SOL     OW32731   2.644   1.819   9.139  0.2859  1.1739 -0.3279
 7091SOL    HW132732   2.618   1.760   9.068  0.5399 -0.6979  1.1438
 7091SOL    HW232733   2.691   1.883   9.085  0.2294  0.4581 -1.2384
 7092SOL     OW32734   4.574   4.623   7.923  0.4361 -0.1562  0.4560
 7092SOL    HW132735   4.606   4.702   7.967  1.7237  1.0389 -2.6102
 7092SOL    HW232736   4.648   4.608   7.864 -2.1357 -1.8411 -2.3161
 7093SOL     OW32737   0.974   0.301   7.406  0.3113  0.2346 -0.4148
 7093SOL    HW132738   0.893   0.250   7.403 -0.4274  1.3300  0.5840
 7093SOL    HW232739   1.019   0.275   7.326  0.2487  0.4988 -0.5379
 7094SOL     OW32740   0.552   3.259  11.285  0.2108  0.6824  0.6336
 7094SOL    HW132741   0.629   3.222  11.243 -0.4528  0.2594 -0.2103
 7094SOL    HW232742   0.481   3.205  11.250  1.6538 -1.8445  1.6750
 7095SOL     OW32743   0.352   1.933   8.836  0.5522 -0.7990  0.0607
 7095SOL    HW132744   0.438   1.891   8.839  1.4405  1.0270  0.3668
 7095SOL    HW232745   0.356   1.987   8.915  0.5811  2.1898 -2.0013
 7096SOL     OW32746   4.454   4.348  16.603  0.4063 -0.1068  0.2920
 7096SOL    HW132747   4.466   4.422  16.543 -1.8218 -1.2522 -1.5684
 7096SOL    HW232748   4.410   4.381  16.681 -1.2496 -0.5446 -0.4704
 7097SOL     OW32749   3.910   3.534   6.781  0.0486 -0.1580 -0.0000
 7097SOL    HW132750   3.865   3.495   6.856  0.1272  2.2857  1.3137
 7097SOL    HW232751   3.998   3.496   6.788  0.8161  1.7981  0.9397
 7098SOL     OW32752   3.015   4.201   4.113 -0.3941  0.1192  0.1304
 7098SOL    HW132753   2.934   4.164   4.078 -0.1898 -1.3570  1.2411
 7098SOL    HW232754   2.991   4.293   4.105  1.4362  0.5909  0.0986
 7099SOL     OW32755   0.043   0.489   2.617 -0.3641 -0.1621  0.2206
 7099SOL    HW132756   4.704   0.438   2.566  0.3171 -0.0795 -0.7259
 7099SOL    HW232757   0.114   0.488   2.553 -1.2371  0.1826 -0.7689
 7100SOL     OW32758   4.346   4.193   5.276 -0.2864  0.3744  0.7679
 7100SOL    HW132759   4.272   4.216   5.332 -0.6992 -0.1021  0.4275
 7100SOL    HW232760   4.336   4.260   5.208 -2.1547 -1.2542 -0.5713
 7101SOL     OW32761   4.172   0.245   0.679  0.3642 -0.5288  0.1158
 7101SOL    HW132762   4.210   0.332   0.689 -0.4983 -0.3881  2.2465
 7101SOL    HW232763   4.092   0.245   0.733 -0.3889 -2.7054 -1.0021
 7102SOL     OW32764   2.119   3.625   8.110  0.0339  0.4035 -0.1378
 7102SOL    HW132765   2.162   3.706   8.138 -1.9015  1.2710  0.3059
 7102SOL    HW232766   2.116   3.634   8.015  1.5972 -3.0425 -0.5291
 7103SOL     OW32767   1.861   4.483  10.139 -0.1178  0.5603  0.3860
 7103SOL    HW132768   1.945   4.445  10.112 -0.1446  1.7064 -1.2957
 7103SOL    HW232769   1.898   4.534  10.212  2.5125  0.1397 -0.6338
 7104SOL     OW32770   2.251   0.707   1.812 -0.4571 -0.2272 -0.9205
 7104SOL    HW132771   2.334   0.692   1.767 -0.0591 -0.0335 -0.2576
 7104SOL    HW232772   2.225   0.616   1.826  0.6135 -0.5328 -0.9133
 7105SOL     OW32773   1.011   2.385   4.587 -0.0202 -0.4262 -0.5911
 7105SOL    HW132774   0.932   2.432   4.558 -1.0773 -0.9864  1.3807
 7105SOL    HW232775   0.992   2.296   4.556  1.1587 -1.7871  2.5627
 7106SOL     OW32776   2.281   1.021   7.359 -0.2111 -0.1613  0.1553
 7106SOL    HW132777   2.206   0.962   7.350 -1.7260  2.4457 -4.1543
 7106SOL    HW232778   2.324   1.009   7.274  0.7885 -0.4628  0.7069
 7107SOL     OW32779   1.597   3.997   6.855 -0.2247 -0.1435 -0.1098
 7107SOL    HW132780   1.689   3.980   6.875 -0.3027  1.8724  1.8055
 7107SOL    HW232781   1.562   3.913   6.823  0.7286 -0.6001  0.0348
 7108SOL     OW32782   2.798   0.720   7.962 -0.3752 -0.4268 -0.2349
 7108SOL    HW132783   2.890   0.747   7.973 -0.2534 -0.8775 -0.1634
 7108SOL    HW232784   2.760   0.807   7.976  0.4771 -0.0428 -0.2577
 7109SOL     OW32785   3.841   4.222  13.642  0.4942  0.0144  0.1767
 7109SOL    HW132786   3.749   4.237  13.619  0.0173  0.1216  2.1423
 7109SOL    HW232787   3.874   4.312  13.638  0.5741 -0.0067  0.3475
 7110SOL     OW32788   2.650   3.344   8.734 -0.4384  0.0416 -0.0079
 7110SOL    HW132789   2.565   3.315   8.766 -1.2306  2.3824  0.0263
 7110SOL    HW232790   2.631   3.438   8.732  4.3785  1.0280  2.4546
 7111SOL     OW32791   4.037   1.741  11.945 -0.3600 -0.1727 -0.5578
 7111SOL    HW132792   4.127   1.722  11.972 -0.5700  0.8622  0.8343
 7111SOL    HW232793   4.035   1.836  11.951  0.4590 -0.1544 -0.6137
 7112SOL     OW32794   3.506   4.196   8.262  0.2626  0.6424  0.2043
 7112SOL    HW132795   3.486   4.104   8.245 -0.0779  0.2861  2.4472
 7112SOL    HW232796   3.596   4.206   8.232  0.1293 -1.9466 -1.0233
 7113SOL     OW32797   0.872   1.893   4.297 -0.5949 -0.1704 -0.0785
 7113SOL    HW132798   0.942   1.892   4.363 -0.4985  0.6053 -0.1664
 7113SOL    HW232799   0.807   1.842   4.346 -0.2311  1.0719  1.6892
 7114SOL     OW32800   0.242   4.298   2.680  0.1612 -0.0974 -0.8959
 7114SOL    HW132801   0.324   4.345   2.665  0.4091  0.8805  3.3138
 7114SOL    HW232802   0.239   4.227   2.616  1.8837 -1.5684  0.6557
 7115SOL     OW32803   4.589   2.882   7.238  0.0649  0.1822 -0.0746
 7115SOL    HW132804   4.603   2.931   7.157  0.4226 -0.8512 -0.6408
 7115SOL    HW232805   4.621   2.947   7.300  1.1704  0.6990 -1.2056
 7116SOL     OW32806   4.687   4.451   9.589 -0.3834  0.4871 -0.3256
 7116SOL    HW132807   0.048   4.433   9.553  0.0648 -1.8415  1.9042
 7116SOL    HW232808   4.701   4.519   9.654  1.7700  0.7622 -1.0931
 7117SOL     OW32809   2.424   1.735   2.067  0.2921 -0.3393 -0.6160
 7117SOL    HW132810   2.365   1.687   2.009 -0.6354 -0.6569  0.5931
 7117SOL    HW232811   2.436   1.675   2.141  0.3452 -0.8657 -1.0501
 7118SOL     OW32812   1.763   2.781  17.308 -0.0575 -0.4071 -0.2014
 7118SOL    HW132813   1.858   2.766  17.308  0.2537  1.6701 -1.7317
 7118SOL    HW232814   1.751   2.769  17.402 -3.0532  0.4188 -0.4613
 7119SOL     OW32815   2.293   0.408   3.907 -0.0644  0.1573 -0.4501
 7119SOL    HW132816   2.376   0.415   3.859  0.6695  1.2522  0.9876
 7119SOL    HW232817   2.309   0.342   3.974 -1.7441 -2.1547 -2.3192
 7120SOL     OW32818   1.961   3.001  14.495  0.0982  0.1358 -0.5802
 7120SOL    HW132819   1.968   2.940  14.568  1.1570 -0.1163 -0.8940
 7120SOL    HW232820   1.996   2.953  14.420 -0.0988  0.9888 -1.2177
 7121SOL     OW32821   2.089   2.660   7.790  0.4367  0.0722 -0.4267
 7121SOL    HW132822   2.059   2.749   7.770  0.3281 -0.2628 -1.7774
 7121SOL    HW232823   2.032   2.641   7.864 -0.4628  0.5274 -0.9947
 7122SOL     OW32824   1.232   0.530  17.603  0.4105  0.5460  0.0788
 7122SOL    HW132825   1.252   0.615  17.564  0.1784  0.0504 -1.1411
 7122SOL    HW232826   1.298   0.475  17.560 -0.7506 -0.7718 -0.0278
 7123SOL     OW32827   2.106   0.660   3.947  0.3892  0.0109 -0.0373
 7123SOL    HW132828   2.029   0.671   3.892 -1.0692  0.5437  2.1103
 7123SOL    HW232829   2.166   0.623   3.882  0.2089 -0.8924  0.3079
 7124SOL     OW32830   2.473   1.445   9.395 -0.2425 -0.3634  0.5756
 7124SOL    HW132831   2.473   1.503   9.471  0.6916  0.5277 -0.1011
 7124SOL    HW232832   2.425   1.369   9.429  1.0943 -0.5320  2.0842
 7125SOL     OW32833   3.473   1.720   4.200 -0.0679 -0.2716 -0.5808
 7125SOL    HW132834   3.386   1.752   4.226  0.1048 -0.7186  0.5535
 7125SOL    HW232835   3.528   1.761   4.267 -0.9290 -1.4040  0.8120
 7126SOL     OW32836   0.071   0.006   1.148 -0.3730  0.4851 -0.1802
 7126SOL    HW132837   0.085   0.101   1.149 -0.3444  0.4803 -0.0962
 7126SOL    HW232838   4.701   0.009   1.152 -0.2890  2.0642  0.8818
 7127SOL     OW32839   0.009   2.267  13.829  0.4842  0.0982  0.7985
 7127SOL    HW132840   0.001   2.323  13.906  0.0459 -1.4643  1.8905
 7127SOL    HW232841   0.058   2.316  13.763  0.2776  0.1931  0.7139
 7128SOL     OW32842   0.503   4.496   9.617 -0.3376 -0.7441 -0.2749
 7128SOL    HW132843   0.545   4.410   9.621 -1.9554 -1.5823 -1.2629
 7128SOL    HW232844   0.579   4.553   9.615 -0.5226 -0.5467 -2.7346
 7129SOL     OW32845   3.177   1.422  11.310 -0.1843 -0.0592 -0.3728
 7129SOL    HW132846   3.090   1.420  11.271 -1.3831 -0.0831  2.2973
 7129SOL    HW232847   3.214   1.483  11.247 -0.4707 -0.5367 -1.0052
 7130SOL     OW32848   3.351   0.144   0.800 -0.3064 -0.1402  0.4367
 7130SOL    HW132849   3.333   0.050   0.804  2.4790 -0.6451  1.1671
 7130SOL    HW232850   3.403   0.142   0.881  1.2284 -1.2253 -0.5717
 7131SOL     OW32851   3.324   0.153   7.897  0.1072  0.1045 -0.1574
 7131SOL    HW132852   3.387   0.088   7.930 -1.3748 -1.0610  0.3815
 7131SOL    HW232853   3.319   0.140   7.803 -0.2939  0.8416 -0.2296
 7132SOL     OW32854   1.520   0.890   7.220  0.2814  0.0105 -0.5166
 7132SOL    HW132855   1.498   0.818   7.279  0.0375  1.3409  0.9960
 7132SOL    HW232856   1.593   0.937   7.261 -0.2527  0.0262  0.4082
 7133SOL     OW32857   1.328   1.738   6.941 -0.0787  0.0018 -0.5080
 7133SOL    HW132858   1.420   1.759   6.925  0.6190 -1.1150  2.0170
 7133SOL    HW232859   1.325   1.651   6.901  1.7556 -0.8318  1.1353
 7134SOL     OW32860   4.272   2.581  11.977  0.1600 -0.1898 -0.4218
 7134SOL    HW132861   4.187   2.574  12.019  0.1423  1.1621 -0.2361
 7134SOL    HW232862   4.296   2.670  12.001 -0.7258 -0.5343  1.7003
 7135SOL     OW32863   1.920   1.530   8.585 -0.2174  0.1073 -0.6796
 7135SOL    HW132864   1.950   1.554   8.497 -0.5635 -1.1602 -1.1559
 7135SOL    HW232865   1.846   1.588   8.600 -1.2991 -1.5150  0.1975
 7136SOL     OW32866   0.684   2.847   4.609 -0.1919 -0.1324  0.6453
 7136SOL    HW132867   0.604   2.896   4.589 -0.6904 -0.9904  0.4849
 7136SOL    HW232868   0.656   2.760   4.578  1.0589  0.6834 -2.7669
 7137SOL     OW32869   1.116   1.727  11.184  0.7095  0.1024  0.5374
 7137SOL    HW132870   1.105   1.756  11.275 -2.6006  0.9734 -0.1499
 7137SOL    HW232871   1.113   1.632  11.194  2.2202  0.1108  0.9804
 7138SOL     OW32872   2.450   0.800  15.478  0.2099 -0.4710  0.2572
 7138SOL    HW132873   2.393   0.874  15.500 -0.9300 -0.9745 -0.9743
 7138SOL    HW232874   2.397   0.773  15.403  1.4059 -0.6905 -0.5007
 7139SOL     OW32875   3.520   4.572   1.714  0.0517 -0.6840  0.2333
 7139SOL    HW132876   3.541   4.501   1.775 -1.0423 -1.7780 -0.6653
 7139SOL    HW232877   3.571   4.644   1.749  0.1374 -0.3751 -0.5353
 7140SOL     OW32878   0.781   3.638  14.626 -0.2027  0.5182 -0.0357
 7140SOL    HW132879   0.792   3.545  14.642 -1.2801  0.3012 -0.5295
 7140SOL    HW232880   0.866   3.662  14.589  0.2701 -0.1948  0.5923
 7141SOL     OW32881   3.189   1.398   8.390 -0.3206 -0.1799 -0.1940
 7141SOL    HW132882   3.144   1.416   8.473  3.0412  1.0420  1.3500
 7141SOL    HW232883   3.281   1.396   8.416 -0.4419 -0.4409  0.2154
 7142SOL     OW32884   4.572   0.328   2.518  0.2846  0.4450 -0.5135
 7142SOL    HW132885   4.506   0.318   2.449 -0.0569  2.7913 -0.5186
 7142SOL    HW232886   4.523   0.304   2.597  1.3419 -3.1588 -0.9409
 7143SOL     OW32887   0.283   4.455   2.326 -0.2035 -0.4650 -0.3838
 7143SOL    HW132888   0.288   4.367   2.364 -0.6817 -0.8606 -1.2375
 7143SOL    HW232889   0.262   4.510   2.401 -1.4471 -1.4974  0.0329
 7144SOL     OW32890   2.594   1.907   3.940 -0.1468  0.3286 -0.4609
 7144SOL    HW132891   2.625   1.896   4.030  1.2238  0.3471 -0.9449
 7144SOL    HW232892   2.649   1.982   3.917 -0.6040  0.8501  0.1463
 7145SOL     OW32893   2.070   1.876  11.115  0.0670 -0.2086 -0.4314
 7145SOL    HW132894   2.094   1.928  11.038  0.8853 -0.2344 -0.1912
 7145SOL    HW232895   2.122   1.919  11.182 -0.0355  0.4970 -0.8071
 7146SOL     OW32896   1.291   3.431   7.202 -0.3591 -0.3632  0.3084
 7146SOL    HW132897   1.278   3.519   7.165 -1.3711  1.0054  3.8765
 7146SOL    HW232898   1.201   3.409   7.225 -0.5496  1.2981  1.1672
 7147SOL     OW32899   1.767   0.680   8.785 -0.7120  0.1652 -0.3796
 7147SOL    HW132900   1.719   0.725   8.715 -1.1228  0.7575  0.2915
 7147SOL    HW232901   1.715   0.602   8.800 -1.9701  0.8524 -1.1484
 7148SOL     OW32902   0.505   3.621   9.249 -0.6412 -0.5420  1.1111
 7148SOL    HW132903   0.423   3.670   9.259 -1.6556 -1.7196 -1.5919
 7148SOL    HW232904   0.522   3.620   9.344 -0.0571  0.0496  1.0071
 7149SOL     OW32905   4.107   3.593   8.109 -1.0835 -0.6549 -0.3508
 7149SOL    HW132906   4.013   3.602   8.095 -0.8631  1.3310 -0.5202
 7149SOL    HW232907   4.134   3.681   8.135 -0.1963 -1.1073  0.2836
 7150SOL     OW32908   2.721   3.552   6.247 -0.1794 -0.1745 -0.9134
 7150SOL    HW132909   2.694   3.642   6.267 -2.0778 -0.9071 -0.1594
 7150SOL    HW232910   2.766   3.528   6.329 -3.3421 -1.3216  0.4775
 7151SOL     OW32911   2.032   3.795   6.137 -0.3812 -0.6847 -0.2440
 7151SOL    HW132912   1.981   3.853   6.192  0.1520 -1.0168  0.6057
 7151SOL    HW232913   2.049   3.844   6.056 -0.6560 -0.5381 -0.2101
 7152SOL     OW32914   1.327   0.462   4.123 -0.2163 -0.0055  0.2920
 7152SOL    HW132915   1.237   0.441   4.148 -0.7104 -0.9067 -2.2828
 7152SOL    HW232916   1.348   0.379   4.081  1.8343  2.0226 -2.6662
 7153SOL     OW32917   3.124   0.610  12.653  0.1722  0.0643  0.2846
 7153SOL    HW132918   3.037   0.646  12.672  0.4417  0.5825  0.5361
 7153SOL    HW232919   3.178   0.689  12.646  0.0767 -0.0607 -1.9202
 7154SOL     OW32920   1.782   3.355   7.098  0.2772  0.8122  0.6430
 7154SOL    HW132921   1.708   3.403   7.134 -0.5220 -0.2469  0.4141
 7154SOL    HW232922   1.807   3.287   7.160 -0.0143 -0.2070 -0.3659
 7155SOL     OW32923   2.667   4.340  13.224 -0.0425 -0.1125 -0.1388
 7155SOL    HW132924   2.641   4.263  13.174 -2.8697  0.5247  0.3798
 7155SOL    HW232925   2.727   4.312  13.293 -1.3111 -0.9931  0.5946
 7156SOL     OW32926   0.860   3.949  15.397  0.3891  0.0028  0.0349
 7156SOL    HW132927   0.846   3.928  15.489  0.5521 -1.6971 -0.3234
 7156SOL    HW232928   0.953   3.973  15.404  0.0403  1.3626 -0.0085
 7157SOL     OW32929   3.056   0.345   5.474 -0.1400  0.9286 -0.1489
 7157SOL    HW132930   3.077   0.300   5.393  2.0714  0.7503  0.5377
 7157SOL    HW232931   3.138   0.380   5.509  0.8456 -0.0545 -1.4970
 7158SOL     OW32932   0.767   2.283   0.052 -0.2849 -0.2575 -0.2675
 7158SOL    HW132933   0.734   2.373   0.054  1.0198  0.1931  0.9054
 7158SOL    HW232934   0.690   2.237   0.086 -0.1154  0.4089  1.0457
 7159SOL     OW32935   2.190   0.107  10.917  0.2598 -0.3647  0.3977
 7159SOL    HW132936   2.177   0.081  11.008 -0.0308 -0.4659  0.3269
 7159SOL    HW232937   2.100   0.095  10.888  0.5741 -2.6497  0.4067
 7160SOL     OW32938   2.106   2.116  15.396 -0.2274 -0.7375 -0.1290
 7160SOL    HW132939   2.126   2.185  15.331  0.2761 -1.2116 -0.4774
 7160SOL    HW232940   2.012   2.104  15.401 -0.4778  1.0603 -0.3101
 7161SOL     OW32941   0.670   4.584   4.826 -0.3857 -0.1169  0.0184
 7161SOL    HW132942   0.692   4.626   4.743  2.1416 -0.0987  0.7108
 7161SOL    HW232943   0.685   4.492   4.802  1.6254  0.2333 -0.0131
 7162SOL     OW32944   2.978   1.943   8.888  0.9912  0.2874 -0.2624
 7162SOL    HW132945   2.999   1.887   8.962  1.5142  0.9290  0.0810
 7162SOL    HW232946   2.985   1.889   8.810 -0.4848 -1.5444  0.8848
 7163SOL     OW32947   3.311   1.745   5.894 -0.2170  0.1507  0.5514
 7163SOL    HW132948   3.333   1.713   5.982  1.6466  0.9209  0.3643
 7163SOL    HW232949   3.302   1.840   5.903  2.9849  0.7240 -2.3554
 7164SOL     OW32950   0.723   1.187   4.141 -0.3863  0.1480 -0.2968
 7164SOL    HW132951   0.727   1.179   4.236 -1.5422 -1.3303 -0.3662
 7164SOL    HW232952   0.774   1.267   4.128  2.4063 -2.2096 -3.7039
 7165SOL     OW32953   4.386   0.628   7.547  0.1490 -0.3703  0.4922
 7165SOL    HW132954   4.470   0.662   7.576  1.2099 -1.3646 -1.4593
 7165SOL    HW232955   4.340   0.708   7.520  2.7306  0.4906 -1.4015
 7166SOL     OW32956   3.095   2.948   4.101 -1.1411 -0.5253 -0.1281
 7166SOL    HW132957   3.145   3.027   4.081 -0.2459 -1.4182 -1.3861
 7166SOL    HW232958   3.158   2.889   4.143 -1.1994 -0.4153  0.1168
 7167SOL     OW32959   1.778   1.200  13.607 -0.3537 -0.0084 -1.4288
 7167SOL    HW132960   1.825   1.179  13.688 -0.3027  3.7634 -0.4943
 7167SOL    HW232961   1.812   1.288  13.590  3.7201 -0.7380  2.8786
 7168SOL     OW32962   0.784   1.816  17.657  0.2910  0.2443 -0.2930
 7168SOL    HW132963   0.835   1.824  17.577  0.0523 -0.6017 -0.5244
 7168SOL    HW232964   0.815   1.897  17.698 -0.1291 -0.9971  2.4314
 7169SOL     OW32965   1.594   4.042   4.473 -0.5210  0.5949  0.3799
 7169SOL    HW132966   1.673   4.032   4.419 -0.0213 -0.2766  1.2874
 7169SOL    HW232967   1.566   3.951   4.485  1.0914 -0.0712 -0.8702
 7170SOL     OW32968   2.275   3.251   3.619  0.1923  0.1621 -0.3312
 7170SOL    HW132969   2.243   3.161   3.622 -0.1414  0.3328  1.6951
 7170SOL    HW232970   2.198   3.303   3.643 -0.2553 -0.9177  0.6202
 7171SOL     OW32971   0.131   2.499   8.434  0.0979  0.4509 -0.7580
 7171SOL    HW132972   0.113   2.588   8.461 -2.3660 -0.8068  1.7382
 7171SOL    HW232973   0.066   2.453   8.487 -0.1396  0.1830 -1.2866
 7172SOL     OW32974   0.104   3.437   4.855 -0.4348 -0.2846 -0.5590
 7172SOL    HW132975   0.118   3.503   4.787 -3.1481  1.4889  0.5997
 7172SOL    HW232976   0.122   3.359   4.803 -1.2320 -1.2213  0.5374
 7173SOL     OW32977   0.447   3.960  10.851  0.6405 -0.0219 -0.5903
 7173SOL    HW132978   0.535   3.922  10.851  1.7981  2.6744  0.0092
 7173SOL    HW232979   0.462   4.054  10.863  0.4830  0.1040 -1.3636
 7174SOL     OW32980   1.927   2.409   1.125  0.1413  0.3177  0.0060
 7174SOL    HW132981   2.009   2.423   1.078  1.4909  0.6317  2.4942
 7174SOL    HW232982   1.894   2.498   1.139  1.9025  0.7333  1.5202
 7175SOL     OW32983   3.868   3.177   4.181 -0.1763 -0.1289 -0.1374
 7175SOL    HW132984   3.897   3.130   4.259 -1.2736 -2.4358 -1.1314
 7175SOL    HW232985   3.881   3.108   4.116 -1.7865 -0.5632  0.0145
 7176SOL     OW32986   3.798   4.148   4.084  0.5216  0.0340 -0.3688
 7176SOL    HW132987   3.760   4.070   4.124  1.2162  0.6362  1.4923
 7176SOL    HW232988   3.863   4.177   4.148  0.2614  2.2049 -1.0886
 7177SOL     OW32989   1.558   1.419   5.633 -0.4716  0.2918  0.0560
 7177SOL    HW132990   1.538   1.376   5.550 -1.8159 -0.4494  0.7576
 7177SOL    HW232991   1.520   1.362   5.700 -0.1466 -0.4422 -0.3844
 7178SOL     OW32992   4.678   1.584   8.764  0.1314 -0.3764 -0.2884
 7178SOL    HW132993   0.006   1.653   8.804 -0.9512 -0.9410  2.0913
 7178SOL    HW232994   4.695   1.585   8.670  1.1307 -1.2098 -0.1182
 7179SOL     OW32995   4.485   1.581   3.708 -0.1666  0.2469 -0.1596
 7179SOL    HW132996   4.484   1.663   3.658 -1.7801  0.3433  0.0372
 7179SOL    HW232997   4.427   1.607   3.780  0.1137  0.7285 -0.1095
 7180SOL     OW32998   0.320   0.395   7.271 -0.7829 -0.2622 -0.5630
 7180SOL    HW132999   0.269   0.473   7.254  0.8403  0.6792 -1.1379
 7180SOL    HW233000   0.276   0.332   7.214  1.9361  0.3186 -3.3018
 7181SOL     OW33001   4.067   3.992   3.373  0.2080 -0.4075 -0.5627
 7181SOL    HW133002   4.097   4.081   3.391  1.0144 -0.8747  0.4276
 7181SOL    HW233003   4.005   3.975   3.444 -0.6476 -0.6033 -1.3621
 7182SOL     OW33004   1.458   1.349   6.693 -0.2245 -0.1665  0.1900
 7182SOL    HW133005   1.520   1.283   6.723  1.0078 -0.2862 -2.6072
 7182SOL    HW233006   1.510   1.429   6.691  1.2786 -1.1580 -0.6138
 7183SOL     OW33007   4.530   3.667   8.701  0.0175 -0.5647 -0.3136
 7183SOL    HW133008   4.478   3.705   8.771  1.6969 -2.2275  1.8163
 7183SOL    HW233009   4.588   3.606   8.746 -1.2477 -2.4804 -1.2665
 7184SOL     OW33010   4.581   3.379   6.231 -0.2529 -0.3818  0.1155
 7184SOL    HW133011   4.574   3.370   6.136  0.1692  1.6854 -0.1072
 7184SOL    HW233012   4.639   3.306   6.252  1.2360  1.2702  1.7635
 7185SOL     OW33013   3.695   0.517   7.722 -0.0127  0.2932  0.6069
 7185SOL    HW133014   3.741   0.559   7.649  1.6845  0.2967  1.6814
 7185SOL    HW233015   3.740   0.433   7.734 -0.4061  0.1499  1.0258
 7186SOL     OW33016   3.379   2.752   2.087  0.1873  0.3587 -0.0766
 7186SOL    HW133017   3.453   2.711   2.132  0.3496 -0.0222 -0.6967
 7186SOL    HW233018   3.416   2.841   2.088  2.0272 -0.4080  0.1419
 7187SOL     OW33019   3.145   0.800   7.596  0.5680  0.2074  0.4527
 7187SOL    HW133020   3.097   0.719   7.614  2.9938 -1.4423 -0.5074
 7187SOL    HW233021   3.132   0.806   7.501 -1.1735  1.4925  0.7828
 7188SOL     OW33022   1.183   1.903   6.767  0.0363 -0.0932 -0.2131
 7188SOL    HW133023   1.237   1.885   6.845  1.7459 -1.7139 -1.7716
 7188SOL    HW233024   1.112   1.936   6.823 -0.4300 -0.0678 -0.8219
 7189SOL     OW33025   0.730   4.217  16.722  0.2411  0.8203  0.1565
 7189SOL    HW133026   0.680   4.253  16.796 -1.8360 -0.2513 -0.7406
 7189SOL    HW233027   0.710   4.126  16.740 -1.2114  0.9549 -0.8884
 7190SOL     OW33028   0.311   4.487   8.440  0.3863  0.6519  0.0016
 7190SOL    HW133029   0.308   4.526   8.527  3.1303 -1.1452  0.8721
 7190SOL    HW233030   0.387   4.532   8.405  2.8181 -3.4768  0.0291
 7191SOL     OW33031   4.419   0.375   4.164 -0.0821 -0.2424  0.4157
 7191SOL    HW133032   4.468   0.441   4.214 -1.3792  0.2996  0.9766
 7191SOL    HW233033   4.481   0.334   4.104 -2.3289  1.1189 -2.8259
 7192SOL     OW33034   1.245   0.250   3.250 -0.3149  0.3275 -0.1307
 7192SOL    HW133035   1.308   0.322   3.248 -0.2950  0.2456 -2.0368
 7192SOL    HW233036   1.299   0.173   3.268  2.6554  2.3959 -0.3219
 7193SOL     OW33037   2.996   0.607   7.757  0.1369  0.1004 -0.1391
 7193SOL    HW133038   3.069   0.591   7.817  0.1132  0.7566  0.0643
 7193SOL    HW233039   2.932   0.636   7.822  0.0352 -1.5826  0.5048
 7194SOL     OW33040   1.109   3.272  17.566 -0.1466  0.1712  0.2777
 7194SOL    HW133041   1.181   3.332  17.584  0.1043 -0.1850  0.4484
 7194SOL    HW233042   1.120   3.269  17.471  2.3934 -2.4509  0.6574
 7195SOL     OW33043   0.968   0.488   1.570 -0.2287 -0.0185  0.3595
 7195SOL    HW133044   1.059   0.485   1.542 -0.7877  0.4445 -1.5250
 7195SOL    HW233045   0.975   0.427   1.643 -2.8019  2.0901  2.3724
 7196SOL     OW33046   2.134   4.550   6.411  0.6238 -0.2936 -0.4767
 7196SOL    HW133047   2.060   4.580   6.463 -0.7415 -0.2449 -2.4286
 7196SOL    HW233048   2.099   4.469   6.374 -0.9429  0.9887 -1.7898
 7197SOL     OW33049   3.504   2.563   2.272 -0.2188  0.6864  0.4788
 7197SOL    HW133050   3.436   2.551   2.339 -1.9943 -0.9505 -1.6047
 7197SOL    HW233051   3.497   2.479   2.227 -0.3691  0.0192  1.7453
 7198SOL     OW33052   1.122   0.585   5.945  0.1836  0.2914  0.0357
 7198SOL    HW133053   1.199   0.536   5.974 -0.7018 -1.8887 -1.2971
 7198SOL    HW233054   1.166   0.661   5.908 -0.1565  0.0709 -0.8049
 7199SOL     OW33055   3.348   4.493   2.420 -0.0143  0.3256  0.5917
 7199SOL    HW133056   3.437   4.464   2.440 -0.3227 -0.5621  0.6650
 7199SOL    HW233057   3.297   4.426   2.375  0.9742  0.0778 -0.1609
 7200SOL     OW33058   4.514   0.800  13.408 -0.1752 -0.2421 -0.3681
 7200SOL    HW133059   4.570   0.842  13.343 -2.0636  0.6454 -1.4058
 7200SOL    HW233060   4.426   0.814  13.374 -0.3337 -1.9845 -0.7106
 7201SOL     OW33061   0.043   1.855   5.951 -0.2492 -0.6071 -0.6474
 7201SOL    HW133062   4.679   1.882   5.930  0.0284 -0.1341 -1.2135
 7201SOL    HW233063   0.040   1.883   6.043 -1.2768 -2.1731 -0.2053
 7202SOL     OW33064   4.048   2.203   5.132 -0.2031  0.5417 -0.2745
 7202SOL    HW133065   3.970   2.158   5.102 -1.4384  1.8210  1.0208
 7202SOL    HW233066   4.019   2.289   5.102  1.3566  0.8923 -0.7664
 7203SOL     OW33067   2.066   2.724  12.541  0.2785  0.4888  0.1793
 7203SOL    HW133068   2.079   2.720  12.446  0.2232  3.2156  0.0849
 7203SOL    HW233069   2.011   2.646  12.556 -0.8357  1.7424  2.5544
 7204SOL     OW33070   0.018   1.993   2.663  0.2450 -0.1729 -0.3707
 7204SOL    HW133071   4.684   2.068   2.670 -0.7766 -0.8825 -1.4112
 7204SOL    HW233072   4.689   1.927   2.705  0.3342 -0.8248 -1.2854
 7205SOL     OW33073   3.897   2.226   2.509  0.3416  0.2057  0.9267
 7205SOL    HW133074   3.835   2.296   2.528 -0.4991 -0.1310 -0.5574
 7205SOL    HW233075   3.872   2.214   2.417 -1.7284  0.7342  1.4190
 7206SOL     OW33076   3.328   2.845   6.585 -0.3039 -0.0641  0.0291
 7206SOL    HW133077   3.283   2.767   6.617 -3.0005  1.6454  0.3179
 7206SOL    HW233078   3.418   2.824   6.610  0.4265  1.2577 -1.5186
 7207SOL     OW33079   0.326   3.646   4.194  0.5795  0.3625 -0.0615
 7207SOL    HW133080   0.283   3.714   4.142 -0.4823  0.4242  0.9022
 7207SOL    HW233081   0.336   3.574   4.131  0.4138 -1.3942  1.9298
 7208SOL     OW33082   1.915   4.012   9.516  0.4411 -0.1286 -0.4283
 7208SOL    HW133083   1.853   3.952   9.558  0.1560 -0.2315 -0.9933
 7208SOL    HW233084   1.854   4.057   9.457 -0.4871 -1.0111 -0.1555
 7209SOL     OW33085   1.466   3.139   0.120  0.2133 -0.2235 -0.0121
 7209SOL    HW133086   1.534   3.111   0.181  0.8921  2.0332  0.2841
 7209SOL    HW233087   1.389   3.131   0.176  1.3009 -0.2425  1.4979
 7210SOL     OW33088   1.878   0.154   8.565  0.0599 -0.5273  0.7290
 7210SOL    HW133089   1.946   0.086   8.561 -1.1286 -1.6709 -0.3775
 7210SOL    HW233090   1.808   0.091   8.545 -0.6965  0.8410 -1.0112
 7211SOL     OW33091   3.744   2.426  13.284 -0.2372  1.0510 -0.1445
 7211SOL    HW133092   3.777   2.483  13.353 -2.2017 -0.2827  1.9007
 7211SOL    HW233093   3.660   2.472  13.273 -0.6659  0.4573  0.6657
 7212SOL     OW33094   2.913   1.974   6.006 -0.0239 -0.1536  0.1807
 7212SOL    HW133095   2.922   2.028   6.085 -0.8638 -2.1507  1.6398
 7212SOL    HW233096   2.962   1.898   6.037  1.2633  1.6612  2.6319
 7213SOL     OW33097   2.268   1.842   4.889 -0.2958 -0.4271 -0.7929
 7213SOL    HW133098   2.272   1.934   4.861 -2.7754 -0.2748 -0.6799
 7213SOL    HW233099   2.175   1.826   4.873 -0.3925 -0.9141  0.2478
 7214SOL     OW33100   3.562   3.620   0.149  0.6213  0.2879 -0.0298
 7214SOL    HW133101   3.626   3.687   0.124 -0.2350  0.7300 -1.0413
 7214SOL    HW233102   3.493   3.640   0.085  0.3357  3.6660  1.2959
 7215SOL     OW33103   1.092   0.905   5.575  0.2961 -0.0821 -0.3026
 7215SOL    HW133104   1.095   0.906   5.479 -0.0247  1.1412 -0.2998
 7215SOL    HW233105   1.010   0.954   5.584  0.6161  0.3960 -0.0241
 7216SOL     OW33106   3.337   4.128   4.634 -0.4584  0.3758 -0.7173
 7216SOL    HW133107   3.312   4.178   4.711  1.3174 -1.4894  1.0705
 7216SOL    HW233108   3.290   4.165   4.560  0.0774 -1.2136 -1.8670
 7217SOL     OW33109   1.507   2.272   1.462 -0.0893  0.1183  0.5693
 7217SOL    HW133110   1.557   2.302   1.385  0.1138  2.4145  1.5861
 7217SOL    HW233111   1.500   2.178   1.447 -0.0675 -0.1002  1.9902
 7218SOL     OW33112   3.428   0.659   4.011  0.5546 -0.3368  0.2960
 7218SOL    HW133113   3.428   0.661   3.915  0.2468 -0.1257  0.3009
 7218SOL    HW233114   3.421   0.755   4.017 -0.6724 -0.3444 -1.0397
 7219SOL     OW33115   2.729   2.629   8.584 -0.1444 -0.4232  0.1386
 7219SOL    HW133116   2.769   2.712   8.610 -0.9003  1.3071 -4.0946
 7219SOL    HW233117   2.675   2.606   8.660 -0.6874  0.2371 -0.0382
 7220SOL     OW33118   1.289   1.156   2.343  0.5739  0.0456  0.6759
 7220SOL    HW133119   1.267   1.205   2.264 -1.2172 -0.9164  0.5810
 7220SOL    HW233120   1.213   1.178   2.397 -0.9332  0.9917 -1.8059
 7221SOL     OW33121   0.367   3.701  13.768 -0.5647  0.1518  0.1435
 7221SOL    HW133122   0.296   3.679  13.829  1.1782  0.5555  2.3105
 7221SOL    HW233123   0.426   3.627  13.782 -0.0252  0.4960 -0.3544
 7222SOL     OW33124   2.220   0.761   2.448  0.8477 -0.0350  0.3330
 7222SOL    HW133125   2.164   0.687   2.422  0.4069 -0.3456  2.1504
 7222SOL    HW233126   2.249   0.790   2.362  0.3718  1.4230  0.6740
 7223SOL     OW33127   0.440   1.469   4.532  0.1021 -0.0591  0.0380
 7223SOL    HW133128   0.458   1.549   4.483  0.3454  0.0129  0.2452
 7223SOL    HW233129   0.346   1.468   4.512 -0.2532  0.8593  1.6359
 7224SOL     OW33130   0.061   3.428   4.094 -0.3582  0.8802  0.6549
 7224SOL    HW133131   0.044   3.337   4.067  1.4023  0.4462  1.0393
 7224SOL    HW233132   0.089   3.483   4.021  0.2848  0.0447  0.2756
 7225SOL     OW33133   0.680   2.949   6.873 -0.3541 -0.2126 -0.0667
 7225SOL    HW133134   0.760   2.956   6.925 -0.4105  1.2616 -0.1756
 7225SOL    HW233135   0.619   2.892   6.921 -0.6158 -0.1692 -0.3488
 7226SOL     OW33136   0.713   1.012  17.236  0.0630  0.9308 -0.2667
 7226SOL    HW133137   0.661   0.970  17.305  1.0307  0.2333  0.0277
 7226SOL    HW233138   0.727   0.939  17.176 -0.9329  2.6623 -2.6002
 7227SOL     OW33139   0.409   4.198  12.707 -0.2722 -0.0789 -0.1395
 7227SOL    HW133140   0.408   4.135  12.634  2.3406 -0.2436 -0.0235
 7227SOL    HW233141   0.400   4.284  12.666 -1.7909  0.8133  2.1095
 7228SOL     OW33142   2.085   1.286   4.575 -0.0637  0.3703  0.1422
 7228SOL    HW133143   2.157   1.319   4.629 -0.8037  1.3685  0.5151
 7228SOL    HW233144   2.010   1.290   4.634  0.1590  3.6114  0.1666
 7229SOL     OW33145   1.134   0.397   5.503  0.4424 -0.0818 -0.4001
 7229SOL    HW133146   1.194   0.458   5.546 -1.0863  0.2703  1.2210
 7229SOL    HW233147   1.178   0.392   5.418  1.0589 -1.2117 -0.0163
 7230SOL     OW33148   2.303   3.595   6.686 -0.8155  0.3605  0.0534
 7230SOL    HW133149   2.224   3.630   6.645 -1.8097 -2.6148 -0.6117
 7230SOL    HW233150   2.318   3.530   6.617  1.3404 -0.1732  1.0449
 7231SOL     OW33151   3.304   1.616   3.065 -0.6856  0.1585 -0.0292
 7231SOL    HW133152   3.266   1.663   2.991  1.9977  1.2838 -0.6854
 7231SOL    HW233153   3.396   1.633   3.047 -0.8736 -0.4972 -1.5696
 7232SOL     OW33154   3.768   1.846   7.990 -0.0077 -0.5999 -0.2432
 7232SOL    HW133155   3.680   1.879   8.008 -0.5619 -1.9560 -0.4452
 7232SOL    HW233156   3.786   1.789   8.065 -0.6922 -0.2962  0.1534
 7233SOL     OW33157   0.722   3.544   1.217 -0.6967  0.1380 -0.2333
 7233SOL    HW133158   0.744   3.475   1.280  2.4205  0.5980 -0.8522
 7233SOL    HW233159   0.768   3.614   1.262  1.3067 -1.8471  0.7967
 7234SOL     OW33160   3.374   1.624   6.147  0.6450 -0.2346  0.1781
 7234SOL    HW133161   3.337   1.536   6.149 -0.7200  0.3847  1.3012
 7234SOL    HW233162   3.415   1.627   6.233  0.4392 -0.4200  0.2812
 7235SOL     OW33163   1.814   0.852   4.776 -0.3303 -0.9523  0.5790
 7235SOL    HW133164   1.746   0.897   4.726  0.8247 -0.0566 -0.1687
 7235SOL    HW233165   1.839   0.788   4.709  0.9911  0.9352 -0.7010
 7236SOL     OW33166   1.566   4.699  11.890  0.5573 -0.1715  0.4779
 7236SOL    HW133167   1.651   4.660  11.909  0.1434 -1.1983  0.2658
 7236SOL    HW233168   1.585   0.027  11.813  0.7301 -0.4050  0.3575
 7237SOL     OW33169   0.369   0.469   3.039  0.2240  0.5985 -0.5880
 7237SOL    HW133170   0.296   0.449   2.981  0.9819  2.5902 -2.2091
 7237SOL    HW233171   0.327   0.512   3.114  2.3772 -1.5189  1.8474
 7238SOL     OW33172   3.982   3.823   6.760  0.0084 -0.0819  0.0995
 7238SOL    HW133173   4.067   3.803   6.721 -0.2007  2.0822 -1.4773
 7238SOL    HW233174   3.950   3.736   6.786  0.4862  0.5668  2.7770
 7239SOL     OW33175   0.052   0.162  11.394 -0.0733 -0.0958  0.5301
 7239SOL    HW133176   0.029   0.075  11.427  1.6363 -0.9831 -0.5588
 7239SOL    HW233177   0.063   0.134  11.303  0.2916 -0.0905  0.5720
 7240SOL     OW33178   4.717   3.016  15.714  0.0370  0.4428  0.0234
 7240SOL    HW133179   0.034   3.019  15.800  0.4958 -2.6105 -0.1119
 7240SOL    HW233180   4.670   2.934  15.726 -1.2082  1.1942  0.2113
 7241SOL     OW33181   4.198   3.449   2.404 -0.3810 -0.0819 -0.4254
 7241SOL    HW133182   4.160   3.475   2.488  1.0044  0.3957  0.0536
 7241SOL    HW233183   4.223   3.538   2.378  2.8060 -0.2894  1.8699
 7242SOL     OW33184   0.366   3.323   8.220  0.5505  0.9272  0.4066
 7242SOL    HW133185   0.357   3.411   8.256 -2.1712  0.3969  0.9933
 7242SOL    HW233186   0.277   3.288   8.231  0.6660  0.3539 -0.4301
 7243SOL     OW33187   3.123   3.647  15.732 -0.3067 -0.9177 -0.0674
 7243SOL    HW133188   3.197   3.663  15.674 -0.5295  1.4953  0.3200
 7243SOL    HW233189   3.154   3.675  15.819  2.9997 -0.4472 -1.4200
 7244SOL     OW33190   2.064   0.286   7.293  0.8834  0.5266 -0.0183
 7244SOL    HW133191   1.983   0.320   7.331  2.0253  0.8168  2.1635
 7244SOL    HW233192   2.104   0.230   7.359  1.8603 -0.1743 -1.2182
 7245SOL     OW33193   3.878   2.517   7.374  0.3002 -0.4217  0.3300
 7245SOL    HW133194   3.934   2.590   7.350 -0.2847 -1.1561 -3.2173
 7245SOL    HW233195   3.936   2.464   7.428  1.2162  1.5051  1.2368
 7246SOL     OW33196   0.417   4.414   6.606 -0.0780 -0.3852 -0.2119
 7246SOL    HW133197   0.353   4.350   6.577 -0.3253 -1.1714  2.0153
 7246SOL    HW233198   0.364   4.494   6.603 -1.0280 -0.9915  0.6629
 7247SOL     OW33199   1.392   0.801   4.301 -0.5826  0.3036 -0.5946
 7247SOL    HW133200   1.316   0.817   4.246  1.1364 -0.7205 -3.2536
 7247SOL    HW233201   1.352   0.772   4.383 -0.8581  0.5944 -0.6284
 7248SOL     OW33202   3.978   2.102   7.686  0.6901  0.1480  0.2847
 7248SOL    HW133203   3.946   2.012   7.690 -0.9985  0.8379  1.9807
 7248SOL    HW233204   3.961   2.127   7.776 -1.4233  0.6400 -0.2651
 7249SOL     OW33205   4.609   4.309  11.939 -0.3534 -0.2753  0.4840
 7249SOL    HW133206   4.619   4.282  12.031 -0.7286 -2.8928 -0.2362
 7249SOL    HW233207   4.552   4.385  11.936  0.7168  0.4674 -0.6886
 7250SOL     OW33208   3.798   3.713   5.462 -0.3707  0.3417 -0.0238
 7250SOL    HW133209   3.890   3.735   5.475 -0.4497  0.4598  0.3343
 7250SOL    HW233210   3.776   3.741   5.373 -0.6215 -1.7289 -0.6014
 7251SOL     OW33211   3.850   2.534  13.519 -0.6280  0.4910  1.0619
 7251SOL    HW133212   3.919   2.487  13.566 -0.5952  1.2617  1.7829
 7251SOL    HW233213   3.868   2.628  13.532 -0.3999  0.6579 -0.3857
 7252SOL     OW33214   0.445   0.297   8.800  0.8147  0.1353  0.1534
 7252SOL    HW133215   0.379   0.304   8.868  0.0196  1.2968 -0.7410
 7252SOL    HW233216   0.472   0.388   8.792  1.5215 -0.0285  0.6772
 7253SOL     OW33217   3.495   0.886  15.697 -0.0633 -0.2470  0.3509
 7253SOL    HW133218   3.583   0.921  15.693 -0.4049  0.3137 -2.8567
 7253SOL    HW233219   3.481   0.902  15.790  0.1716 -1.1019  0.5325
 7254SOL     OW33220   1.878   2.896   6.253 -0.2360  0.4787 -0.4002
 7254SOL    HW133221   1.964   2.864   6.226 -0.7269 -1.5655  0.4355
 7254SOL    HW233222   1.825   2.817   6.266 -0.0308  0.7291  1.9100
 7255SOL     OW33223   1.366   3.241   5.093 -0.1631  0.4793 -0.4019
 7255SOL    HW133224   1.285   3.279   5.058 -1.2191 -0.7563  0.7203
 7255SOL    HW233225   1.347   3.148   5.102 -1.4571  0.7992  0.3351
 7256SOL     OW33226   3.805   2.568   5.236  0.3613 -0.3414 -0.0549
 7256SOL    HW133227   3.731   2.508   5.249  0.1432 -0.1295 -0.3314
 7256SOL    HW233228   3.795   2.628   5.309  1.5654 -0.8129  0.4982
 7257SOL     OW33229   1.464   3.184   7.899 -0.0828 -0.2561  0.1578
 7257SOL    HW133230   1.514   3.218   7.974  1.2269 -1.0521 -0.3494
 7257SOL    HW233231   1.489   3.251   7.835 -0.0811 -0.2231  0.1927
 7258SOL     OW33232   3.467   3.145  16.955 -0.3532  0.1169  0.5861
 7258SOL    HW133233   3.372   3.134  16.952 -0.1064 -0.9600 -3.1189
 7258SOL    HW233234   3.480   3.197  17.034 -1.0064  0.7264  0.2987
 7259SOL     OW33235   3.852   1.475   7.536 -0.1442 -0.4673  0.1319
 7259SOL    HW133236   3.919   1.539   7.559 -2.2335  0.9520  2.2292
 7259SOL    HW233237   3.796   1.470   7.613 -1.8748 -1.3555 -1.1923
 7260SOL     OW33238   2.259   1.189  15.655 -0.5046 -0.5485 -0.2597
 7260SOL    HW133239   2.219   1.257  15.710  3.3297 -0.2491  2.1362
 7260SOL    HW233240   2.213   1.210  15.574  1.1162  0.9895 -0.7794
 7261SOL     OW33241   4.126   4.451   6.100 -0.4029 -0.4174 -0.1906
 7261SOL    HW133242   4.096   4.457   6.191  0.9509 -2.6321  0.3951
 7261SOL    HW233243   4.063   4.387   6.066  1.6981 -1.1099 -2.7787
 7262SOL     OW33244   2.515   2.626  13.843  0.2623  0.1222  0.4461
 7262SOL    HW133245   2.442   2.596  13.789  0.5966  0.8379 -0.4061
 7262SOL    HW233246   2.584   2.652  13.783  1.2466 -1.5352  0.8375
 7263SOL     OW33247   0.846   2.879   1.813 -0.0120 -0.0153  0.4092
 7263SOL    HW133248   0.855   2.965   1.854 -1.3483  0.0622  0.5503
 7263SOL    HW233249   0.819   2.907   1.726 -0.8211 -1.7150  0.1100
 7264SOL     OW33250   0.077   4.520   3.152  0.2910 -0.5367 -0.4640
 7264SOL    HW133251   0.087   4.446   3.213  0.5882  0.4348  0.6708
 7264SOL    HW233252   0.119   4.489   3.072  1.8171 -1.4672  0.6991
 7265SOL     OW33253   4.308   3.308   3.361  0.0862  0.5927 -0.2846
 7265SOL    HW133254   4.226   3.272   3.394  0.7328  1.9858  2.8729
 7265SOL    HW233255   4.325   3.244   3.292  1.8863  1.3947 -0.5771
 7266SOL     OW33256   2.636   0.148   2.408  0.4579  0.0105  0.0565
 7266SOL    HW133257   2.668   0.073   2.458 -0.9967 -0.5745  0.1007
 7266SOL    HW233258   2.669   0.216   2.467  0.8595  0.8861 -1.1690
 7267SOL     OW33259   4.176   3.039  12.495 -0.0389 -0.1672  0.1768
 7267SOL    HW133260   4.162   3.060  12.403  0.7456  0.7026  0.2619
 7267SOL    HW233261   4.270   3.025  12.493 -0.3702 -1.9446 -3.4718
 7268SOL     OW33262   4.149   3.691   9.794  0.2449  0.0681  0.3378
 7268SOL    HW133263   4.061   3.653   9.794  1.3559 -2.5518  2.6013
 7268SOL    HW233264   4.157   3.682   9.889 -0.7241 -1.3526  0.2954
 7269SOL     OW33265   3.994   0.864   8.805  0.9507 -0.0365 -0.3341
 7269SOL    HW133266   3.923   0.875   8.742  1.4130  1.4857 -0.5946
 7269SOL    HW233267   4.072   0.860   8.749 -0.0501 -0.6895 -1.6905
 7270SOL     OW33268   1.082   2.573   7.000 -0.2454  0.1308  0.3425
 7270SOL    HW133269   1.108   2.513   6.930  2.7381  2.8657 -0.9059
 7270SOL    HW233270   1.150   2.576   7.067 -0.2238 -0.2948  0.3437
 7271SOL     OW33271   1.468   3.419  16.602  0.0832  0.0538 -0.2108
 7271SOL    HW133272   1.490   3.507  16.571 -1.0033  0.8401  1.2018
 7271SOL    HW233273   1.444   3.431  16.694 -2.0708  2.7397 -1.0950
 7272SOL     OW33274   4.113   1.761   9.853  0.1294  0.4045  0.1265
 7272SOL    HW133275   4.161   1.843   9.838  1.5933 -0.3760  0.5187
 7272SOL    HW233276   4.135   1.754   9.946  2.5371  3.2206 -0.2155
 7273SOL     OW33277   0.505   2.746   5.977 -0.6833 -0.5181 -0.1181
 7273SOL    HW133278   0.599   2.746   5.997 -1.0860  0.3833  1.7505
 7273SOL    HW233279   0.501   2.828   5.928  2.2711  1.4040  2.8036
 7274SOL     OW33280   2.768   2.538   7.619 -0.1099 -0.0078 -0.3197
 7274SOL    HW133281   2.860   2.511   7.620  0.2939  1.3435 -0.9645
 7274SOL    HW233282   2.781   2.632   7.608 -1.2378  0.1385 -0.3638
 7275SOL     OW33283   4.660   4.071   1.780 -0.6096  0.2161 -0.5943
 7275SOL    HW133284   4.570   4.044   1.762  0.3123 -1.2731 -2.9579
 7275SOL    HW233285   4.678   4.039   1.869  1.9105  0.2087 -1.1111
 7276SOL     OW33286   1.818   0.909   3.127  1.1556 -0.4301 -0.0519
 7276SOL    HW133287   1.910   0.884   3.140  1.7572  0.6912 -2.0564
 7276SOL    HW233288   1.833   0.972   3.056 -1.8913 -0.0486 -0.3577
 7277SOL     OW33289   1.716   3.993  16.826 -0.1799 -0.2486 -0.0376
 7277SOL    HW133290   1.657   3.936  16.777  0.8519  0.3635 -1.9686
 7277SOL    HW233291   1.672   3.998  16.912 -2.9123  1.1591 -1.5002
 7278SOL     OW33292   1.933   0.851  12.723 -0.3121  0.2559  0.0180
 7278SOL    HW133293   2.022   0.859  12.688 -1.0287 -0.1787 -1.9277
 7278SOL    HW233294   1.924   0.946  12.734 -0.4586  0.2300  0.1169
 7279SOL     OW33295   4.408   3.623   5.750  0.6576 -0.6403 -0.3167
 7279SOL    HW133296   4.432   3.573   5.672 -1.4617 -2.3643  0.1217
 7279SOL    HW233297   4.335   3.570   5.783 -1.2109  0.9052 -1.9907
 7280SOL     OW33298   2.035   1.940   7.883 -0.0147 -0.8880  0.5355
 7280SOL    HW133299   2.063   1.860   7.928 -1.8562 -1.7565  0.1726
 7280SOL    HW233300   2.097   2.006   7.911 -0.1882 -0.0210 -1.1104
 7281SOL     OW33301   2.776   0.097   7.763  0.4031  0.3276  0.2800
 7281SOL    HW133302   2.822   0.043   7.698 -0.6251 -0.6469  0.3627
 7281SOL    HW233303   2.814   0.184   7.749 -1.3418  0.8939 -0.8543
 7282SOL     OW33304   2.274   4.249   0.386 -0.2031 -0.0337  0.1569
 7282SOL    HW133305   2.213   4.178   0.404  0.9757 -0.6182  1.8464
 7282SOL    HW233306   2.363   4.220   0.406 -0.3563 -0.7233 -0.1982
 7283SOL     OW33307   4.510   2.753   1.827  0.5848  0.1773 -0.0095
 7283SOL    HW133308   4.459   2.741   1.907  1.9239 -1.4135  0.6124
 7283SOL    HW233309   4.483   2.844   1.820 -0.2007 -0.1056 -0.5916
 7284SOL     OW33310   2.114   1.166  14.834 -0.2973 -0.2732 -0.5834
 7284SOL    HW133311   2.172   1.230  14.792  0.9242 -0.6370  0.5423
 7284SOL    HW233312   2.125   1.091  14.775  0.4502  0.3812 -1.2761
 7285SOL     OW33313   1.454   1.832   2.491 -0.7384  0.3482  0.2441
 7285SOL    HW133314   1.423   1.812   2.402 -1.9351 -0.8503  0.9484
 7285SOL    HW233315   1.549   1.845   2.485 -0.7623  0.4429  0.0488
 7286SOL     OW33316   4.498   0.712  14.501 -0.1960 -0.4600  0.2114
 7286SOL    HW133317   4.442   0.641  14.531  0.4327 -1.0402  0.0222
 7286SOL    HW233318   4.554   0.740  14.574  0.6657  1.9749 -1.3695
 7287SOL     OW33319   0.501   0.909  17.389  0.6091  0.0989 -0.4136
 7287SOL    HW133320   0.490   0.926  17.482  0.6625  0.0678 -0.4018
 7287SOL    HW233321   0.414   0.937  17.360  0.8647  1.1071 -0.2056
 7288SOL     OW33322   0.901   1.110   3.911  0.0309  0.3357 -0.0664
 7288SOL    HW133323   0.820   1.083   3.954  1.0803 -0.0175  1.7097
 7288SOL    HW233324   0.961   1.073   3.977 -1.2769  1.0866  1.5360
 7289SOL     OW33325   4.684   0.008   2.662  0.2583  0.0817 -0.1462
 7289SOL    HW133326   4.704   4.640   2.664 -0.2311 -0.0270 -0.1427
 7289SOL    HW233327   4.593   0.015   2.632  0.1970 -0.0753  0.0065
 7290SOL     OW33328   0.230   1.185   4.776  0.4870 -0.3585 -0.3172
 7290SOL    HW133329   0.181   1.102   4.770  0.6869 -0.6683  2.6938
 7290SOL    HW233330   0.312   1.157   4.735  0.2463 -0.1986 -0.9191
 7291SOL     OW33331   1.887   1.165   8.635  0.6226 -0.4299  0.1283
 7291SOL    HW133332   1.864   1.090   8.580 -0.7197  0.7126 -0.8805
 7291SOL    HW233333   1.845   1.134   8.715  1.8776 -1.3153  0.4325
 7292SOL     OW33334   4.080   1.250   3.219  0.0811 -0.7470  0.6675
 7292SOL    HW133335   4.144   1.271   3.287 -0.8150 -0.2327  1.3500
 7292SOL    HW233336   4.014   1.206   3.273  0.9131  0.8413  2.9664
 7293SOL     OW33337   3.666   4.454   6.405  0.2603  0.3193 -0.1833
 7293SOL    HW133338   3.705   4.367   6.393 -2.1635 -0.9071  0.7761
 7293SOL    HW233339   3.607   4.433   6.478  0.2309 -0.8524 -0.5374
 7294SOL     OW33340   2.382   2.087   6.387  0.4828  0.0151 -0.0453
 7294SOL    HW133341   2.314   2.037   6.342 -1.3997  1.9875  0.6274
 7294SOL    HW233342   2.369   2.177   6.357  0.6135  0.6428  1.7611
 7295SOL     OW33343   4.481   0.046  12.672  0.2171  0.0215  0.2468
 7295SOL    HW133344   4.388   0.050  12.648  0.0063  0.3517  1.1169
 7295SOL    HW233345   4.517   0.123  12.628 -0.5399  1.6163  2.4141
 7296SOL     OW33346   3.834   4.246   3.344 -0.6685 -0.1942  0.1248
 7296SOL    HW133347   3.846   4.252   3.439 -1.2581  1.9131  0.0692
 7296SOL    HW233348   3.743   4.278   3.341 -0.1080  1.4782  0.6731
 7297SOL     OW33349   1.449   1.430   1.942  0.4711  0.4034 -0.7910
 7297SOL    HW133350   1.496   1.370   1.884  1.3330  0.8204 -0.5208
 7297SOL    HW233351   1.526   1.481   1.966 -0.3001  0.6890  1.0656
 7298SOL     OW33352   2.107   0.999  12.240 -0.7822 -0.8626 -0.1603
 7298SOL    HW133353   2.074   0.957  12.160 -1.7783 -0.5844  0.1079
 7298SOL    HW233354   2.039   0.956  12.292  0.1135  0.7852  2.3567
 7299SOL     OW33355   2.364   3.201   8.671 -0.1066  0.0655  0.3522
 7299SOL    HW133356   2.338   3.240   8.588 -2.3944  0.3545  1.2142
 7299SOL    HW233357   2.373   3.285   8.716  1.0821 -0.1217  0.4766
 7300SOL     OW33358   2.365   4.351  14.234  0.2702  0.2467 -0.2358
 7300SOL    HW133359   2.358   4.256  14.222  0.2864  0.1141  0.7902
 7300SOL    HW233360   2.379   4.394  14.150 -0.4052  0.7538 -0.0850
 7301SOL     OW33361   1.347   1.294   7.482  0.0646 -0.4055  0.4856
 7301SOL    HW133362   1.332   1.263   7.572  0.1218  0.4920  0.8000
 7301SOL    HW233363   1.303   1.379   7.481 -0.0095 -0.3853  4.4427
 7302SOL     OW33364   1.224   2.526   1.252  0.3464  0.0854  0.1927
 7302SOL    HW133365   1.195   2.479   1.175 -1.0221 -0.4427  1.0188
 7302SOL    HW233366   1.199   2.466   1.323 -0.3016  0.3659  0.2041
 7303SOL     OW33367   3.281   3.950   4.331  0.3022 -0.3946 -0.6127
 7303SOL    HW133368   3.269   3.977   4.240  3.7895 -3.5206 -2.0059
 7303SOL    HW233369   3.192   3.917   4.346  1.3054 -2.1931  1.2598
 7304SOL     OW33370   3.553   2.809   3.471 -0.8731 -0.3219  0.3145
 7304SOL    HW133371   3.578   2.724   3.437  0.2878  0.2212 -0.2048
 7304SOL    HW233372   3.495   2.862   3.416  2.0282  2.8416  0.3064
 7305SOL     OW33373   1.781   2.783   2.546 -0.1014 -0.0287 -0.6172
 7305SOL    HW133374   1.781   2.877   2.527  1.5591  0.1886  0.4379
 7305SOL    HW233375   1.874   2.768   2.562 -0.3520 -1.5001 -0.5505
 7306SOL     OW33376   2.333   4.671  13.873 -0.0694  0.0198 -0.1069
 7306SOL    HW133377   2.370   0.034  13.876  0.6156 -0.2059 -2.2095
 7306SOL    HW233378   2.411   4.617  13.886  0.1352  0.4690  0.5357
 7307SOL     OW33379   3.792   3.631   5.190 -0.2202  0.2155  0.0246
 7307SOL    HW133380   3.878   3.627   5.148 -0.4837 -0.4449 -0.4341
 7307SOL    HW233381   3.784   3.548   5.237  1.5626  0.5247  0.8832
 7308SOL     OW33382   1.341   0.352   4.849 -0.1877  0.0030  0.3163
 7308SOL    HW133383   1.341   0.355   4.753  0.1302 -1.1809  0.2772
 7308SOL    HW233384   1.380   0.266   4.864  0.0484  0.1457  0.5260
 7309SOL     OW33385   3.676   1.807   6.609  0.2561  0.2054  0.4530
 7309SOL    HW133386   3.760   1.763   6.594  0.9771  1.4060  0.9932
 7309SOL    HW233387   3.632   1.744   6.666 -2.0005 -0.6987 -2.2746
 7310SOL     OW33388   0.730   4.199   5.142  0.7693 -0.4897 -0.0420
 7310SOL    HW133389   0.678   4.252   5.202 -0.3371 -1.1786 -0.3879
 7310SOL    HW233390   0.754   4.123   5.194 -1.4234 -1.3904 -0.3501
 7311SOL     OW33391   1.785   0.511  16.786  0.1203 -0.0540 -0.0251
 7311SOL    HW133392   1.842   0.536  16.713 -1.7885  0.2483 -1.4109
 7311SOL    HW233393   1.856   0.470  16.835 -0.6175  2.5572  3.2036
 7312SOL     OW33394   1.198   1.213   3.258 -0.1794 -0.2484 -0.1661
 7312SOL    HW133395   1.206   1.179   3.169 -0.5188 -1.6603  0.3391
 7312SOL    HW233396   1.223   1.306   3.258  0.7089 -0.4884 -0.4717
 7313SOL     OW33397   2.766   2.078   6.967 -0.5043  0.2457  0.2060
 7313SOL    HW133398   2.836   2.143   6.956 -1.4835  1.0968 -1.0330
 7313SOL    HW233399   2.721   2.111   7.044  1.0883  0.5692  1.0029
 7314SOL     OW33400   4.622   3.858  13.126 -0.3109  0.1775 -0.2297
 7314SOL    HW133401   4.582   3.942  13.152 -2.5974 -0.7416 -0.8208
 7314SOL    HW233402   4.682   3.872  13.053 -0.6291 -0.5112 -0.6179
 7315SOL     OW33403   2.373   1.482   2.935 -0.5897 -0.3356  0.3216
 7315SOL    HW133404   2.294   1.429   2.930 -1.9573  1.9220 -2.4135
 7315SOL    HW233405   2.350   1.531   3.013 -0.7705 -0.0610  0.0967
 7316SOL     OW33406   2.421   1.398  17.091  0.0036 -0.2894  0.3428
 7316SOL    HW133407   2.390   1.488  17.083 -1.7512 -1.0549 -1.5010
 7316SOL    HW233408   2.337   1.352  17.099  0.6596 -1.6255 -0.3994
 7317SOL     OW33409   4.682   0.607  17.006 -0.1407  0.3565  0.4524
 7317SOL    HW133410   0.039   0.566  17.032 -0.5205  0.4234  1.7714
 7317SOL    HW233411   4.639   0.635  17.086  0.2777  1.8912  0.1351
 7318SOL     OW33412   1.985   4.430   3.914  0.0705  0.3062 -0.1347
 7318SOL    HW133413   1.955   4.340   3.898  1.4047  0.4593 -3.4558
 7318SOL    HW233414   2.041   4.410   3.989 -1.3353  0.3969  0.9498
 7319SOL     OW33415   2.658   1.988   8.724 -0.4241  0.2955  0.0473
 7319SOL    HW133416   2.589   1.927   8.752 -2.0839  3.4042  2.8132
 7319SOL    HW233417   2.702   1.923   8.669 -1.5635  0.7992 -1.4572
 7320SOL     OW33418   2.971   3.167   3.459 -0.6376 -0.7390 -0.1200
 7320SOL    HW133419   3.057   3.124   3.466 -0.6500 -0.8090 -0.3758
 7320SOL    HW233420   2.927   3.097   3.409  1.4171 -0.5550 -2.2063
 7321SOL     OW33421   4.705   2.178   5.255 -0.0611 -0.1465 -0.3983
 7321SOL    HW133422   4.717   2.185   5.350 -0.6152  1.7532 -0.4558
 7321SOL    HW233423   0.059   2.127   5.237 -0.4018 -0.7467 -0.1535
 7322SOL     OW33424   1.897   3.321   3.456  0.5698 -0.0630  0.7389
 7322SOL    HW133425   1.937   3.408   3.453 -0.7413  0.5663  1.3122
 7322SOL    HW233426   1.823   3.350   3.510  1.4294 -0.5661  2.1932
 7323SOL     OW33427   2.633   0.682   4.579  0.2551 -0.1979 -0.0129
 7323SOL    HW133428   2.652   0.696   4.671  1.7042  0.4324 -0.4185
 7323SOL    HW233429   2.587   0.598   4.590 -1.0902  0.6555  0.8965
 7324SOL     OW33430   1.147   4.352  16.468 -0.0392  0.0721 -0.1912
 7324SOL    HW133431   1.183   4.374  16.554  3.4846  2.5827 -2.3059
 7324SOL    HW233432   1.053   4.356  16.488  0.6151  1.5607  2.5362
 7325SOL     OW33433   3.683   4.404   0.129 -0.2055 -0.0410 -0.6589
 7325SOL    HW133434   3.685   4.309   0.143 -1.8601 -0.2896 -2.1799
 7325SOL    HW233435   3.600   4.419   0.084  0.0140  2.0915 -0.3654
 7326SOL     OW33436   3.590   0.083   2.877 -0.0179  0.2395 -0.4472
 7326SOL    HW133437   3.659   0.077   2.812  0.0723  0.3846 -0.3663
 7326SOL    HW233438   3.575   0.178   2.885  0.1423  0.2193  0.1016
 7327SOL     OW33439   0.406   3.533   6.027 -0.1258  0.1130  0.1565
 7327SOL    HW133440   0.409   3.499   5.937  1.5012  1.0374 -0.1334
 7327SOL    HW233441   0.391   3.627   6.028 -1.6444 -0.0817 -3.0724
 7328SOL     OW33442   0.553   4.566  11.304 -0.9278 -0.6054  0.0899
 7328SOL    HW133443   0.542   4.655  11.337  0.0832 -0.6384  0.4976
 7328SOL    HW233444   0.462   4.546  11.282 -1.0637  0.6479 -0.4546
 7329SOL     OW33445   3.748   0.303  10.015  0.2847  0.0223  0.2508
 7329SOL    HW133446   3.727   0.395  10.025  2.1062  0.4976 -0.2558
 7329SOL    HW233447   3.697   0.284   9.937 -0.0611 -1.8375  0.9252
 7330SOL     OW33448   2.209   3.236  12.610  0.5849 -0.0526 -0.1605
 7330SOL    HW133449   2.140   3.299  12.634  1.3689  0.9058 -0.4297
 7330SOL    HW233450   2.165   3.167  12.561  0.5723  0.1158 -0.3864
 7331SOL     OW33451   2.412   3.514   3.595 -0.3126  0.6370  0.2091
 7331SOL    HW133452   2.481   3.489   3.656 -1.4473  2.4180  2.1932
 7331SOL    HW233453   2.338   3.485   3.648 -0.5580 -0.9041 -0.9757
 7332SOL     OW33454   0.561   0.305   4.830 -0.4776  0.0750 -0.2073
 7332SOL    HW133455   0.487   0.251   4.804 -0.5020  0.0577 -0.0997
 7332SOL    HW233456   0.585   0.344   4.745  0.3916 -0.6552 -0.2990
 7333SOL     OW33457   2.637   1.115  15.411 -0.1030  0.0851  0.0819
 7333SOL    HW133458   2.682   1.122  15.327  0.3543 -0.4695  0.2846
 7333SOL    HW233459   2.549   1.085  15.387 -1.4427  3.3063  0.9872
 7334SOL     OW33460   4.643   0.638  13.592 -0.3668 -0.4575  0.1547
 7334SOL    HW133461   4.645   0.708  13.527 -1.6855 -1.0748 -0.5577
 7334SOL    HW233462   4.581   0.576  13.553  0.5567 -0.2011 -1.7485
 7335SOL     OW33463   2.753   2.014   9.000 -0.1484  0.1424  0.5815
 7335SOL    HW133464   2.840   2.013   8.962 -0.6460  0.0603 -0.5450
 7335SOL    HW233465   2.699   2.034   8.924  2.8119  1.1312 -1.2622
 7336SOL     OW33466   2.363   3.091   6.360  0.0597 -0.2587  0.3785
 7336SOL    HW133467   2.421   3.146   6.307 -1.7169 -0.1886 -1.4961
 7336SOL    HW233468   2.298   3.159   6.379  0.4957  0.3532 -0.3020
 7337SOL     OW33469   3.270   0.170   6.900 -0.0179 -0.5408 -0.2174
 7337SOL    HW133470   3.264   0.075   6.914  1.5639 -0.7524 -1.0843
 7337SOL    HW233471   3.177   0.193   6.895  0.1690  0.3080  0.2143
 7338SOL     OW33472   0.171   0.806  15.838  0.3576 -0.1216  0.4148
 7338SOL    HW133473   0.109   0.758  15.894  0.8136 -1.4843 -0.2518
 7338SOL    HW233474   0.226   0.728  15.830  1.0665  0.5139 -0.8621
 7339SOL     OW33475   4.307   2.880   9.813  0.3586 -0.4910  0.1109
 7339SOL    HW133476   4.365   2.834   9.752  0.3322 -0.8446  0.3555
 7339SOL    HW233477   4.272   2.945   9.751  1.9180  1.0924  0.8898
 7340SOL     OW33478   3.332   3.111   5.452  0.0940  0.2031  0.1804
 7340SOL    HW133479   3.255   3.083   5.403  0.5443 -3.5955  1.6446
 7340SOL    HW233480   3.291   3.182   5.501  1.9596  1.3482  0.0850
 7341SOL     OW33481   0.858   1.017   2.749 -0.0342  0.0505  0.1972
 7341SOL    HW133482   0.869   0.944   2.688  0.2289  0.7916 -0.6372
 7341SOL    HW233483   0.763   1.003   2.747 -0.0015  0.0024 -0.9085
 7342SOL     OW33484   3.822   4.651   6.669 -0.2749  0.2680 -0.2642
 7342SOL    HW133485   3.789   4.562   6.661 -2.2674  0.8398  1.7039
 7342SOL    HW233486   3.914   4.635   6.649 -0.5147  0.4120 -1.5033
 7343SOL     OW33487   3.905   2.846   2.280  0.0325  0.2220  0.0996
 7343SOL    HW133488   3.814   2.863   2.306 -0.2555  0.8082 -1.3043
 7343SOL    HW233489   3.906   2.750   2.288 -0.2477  0.1371 -0.9426
 7344SOL     OW33490   4.539   2.833   2.919 -0.0568  0.0580 -0.6487
 7344SOL    HW133491   4.609   2.830   2.984 -0.9392 -0.3755  0.2890
 7344SOL    HW233492   4.589   2.799   2.846  0.4086 -0.6835  0.0147
 7345SOL     OW33493   1.110   1.412   5.595 -0.3930 -0.2537  0.8571
 7345SOL    HW133494   1.089   1.357   5.671 -2.1131 -2.4183 -1.1602
 7345SOL    HW233495   1.188   1.369   5.558 -0.7627  1.0690 -1.4310
 7346SOL     OW33496   4.019   0.220   8.108  0.1965  0.2053  0.3120
 7346SOL    HW133497   4.025   0.128   8.084 -0.3541 -0.0318  1.1115
 7346SOL    HW233498   4.058   0.247   8.024 -0.4093 -2.0033 -0.6757
 7347SOL     OW33499   1.966   4.421   8.249  0.3560  0.3417  0.3760
 7347SOL    HW133500   1.927   4.338   8.276 -1.1067  0.4115 -1.5585
 7347SOL    HW233501   2.039   4.392   8.194  0.1528 -2.0225  1.3277
 7348SOL     OW33502   4.514   2.899  11.000 -0.2744  0.0108  0.1921
 7348SOL    HW133503   4.519   2.871  10.908 -1.1880 -1.5763  0.6281
 7348SOL    HW233504   4.552   2.987  10.993  2.2118 -1.0448  0.5137
 7349SOL     OW33505   1.692   3.691  17.132 -0.3660  0.4162 -0.0129
 7349SOL    HW133506   1.676   3.642  17.051 -2.0772  0.8783  0.0554
 7349SOL    HW233507   1.605   3.715  17.164 -2.2332 -4.0642 -1.7140
 7350SOL     OW33508   3.901   4.029   4.620  0.8410  0.0730  0.1782
 7350SOL    HW133509   3.989   4.044   4.653  2.2481 -1.8662 -2.6668
 7350SOL    HW233510   3.892   3.934   4.632 -0.2056  0.2726  0.9131
 7351SOL     OW33511   3.647   1.108   7.375 -0.2668 -0.1689 -0.0357
 7351SOL    HW133512   3.561   1.066   7.370  0.4865 -1.8366  1.1202
 7351SOL    HW233513   3.661   1.127   7.468  1.0523  1.1307 -0.5031
 7352SOL     OW33514   3.079   0.477   0.776  0.6160  0.0768 -0.0708
 7352SOL    HW133515   3.107   0.533   0.849  2.3861 -0.0363 -0.6615
 7352SOL    HW233516   3.156   0.489   0.720  1.2564  1.5767  1.1209
 7353SOL     OW33517   2.788   1.584   2.764  0.1535  0.5312  0.1005
 7353SOL    HW133518   2.792   1.617   2.854  2.1962 -0.0323  0.2202
 7353SOL    HW233519   2.697   1.595   2.739  0.7938  2.8379 -1.2200
 7354SOL     OW33520   4.482   0.850   6.934  0.3904 -0.1760  1.1426
 7354SOL    HW133521   4.440   0.808   6.859 -0.1366  3.1341 -0.4226
 7354SOL    HW233522   4.514   0.931   6.893  4.5600 -0.6703  3.4953
 7355SOL     OW33523   4.604   2.496   1.780  0.0572  0.3303 -0.4730
 7355SOL    HW133524   4.579   2.574   1.828  1.4368  0.7655 -0.4584
 7355SOL    HW233525   4.573   2.511   1.691 -1.2414  0.3104 -0.0258
 7356SOL     OW33526   3.897   4.409  10.670  0.2016  0.4028  0.0689
 7356SOL    HW133527   3.966   4.344  10.687  0.7662  0.9426 -0.1625
 7356SOL    HW233528   3.931   4.439  10.586 -0.3890 -2.2385 -1.1221
 7357SOL     OW33529   3.541   0.172  16.581  0.1672  0.1486  0.5359
 7357SOL    HW133530   3.452   0.181  16.616 -0.6096  0.0464 -1.4171
 7357SOL    HW233531   3.564   0.087  16.620 -1.0584 -0.4890 -0.0986
 7358SOL     OW33532   2.551   3.130  10.235  0.2053  0.0163 -0.3468
 7358SOL    HW133533   2.595   3.208  10.268 -0.3525  0.9977 -1.9210
 7358SOL    HW233534   2.485   3.125  10.304 -0.5501  3.1711 -0.8497
 7359SOL     OW33535   0.405   2.362   3.897  0.3839 -0.1494 -0.3192
 7359SOL    HW133536   0.389   2.289   3.837  0.5620  0.4721 -1.1179
 7359SOL    HW233537   0.494   2.339   3.921  0.2057 -0.8957 -0.3815
 7360SOL     OW33538   3.208   3.300   3.236 -0.2000 -0.4429  0.5874
 7360SOL    HW133539   3.122   3.341   3.247  0.1526  0.3768  0.2899
 7360SOL    HW233540   3.184   3.211   3.211 -0.8677 -0.3633  0.9449
 7361SOL     OW33541   4.095   4.206   7.612  0.0026  0.6489 -0.0599
 7361SOL    HW133542   4.008   4.211   7.651  0.0335  0.0998  0.0806
 7361SOL    HW233543   4.073   4.221   7.520 -1.1686  1.0368  0.2824
 7362SOL     OW33544   1.967   2.630  11.402  0.3713  0.3592  0.4051
 7362SOL    HW133545   1.958   2.656  11.494  3.9528 -2.3876  1.5259
 7362SOL    HW233546   1.975   2.719  11.367 -1.9165  0.5831  0.4478
 7363SOL     OW33547   3.906   2.380  13.955 -0.2077  0.1292 -0.1995
 7363SOL    HW133548   3.926   2.337  13.872  1.9127  1.0427 -0.1408
 7363SOL    HW233549   3.933   2.315  14.021  3.4418  0.4610 -1.3789
 7364SOL     OW33550   2.724   1.669   3.460 -0.2593  0.1167  0.0958
 7364SOL    HW133551   2.724   1.573   3.460 -0.8699  0.1088  2.7136
 7364SOL    HW233552   2.812   1.689   3.426 -0.5160  0.6456 -0.2594
 7365SOL     OW33553   2.730   2.940   2.685  0.2263 -0.2858  0.9669
 7365SOL    HW133554   2.825   2.943   2.676  0.0322  1.8321 -0.3687
 7365SOL    HW233555   2.713   2.846   2.677 -2.2651  0.0996  1.5453
 7366SOL     OW33556   1.411   0.515   8.523 -0.1092  0.4320  0.3778
 7366SOL    HW133557   1.388   0.427   8.553 -0.4811 -0.2113 -1.8475
 7366SOL    HW233558   1.460   0.496   8.443 -2.9159 -1.5015 -0.8837
 7367SOL     OW33559   4.612   4.068  17.391  0.1679 -0.2707 -0.2903
 7367SOL    HW133560   4.697   4.075  17.435 -0.1114  1.6875 -0.0839
 7367SOL    HW233561   4.564   4.144  17.424  0.8805  0.0752 -0.0471
 7368SOL     OW33562   2.627   3.166   4.772 -0.1615 -0.2356 -0.0388
 7368SOL    HW133563   2.621   3.258   4.744 -1.6045 -0.0089  1.0154
 7368SOL    HW233564   2.670   3.193   4.853  1.4740 -0.1988 -0.9145
 7369SOL     OW33565   4.546   2.253  16.310  0.3955 -0.5212 -0.2051
 7369SOL    HW133566   4.483   2.273  16.241  0.4708 -2.4435 -0.8318
 7369SOL    HW233567   4.589   2.338  16.303  2.4497 -1.5251  0.4378
 7370SOL     OW33568   4.038   3.113   8.332 -0.2401  0.0069  0.1468
 7370SOL    HW133569   3.945   3.110   8.310 -0.4869  1.4138  0.9874
 7370SOL    HW233570   4.070   3.201   8.313  0.4745 -0.4532 -0.7986
 7371SOL     OW33571   0.924   4.149   4.070 -0.1746 -0.9391  0.1757
 7371SOL    HW133572   0.903   4.056   4.082 -0.0745 -1.1527 -1.2221
 7371SOL    HW233573   0.999   4.162   4.128 -0.6666  0.2929  0.5217
 7372SOL     OW33574   2.990   3.996   4.613 -0.1571  0.8251 -0.0539
 7372SOL    HW133575   2.975   3.907   4.583 -0.6430  1.4109 -1.5679
 7372SOL    HW233576   3.005   4.044   4.532  1.7002  0.5194  0.1160
 7373SOL     OW33577   2.051   3.974   2.999  0.0899  0.4019 -0.1764
 7373SOL    HW133578   1.995   3.995   3.073 -0.9834 -0.0347 -0.8655
 7373SOL    HW233579   1.999   3.921   2.939  1.1143 -1.7186  0.8440
 7374SOL     OW33580   0.306   0.211   4.619 -0.5657 -0.1587 -0.3024
 7374SOL    HW133581   0.211   0.219   4.610 -0.6435 -0.5079  0.1953
 7374SOL    HW233582   0.340   0.244   4.536  1.9085 -1.1498  0.3367
 7375SOL     OW33583   0.000   4.526  15.743  0.3454  0.3734  0.3073
 7375SOL    HW133584   0.031   4.488  15.825  0.4678 -0.2170 -0.0077
 7375SOL    HW233585   0.005   4.619  15.764  0.4203  0.7395 -1.2813
 7376SOL     OW33586   0.555   1.327   1.636 -0.2062 -0.5299 -0.0761
 7376SOL    HW133587   0.534   1.415   1.668 -0.8266 -0.8731  0.4630
 7376SOL    HW233588   0.574   1.286   1.721  1.7917  0.9295  0.1812
 7377SOL     OW33589   2.228   1.445   2.552  0.1215 -0.9139 -0.1094
 7377SOL    HW133590   2.136   1.450   2.526  0.1958  2.4529  0.2728
 7377SOL    HW233591   2.226   1.385   2.627 -2.2341  0.1366  0.6769
 7378SOL     OW33592   3.819   2.480  16.065 -0.0895 -0.5157  0.7321
 7378SOL    HW133593   3.738   2.512  16.104  1.7220  1.8694  2.4979
 7378SOL    HW233594   3.872   2.468  16.144  2.9046 -0.2963 -1.2326
 7379SOL     OW33595   1.841   3.812   7.504  0.2062 -0.1490 -1.0804
 7379SOL    HW133596   1.753   3.802   7.465  0.1825 -0.6599 -0.8944
 7379SOL    HW233597   1.846   3.908   7.500 -2.0787  0.1086  1.7599
 7380SOL     OW33598   3.580   1.280  14.848 -0.5804  0.1010 -0.0689
 7380SOL    HW133599   3.586   1.307  14.757  1.1410  1.0620  0.3360
 7380SOL    HW233600   3.490   1.247  14.841  0.0883 -1.7984  0.2705
 7381SOL     OW33601   4.108   4.123  14.351 -0.1514  0.1585  0.5819
 7381SOL    HW133602   4.078   4.052  14.407 -1.3034 -0.3120 -0.6502
 7381SOL    HW233603   4.170   4.070  14.300  0.4680 -1.2125  2.7866
 7382SOL     OW33604   1.253   2.770  17.225 -0.3985  0.2395 -0.2722
 7382SOL    HW133605   1.210   2.785  17.309 -0.9443 -0.1113 -0.4935
 7382SOL    HW233606   1.305   2.850  17.215  0.0493 -0.2230 -1.7364
 7383SOL     OW33607   4.593   1.001   3.190  0.3618 -0.3609  0.1840
 7383SOL    HW133608   4.526   0.979   3.125 -1.7553  2.0172  1.5628
 7383SOL    HW233609   4.542   1.043   3.259  1.6390  1.1355  0.2057
 7384SOL     OW33610   3.985   1.052   2.777 -0.2152 -0.0539 -0.5034
 7384SOL    HW133611   3.983   0.989   2.705 -3.1605  0.7211 -1.0827
 7384SOL    HW233612   4.006   1.139   2.744  0.3452 -0.8586 -2.2595
 7385SOL     OW33613   3.746   3.572  10.151  0.1793 -0.0859  0.1657
 7385SOL    HW133614   3.773   3.625  10.226  0.2333 -0.4221  0.3854
 7385SOL    HW233615   3.659   3.604  10.127  0.0559  0.8431  1.8529
 7386SOL     OW33616   2.677   1.776   6.448 -0.0653 -0.0522  0.4655
 7386SOL    HW133617   2.666   1.740   6.536  0.8035  1.2074  1.0923
 7386SOL    HW233618   2.654   1.869   6.453  1.0196  0.2559 -0.1996
 7387SOL     OW33619   3.421   4.077  10.680 -0.3763  0.0277  0.2015
 7387SOL    HW133620   3.508   4.115  10.668  0.4304 -1.6741  0.6576
 7387SOL    HW233621   3.354   4.144  10.664  0.4663  0.4508 -1.5670
 7388SOL     OW33622   1.843   1.522   1.526  0.2134  0.4956 -0.1411
 7388SOL    HW133623   1.869   1.613   1.542  0.2949  0.4095  0.1983
 7388SOL    HW233624   1.925   1.477   1.545  0.8219  1.3948 -0.6141
 7389SOL     OW33625   0.429   3.459   9.668 -0.4408  0.0921 -0.0056
 7389SOL    HW133626   0.350   3.435   9.620 -0.0102 -0.2437 -0.5401
 7389SOL    HW233627   0.492   3.390   9.648 -0.8897  0.0940 -1.4367
 7390SOL     OW33628   4.463   3.240   5.198 -0.4161  0.5600  0.6679
 7390SOL    HW133629   4.419   3.324   5.212 -1.1555  0.0562  1.3967
 7390SOL    HW233630   4.395   3.190   5.153  1.1285 -0.4466 -0.5395
 7391SOL     OW33631   1.359   2.669  11.275  0.0372  0.0423 -0.1587
 7391SOL    HW133632   1.396   2.702  11.356 -0.9565  0.9877 -0.0979
 7391SOL    HW233633   1.440   2.657  11.225 -0.0686  2.4331 -0.8733
 7392SOL     OW33634   1.184   2.051   6.247  0.1934  0.1286 -1.0985
 7392SOL    HW133635   1.239   1.975   6.268  1.6006  1.5432  0.2697
 7392SOL    HW233636   1.113   2.006   6.200  0.9656 -0.7433 -1.4277
 7393SOL     OW33637   4.229   0.104   8.588  0.3428 -0.1642  0.0452
 7393SOL    HW133638   4.246   0.197   8.603 -2.5284  0.4114 -0.2786
 7393SOL    HW233639   4.153   0.076   8.639  0.2485 -0.4392 -0.2487
 7394SOL     OW33640   0.575   2.778   7.424  0.1620 -0.1590 -0.0886
 7394SOL    HW133641   0.497   2.826   7.454 -0.9671 -2.0155 -0.0596
 7394SOL    HW233642   0.545   2.688   7.409  1.9214 -1.2583  3.0889
 7395SOL     OW33643   3.793   2.395   0.798 -0.3187 -0.2877 -0.4860
 7395SOL    HW133644   3.850   2.388   0.721  0.5840 -3.7444  0.5022
 7395SOL    HW233645   3.728   2.457   0.766 -0.0468  0.1235 -0.2267
 7396SOL     OW33646   4.693   3.349   8.157  0.2044 -0.3159 -0.1341
 7396SOL    HW133647   0.018   3.326   8.235 -1.0174 -1.0128  0.4579
 7396SOL    HW233648   4.662   3.438   8.171 -1.4349 -0.8414 -0.3508
 7397SOL     OW33649   3.261   2.019   4.998  0.3979 -0.9296 -0.5646
 7397SOL    HW133650   3.213   2.102   4.997  0.5768 -0.8333 -2.3696
 7397SOL    HW233651   3.265   1.995   5.090  1.4501 -2.8261 -1.1047
 7398SOL     OW33652   2.713   0.205   3.820 -0.2005  0.6152 -0.4119
 7398SOL    HW133653   2.723   0.180   3.912  1.3973  3.6362  0.2590
 7398SOL    HW233654   2.715   0.122   3.773 -0.5593 -0.8061  2.0712
 7399SOL     OW33655   4.006   2.249   8.582 -0.0395  0.0431 -0.3815
 7399SOL    HW133656   3.962   2.302   8.648 -0.8190 -3.2591  1.7845
 7399SOL    HW233657   3.974   2.159   8.597 -0.4128  0.3484  0.6855
 7400SOL     OW33658   3.364   3.498   5.664  0.0256  0.3256  0.3375
 7400SOL    HW133659   3.416   3.480   5.586 -2.1491 -0.9743 -0.8033
 7400SOL    HW233660   3.381   3.590   5.684  1.9536  0.0150  0.0931
 7401SOL     OW33661   1.631   2.469   5.474 -0.2554  0.3798 -0.3233
 7401SOL    HW133662   1.711   2.423   5.500  0.0586  2.6638  2.8264
 7401SOL    HW233663   1.560   2.405   5.478 -0.1895  0.5609  3.7230
 7402SOL     OW33664   2.149   0.573   6.430 -0.1305  0.9139  0.2134
 7402SOL    HW133665   2.137   0.668   6.424 -0.8096  0.7524 -0.8997
 7402SOL    HW233666   2.105   0.539   6.352 -2.0742  0.3862  1.5260
 7403SOL     OW33667   3.471   3.441   4.824 -0.3252  0.5297 -0.1998
 7403SOL    HW133668   3.439   3.500   4.756  0.4545  1.4683  0.2377
 7403SOL    HW233669   3.473   3.495   4.904 -0.7646 -0.5851  0.5647
 7404SOL     OW33670   3.906   0.272  15.840 -0.2316 -0.3105  0.5150
 7404SOL    HW133671   3.860   0.340  15.791 -0.6013 -0.2538  0.9438
 7404SOL    HW233672   3.966   0.325  15.892  2.1125 -3.6281  1.2179
 7405SOL     OW33673   0.765   0.078   9.411 -0.0591  0.1442 -0.0248
 7405SOL    HW133674   0.797   0.153   9.362 -2.5904 -0.5304 -2.6855
 7405SOL    HW233675   0.672   0.104   9.410 -0.2395 -0.2887  3.3379
 7406SOL     OW33676   1.618   1.842  16.533  0.2636 -0.1632  0.0957
 7406SOL    HW133677   1.699   1.883  16.563  0.1206 -0.4095  0.8313
 7406SOL    HW233678   1.634   1.748  16.542 -1.5061 -0.6421 -1.7146
 7407SOL     OW33679   0.697   1.823   7.501  0.0977  0.4048  0.4048
 7407SOL    HW133680   0.695   1.847   7.594  1.1728  0.3992  0.4267
 7407SOL    HW233681   0.605   1.800   7.488  1.2547 -2.2635 -3.1472
 7408SOL     OW33682   2.340   0.086   4.499 -0.3390 -0.3724  0.7066
 7408SOL    HW133683   2.339   4.724   4.538  1.0365 -1.8199 -2.5376
 7408SOL    HW233684   2.402   0.134   4.555 -0.6381  2.6235 -1.5195
 7409SOL     OW33685   3.155   3.328   5.602  0.2279 -0.3122  0.4022
 7409SOL    HW133686   3.234   3.371   5.635 -0.7466 -0.4327  2.9420
 7409SOL    HW233687   3.099   3.406   5.593 -0.7933 -1.1280 -0.3546
 7410SOL     OW33688   0.053   1.360   6.175  0.1399 -0.2415  0.3639
 7410SOL    HW133689   0.148   1.369   6.164 -0.2388  1.1439 -1.7398
 7410SOL    HW233690   0.036   1.402   6.091 -4.1652 -2.1483  0.3150
 7411SOL     OW33691   0.111   0.584  10.155 -0.1858  0.2572 -0.1059
 7411SOL    HW133692   0.202   0.555  10.167 -0.0045  1.2237  0.8655
 7411SOL    HW233693   0.120   0.670  10.197  0.8041 -0.9283  2.1268
 7412SOL     OW33694   2.546   1.191  12.772 -0.1698  0.0929 -0.1421
 7412SOL    HW133695   2.593   1.252  12.716  0.9083 -2.6909 -2.2965
 7412SOL    HW233696   2.517   1.253  12.839 -0.2842 -1.2185  1.0238
 7413SOL     OW33697   2.170   0.528   6.914  0.1782  0.1138  0.4237
 7413SOL    HW133698   2.216   0.508   6.832  3.7469  1.9437  2.0000
 7413SOL    HW233699   2.148   0.438   6.939 -0.9309 -0.2732 -1.9079
 7414SOL     OW33700   2.801   4.595   3.894  0.0030  0.2636 -0.2685
 7414SOL    HW133701   2.758   4.613   3.810  0.3157 -0.5568 -0.6052
 7414SOL    HW233702   2.740   4.647   3.945  0.2299  1.3530 -1.0974
 7415SOL     OW33703   2.125   3.583   0.513 -0.4696  0.2528  0.4801
 7415SOL    HW133704   2.121   3.664   0.462 -0.1966 -0.9120 -1.3873
 7415SOL    HW233705   2.216   3.588   0.543 -0.3801 -0.3733  0.3030
 7416SOL     OW33706   2.186   1.221  13.893  0.3515  0.0909  0.2001
 7416SOL    HW133707   2.209   1.208  13.801  0.3072 -0.9339  0.3312
 7416SOL    HW233708   2.229   1.149  13.939  0.8412 -0.1000 -0.5585
 7417SOL     OW33709   2.251   0.419   1.852 -0.3167  0.1120  0.2447
 7417SOL    HW133710   2.264   0.362   1.928  0.4920  1.0325  0.7995
 7417SOL    HW233711   2.189   0.364   1.804 -0.1209 -0.9245  1.1717
 7418SOL     OW33712   2.264   0.587   8.916  0.1307  0.0107 -0.4308
 7418SOL    HW133713   2.197   0.625   8.860 -0.8083  0.3132  0.9075
 7418SOL    HW233714   2.215   0.581   8.997 -2.1025 -1.8255 -1.9047
 7419SOL     OW33715   0.394   2.540  10.212 -0.1043 -0.3129  0.6975
 7419SOL    HW133716   0.470   2.585  10.174 -0.5857 -2.0836 -2.3591
 7419SOL    HW233717   0.359   2.502  10.132  1.0966 -1.2129  0.6048
 7420SOL     OW33718   4.528   4.401   0.211  0.0511 -0.2704  0.0519
 7420SOL    HW133719   4.514   4.458   0.287 -0.1085 -1.6244  1.0399
 7420SOL    HW233720   4.623   4.395   0.204 -0.2137 -3.1675 -0.8221
 7421SOL     OW33721   4.622   3.068  16.820  0.1723 -0.0729 -0.3320
 7421SOL    HW133722   4.695   3.114  16.863 -0.2635  0.4946 -0.2011
 7421SOL    HW233723   4.568   3.146  16.806  0.3456 -0.2522 -2.0207
 7422SOL     OW33724   1.053   3.682   4.252  0.1782 -0.3680  0.1598
 7422SOL    HW133725   1.102   3.763   4.241  0.3619 -0.4000  0.7535
 7422SOL    HW233726   1.015   3.716   4.332 -3.1288 -0.7710 -1.2403
 7423SOL     OW33727   4.296   2.792   3.663 -0.3776 -0.2514  0.0207
 7423SOL    HW133728   4.275   2.832   3.748  2.0770 -0.0297  0.5255
 7423SOL    HW233729   4.310   2.699   3.681 -0.4550 -0.4585 -1.0376
 7424SOL     OW33730   4.398   4.553   9.621  0.1131 -0.3586  0.2705
 7424SOL    HW133731   4.361   4.480   9.670 -0.4368 -1.5303 -1.8987
 7424SOL    HW233732   4.473   4.515   9.575  0.5756 -1.7057  2.1275
 7425SOL     OW33733   0.656   2.906  13.838 -0.6804 -0.0992 -0.1135
 7425SOL    HW133734   0.624   2.964  13.907  0.9411 -0.5029  0.9935
 7425SOL    HW233735   0.751   2.922  13.844 -0.5602 -0.6993 -0.3935
 7426SOL     OW33736   4.723   1.633   0.976  0.2291 -0.1677 -0.5944
 7426SOL    HW133737   0.024   1.718   1.010 -2.4716 -0.0605  1.1762
 7426SOL    HW233738   4.717   1.597   1.064 -0.1418 -0.0671 -0.5775
 7427SOL     OW33739   4.110   0.114   2.796 -0.5631 -0.2907  0.2063
 7427SOL    HW133740   4.115   0.107   2.892 -0.3388 -1.7109  0.0889
 7427SOL    HW233741   4.034   0.061   2.774 -0.3746 -0.1243 -0.8536
 7428SOL     OW33742   4.237   3.885   2.110 -0.1119 -0.2939  0.0935
 7428SOL    HW133743   4.165   3.836   2.149  1.0114 -0.4973  1.8668
 7428SOL    HW233744   4.262   3.838   2.030 -2.6069 -0.3634 -0.6592
 7429SOL     OW33745   3.045   1.508   8.636  0.6774  0.5734  0.1231
 7429SOL    HW133746   2.972   1.461   8.596 -0.4499  1.0427  1.6156
 7429SOL    HW233747   3.047   1.464   8.721  0.1155  0.9159  0.3156
 7430SOL     OW33748   0.675   4.414   8.625  0.7806 -0.0841 -0.1279
 7430SOL    HW133749   0.677   4.366   8.543 -0.6355 -1.3734  0.6007
 7430SOL    HW233750   0.758   4.462   8.617 -0.2486  2.0110  1.8495
 7431SOL     OW33751   0.324   1.688  11.244 -0.3310 -0.0382  0.4536
 7431SOL    HW133752   0.310   1.617  11.181 -3.0957  2.0020 -1.2205
 7431SOL    HW233753   0.420   1.689  11.239 -0.2185 -1.0739  2.7425
 7432SOL     OW33754   3.396   4.156   2.792 -0.8086 -0.5247  0.5950
 7432SOL    HW133755   3.445   4.237   2.803  1.1200 -1.5944 -0.2124
 7432SOL    HW233756   3.458   4.086   2.769  0.6436  0.9160  0.1537
 7433SOL     OW33757   2.029   2.687   1.073  0.2967 -0.2804 -0.4711
 7433SOL    HW133758   2.086   2.619   1.037 -0.5294 -1.5326  0.5847
 7433SOL    HW233759   1.968   2.700   1.001  0.8759  0.6457 -0.8008
 7434SOL     OW33760   1.526   2.798   0.607  0.2784 -0.5941  0.3850
 7434SOL    HW133761   1.566   2.873   0.652 -1.1155 -0.7188  1.8272
 7434SOL    HW233762   1.509   2.730   0.673  1.3325 -1.6689 -0.4577
 7435SOL     OW33763   3.552   3.262   5.127  0.3343 -0.3885  0.8247
 7435SOL    HW133764   3.512   3.349   5.124 -0.0206 -0.5988 -0.3406
 7435SOL    HW233765   3.564   3.224   5.040  2.1154  3.7043 -0.6987
 7436SOL     OW33766   3.844   3.705   6.241 -0.0698 -0.3436  0.1165
 7436SOL    HW133767   3.751   3.718   6.220  0.1986  1.5780  0.1457
 7436SOL    HW233768   3.851   3.609   6.244 -1.5259 -0.5155 -2.2497
 7437SOL     OW33769   3.388   0.145   4.021  0.2193 -0.0393 -0.3941
 7437SOL    HW133770   3.468   0.168   4.069 -0.2780  0.9262 -0.0227
 7437SOL    HW233771   3.428   0.102   3.946 -0.0806 -1.2316  0.1294
 7438SOL     OW33772   3.003   0.894   3.108 -0.1639  0.5496 -0.4302
 7438SOL    HW133773   3.014   0.965   3.173 -2.5229  1.6678 -1.2708
 7438SOL    HW233774   2.913   0.914   3.082 -0.6855 -0.9987  0.2018
 7439SOL     OW33775   2.699   3.335  15.831 -0.8358 -0.5541  0.2249
 7439SOL    HW133776   2.623   3.382  15.799  0.8321  0.5395 -2.0847
 7439SOL    HW233777   2.771   3.388  15.799 -1.7205 -0.1000 -0.9789
 7440SOL     OW33778   0.958   2.328   3.512 -0.2718 -0.5582  0.1542
 7440SOL    HW133779   1.018   2.360   3.445 -1.9303 -0.3970 -1.2732
 7440SOL    HW233780   0.973   2.234   3.511 -0.7226 -0.6479  1.9028
 7441SOL     OW33781   4.348   1.908   6.946 -0.6397  0.2940  0.2449
 7441SOL    HW133782   4.269   1.943   6.906 -1.6318 -1.0272  1.0630
 7441SOL    HW233783   4.312   1.850   7.013 -0.5307 -0.0020  0.0484
 7442SOL     OW33784   3.555   2.556   3.343  0.2023  0.2742  0.2637
 7442SOL    HW133785   3.464   2.579   3.324 -0.5478 -0.7049  2.6297
 7442SOL    HW233786   3.592   2.588   3.261 -0.9650  1.2651  0.1135
 7443SOL     OW33787   3.833   1.686   4.471 -0.0497 -0.4034  0.2125
 7443SOL    HW133788   3.806   1.640   4.392  1.6172 -1.7868  0.4427
 7443SOL    HW233789   3.805   1.775   4.449 -0.1166 -1.0388 -2.2764
 7444SOL     OW33790   3.159   1.576   6.900 -0.0800  0.4646 -0.0853
 7444SOL    HW133791   3.204   1.493   6.886  1.5404  1.3552 -0.1762
 7444SOL    HW233792   3.180   1.587   6.993 -0.1483  2.8119 -0.3370
 7445SOL     OW33793   0.757   4.339   4.712 -0.5838  0.2623  0.1513
 7445SOL    HW133794   0.846   4.330   4.744 -0.1440 -2.4030 -1.9119
 7445SOL    HW233795   0.702   4.294   4.776  0.0752 -1.4212 -0.4915
 7446SOL     OW33796   1.817   0.968   7.363 -0.3711  0.0608 -0.8821
 7446SOL    HW133797   1.822   0.912   7.440  1.3069  1.1970 -0.1963
 7446SOL    HW233798   1.880   0.923   7.307  0.6342  1.5038 -0.8980
 7447SOL     OW33799   0.176   2.888  13.716  0.2076  0.0324  0.2273
 7447SOL    HW133800   0.263   2.901  13.680 -0.5186  1.4034 -1.0370
 7447SOL    HW233801   0.165   2.946  13.791 -1.4419  1.4455 -1.1120
 7448SOL     OW33802   0.731   3.497  10.513  0.5501  0.3102 -0.5481
 7448SOL    HW133803   0.744   3.557  10.587 -0.2302  0.1428 -0.2826
 7448SOL    HW233804   0.639   3.482  10.531  0.7426  1.7422  1.6856
 7449SOL     OW33805   3.349   2.566   3.022 -0.5998  0.0650  0.1649
 7449SOL    HW133806   3.341   2.601   2.933 -0.6095 -0.9088 -0.2147
 7449SOL    HW233807   3.430   2.608   3.051  2.6156 -4.6261 -2.0336
 7450SOL     OW33808   4.505   0.005   9.278 -0.0132 -0.4519 -0.3594
 7450SOL    HW133809   4.591   4.717   9.319  0.2247  1.0827 -0.3865
 7450SOL    HW233810   4.516   4.683   9.195  0.0268 -0.6407 -0.2474
 7451SOL     OW33811   3.649   4.380  13.433 -0.3766 -0.1842 -0.2718
 7451SOL    HW133812   3.608   4.466  13.421  1.6727  0.6634 -1.1225
 7451SOL    HW233813   3.730   4.413  13.471 -1.0075 -0.8627  1.6399
 7452SOL     OW33814   1.456   3.061   4.717  0.8329  0.2364 -0.0045
 7452SOL    HW133815   1.494   3.014   4.644 -0.8518 -0.0025 -0.7298
 7452SOL    HW233816   1.377   3.009   4.733  0.8177 -0.6058 -2.8853
 7453SOL     OW33817   3.369   1.297  11.439  0.8971 -0.6259  0.4396
 7453SOL    HW133818   3.362   1.210  11.401  3.8007 -0.3907 -0.6281
 7453SOL    HW233819   3.298   1.337  11.390  0.6887 -2.8965 -1.1008
 7454SOL     OW33820   3.018   1.753   9.070  0.4142  0.1158  0.3620
 7454SOL    HW133821   3.078   1.685   9.102  0.5347  0.2806  0.4821
 7454SOL    HW233822   3.029   1.819   9.138  1.0048  1.1878 -0.7731
 7455SOL     OW33823   3.660   1.392   5.592 -0.3590 -0.8223  0.2633
 7455SOL    HW133824   3.591   1.338   5.552  1.4483 -1.0982 -2.4869
 7455SOL    HW233825   3.735   1.333   5.583  0.0291 -0.2989  0.0569
 7456SOL     OW33826   1.155   1.854   3.756 -0.7071  0.0156 -0.0267
 7456SOL    HW133827   1.202   1.847   3.839 -1.9059  0.5558  0.6941
 7456SOL    HW233828   1.144   1.764   3.725  0.8832  0.3207 -1.4761
 7457SOL     OW33829   2.502   4.687   7.787 -0.0327  0.4783 -0.7258
 7457SOL    HW133830   2.502   4.591   7.788 -0.1592  0.5371  3.7008
 7457SOL    HW233831   2.591   4.718   7.771  1.0544 -1.0685  2.3614
 7458SOL     OW33832   4.162   3.381   3.110 -0.5704 -0.1227 -0.0272
 7458SOL    HW133833   4.241   3.408   3.062  0.4841 -0.4276  1.5270
 7458SOL    HW233834   4.119   3.326   3.044  1.4658  0.4563 -1.8730
 7459SOL     OW33835   1.090   0.950   2.172  0.1161  0.2388 -0.0124
 7459SOL    HW133836   1.033   1.022   2.197 -1.2195 -0.3108 -1.4512
 7459SOL    HW233837   1.135   0.928   2.254 -0.2110  1.7012  0.5482
 7460SOL     OW33838   3.100   4.207   8.796 -0.0705 -0.1090 -0.2374
 7460SOL    HW133839   3.172   4.194   8.734  0.3499 -1.6506  0.5860
 7460SOL    HW233840   3.052   4.264   8.737 -0.9067 -1.0890 -0.4925
 7461SOL     OW33841   0.965   1.126   1.801 -0.1377 -0.0741 -0.0150
 7461SOL    HW133842   1.008   1.154   1.881  0.2027 -0.9596  0.1095
 7461SOL    HW233843   0.933   1.208   1.764  0.6554 -0.8545 -2.4181
 7462SOL     OW33844   2.071   3.982   2.498 -0.0643  0.5733 -0.0539
 7462SOL    HW133845   2.042   4.069   2.527 -1.6209  0.1182 -0.2187
 7462SOL    HW233846   1.989   3.935   2.512  0.1931  0.2246  0.2803
 7463SOL     OW33847   0.125   3.106   9.818 -0.2683  0.1138 -0.3211
 7463SOL    HW133848   0.070   3.079   9.745 -1.0729 -0.6750  0.5771
 7463SOL    HW233849   0.206   3.107   9.767 -0.3943 -0.8712 -0.5461
 7464SOL     OW33850   1.533   0.657   5.114 -0.2857  0.1027  0.6105
 7464SOL    HW133851   1.605   0.605   5.080  0.5736  1.4550  0.3343
 7464SOL    HW233852   1.529   0.727   5.049 -2.6764 -1.5627 -1.0475
 7465SOL     OW33853   1.403   3.951   5.522 -0.5952  0.2616  0.2640
 7465SOL    HW133854   1.493   3.945   5.554 -0.3555 -2.9105 -0.9645
 7465SOL    HW233855   1.377   3.894   5.595 -1.6081  0.7127  0.2636
 7466SOL     OW33856   3.238   2.908  12.179 -0.0934 -0.4097  0.6439
 7466SOL    HW133857   3.233   2.889  12.085  0.2738 -0.2938  0.5987
 7466SOL    HW233858   3.329   2.894  12.206  0.1609 -0.4860 -0.2605
 7467SOL     OW33859   1.646   2.330   8.289  0.8168  0.1697  0.4901
 7467SOL    HW133860   1.605   2.247   8.313  0.1644  1.0182  2.2875
 7467SOL    HW233861   1.581   2.396   8.312 -0.4888 -0.2107 -2.1011
 7468SOL     OW33862   2.415   4.664   5.339  0.2502 -1.0520  0.2026
 7468SOL    HW133863   2.452   0.011   5.388 -1.0826 -0.7386  0.7449
 7468SOL    HW233864   2.344   4.710   5.294 -0.5202 -1.2104  1.2484
 7469SOL     OW33865   2.553   1.246   2.912 -0.3140  0.5415 -0.1964
 7469SOL    HW133866   2.480   1.307   2.904 -1.6721 -1.4496 -2.8869
 7469SOL    HW233867   2.570   1.218   2.822  0.2268  2.3925 -0.6743
 7470SOL     OW33868   0.461   1.993   9.541  0.0988  0.9096  0.1026
 7470SOL    HW133869   0.419   1.936   9.605  1.6980  0.2889  0.6179
 7470SOL    HW233870   0.427   1.951   9.462  0.5097 -1.3711  1.1278
 7471SOL     OW33871   3.927   0.723  16.381 -0.3307 -0.7740 -0.2940
 7471SOL    HW133872   3.833   0.718  16.364 -0.3577  1.2482 -0.6716
 7471SOL    HW233873   3.918   0.805  16.429  1.9513 -1.4317  1.2378
 7472SOL     OW33874   0.389   1.018  14.811 -0.1639 -0.6396 -0.0030
 7472SOL    HW133875   0.345   0.969  14.741  0.2012 -0.7224 -0.1758
 7472SOL    HW233876   0.444   0.956  14.859  0.3834  0.7570  1.1826
 7473SOL     OW33877   1.190   4.000   1.758 -0.2725 -0.0489 -0.4804
 7473SOL    HW133878   1.101   3.986   1.724 -0.9714  0.7161  1.0474
 7473SOL    HW233879   1.166   4.034   1.844 -0.6486 -0.8073 -0.2839
 7474SOL     OW33880   4.314   1.920   4.576  0.3944  0.1623  0.0058
 7474SOL    HW133881   4.324   1.858   4.648  1.0918 -2.0536 -1.9832
 7474SOL    HW233882   4.377   1.986   4.605 -0.0003  1.4227 -2.0050
 7475SOL     OW33883   3.354   0.250  17.375  0.5147 -0.2852  0.2818
 7475SOL    HW133884   3.338   0.298  17.456  1.9931  0.5179  0.0998
 7475SOL    HW233885   3.290   0.300  17.324  1.1295  2.5509  2.3014
 7476SOL     OW33886   1.732   3.628   8.086  0.3924  0.0649  0.1956
 7476SOL    HW133887   1.752   3.583   8.004 -0.1355 -0.9328  0.6240
 7476SOL    HW233888   1.777   3.712   8.074 -0.6806  0.2556 -2.4726
 7477SOL     OW33889   3.838   0.074  14.169  0.3548 -0.0657 -0.4672
 7477SOL    HW133890   3.745   0.082  14.149 -0.0709  1.0612  2.0301
 7477SOL    HW233891   3.856   0.168  14.166  2.7671 -0.5080  0.5332
 7478SOL     OW33892   0.790   3.366  14.721  0.0755  0.0715 -0.4093
 7478SOL    HW133893   0.862   3.304  14.713  0.3297  0.4869 -1.3183
 7478SOL    HW233894   0.723   3.312  14.764  0.6497  0.4313  0.9295
 7479SOL     OW33895   2.800   3.191   8.228 -0.0390 -0.1070  0.1687
 7479SOL    HW133896   2.746   3.214   8.153 -0.6764  0.5455  0.8202
 7479SOL    HW233897   2.776   3.250   8.300 -0.8742 -0.2620  0.0129
 7480SOL     OW33898   0.855   0.807  15.262  0.1532 -0.9330  0.4621
 7480SOL    HW133899   0.777   0.823  15.210  0.6911 -0.1605 -0.1017
 7480SOL    HW233900   0.919   0.867  15.224 -0.1560 -0.6693  0.3543
 7481SOL     OW33901   2.599   1.627   4.312  0.1836  0.0830  0.8267
 7481SOL    HW133902   2.519   1.674   4.289 -0.5791 -0.6306  1.9934
 7481SOL    HW233903   2.576   1.535   4.298 -1.4049  0.6825 -0.5543
 7482SOL     OW33904   0.412   2.315   0.975  0.4667 -0.3642  0.2075
 7482SOL    HW133905   0.357   2.240   0.952 -1.5146  0.4827  2.2455
 7482SOL    HW233906   0.410   2.365   0.893  1.6664 -0.9791 -0.1907
 7483SOL     OW33907   3.282   2.532   6.021 -1.1782  0.1267  0.3747
 7483SOL    HW133908   3.311   2.557   5.933 -0.7145 -1.9044 -0.0520
 7483SOL    HW233909   3.218   2.602   6.033 -1.3890 -0.5652  3.2242
 7484SOL     OW33910   0.092   0.272   1.148 -0.0591 -0.4033  0.2600
 7484SOL    HW133911   0.174   0.313   1.120 -1.5697  1.3130 -1.6494
 7484SOL    HW233912   0.088   0.306   1.238  2.3401  1.7787 -0.4545
 7485SOL     OW33913   3.910   2.249   7.125  0.3427  0.1323 -0.0473
 7485SOL    HW133914   3.832   2.192   7.126  1.5615 -1.5614 -1.2567
 7485SOL    HW233915   3.922   2.239   7.220 -2.9824 -0.8601  0.2777
 7486SOL     OW33916   0.293   2.134   1.793 -0.8553 -0.2650  0.1808
 7486SOL    HW133917   0.312   2.173   1.708 -0.9010  0.5696  0.5564
 7486SOL    HW233918   0.204   2.166   1.807 -0.5271  0.2965  1.0024
 7487SOL     OW33919   4.068   2.773   9.871  0.3100  0.6828 -0.0869
 7487SOL    HW133920   4.010   2.819   9.810 -0.4140  3.3852  2.6170
 7487SOL    HW233921   4.152   2.813   9.850  0.3775  1.9910  2.6427
 7488SOL     OW33922   0.475   2.627   3.439  0.4167 -0.0697  0.1477
 7488SOL    HW133923   0.510   2.632   3.528 -2.1117 -1.6682  1.2525
 7488SOL    HW233924   0.407   2.694   3.449 -0.0387 -0.4790 -0.2042
 7489SOL     OW33925   3.302   0.719  16.400 -0.1672  0.2249 -0.2493
 7489SOL    HW133926   3.366   0.738  16.469 -1.0198 -0.0417  0.6073
 7489SOL    HW233927   3.363   0.733  16.327  0.6943  0.2963  0.4778
 7490SOL     OW33928   2.304   0.286  14.450  0.1724 -0.4644 -0.1629
 7490SOL    HW133929   2.382   0.240  14.482  2.1247  2.3899 -0.8295
 7490SOL    HW233930   2.269   0.330  14.527 -1.5105  0.9621 -1.7266
 7491SOL     OW33931   0.045   1.770   1.380  0.2696 -0.6241 -0.1789
 7491SOL    HW133932   0.084   1.857   1.384 -0.1464 -0.5872  3.1163
 7491SOL    HW233933   0.110   1.718   1.428  1.0104  0.5225  0.0694
 7492SOL     OW33934   0.888   4.679   0.798 -0.2424  0.2094 -0.1095
 7492SOL    HW133935   0.831   0.018   0.841 -1.5971 -0.3523 -1.0936
 7492SOL    HW233936   0.951   4.655   0.866 -1.4157  2.0963  1.6494
 7493SOL     OW33937   0.980   0.642   3.187 -0.0776 -0.7980  0.1788
 7493SOL    HW133938   1.068   0.605   3.184  0.4772  0.5547  0.0701
 7493SOL    HW233939   0.943   0.611   3.104 -0.3254 -1.7776  0.6604
 7494SOL     OW33940   3.123   1.258  17.355 -0.1892  0.4884  0.5158
 7494SOL    HW133941   3.084   1.283  17.271 -3.1649  0.0471  1.7685
 7494SOL    HW233942   3.216   1.263  17.331 -0.0669 -0.0054  0.8787
 7495SOL     OW33943   0.979   3.858   3.432  0.9130 -0.1398 -0.2065
 7495SOL    HW133944   0.975   3.953   3.443 -0.3947 -0.4873  2.2546
 7495SOL    HW233945   1.021   3.839   3.515  0.3080 -3.5756 -0.6902
 7496SOL     OW33946   0.787   0.316   4.399 -0.4791 -0.1119 -0.3271
 7496SOL    HW133947   0.858   0.259   4.425 -0.0233  0.2835 -0.7103
 7496SOL    HW233948   0.712   0.304   4.458  0.7322 -2.5038  0.7022
 7497SOL     OW33949   0.622   1.972   5.604  0.1834 -0.0803 -0.0491
 7497SOL    HW133950   0.635   2.023   5.524 -0.7630 -2.1338 -1.4909
 7497SOL    HW233951   0.700   1.916   5.608 -0.3441 -0.7500  0.7453
 7498SOL     OW33952   4.565   3.768   6.821 -0.0519  0.3356 -0.0909
 7498SOL    HW133953   4.503   3.713   6.773  3.1694 -2.6911 -0.8273
 7498SOL    HW233954   4.541   3.859   6.804  2.0851  0.7894 -0.6588
 7499SOL     OW33955   1.244   4.301   1.888  0.1407 -0.1703  0.3301
 7499SOL    HW133956   1.154   4.271   1.876 -0.0898 -0.2435  2.1931
 7499SOL    HW233957   1.230   4.392   1.912 -1.1001 -0.3181  0.1703
 7500SOL     OW33958   4.459   3.201   3.822 -0.0111 -0.4528  0.2207
 7500SOL    HW133959   4.543   3.179   3.784 -0.7296 -0.2232 -1.4936
 7500SOL    HW233960   4.480   3.275   3.880 -1.4953  0.5586 -0.5339
 7501SOL     OW33961   2.716   1.569  13.995  0.5547  0.2339  0.6650
 7501SOL    HW133962   2.753   1.580  14.082  1.0125 -1.9456  0.7508
 7501SOL    HW233963   2.782   1.608  13.938  0.1931  0.1540  0.1908
 7502SOL     OW33964   3.466   3.786  11.174 -0.0436  0.1552  0.4856
 7502SOL    HW133965   3.552   3.753  11.149 -0.1332 -0.4092  0.9396
 7502SOL    HW233966   3.445   3.720  11.240 -2.7714 -1.4407 -1.9608
 7503SOL     OW33967   3.224   4.159   6.955 -0.0872  0.1679  0.0888
 7503SOL    HW133968   3.226   4.074   7.000  0.2626 -0.6435 -1.4424
 7503SOL    HW233969   3.292   4.205   7.003  1.6664 -1.1169 -1.1526
 7504SOL     OW33970   2.059   3.603   7.826 -0.5497  0.0847 -0.0860
 7504SOL    HW133971   2.055   3.542   7.752 -0.4397 -0.1105  0.0688
 7504SOL    HW233972   2.144   3.646   7.820 -0.2419 -0.5736 -0.4228
 7505SOL     OW33973   2.992   4.196   5.073  0.1538  0.4058  0.3073
 7505SOL    HW133974   2.898   4.211   5.076  0.1833  0.6676 -0.0786
 7505SOL    HW233975   2.993   4.144   5.153 -1.4832 -1.0948 -0.6594
 7506SOL     OW33976   2.226   2.591   1.320  0.5339 -0.1419  0.4213
 7506SOL    HW133977   2.284   2.548   1.257 -1.2424 -0.1502 -1.1885
 7506SOL    HW233978   2.173   2.514   1.342 -3.0236  1.4552 -2.4536
 7507SOL     OW33979   3.567   1.996   7.779  0.7176 -0.4067  0.5081
 7507SOL    HW133980   3.576   2.038   7.865 -0.0106 -0.3764  0.5773
 7507SOL    HW233981   3.475   2.019   7.761  0.7487 -0.6844 -0.0007
 7508SOL     OW33982   0.692   3.309  13.741 -0.0805 -0.2014  0.4482
 7508SOL    HW133983   0.610   3.351  13.765 -1.7294 -2.5908 -0.9077
 7508SOL    HW233984   0.727   3.286  13.827  2.7707  1.2451 -0.3078
 7509SOL     OW33985   3.385   1.483   2.097 -0.4207 -0.3402  0.2825
 7509SOL    HW133986   3.329   1.542   2.047 -0.1645 -1.3433 -1.2122
 7509SOL    HW233987   3.372   1.516   2.185  0.7995  2.1265 -0.4747
 7510SOL     OW33988   2.798   1.095   0.399 -0.0118 -0.4724  0.1955
 7510SOL    HW133989   2.869   1.159   0.393  0.9715 -1.6153 -0.4238
 7510SOL    HW233990   2.807   1.042   0.320  0.7332 -0.2106  0.1021
 7511SOL     OW33991   3.849   0.514   2.596 -0.1901 -0.2242  0.0346
 7511SOL    HW133992   3.929   0.510   2.543 -0.7163 -1.9243 -0.6392
 7511SOL    HW233993   3.887   0.473   2.673 -1.1418  1.8603  1.6008
 7512SOL     OW33994   3.967   2.667   1.201  0.2071 -0.0408 -0.1020
 7512SOL    HW133995   3.896   2.732   1.206 -0.2606 -0.6025  0.4911
 7512SOL    HW233996   4.037   2.732   1.198  0.3939 -0.3312 -2.0466
 7513SOL     OW33997   1.416   0.853   2.801  0.0681  0.5529  0.3064
 7513SOL    HW133998   1.410   0.948   2.785  0.4301  0.4155 -0.6113
 7513SOL    HW233999   1.420   0.812   2.715 -2.0990  0.5696  0.1844
 7514SOL     OW34000   3.024   0.508   7.027 -0.7976  0.2675  0.1323
 7514SOL    HW134001   3.118   0.494   7.012 -1.1245 -1.3074 -0.3432
 7514SOL    HW234002   2.997   0.417   7.030  0.1514  0.0445  1.6560
 7515SOL     OW34003   4.675   3.426  10.217 -0.1793 -0.2873  0.1886
 7515SOL    HW134004   4.711   3.361  10.157  0.1129  1.2542 -1.3267
 7515SOL    HW234005   4.668   3.504  10.162  0.2804  0.4105  1.1231
 7516SOL     OW34006   0.810   0.080   5.665 -0.4234  0.2600 -0.2891
 7516SOL    HW134007   0.831   0.161   5.711  0.5013 -0.5249  0.6614
 7516SOL    HW234008   0.821   0.108   5.574 -0.4611  1.1245 -0.0236
 7517SOL     OW34009   2.880   4.049   0.309  0.9262  0.3383  0.2179
 7517SOL    HW134010   2.921   4.008   0.233  0.2748 -1.5499  0.8721
 7517SOL    HW234011   2.794   4.066   0.270  0.3821 -1.3606  0.6846
 7518SOL     OW34012   2.380   2.991   1.896  0.4395 -0.4445 -0.2221
 7518SOL    HW134013   2.297   3.033   1.873 -0.4454 -1.8559  0.3600
 7518SOL    HW234014   2.429   3.066   1.930 -3.1742  1.6128  0.4394
 7519SOL     OW34015   2.542   0.043   9.144  0.1322  0.1206  0.0891
 7519SOL    HW134016   2.546   4.708   9.218 -2.0233 -0.3844 -0.2117
 7519SOL    HW234017   2.452   0.027   9.116  1.5469 -0.5757 -4.0935
 7520SOL     OW34018   1.303   1.042   3.452 -0.2440 -0.1328 -0.7563
 7520SOL    HW134019   1.262   1.098   3.387  2.6518  1.2862 -1.3816
 7520SOL    HW234020   1.376   1.095   3.484  1.2549 -1.7060 -1.5391
 7521SOL     OW34021   3.553   4.097   7.475  0.0763 -0.0384  0.0014
 7521SOL    HW134022   3.543   4.010   7.515  1.7546  0.1527  0.8034
 7521SOL    HW234023   3.504   4.155   7.534  1.1748  0.5525  0.3268
 7522SOL     OW34024   4.022   3.910   6.235  0.2421 -0.2309  0.0754
 7522SOL    HW134025   3.959   3.851   6.275  1.7078 -1.2555  0.8913
 7522SOL    HW234026   4.049   3.863   6.156  0.8308  3.9804 -2.2728
 7523SOL     OW34027   4.148   0.171   3.331  0.1088  0.0195 -0.1670
 7523SOL    HW134028   4.240   0.151   3.315  0.1229  0.3575 -0.5334
 7523SOL    HW234029   4.111   0.083   3.327 -1.2299  0.5421  0.8465
 7524SOL     OW34030   3.602   0.084  14.405 -0.3312  0.0236 -0.3769
 7524SOL    HW134031   3.526   0.037  14.441 -0.4920 -0.8304 -1.8292
 7524SOL    HW234032   3.673   0.026  14.430 -0.9222  1.2505  4.1957
 7525SOL     OW34033   0.778   4.478  16.792  0.5784  0.3508  0.5173
 7525SOL    HW134034   0.807   4.519  16.873  0.6908 -0.0423  0.6770
 7525SOL    HW234035   0.713   4.541  16.761  0.1727 -0.3762 -0.0919
 7526SOL     OW34036   0.156   2.181   4.810  0.3129 -0.3032 -0.5813
 7526SOL    HW134037   0.208   2.107   4.842 -0.2838  0.1138  1.3461
 7526SOL    HW234038   0.206   2.246   4.861 -2.1802  0.4603  0.8769
 7527SOL     OW34039   0.034   0.979   4.784  0.1536  0.4775 -0.2378
 7527SOL    HW134040   0.120   0.947   4.757  0.7327  0.7141  1.3117
 7527SOL    HW234041   4.711   0.897   4.778  0.2250  0.4569 -0.5147
 7528SOL     OW34042   4.358   1.441  11.939 -0.1481 -0.4421 -0.1583
 7528SOL    HW134043   4.320   1.517  11.982 -0.6278  0.3056 -1.9121
 7528SOL    HW234044   4.447   1.476  11.935 -0.2101 -0.3582 -0.8536
 7529SOL     OW34045   0.412   4.134  14.344 -0.4102 -0.2629 -0.0379
 7529SOL    HW134046   0.462   4.179  14.275 -0.5128 -1.3861 -0.8580
 7529SOL    HW234047   0.423   4.041  14.322  1.1886 -0.3167  0.9441
 7530SOL     OW34048   0.147   2.336  10.140 -0.4277 -0.3184  0.2715
 7530SOL    HW134049   0.162   2.393  10.215  1.9753  0.3043 -0.7073
 7530SOL    HW234050   0.203   2.373  10.072  1.4461 -0.7162  1.5998
 7531SOL     OW34051   1.424   2.907   7.919 -0.0106 -0.3263  0.3669
 7531SOL    HW134052   1.344   2.863   7.891 -0.1549  0.3977 -0.3740
 7531SOL    HW234053   1.403   2.998   7.896  0.3726 -0.4157 -0.3256
 7532SOL     OW34054   3.788   3.107   4.582 -0.0192  0.1107 -0.0838
 7532SOL    HW134055   3.820   3.033   4.633 -2.5066 -0.6129  0.3972
 7532SOL    HW234056   3.869   3.118   4.532  1.1951  1.1923  2.1039
 7533SOL     OW34057   3.545   0.232   1.942  0.0103 -0.3167 -0.7972
 7533SOL    HW134058   3.491   0.310   1.929  0.9613  0.8014  1.9444
 7533SOL    HW234059   3.532   0.222   2.037 -1.8711  1.2582 -0.8978
 7534SOL     OW34060   2.695   4.427  16.985  0.2679  0.6721  0.0368
 7534SOL    HW134061   2.760   4.358  16.967  0.3573 -0.1197  3.2999
 7534SOL    HW234062   2.717   4.446  17.076  1.3488 -0.4878  0.0290
 7535SOL     OW34063   1.789   1.033   8.871  0.2873  0.7659  0.0406
 7535SOL    HW134064   1.727   0.961   8.857 -0.0916  0.6393  2.4838
 7535SOL    HW234065   1.754   1.077   8.948  1.0121  0.1214  0.7450
 7536SOL     OW34066   1.262   0.988   4.131 -0.1131  0.4561  0.2134
 7536SOL    HW134067   1.171   1.017   4.123 -0.9423 -2.1347  0.1878
 7536SOL    HW234068   1.291   0.967   4.043  1.8648  0.4508  0.8742
 7537SOL     OW34069   3.233   3.978   1.772  0.7143 -0.1368  0.0193
 7537SOL    HW134070   3.270   3.961   1.858 -0.4141  0.8774  0.7071
 7537SOL    HW234071   3.303   3.965   1.708 -1.2048  0.6279 -2.2492
 7538SOL     OW34072   2.467   4.091   8.708  0.0231 -0.4083  0.4207
 7538SOL    HW134073   2.521   4.083   8.629  0.9634  0.7146  0.9479
 7538SOL    HW234074   2.385   4.114   8.665  1.4659  0.9481 -1.6279
 7539SOL     OW34075   3.334   3.250   4.412  0.1157 -0.4736  0.1171
 7539SOL    HW134076   3.330   3.319   4.346  1.1731  0.8255  1.4222
 7539SOL    HW234077   3.411   3.279   4.461  0.9869 -2.4321 -0.0796
 7540SOL     OW34078   1.219   0.510   3.038  0.3909 -0.3616 -0.0907
 7540SOL    HW134079   1.220   0.589   2.984 -0.3947 -1.7566 -2.1389
 7540SOL    HW234080   1.279   0.460   2.983  0.6781 -0.3084  0.1732
 7541SOL     OW34081   3.432   0.490   2.442  0.3744 -0.1825  0.0048
 7541SOL    HW134082   3.413   0.544   2.519  1.8088  2.0210 -1.1634
 7541SOL    HW234083   3.524   0.511   2.422 -0.2525  1.2014 -1.4148
 7542SOL     OW34084   2.039   0.634   4.993  0.1013  0.2851 -0.5650
 7542SOL    HW134085   2.111   0.571   4.989  1.1828  1.4447  0.3955
 7542SOL    HW234086   2.078   0.698   4.933 -0.2727 -1.4088 -2.6059
 7543SOL     OW34087   1.454   4.247  17.133  0.1317  0.5417  0.0140
 7543SOL    HW134088   1.473   4.253  17.227 -0.0983 -1.3593  0.1702
 7543SOL    HW234089   1.520   4.182  17.108  0.1159 -0.1238  1.7199
 7544SOL     OW34090   2.998   1.653   4.504  0.0833 -0.1394 -0.1829
 7544SOL    HW134091   3.048   1.642   4.584  1.3008 -2.2054 -1.2278
 7544SOL    HW234092   2.915   1.698   4.522  1.8107  2.7197  0.5037
 7545SOL     OW34093   2.821   4.394   6.135 -0.2801  0.2932  0.6062
 7545SOL    HW134094   2.881   4.356   6.199 -0.0271 -1.1735 -0.5168
 7545SOL    HW234095   2.743   4.341   6.152 -1.2853  0.7713 -2.5815
 7546SOL     OW34096   2.548   1.912  14.502  0.1980 -0.1460  0.2820
 7546SOL    HW134097   2.550   1.829  14.550 -3.1813  0.5417  1.5771
 7546SOL    HW234098   2.464   1.917  14.457  0.4596 -3.6616 -0.5800
 7547SOL     OW34099   1.313   4.586   5.963 -0.3956  0.3521  0.7692
 7547SOL    HW134100   1.288   4.632   5.883  0.3686  0.9251  0.8668
 7547SOL    HW234101   1.220   4.573   5.986 -0.6222  1.0870  0.2743
 7548SOL     OW34102   4.482   2.163   1.662  0.2626  0.3674  0.1459
 7548SOL    HW134103   4.440   2.160   1.747 -1.7538  1.7426 -0.7923
 7548SOL    HW234104   4.431   2.099   1.611  0.8650  0.7095 -0.8895
 7549SOL     OW34105   3.860   4.294   5.205 -0.0047 -0.3518 -0.1514
 7549SOL    HW134106   3.867   4.298   5.110  4.1431  2.2056  0.2552
 7549SOL    HW234107   3.773   4.254   5.213 -0.8274  1.6155  0.9210
 7550SOL     OW34108   0.607   4.339   5.566 -0.2661 -0.2267  0.1765
 7550SOL    HW134109   0.686   4.391   5.582 -0.0659 -0.7715  0.9666
 7550SOL    HW234110   0.541   4.400   5.600  0.5142  0.5402  0.3093
 7551SOL     OW34111   4.202   1.351  14.562  0.0554  0.4368  0.1765
 7551SOL    HW134112   4.211   1.425  14.502  0.4932 -1.0592 -1.6003
 7551SOL    HW234113   4.116   1.317  14.537  0.1631  0.6109 -0.4362
 7552SOL     OW34114   2.390   0.429   7.457 -0.0021  0.0829 -0.3108
 7552SOL    HW134115   2.454   0.375   7.505  1.4199  2.4692  0.5193
 7552SOL    HW234116   2.436   0.437   7.374 -1.1136  0.6682 -0.8615
 7553SOL     OW34117   1.896   3.073   3.520 -0.5481 -0.3924  0.3199
 7553SOL    HW134118   1.895   3.168   3.511 -0.6301 -0.4041  0.2210
 7553SOL    HW234119   1.899   3.050   3.428 -0.0767 -1.5182  0.6129
 7554SOL     OW34120   3.105   0.241   2.294 -0.2344  0.2520  0.7551
 7554SOL    HW134121   3.166   0.314   2.292  0.7407 -0.5951 -0.5788
 7554SOL    HW234122   3.028   0.285   2.331 -0.1912  0.1983  0.9101
 7555SOL     OW34123   2.577   1.469   3.784 -0.6113 -0.2499  0.0788
 7555SOL    HW134124   2.520   1.408   3.738  1.1345 -1.5082 -0.3899
 7555SOL    HW234125   2.527   1.551   3.775  0.6172  0.3742 -1.0033
 7556SOL     OW34126   3.854   1.737  16.383  0.4059  0.0330 -0.1967
 7556SOL    HW134127   3.930   1.783  16.349  0.0118  0.5358 -0.4046
 7556SOL    HW234128   3.856   1.659  16.327 -0.3208  1.5121 -2.2798
 7557SOL     OW34129   1.381   0.982   3.862  0.6956 -0.7712 -0.0508
 7557SOL    HW134130   1.470   1.010   3.881  0.5069  0.4080 -0.9145
 7557SOL    HW234131   1.381   0.887   3.876 -0.6539 -0.9580 -1.2296
 7558SOL     OW34132   2.153   0.504   1.556  0.0553 -0.7687 -0.4658
 7558SOL    HW134133   2.236   0.546   1.575 -0.1384 -1.5974  2.2692
 7558SOL    HW234134   2.120   0.478   1.642  0.8788 -0.5578 -0.0868
 7559SOL     OW34135   2.461   2.723   6.753  0.5500 -0.5591 -0.0814
 7559SOL    HW134136   2.475   2.794   6.690 -1.2373  1.8241  2.1724
 7559SOL    HW234137   2.376   2.690   6.725  0.2140 -0.2844  0.6073
 7560SOL     OW34138   0.226   0.421   4.380 -0.0912 -0.2819 -0.6139
 7560SOL    HW134139   0.185   0.501   4.349  0.7558  0.2687 -0.3086
 7560SOL    HW234140   0.248   0.451   4.469 -0.4338  0.2881 -0.7241
 7561SOL     OW34141   3.603   1.649   5.963  0.0313 -0.4399  0.1661
 7561SOL    HW134142   3.526   1.648   6.020  1.3305 -2.4311  1.8729
 7561SOL    HW234143   3.590   1.569   5.912 -2.0382  1.0063 -1.6098
 7562SOL     OW34144   3.660   3.648   8.964 -0.8499 -0.3603 -0.0000
 7562SOL    HW134145   3.594   3.718   8.959 -1.4793 -0.9959 -0.4665
 7562SOL    HW234146   3.674   3.648   9.059 -0.5198  0.6893 -0.0470
 7563SOL     OW34147   1.192   3.861   9.190 -0.8292  0.3016  0.0285
 7563SOL    HW134148   1.244   3.805   9.133 -1.2891  1.2235 -1.2795
 7563SOL    HW234149   1.257   3.909   9.241 -1.1068  0.6863  0.0185
 7564SOL     OW34150   2.486   3.918   3.814 -0.1256 -0.1084  0.1359
 7564SOL    HW134151   2.422   3.914   3.742  0.0146 -1.4484  0.0859
 7564SOL    HW234152   2.491   3.831   3.854  0.3353  0.6109  1.6063
 7565SOL     OW34153   2.487   1.723  17.613 -0.1191 -0.4312 -0.1266
 7565SOL    HW134154   2.415   1.686  17.562 -0.6288  1.2939 -0.6465
 7565SOL    HW234155   2.435   1.792  17.655  1.5893  0.6666  0.1880
 7566SOL     OW34156   2.339   2.032   4.634 -0.0276 -0.1076  0.4644
 7566SOL    HW134157   2.315   1.943   4.608 -2.5733  0.8806 -0.4733
 7566SOL    HW234158   2.260   2.083   4.616 -0.6739 -0.5646  2.0230
 7567SOL     OW34159   2.173   1.484  13.680  0.7374 -0.3860  0.1853
 7567SOL    HW134160   2.143   1.500  13.770 -0.4156  0.2609 -0.3123
 7567SOL    HW234161   2.239   1.421  13.708  0.6903 -0.8167 -0.6787
 7568SOL     OW34162   2.308   1.941  15.165  0.3126  0.1684  0.4850
 7568SOL    HW134163   2.226   1.965  15.209  0.3668  1.6293 -0.2106
 7568SOL    HW234164   2.320   2.020  15.112 -0.8477 -0.7684 -1.1781
 7569SOL     OW34165   3.165   3.786   6.696  0.2418 -0.1530 -0.0197
 7569SOL    HW134166   3.157   3.715   6.632 -0.8118 -0.3817  0.3668
 7569SOL    HW234167   3.251   3.824   6.676 -0.3277  1.8353  1.2946
 7570SOL     OW34168   2.380   3.516   2.256  0.0970  0.2091 -0.3763
 7570SOL    HW134169   2.403   3.547   2.168  0.0992 -1.9641 -1.1508
 7570SOL    HW234170   2.310   3.579   2.275  0.5795  0.6178  0.0475
 7571SOL     OW34171   4.326   1.805  13.416 -0.0594 -0.3126 -0.0383
 7571SOL    HW134172   4.404   1.811  13.471  0.2844  0.2363 -0.5820
 7571SOL    HW234173   4.315   1.901  13.415 -0.0769 -0.3184 -0.4667
 7572SOL     OW34174   1.875   3.822   7.840  0.1280  0.0109  0.5341
 7572SOL    HW134175   1.883   3.851   7.930  1.8930  0.9557  0.0827
 7572SOL    HW234176   1.945   3.757   7.830 -1.5393 -1.6507 -0.4482
 7573SOL     OW34177   3.588   0.209   2.538 -0.4384 -0.0820 -0.2103
 7573SOL    HW134178   3.578   0.279   2.602 -0.6598  1.6733 -2.1452
 7573SOL    HW234179   3.499   0.175   2.527 -1.2081  1.1006  2.5835
 7574SOL     OW34180   1.032   0.823   9.201 -0.1407 -0.0948 -0.1521
 7574SOL    HW134181   0.977   0.771   9.142  2.0848 -2.1114 -0.4339
 7574SOL    HW234182   1.116   0.802   9.161 -1.1049  0.8170 -2.6721
 7575SOL     OW34183   0.785   1.524  14.846 -0.1251  0.1155  0.8037
 7575SOL    HW134184   0.813   1.557  14.931 -1.5491  3.1367  0.1115
 7575SOL    HW234185   0.865   1.517  14.794  0.7449  0.4602  2.1220
 7576SOL     OW34186   4.164   3.089  12.231 -0.2472  0.0121 -0.2275
 7576SOL    HW134187   4.251   3.057  12.207 -0.0683 -1.8788  2.9835
 7576SOL    HW234188   4.158   3.165  12.174  0.1015 -0.9273 -1.5081
 7577SOL     OW34189   1.246   3.328   7.555 -0.4383  0.4208 -0.6458
 7577SOL    HW134190   1.340   3.345   7.565 -0.1400 -2.3630  1.1291
 7577SOL    HW234191   1.232   3.288   7.469 -0.9855  0.6461 -0.6616
 7578SOL     OW34192   2.429   1.296   4.016  0.1582 -0.1819  0.2855
 7578SOL    HW134193   2.355   1.356   4.021 -0.3939 -0.7019 -1.7608
 7578SOL    HW234194   2.454   1.306   3.924 -0.2829 -0.1843  0.1675
 7579SOL     OW34195   3.892   1.532   4.242  0.7507 -0.2293 -0.4140
 7579SOL    HW134196   3.953   1.469   4.205  1.0894  1.1395 -2.2151
 7579SOL    HW234197   3.814   1.478   4.245  0.8251 -0.2382  2.0064
 7580SOL     OW34198   3.116   0.379  15.486  0.6444  0.3633  0.1530
 7580SOL    HW134199   3.118   0.474  15.492 -0.1517  0.3479  0.6746
 7580SOL    HW234200   3.132   0.359  15.578 -2.9639 -1.6541  0.3193
 7581SOL     OW34201   0.975   3.519   8.953 -0.8698  0.4816 -0.1434
 7581SOL    HW134202   0.987   3.461   8.878 -0.6832 -0.5957  0.7143
 7581SOL    HW234203   0.965   3.605   8.914 -0.4125  0.6991  0.2223
 7582SOL     OW34204   0.037   1.841   5.394 -0.2511  0.0249 -0.5649
 7582SOL    HW134205   0.077   1.913   5.345 -0.3713  0.1294 -0.5101
 7582SOL    HW234206   0.068   1.772   5.335  3.0167 -0.0023  1.2054
 7583SOL     OW34207   4.709   4.056   6.458  0.5745 -0.2914 -0.2999
 7583SOL    HW134208   4.646   4.117   6.420  1.9439  1.6417  0.5888
 7583SOL    HW234209   4.643   4.016   6.515  1.2445  0.0396  0.7181
 7584SOL     OW34210   1.369   1.749   5.497  0.3480 -0.1976 -0.1819
 7584SOL    HW134211   1.436   1.723   5.434 -0.3477 -0.3028 -0.8836
 7584SOL    HW234212   1.379   1.845   5.502 -1.7754 -0.0295  0.9223
 7585SOL     OW34213   1.897   4.156   3.861  0.1584 -0.2347 -0.2346
 7585SOL    HW134214   1.824   4.153   3.799 -0.5713 -0.5189  0.6365
 7585SOL    HW234215   1.946   4.075   3.849 -0.9990 -0.9783 -0.0341
 7586SOL     OW34216   0.277   1.508  11.547  0.2577  0.0935 -0.0547
 7586SOL    HW134217   0.333   1.482  11.620 -1.3090 -1.0153  0.7628
 7586SOL    HW234218   0.284   1.602  11.533 -0.7622 -0.2283 -2.7792
 7587SOL     OW34219   4.138   4.645  14.094 -0.1157  0.3172 -0.3109
 7587SOL    HW134220   4.175   4.718  14.144  1.8055 -1.8002  1.3610
 7587SOL    HW234221   4.080   4.606  14.159  0.1889 -0.5578 -0.5687
 7588SOL     OW34222   0.675   2.367  11.607  0.2830  0.2879 -0.5890
 7588SOL    HW134223   0.670   2.361  11.702  0.7294  2.8362 -0.3893
 7588SOL    HW234224   0.591   2.330  11.580  0.5113 -1.6255  1.3565
 7589SOL     OW34225   3.467   4.114   3.465 -0.5038 -0.5047  0.1170
 7589SOL    HW134226   3.479   4.190   3.409  0.7735 -1.5011 -0.9838
 7589SOL    HW234227   3.548   4.121   3.516 -0.0700  0.8909 -0.7573
 7590SOL     OW34228   3.229   2.045  17.599 -0.2898 -0.2492  0.0599
 7590SOL    HW134229   3.294   2.078  17.536  3.1756  0.7090  4.1372
 7590SOL    HW234230   3.281   1.979  17.645  0.0012 -0.9668 -1.2867
 7591SOL     OW34231   3.978   3.514   8.937  0.5227  0.5040 -0.1978
 7591SOL    HW134232   3.928   3.493   9.016  1.1494 -1.7107 -0.4010
 7591SOL    HW234233   3.955   3.607   8.932 -0.6729  0.2393  0.1442
 7592SOL     OW34234   4.090   1.066  15.569  0.0567 -0.5426 -0.3968
 7592SOL    HW134235   4.055   1.020  15.493 -2.2692 -1.2198  1.0894
 7592SOL    HW234236   4.121   1.146  15.526  0.0336 -0.0314  0.5398
 7593SOL     OW34237   2.588   1.412   6.661  0.5039 -0.3136 -0.0091
 7593SOL    HW134238   2.502   1.431   6.624  0.7024  0.6042  0.0205
 7593SOL    HW234239   2.621   1.496   6.690  1.0372 -0.3708 -0.4426
 7594SOL     OW34240   4.149   0.463   3.301  0.5855  0.2305 -0.3149
 7594SOL    HW134241   4.216   0.482   3.367 -0.4016 -0.9471  1.0331
 7594SOL    HW234242   4.152   0.367   3.297  0.4864  0.1818  0.7549
 7595SOL     OW34243   1.065   2.748   4.610  0.2195 -0.1628 -0.2584
 7595SOL    HW134244   1.048   2.769   4.702 -0.4488 -3.8391  0.4560
 7595SOL    HW234245   1.014   2.820   4.573  0.6215 -0.1222 -0.7260
 7596SOL     OW34246   0.831   1.128  14.904 -0.1395  0.0940  0.5338
 7596SOL    HW134247   0.910   1.140  14.956  1.1000 -2.2162 -0.7972
 7596SOL    HW234248   0.835   1.033  14.890  2.5351 -0.1185  2.6651
 7597SOL     OW34249   0.837   0.399   1.867  0.0918  0.2146  0.0731
 7597SOL    HW134250   0.860   0.482   1.909  1.3071  0.3833 -0.8894
 7597SOL    HW234251   0.928   0.378   1.845  0.5561  2.4220 -0.1766
 7598SOL     OW34252   0.788   2.942  16.370 -0.3489  0.1977 -0.4606
 7598SOL    HW134253   0.756   2.860  16.333  0.9953 -0.5790  0.0942
 7598SOL    HW234254   0.788   3.002  16.295 -1.2809  0.1895 -0.4632
 7599SOL     OW34255   0.086   2.653   7.934 -0.5698  0.1592  0.0260
 7599SOL    HW134256   0.160   2.712   7.920  0.8941 -1.7790 -0.4618
 7599SOL    HW234257   0.101   2.602   8.013  1.3385 -0.1344 -0.5383
 7600SOL     OW34258   3.882   4.668   2.110  0.1996  0.0212  0.5579
 7600SOL    HW134259   3.970   4.705   2.117  0.2552 -0.1835  0.9141
 7600SOL    HW234260   3.831   0.005   2.161 -0.7851 -0.7315  0.5040
 7601SOL     OW34261   4.386   3.608   6.669  0.6053  0.1387 -0.0631
 7601SOL    HW134262   4.339   3.538   6.713  2.1151 -0.2693  0.8896
 7601SOL    HW234263   4.441   3.557   6.610 -2.3755 -0.2524 -2.5653
 7602SOL     OW34264   3.648   4.679   3.108  0.0545 -0.0692 -0.2061
 7602SOL    HW134265   3.609   0.003   3.035 -0.3502  1.2215  0.8844
 7602SOL    HW234266   3.668   4.595   3.068  0.9342 -0.0814  0.2559
 7603SOL     OW34267   2.068   0.312   8.024 -0.1309  0.0219  0.4977
 7603SOL    HW134268   2.089   0.274   8.110 -0.5074  0.4419  0.7695
 7603SOL    HW234269   2.157   0.320   7.988 -1.8439  1.8608 -3.3029
 7604SOL     OW34270   3.816   2.734  11.783  0.0625 -0.3778  0.1706
 7604SOL    HW134271   3.817   2.749  11.878 -0.0326  1.0462 -0.0497
 7604SOL    HW234272   3.881   2.797  11.750 -0.9003  0.3575 -0.3016
 7605SOL     OW34273   4.294   2.824   6.677 -0.2527 -0.0717 -0.1328
 7605SOL    HW134274   4.310   2.875   6.757  0.6734  1.6856 -1.4525
 7605SOL    HW234275   4.204   2.797   6.698 -0.3615  1.5151  1.5169
 7606SOL     OW34276   1.094   3.514   8.390 -0.4178  0.5733 -0.6918
 7606SOL    HW134277   1.041   3.447   8.432  1.2853 -0.5159 -0.2630
 7606SOL    HW234278   1.125   3.458   8.319  0.9661 -2.7529  2.5618
 7607SOL     OW34279   0.325   1.236   1.468  0.6682  0.7099 -0.1943
 7607SOL    HW134280   0.309   1.148   1.502 -1.1701  0.0092 -2.8290
 7607SOL    HW234281   0.388   1.271   1.531  2.3440  0.0081 -1.5020
 7608SOL     OW34282   1.989   0.462  10.747 -0.3667 -0.8191 -0.0793
 7608SOL    HW134283   1.950   0.535  10.698 -0.6855 -1.1543 -0.3214
 7608SOL    HW234284   1.995   0.396  10.677 -0.4218 -0.6078 -0.2837
 7609SOL     OW34285   0.754   0.350   6.737 -0.2609  0.0917 -0.3535
 7609SOL    HW134286   0.751   0.255   6.746  1.2494 -0.0813 -1.7456
 7609SOL    HW234287   0.668   0.362   6.699 -0.8125  0.2750  0.9513
 7610SOL     OW34288   3.809   0.214   9.528 -0.4202  0.0138 -0.0876
 7610SOL    HW134289   3.879   0.262   9.484 -0.6122  2.4594  2.2976
 7610SOL    HW234290   3.867   0.153   9.573 -0.2612 -1.4567 -2.2881
 7611SOL     OW34291   3.048   3.492   4.178 -0.1906 -0.3881  0.6647
 7611SOL    HW134292   3.011   3.537   4.102  3.2318  1.6591  0.1887
 7611SOL    HW234293   2.995   3.413   4.164 -0.7520 -0.2114  1.7677
 7612SOL     OW34294   3.381   1.690   8.427  0.1803  0.3489 -0.2771
 7612SOL    HW134295   3.437   1.640   8.367  1.0282  0.6484  0.2618
 7612SOL    HW234296   3.379   1.639   8.508 -1.3658  2.6426  1.1021
 7613SOL     OW34297   0.844   1.160   6.446 -0.3948  0.2609 -0.0984
 7613SOL    HW134298   0.901   1.224   6.488  2.3714 -1.1991 -1.6752
 7613SOL    HW234299   0.847   1.085   6.505 -0.7359  2.6219  2.9252
 7614SOL     OW34300   3.295   2.971  15.987  0.6853 -0.3400  0.3698
 7614SOL    HW134301   3.266   2.921  16.063 -0.1942  0.3443  0.4820
 7614SOL    HW234302   3.384   2.987  16.017  1.1012 -0.9952 -0.5122
 7615SOL     OW34303   1.430   0.068   3.546 -0.1268 -0.2439 -0.3002
 7615SOL    HW134304   1.506   0.011   3.553 -0.7506 -0.8495  1.5561
 7615SOL    HW234305   1.430   0.119   3.626  0.8218 -1.2987  0.3730
 7616SOL     OW34306   3.521   2.205   0.534 -0.1409 -0.3292 -0.1478
 7616SOL    HW134307   3.568   2.155   0.600 -1.4650  0.3102  1.3007
 7616SOL    HW234308   3.531   2.142   0.463  0.1826 -0.0112 -0.3857
 7617SOL     OW34309   0.545   0.871   5.757 -0.3718 -0.0385 -0.3163
 7617SOL    HW134310   0.622   0.829   5.797  0.1514  1.0536 -0.1855
 7617SOL    HW234311   0.498   0.901   5.834 -0.4318  0.4723 -0.5557
 7618SOL     OW34312   4.064   3.536  11.029  0.5908  0.0475 -0.3803
 7618SOL    HW134313   4.021   3.619  11.009  2.8132  1.5309  0.8778
 7618SOL    HW234314   4.155   3.566  11.022  1.1049 -1.7138 -1.2753
 7619SOL     OW34315   2.444   3.990  15.644  0.4217 -0.0021 -0.8677
 7619SOL    HW134316   2.367   4.031  15.604  1.2522  2.2541 -0.1517
 7619SOL    HW234317   2.507   3.988  15.571  2.8450 -1.9743  1.2823
 7620SOL     OW34318   3.601   1.567   4.589  0.3244  0.3048  0.1607
 7620SOL    HW134319   3.578   1.495   4.649  1.0322  0.3800  0.5329
 7620SOL    HW234320   3.523   1.622   4.592 -0.4670 -0.8664  1.4840
 7621SOL     OW34321   2.071   2.907  13.596  0.0057 -0.0574  0.1218
 7621SOL    HW134322   2.145   2.930  13.652  0.5842 -1.4100 -0.0807
 7621SOL    HW234323   2.023   2.990  13.601 -1.9576 -1.1502 -0.6075
 7622SOL     OW34324   3.474   0.472  11.275  0.4190 -0.5872  0.2452
 7622SOL    HW134325   3.561   0.435  11.290  0.4861 -0.9652 -1.0590
 7622SOL    HW234326   3.443   0.416  11.204  1.8724 -1.8159  0.5830
 7623SOL     OW34327   0.076   4.215   9.783  0.0004  0.1041 -0.2734
 7623SOL    HW134328   0.158   4.252   9.815 -0.0797  0.2409 -0.2294
 7623SOL    HW234329   0.101   4.138   9.732 -0.3979  0.2348 -0.6656
 7624SOL     OW34330   2.108   1.612  10.980 -0.0020  0.2341  0.6004
 7624SOL    HW134331   2.183   1.564  11.015 -0.5708 -2.5224 -1.9498
 7624SOL    HW234332   2.110   1.591  10.887  0.6853 -0.8499  0.8520
 7625SOL     OW34333   4.455   2.601  14.162 -0.0042  0.6176 -0.7056
 7625SOL    HW134334   4.369   2.639  14.177  0.5873  1.1231  1.3078
 7625SOL    HW234335   4.456   2.529  14.225 -1.8055  0.0421 -1.3359
 7626SOL     OW34336   2.578   1.702   6.697  0.1359 -0.5188  0.1106
 7626SOL    HW134337   2.484   1.721   6.700  0.4919  1.5861 -1.9041
 7626SOL    HW234338   2.624   1.769   6.747 -0.5325 -0.6912  0.9716
 7627SOL     OW34339   3.621   4.130   6.775 -0.3760  0.7391 -0.1931
 7627SOL    HW134340   3.563   4.061   6.808 -1.2687  0.7105 -1.8456
 7627SOL    HW234341   3.663   4.077   6.707 -0.2914 -1.5041  1.6005
 7628SOL     OW34342   3.645   2.008   2.281  0.2983 -0.9987 -0.2870
 7628SOL    HW134343   3.583   1.973   2.218  0.8291 -1.2544 -0.6715
 7628SOL    HW234344   3.728   1.993   2.236 -0.9594  2.1307 -3.6669
 7629SOL     OW34345   4.691   4.324  10.016  0.1286 -0.0677 -0.0680
 7629SOL    HW134346   0.004   4.299   9.932 -0.7285  0.5030 -0.6277
 7629SOL    HW234347   4.682   4.238  10.056  0.0186  2.2699  4.8779
 7630SOL     OW34348   1.596   1.603  11.294 -0.5846  0.4879 -0.0188
 7630SOL    HW134349   1.514   1.596  11.344 -0.1009 -3.8335  0.1649
 7630SOL    HW234350   1.610   1.511  11.271 -0.1142  1.0281 -1.9055
 7631SOL     OW34351   4.493   3.876   2.327 -0.6120  0.2363  0.4745
 7631SOL    HW134352   4.523   3.794   2.289 -0.5014 -0.2832  1.6790
 7631SOL    HW234353   4.524   3.865   2.417  0.8847 -1.1294 -0.2188
 7632SOL     OW34354   1.794   1.037   3.956 -0.1388  0.0093  0.8105
 7632SOL    HW134355   1.736   0.966   3.980 -1.1109  0.9624  1.2602
 7632SOL    HW234356   1.818   1.067   4.043  2.4187  0.0135  0.1291
 7633SOL     OW34357   4.416   1.413   7.436  0.0150 -0.2481 -0.3596
 7633SOL    HW134358   4.484   1.425   7.502  0.2698  1.5868 -0.9545
 7633SOL    HW234359   4.364   1.491   7.452  1.5238  1.0628 -1.7990
 7634SOL     OW34360   1.850   0.422  13.443 -0.7514 -0.4410  0.2495
 7634SOL    HW134361   1.906   0.500  13.446 -1.7524  0.3420 -1.0140
 7634SOL    HW234362   1.851   0.381  13.529 -0.5108 -1.1410 -0.0880
 7635SOL     OW34363   0.083   3.890   7.330 -0.3756 -0.0690  0.1443
 7635SOL    HW134364   0.093   3.802   7.295  1.2362  0.1247  0.1207
 7635SOL    HW234365   0.169   3.929   7.342 -0.6251  1.0631 -1.6638
 7636SOL     OW34366   3.523   0.964   2.999  0.8328 -0.2599  0.1956
 7636SOL    HW134367   3.483   1.029   3.057  0.6167 -0.5221  0.3378
 7636SOL    HW234368   3.602   1.011   2.974  0.1575  1.0699  0.5504
 7637SOL     OW34369   0.417   4.293   9.031  0.5169  0.2138 -0.1999
 7637SOL    HW134370   0.352   4.332   8.973 -0.6657 -1.1489  0.2049
 7637SOL    HW234371   0.487   4.248   8.983 -1.2060  0.1022 -2.5981
 7638SOL     OW34372   0.395   2.405   8.139 -0.0157 -0.4662 -0.4434
 7638SOL    HW134373   0.442   2.488   8.126 -0.3118 -0.4387 -1.3662
 7638SOL    HW234374   0.391   2.403   8.234  2.1121  3.9250 -0.2390
 7639SOL     OW34375   0.158   3.882   6.333  0.2242 -0.0013  0.0501
 7639SOL    HW134376   0.111   3.954   6.375  1.6506  0.9408  0.0376
 7639SOL    HW234377   0.203   3.849   6.411 -0.8132 -1.3082  0.0795
 7640SOL     OW34378   4.094   3.556  15.391 -0.5953 -0.1992 -0.4649
 7640SOL    HW134379   4.152   3.507  15.333  0.4536  1.2589 -0.6669
 7640SOL    HW234380   4.013   3.513  15.365  0.8565 -2.7072 -0.8854
 7641SOL     OW34381   3.248   4.484   1.732  0.1589  0.5497  0.4314
 7641SOL    HW134382   3.235   4.392   1.752 -2.8598  1.3241  1.9191
 7641SOL    HW234383   3.300   4.467   1.653  0.3197 -0.0938  0.6737
 7642SOL     OW34384   4.292   1.551  14.375  0.1179 -0.3531 -0.3265
 7642SOL    HW134385   4.386   1.571  14.383  0.0069 -0.3786  0.9388
 7642SOL    HW234386   4.283   1.548  14.280 -0.9181  0.2844 -0.2464
 7643SOL     OW34387   0.079   4.203   5.330  0.5054 -0.2700  0.1612
 7643SOL    HW134388   0.126   4.120   5.335  0.6507 -0.1367  1.1742
 7643SOL    HW234389   0.030   4.192   5.249 -0.0799  0.6613  0.3876
 7644SOL     OW34390   0.695   0.776   6.782  0.0029  0.1157  0.2050
 7644SOL    HW134391   0.769   0.753   6.838 -1.0093 -0.4043  1.3487
 7644SOL    HW234392   0.645   0.696   6.800  1.4908 -0.9114 -0.2637
 7645SOL     OW34393   3.547   2.260  17.058 -0.6949 -0.1386  0.8163
 7645SOL    HW134394   3.483   2.287  17.123  1.4233  0.3679  2.6720
 7645SOL    HW234395   3.511   2.308  16.983  0.3500 -3.7742 -2.0374
 7646SOL     OW34396   4.345   1.260   4.791  0.1347 -0.2505  0.2291
 7646SOL    HW134397   4.400   1.300   4.858 -1.9664  1.6789  0.7899
 7646SOL    HW234398   4.258   1.298   4.789 -1.2559 -3.4435  0.2604
 7647SOL     OW34399   3.016   2.636   4.542 -0.7360  0.1703  0.6162
 7647SOL    HW134400   2.943   2.656   4.601  1.0029  1.4717  2.3548
 7647SOL    HW234401   3.076   2.698   4.585 -0.2616  0.3194 -0.2657
 7648SOL     OW34402   0.663   2.695   0.919  0.3228  0.1240  0.4346
 7648SOL    HW134403   0.647   2.628   0.986 -2.5739  0.5224  0.1647
 7648SOL    HW234404   0.676   2.651   0.835  0.4103 -2.0951  1.5835
 7649SOL     OW34405   0.807   1.332   7.550  0.1600  0.7615 -0.0687
 7649SOL    HW134406   0.901   1.340   7.533  0.2357 -1.8117 -0.8085
 7649SOL    HW234407   0.770   1.402   7.498  0.4977  0.6205 -0.4979
 7650SOL     OW34408   0.643   2.286  10.755  0.5411 -0.2929 -0.2429
 7650SOL    HW134409   0.658   2.246  10.669  0.8663 -0.5681 -0.0630
 7650SOL    HW234410   0.682   2.219  10.812 -0.7655  2.1825  3.5623
 7651SOL     OW34411   4.357   1.115  11.648  0.0372  0.4315 -0.0908
 7651SOL    HW134412   4.383   1.180  11.583  1.1643 -0.2288 -0.2883
 7651SOL    HW234413   4.263   1.132  11.653  0.0181 -0.9301  4.1078
 7652SOL     OW34414   1.842   0.676   3.840 -0.2498  0.1773  0.5144
 7652SOL    HW134415   1.798   0.641   3.762 -0.1302  0.5071  0.2988
 7652SOL    HW234416   1.766   0.714   3.885  0.9424  1.4417  1.4767
 7653SOL     OW34417   1.803   0.444   4.237 -0.6545 -0.1938 -0.0510
 7653SOL    HW134418   1.823   0.515   4.176  1.7402 -1.0775 -0.2901
 7653SOL    HW234419   1.713   0.475   4.249 -1.6297 -2.6974 -0.6958
 7654SOL     OW34420   0.780   2.404  17.393  0.0336 -0.2521 -0.1568
 7654SOL    HW134421   0.776   2.471  17.461 -0.2775 -0.0472 -0.3753
 7654SOL    HW234422   0.781   2.322  17.441 -0.8170 -0.0320  0.2353
 7655SOL     OW34423   2.795   2.912   8.617  0.6826 -0.1831 -0.0780
 7655SOL    HW134424   2.723   2.969   8.589  1.2017  0.6134  0.2134
 7655SOL    HW234425   2.860   2.933   8.550 -0.5917 -0.0157 -1.2610
 7656SOL     OW34426   1.832   2.839  12.741 -0.0696 -0.4315  0.3939
 7656SOL    HW134427   1.777   2.915  12.723  1.9664  0.8149 -0.6534
 7656SOL    HW234428   1.798   2.776  12.677 -1.0015 -1.0022  1.4419
 7657SOL     OW34429   2.199   4.167   4.218 -0.1850  0.0923 -0.3473
 7657SOL    HW134430   2.205   4.133   4.307 -0.2042 -0.4090 -0.5405
 7657SOL    HW234431   2.288   4.196   4.198 -1.0951  2.0318 -1.6396
 7658SOL     OW34432   2.870   0.470   9.275  0.6075  0.0477 -0.1438
 7658SOL    HW134433   2.872   0.566   9.275 -1.2777  0.0838 -0.2669
 7658SOL    HW234434   2.879   0.447   9.182 -0.8477  2.1596 -0.8243
 7659SOL     OW34435   4.398   0.036   2.268  0.2228 -0.4322  0.5378
 7659SOL    HW134436   4.396   0.128   2.296  2.7836  0.4780 -2.2405
 7659SOL    HW234437   4.491   0.015   2.266 -0.1350 -2.1209  2.3921
 7660SOL     OW34438   4.545   3.621   3.270 -0.2956 -0.6712  0.1987
 7660SOL    HW134439   4.599   3.694   3.300  0.5244 -0.0680 -2.8390
 7660SOL    HW234440   4.467   3.647   3.320 -1.3784 -1.5060 -1.0370
 7661SOL     OW34441   2.522   1.652   6.079 -0.0182 -0.0346  0.2732
 7661SOL    HW134442   2.565   1.618   6.158 -0.1885  2.7352  1.5678
 7661SOL    HW234443   2.475   1.572   6.056  0.1276 -0.1211  0.2763
 7662SOL     OW34444   0.096   1.620   4.990 -0.0386  0.1067  0.2238
 7662SOL    HW134445   0.157   1.593   5.059 -0.4528 -0.0382  0.5300
 7662SOL    HW234446   0.027   1.664   5.039 -0.0627  0.7984 -0.4315
 7663SOL     OW34447   1.356   3.941   8.109 -0.4461 -0.2142 -0.0107
 7663SOL    HW134448   1.296   3.866   8.107 -1.9793  0.9801  1.3864
 7663SOL    HW234449   1.412   3.914   8.036  0.4221 -0.0856  0.6078
 7664SOL     OW34450   4.291   4.040   6.823  0.6650 -0.3559  0.4465
 7664SOL    HW134451   4.222   3.977   6.804  0.3594 -1.4295  5.1823
 7664SOL    HW234452   4.323   4.000   6.904 -2.6257 -1.7623  1.0506
 7665SOL     OW34453   3.619   0.479   1.017 -0.3021 -0.1251 -0.2724
 7665SOL    HW134454   3.613   0.464   1.111  0.4342 -1.8965 -0.5133
 7665SOL    HW234455   3.529   0.508   1.002 -0.0669 -0.1065 -1.6012
 7666SOL     OW34456   4.286   2.268   6.800 -0.4953  0.3079 -0.0473
 7666SOL    HW134457   4.198   2.282   6.834 -1.1065 -1.3090 -0.9701
 7666SOL    HW234458   4.288   2.311   6.714  1.5850  0.7906  0.2314
 7667SOL     OW34459   1.211   4.008   1.346 -0.6313 -0.3123  0.1425
 7667SOL    HW134460   1.123   3.973   1.357 -1.1533  1.1931  0.6516
 7667SOL    HW234461   1.184   4.099   1.346  0.1515 -0.0748  1.2851
 7668SOL     OW34462   1.003   3.504   7.173 -0.6965 -0.0517 -0.3447
 7668SOL    HW134463   0.914   3.533   7.151 -0.9004  1.5456  2.5557
 7668SOL    HW234464   1.012   3.433   7.109 -0.1191 -1.1304  0.9305
 7669SOL     OW34465   3.208   0.797  17.368 -0.1091 -0.3287 -0.3099
 7669SOL    HW134466   3.137   0.773  17.308 -0.5365 -0.5738  0.2915
 7669SOL    HW234467   3.172   0.876  17.408 -2.6355 -0.8975 -1.5053
 7670SOL     OW34468   3.673   0.152   7.827  0.6554  0.0082  0.6462
 7670SOL    HW134469   3.720   0.230   7.857  0.7826  0.2557 -0.2112
 7670SOL    HW234470   3.720   0.080   7.868  1.0671  1.4771  2.7857
 7671SOL     OW34471   0.201   3.188   4.261  0.7188  0.1857  0.3582
 7671SOL    HW134472   0.180   3.179   4.169 -0.2179  2.3173  0.3705
 7671SOL    HW234473   0.226   3.099   4.285 -4.7967 -1.4613  0.0231
 7672SOL     OW34474   1.814   2.251  12.906  0.1316 -0.1982  0.1345
 7672SOL    HW134475   1.805   2.216  12.995  3.6052 -0.7142  0.2719
 7672SOL    HW234476   1.850   2.339  12.909 -0.6645  0.1638 -1.0497
 7673SOL     OW34477   0.063   0.098   5.722  0.2243  0.1323  0.3567
 7673SOL    HW134478   0.018   0.135   5.645 -1.0054 -0.4103  0.8092
 7673SOL    HW234479   0.021   0.014   5.740 -2.3464  0.6015 -3.4325
 7674SOL     OW34480   4.168   3.003  14.736 -0.4340 -0.0293 -0.4567
 7674SOL    HW134481   4.191   3.006  14.643 -1.9240 -0.8142 -0.8485
 7674SOL    HW234482   4.235   3.055  14.781 -2.2247  1.9053 -0.0749
 7675SOL     OW34483   0.490   0.731   2.201 -0.1646 -0.5607 -0.4045
 7675SOL    HW134484   0.426   0.693   2.141 -0.3655 -1.8846  0.6411
 7675SOL    HW234485   0.553   0.658   2.201 -2.2445 -2.3585 -1.4342
 7676SOL     OW34486   1.646   1.990   7.018 -0.3080 -0.5858  0.7634
 7676SOL    HW134487   1.662   2.010   7.110  2.1498 -2.6152  0.7864
 7676SOL    HW234488   1.713   2.049   6.983 -2.1097  0.9570 -0.0850
 7677SOL     OW34489   1.969   3.847   4.503  0.3175  0.6183  0.8652
 7677SOL    HW134490   2.049   3.863   4.553  1.0846 -0.9156  0.1540
 7677SOL    HW234491   1.907   3.907   4.544  1.5921  2.2768  0.3526
 7678SOL     OW34492   1.918   3.710   0.995  0.1227 -0.1288  0.4642
 7678SOL    HW134493   1.937   3.654   0.920 -0.1453  0.0074  0.2963
 7678SOL    HW234494   1.925   3.794   0.951  1.1253  0.5210  1.8479
 7679SOL     OW34495   0.142   3.426   9.823  0.2332 -0.0215  0.0485
 7679SOL    HW134496   0.090   3.442   9.902  0.2628 -0.3472  0.1378
 7679SOL    HW234497   0.201   3.360   9.860  0.0283 -1.0641 -1.4867
 7680SOL     OW34498   1.109   4.145  14.291 -0.0416  0.0455 -1.0346
 7680SOL    HW134499   1.193   4.187  14.273 -1.1202  2.8016  0.3204
 7680SOL    HW234500   1.063   4.228  14.303  2.3265  1.0702  0.9866
 7681SOL     OW34501   2.121   1.642   2.769  0.0218 -0.3272  0.2841
 7681SOL    HW134502   2.142   1.551   2.791 -1.0813 -0.6370  0.0302
 7681SOL    HW234503   2.026   1.649   2.774  0.2811  3.3058  0.2745
 7682SOL     OW34504   0.987   4.220   1.807 -0.6195  0.0229  0.2279
 7682SOL    HW134505   0.982   4.199   1.714 -2.6129  0.9253  0.1381
 7682SOL    HW234506   0.918   4.287   1.814  0.0463  0.4974  2.2271
 7683SOL     OW34507   1.361   2.338   0.711  0.6646  0.1887 -0.1283
 7683SOL    HW134508   1.322   2.269   0.765 -1.8936  0.9636 -0.9629
 7683SOL    HW234509   1.356   2.420   0.760 -1.1099  1.0797 -1.8021
 7684SOL     OW34510   0.910   4.532  11.162 -0.1757 -0.0248  0.4075
 7684SOL    HW134511   0.944   4.570  11.081  2.0028 -1.8616  0.4448
 7684SOL    HW234512   0.858   4.457  11.131 -1.6611  0.5093  1.6118
 7685SOL     OW34513   3.885   3.963   3.583  0.2665 -0.3304  0.7751
 7685SOL    HW134514   3.945   3.931   3.651  0.2103  0.6494  1.2866
 7685SOL    HW234515   3.811   3.989   3.638  0.8780  1.1257  0.9079
 7686SOL     OW34516   0.321   1.903   0.164 -0.0044 -0.2019  0.2804
 7686SOL    HW134517   0.374   1.908   0.243 -1.0761 -1.1448  1.0659
 7686SOL    HW234518   0.250   1.844   0.191  0.9736 -2.0656 -1.1660
 7687SOL     OW34519   4.608   1.848   1.916  0.1429 -0.2791 -0.0134
 7687SOL    HW134520   4.605   1.934   1.958 -1.4417  0.0605 -0.7951
 7687SOL    HW234521   4.522   1.826   1.881 -0.2543  3.6468 -1.5353
 7688SOL     OW34522   0.959   4.277  10.544  0.2220  0.5362  0.1342
 7688SOL    HW134523   0.908   4.310  10.618 -0.8293  2.2476 -1.3651
 7688SOL    HW234524   1.042   4.325  10.547  0.8159 -0.3822 -1.8294
 7689SOL     OW34525   0.252   3.949   4.084 -0.9069 -0.2103 -0.2439
 7689SOL    HW134526   0.203   4.008   4.141 -0.3657 -1.2731  1.3141
 7689SOL    HW234527   0.222   3.974   3.997  3.2678 -1.5348 -2.0648
 7690SOL     OW34528   2.018   4.463   4.526 -0.0288 -0.0721  0.3726
 7690SOL    HW134529   1.938   4.416   4.504  0.5439 -0.9463  0.1471
 7690SOL    HW234530   1.979   4.539   4.569  0.7613  0.7361 -0.3282
 7691SOL     OW34531   2.529   2.143   8.497  0.3041 -0.0678  0.4309
 7691SOL    HW134532   2.596   2.155   8.429 -0.4415  0.7370 -0.1696
 7691SOL    HW234533   2.572   2.104   8.573 -2.9600 -2.2278  1.1998
 7692SOL     OW34534   4.012   1.932   3.736  0.3892  0.4155  0.0845
 7692SOL    HW134535   4.064   1.999   3.780  0.7081 -1.1238  2.0306
 7692SOL    HW234536   4.044   1.844   3.754  0.0643  0.6118  1.5607
 7693SOL     OW34537   0.780   4.568   0.097 -0.2587 -0.1913 -0.0423
 7693SOL    HW134538   0.831   4.517   0.035 -3.4629 -0.2018 -2.6880
 7693SOL    HW234539   0.781   4.522   0.181  0.5902 -0.7019 -0.3417
 7694SOL     OW34540   0.891   4.373  16.563 -0.6381 -0.1583  0.4335
 7694SOL    HW134541   0.913   4.450  16.615  2.4802 -1.7577  1.4697
 7694SOL    HW234542   0.823   4.327  16.613 -3.2275 -2.3589 -5.1665
 7695SOL     OW34543   1.127   0.015   2.458 -0.1804 -0.2236 -0.0786
 7695SOL    HW134544   1.166   0.038   2.373  0.7448  1.4223  0.7854
 7695SOL    HW234545   1.055   4.682   2.435 -0.7276  0.9030 -1.1929
 7696SOL     OW34546   3.087   2.232  13.699  0.2071 -0.0876 -0.2111
 7696SOL    HW134547   3.036   2.312  13.684  0.4008  0.0387 -0.2141
 7696SOL    HW234548   3.117   2.249  13.788 -2.6130 -0.3757  0.7680
 7697SOL     OW34549   4.086   1.364   6.125 -0.2234  0.0506  0.1578
 7697SOL    HW134550   4.161   1.308   6.108  0.3339  0.7719  0.2172
 7697SOL    HW234551   4.098   1.383   6.218 -0.3201  2.1600 -0.2495
 7698SOL     OW34552   0.902   0.609  16.661 -1.1761  0.1282  0.0970
 7698SOL    HW134553   0.945   0.640  16.582 -1.0475 -0.2398  0.0231
 7698SOL    HW234554   0.967   0.547  16.692  0.3072  1.0092 -1.2917
 7699SOL     OW34555   0.884   2.111  10.084 -0.0710  0.2682 -0.0606
 7699SOL    HW134556   0.974   2.078  10.080  0.6136  2.3725 -2.2993
 7699SOL    HW234557   0.849   2.071  10.163 -1.6708  0.3639 -0.7203
 7700SOL     OW34558   3.355   3.928  15.896  0.0591  0.1368  0.3533
 7700SOL    HW134559   3.280   3.905  15.950  1.0912 -1.2462  1.1757
 7700SOL    HW234560   3.413   3.871  15.946  0.2137 -0.7899 -0.8612
 7701SOL     OW34561   1.027   2.784   5.138 -0.1237  0.0419 -0.2386
 7701SOL    HW134562   1.055   2.707   5.188  0.4172 -1.1946 -2.4725
 7701SOL    HW234563   1.093   2.784   5.069  0.3510  0.8725  0.2120
 7702SOL     OW34564   0.878   1.433   9.657 -0.0054  0.5585 -0.7610
 7702SOL    HW134565   0.871   1.360   9.718 -1.5464 -0.1621 -1.8201
 7702SOL    HW234566   0.934   1.481   9.719  1.4054 -2.4674  0.2901
 7703SOL     OW34567   4.050   3.824   7.445 -0.0493  0.2109  0.3079
 7703SOL    HW134568   4.044   3.734   7.413 -0.9514  0.7818 -1.1534
 7703SOL    HW234569   3.979   3.816   7.509 -0.9552 -0.7280 -0.8092
 7704SOL     OW34570   3.239   2.965   8.025 -0.5197  0.4268 -0.1056
 7704SOL    HW134571   3.203   2.924   8.104  0.5226  0.9102  0.6213
 7704SOL    HW234572   3.154   3.000   7.997  0.0796  1.1034 -1.0698
 7705SOL     OW34573   4.476   3.009  11.715  0.3286  0.1634  0.1588
 7705SOL    HW134574   4.389   2.982  11.745  1.0660 -0.9840  1.2475
 7705SOL    HW234575   4.451   3.062  11.639  0.5484  1.1574  0.7735
 7706SOL     OW34576   4.081   3.458   2.673 -0.1393  0.7736 -0.4622
 7706SOL    HW134577   3.996   3.465   2.629  0.1058  2.7282 -0.6237
 7706SOL    HW234578   4.054   3.482   2.761 -1.5444 -0.7100 -0.4866
 7707SOL     OW34579   4.010   4.098   9.599 -0.1653  0.0465 -0.4869
 7707SOL    HW134580   4.026   4.004   9.590 -2.8885 -0.5133  0.7308
 7707SOL    HW234581   4.025   4.130   9.510  1.2302  0.4392 -0.1141
 7708SOL     OW34582   2.953   0.197  13.780  0.1531 -0.0668 -0.4939
 7708SOL    HW134583   3.011   0.263  13.818  0.1292  0.5598 -1.5516
 7708SOL    HW234584   2.875   0.252  13.780 -0.3312 -0.7641 -1.4446
 7709SOL     OW34585   1.822   2.059  16.885 -0.9834 -0.2609  0.0971
 7709SOL    HW134586   1.749   2.059  16.946  0.4021  1.2175  1.7402
 7709SOL    HW234587   1.900   2.070  16.939  0.1223 -0.1879 -1.4995
 7710SOL     OW34588   0.475   2.349   4.479 -0.4992  0.3297 -0.5617
 7710SOL    HW134589   0.492   2.441   4.500 -1.1325  0.3207  0.0011
 7710SOL    HW234590   0.391   2.347   4.524 -0.8190 -0.2733 -1.1940
 7711SOL     OW34591   3.328   0.676   2.117 -0.2830 -0.2278  0.3805
 7711SOL    HW134592   3.398   0.706   2.175 -0.2434 -0.3035  0.3717
 7711SOL    HW234593   3.314   0.765   2.085  0.2980 -0.3789 -0.2913
 7712SOL     OW34594   1.341   4.105   2.903  0.5563  0.3331 -0.7432
 7712SOL    HW134595   1.362   4.196   2.881  1.4030 -0.6106 -3.9610
 7712SOL    HW234596   1.315   4.123   2.993 -0.1981  1.9420 -1.2950
 7713SOL     OW34597   3.685   3.230   0.414 -0.1399 -0.2796  0.2508
 7713SOL    HW134598   3.669   3.163   0.481  3.9384 -0.7933  0.6944
 7713SOL    HW234599   3.720   3.302   0.467 -0.9447  0.1468  0.2015
 7714SOL     OW34600   1.305   0.673   3.657  0.2680 -0.5921 -0.1044
 7714SOL    HW134601   1.363   0.626   3.597 -0.3495  0.2904 -1.4183
 7714SOL    HW234602   1.298   0.758   3.614 -1.9203 -0.2354  0.9470
 7715SOL     OW34603   3.400   2.113  13.747 -0.5065 -0.4699 -0.1755
 7715SOL    HW134604   3.309   2.141  13.740 -0.6278 -0.4882  1.4495
 7715SOL    HW234605   3.401   2.054  13.672 -1.2048  1.1354 -1.4514
 7716SOL     OW34606   4.281   0.210   9.589  0.4906  0.6441 -0.0471
 7716SOL    HW134607   4.328   0.292   9.575  0.5345  0.5882 -0.2223
 7716SOL    HW234608   4.331   0.168   9.659 -1.2302 -0.2814  0.6350
 7717SOL     OW34609   2.891   4.670  14.595 -0.1321  0.2629  0.1869
 7717SOL    HW134610   2.965   4.653  14.654  0.9953 -2.3468 -1.9968
 7717SOL    HW234611   2.835   0.004  14.646  0.1843  1.1782 -0.5202
 7718SOL     OW34612   4.306   1.819   1.810  0.0334 -0.0723 -0.6393
 7718SOL    HW134613   4.224   1.839   1.764  0.2864 -2.7984 -2.2282
 7718SOL    HW234614   4.268   1.761   1.877  0.7298  0.0702 -0.1236
 7719SOL     OW34615   3.520   4.405  12.045 -0.2168  0.3297 -0.2365
 7719SOL    HW134616   3.565   4.399  11.960 -0.7518 -3.0963 -0.2853
 7719SOL    HW234617   3.530   4.315  12.076  0.9686  0.9291  1.1867
 7720SOL     OW34618   2.777   0.246   4.524  0.0494 -0.1614  0.2534
 7720SOL    HW134619   2.803   0.254   4.432 -0.0228  0.7382  0.3088
 7720SOL    HW234620   2.824   0.320   4.563  1.4161 -1.0202  0.2285
 7721SOL     OW34621   1.619   2.717   5.850  0.3516 -0.0582  0.3797
 7721SOL    HW134622   1.584   2.794   5.804  1.4317 -0.3530 -0.8986
 7721SOL    HW234623   1.554   2.716   5.921 -1.8537  0.6091 -1.6324
 7722SOL     OW34624   4.479   3.176   2.819  0.6077  0.4742 -0.8581
 7722SOL    HW134625   4.403   3.196   2.764  1.3656  3.0355 -0.9515
 7722SOL    HW234626   4.549   3.189   2.755  0.8143  1.2370 -0.4749
 7723SOL     OW34627   1.043   2.294   3.843  0.5345 -0.4075 -0.3807
 7723SOL    HW134628   1.071   2.243   3.919 -0.8194  0.4249  0.6758
 7723SOL    HW234629   1.035   2.235   3.768 -1.2025 -1.9047  0.9816
 7724SOL     OW34630   1.386   0.682   7.392 -0.0903  0.2441  0.1101
 7724SOL    HW134631   1.304   0.657   7.350 -0.3273 -1.4460  1.5610
 7724SOL    HW234632   1.449   0.623   7.351  0.3728  0.1248  0.9992
 7725SOL     OW34633   2.226   3.867   0.794 -0.6129  0.1468 -0.1337
 7725SOL    HW134634   2.247   3.782   0.754  0.3565  0.1586  0.3475
 7725SOL    HW234635   2.171   3.901   0.724 -2.2754  1.3594  1.8033
 7726SOL     OW34636   1.163   0.472   2.475 -0.2327 -0.5303 -0.2957
 7726SOL    HW134637   1.125   0.519   2.400  0.0574  0.2366  0.0318
 7726SOL    HW234638   1.091   0.476   2.538  0.3644 -1.4569  0.4392
 7727SOL     OW34639   0.017   2.360   1.165  0.2419 -0.1584  0.0140
 7727SOL    HW134640   4.648   2.354   1.149  0.0495  1.9384  0.3495
 7727SOL    HW234641   0.039   2.445   1.127 -0.3073 -0.5549 -1.1988
 7728SOL     OW34642   1.501   2.684   0.851 -0.1780 -0.7685  0.5090
 7728SOL    HW134643   1.441   2.757   0.867  1.4814  0.5272  0.8564
 7728SOL    HW234644   1.457   2.627   0.915  1.4741 -2.0130  0.5359
 7729SOL     OW34645   0.764   2.978   7.160 -0.4294 -0.3318  0.1002
 7729SOL    HW134646   0.672   2.957   7.144 -1.8157  2.1870  4.6349
 7729SOL    HW234647   0.777   2.927   7.240 -1.5828 -0.3318  0.2935
 7730SOL     OW34648   2.508   0.767   9.494  0.3496  0.3954  0.0942
 7730SOL    HW134649   2.544   0.773   9.406 -0.2199  0.8101 -0.1134
 7730SOL    HW234650   2.471   0.854   9.509  0.3076  0.4143 -0.1186
 7731SOL     OW34651   3.986   0.057   1.833  0.4859 -0.4931 -0.1839
 7731SOL    HW134652   3.949   0.139   1.799  0.7444 -0.3104 -0.0258
 7731SOL    HW234653   3.922   0.020   1.893 -0.2668 -2.9805 -2.5050
 7732SOL     OW34654   0.225   3.033   7.965 -0.3001  0.2811  0.7601
 7732SOL    HW134655   0.264   2.945   7.966 -0.3781  0.2249 -0.7578
 7732SOL    HW234656   0.147   3.009   7.914  0.6714  1.9213 -1.4989
 7733SOL     OW34657   0.717   4.327  12.779  0.3469 -0.2874  0.4249
 7733SOL    HW134658   0.809   4.336  12.754 -0.2140 -0.5282 -1.7017
 7733SOL    HW234659   0.688   4.261  12.716  0.1744  2.5921 -2.5443
 7734SOL     OW34660   1.648   1.496   2.193 -0.2080 -0.5221 -0.1729
 7734SOL    HW134661   1.705   1.447   2.133 -1.3948 -1.7983 -0.2589
 7734SOL    HW234662   1.619   1.428   2.253  0.6252 -1.8577 -1.2928
 7735SOL     OW34663   3.825   1.704  12.850 -0.7337 -0.0636 -0.2745
 7735SOL    HW134664   3.844   1.701  12.757  2.4834 -1.1647  0.4395
 7735SOL    HW234665   3.872   1.629  12.885 -0.3660  0.5575  0.5808
 7736SOL     OW34666   3.770   3.997  10.454  0.4147  1.1689  0.3550
 7736SOL    HW134667   3.701   4.063  10.457 -1.1237 -0.3571 -0.9116
 7736SOL    HW234668   3.849   4.045  10.477  0.8551  0.2542  0.7547
 7737SOL     OW34669   4.282   2.351   1.356 -0.0293 -0.4138 -0.3999
 7737SOL    HW134670   4.212   2.416   1.367 -1.2536 -1.4856 -1.8894
 7737SOL    HW234671   4.251   2.277   1.408 -3.4498  0.8938 -0.5660
 7738SOL     OW34672   2.235   1.945   2.164 -0.3145  0.3961 -0.0835
 7738SOL    HW134673   2.207   1.865   2.209  0.2354 -0.7018 -1.6767
 7738SOL    HW234674   2.313   1.912   2.119  0.6941  1.0162  1.1870
 7739SOL     OW34675   0.193   3.417   1.337  0.1888  0.1082  0.5438
 7739SOL    HW134676   0.201   3.341   1.396  0.5026 -1.0560 -1.0021
 7739SOL    HW234677   0.284   3.448   1.343 -0.2701  1.0785  2.5635
 7740SOL     OW34678   2.051   3.793   0.032  0.3155 -0.1813 -0.0754
 7740SOL    HW134679   1.990   3.864   0.053 -0.3493 -1.1269  1.2344
 7740SOL    HW234680   2.030   3.769  17.644 -3.0057  0.6257  0.4798
 7741SOL     OW34681   3.611   2.584  15.820  0.3704 -0.9064 -0.0943
 7741SOL    HW134682   3.572   2.567  15.906 -1.4348  0.8719 -0.5521
 7741SOL    HW234683   3.531   2.591  15.768 -0.3841 -0.6293  1.0775
 7742SOL     OW34684   4.327   2.337  16.581 -0.2469  0.3810 -0.4104
 7742SOL    HW134685   4.259   2.402  16.597  0.9405  1.1188  1.5701
 7742SOL    HW234686   4.371   2.379  16.507  0.1789 -0.0811 -0.4229
 7743SOL     OW34687   0.322   4.694   6.337  0.3257 -0.2055 -0.0777
 7743SOL    HW134688   0.228   4.703   6.325  0.1777 -1.1030  0.4496
 7743SOL    HW234689   0.328   4.705   6.432 -1.7633  1.6989 -0.1486
 7744SOL     OW34690   2.369   0.037  15.990 -0.4256 -0.3586 -0.4638
 7744SOL    HW134691   2.404   0.126  15.994 -1.1008 -0.0976 -0.3339
 7744SOL    HW234692   2.449   4.710  15.999 -0.3766  0.2756  2.7797
 7745SOL     OW34693   3.555   0.438   1.528  0.4910  0.4114 -0.0185
 7745SOL    HW134694   3.509   0.450   1.445  0.1874  2.5023  0.4489
 7745SOL    HW234695   3.513   0.505   1.583 -0.0739 -0.7704  0.9856
 7746SOL     OW34696   0.489   1.665   7.500  0.1178 -0.4805 -0.0646
 7746SOL    HW134697   0.440   1.642   7.422  0.7505 -3.1547  0.3075
 7746SOL    HW234698   0.448   1.613   7.570 -0.4736 -0.0544 -0.0995
 7747SOL     OW34699   0.294   3.276   0.945  0.4698 -0.0910  0.1778
 7747SOL    HW134700   0.286   3.209   0.877 -0.7081 -0.2069  0.4415
 7747SOL    HW234701   0.381   3.252   0.979 -0.4589 -1.4853  1.5668
 7748SOL     OW34702   4.681   2.732  13.705  0.1367  0.3870  0.1239
 7748SOL    HW134703   4.648   2.743  13.794 -0.6806 -1.0950  0.0038
 7748SOL    HW234704   0.034   2.787  13.713 -1.2869  2.3664  0.4678
 7749SOL     OW34705   3.120   1.060   4.838 -0.2065 -0.0449  0.0390
 7749SOL    HW134706   3.184   1.131   4.845  0.4386 -0.6138 -0.0159
 7749SOL    HW234707   3.038   1.104   4.817  1.3582  2.4540 -0.8686
 7750SOL     OW34708   3.716   3.103   2.713 -0.0848  0.0411  0.1852
 7750SOL    HW134709   3.790   3.081   2.656 -0.2944  0.3348 -0.2025
 7750SOL    HW234710   3.687   3.184   2.671  0.1684  0.9314  1.7504
 7751SOL     OW34711   3.957   0.324   0.801  0.2740  0.5059  0.0366
 7751SOL    HW134712   3.878   0.295   0.755  0.6263  2.4896 -1.8004
 7751SOL    HW234713   3.925   0.316   0.891  1.4710  1.2898  0.5303
 7752SOL     OW34714   0.687   2.696   0.559 -0.3364  0.0684 -0.2577
 7752SOL    HW134715   0.734   2.618   0.589 -1.5499 -0.4438  0.3310
 7752SOL    HW234716   0.600   2.656   0.551 -0.1858 -0.5428  1.2042
 7753SOL     OW34717   1.271   2.907   6.858 -0.1696  0.5001 -0.6361
 7753SOL    HW134718   1.284   3.000   6.876  0.7227  0.1234  0.6931
 7753SOL    HW234719   1.345   2.877   6.910 -1.4826  0.6182  1.2801
 7754SOL     OW34720   0.852   4.268  15.790  0.0831  0.2272  0.1675
 7754SOL    HW134721   0.834   4.222  15.871  1.7456 -0.8272 -0.0805
 7754SOL    HW234722   0.761   4.272  15.759 -0.0121  0.0452  0.4209
 7755SOL     OW34723   0.853   0.534   2.981 -0.2797  0.2404 -0.1327
 7755SOL    HW134724   0.765   0.505   3.006 -0.4426  0.6388 -0.2293
 7755SOL    HW234725   0.839   0.576   2.896  0.0593 -3.1478 -1.8720
 7756SOL     OW34726   2.390   3.231  10.947 -0.2472  0.6434 -0.0690
 7756SOL    HW134727   2.484   3.217  10.960 -0.0030 -0.6470 -3.1818
 7756SOL    HW234728   2.370   3.163  10.882 -0.7682  0.7908 -0.0617
 7757SOL     OW34729   0.770   0.132   6.414 -0.1558 -0.1092  1.0031
 7757SOL    HW134730   0.723   0.112   6.495  0.7895  0.3894  1.6749
 7757SOL    HW234731   0.807   0.047   6.391  0.5630  1.3266 -3.1807
 7758SOL     OW34732   3.482   2.688   8.066 -0.2160  0.0929 -0.2908
 7758SOL    HW134733   3.547   2.628   8.102  2.1122  0.2743 -4.2540
 7758SOL    HW234734   3.483   2.764   8.124  2.3012 -0.4854  0.3862
 7759SOL     OW34735   2.297   3.073  10.737  0.2481 -0.4232  0.2079
 7759SOL    HW134736   2.345   3.004  10.693  0.2470 -0.1408 -0.2343
 7759SOL    HW234737   2.205   3.052  10.725 -0.7518  2.3811  2.6896
 7760SOL     OW34738   4.089   2.197   5.458 -0.1424  0.0253  0.4780
 7760SOL    HW134739   4.078   2.231   5.369  2.4629 -0.2042  0.0725
 7760SOL    HW234740   4.071   2.280   5.501  0.2894  1.1393 -1.5131
 7761SOL     OW34741   1.203   4.004   7.099  0.5763 -0.4455  0.0597
 7761SOL    HW134742   1.115   4.034   7.079  0.3418 -1.9582 -1.1820
 7761SOL    HW234743   1.252   4.016   7.018  0.2028 -0.9967 -0.2471
 7762SOL     OW34744   1.197   3.826  14.299  0.1882  0.4091  0.4171
 7762SOL    HW134745   1.126   3.890  14.298  1.1985  1.5557  2.0736
 7762SOL    HW234746   1.233   3.815  14.211  0.6041 -0.0743  0.6493
 7763SOL     OW34747   0.664   3.655   1.914 -0.3162 -0.5602 -0.0018
 7763SOL    HW134748   0.709   3.619   1.838  2.7884  0.1555  1.5343
 7763SOL    HW234749   0.694   3.746   1.919 -1.4048 -0.2107  0.3925
 7764SOL     OW34750   4.253   3.835   9.128 -0.1599 -1.0978  0.6318
 7764SOL    HW134751   4.294   3.788   9.200  0.0623  0.5201  1.5644
 7764SOL    HW234752   4.220   3.907   9.183 -0.8664 -0.5942 -0.4429
 7765SOL     OW34753   3.664   3.778   4.707 -0.0557 -0.5827 -0.2505
 7765SOL    HW134754   3.642   3.774   4.614 -0.4770  0.0609 -0.1745
 7765SOL    HW234755   3.760   3.775   4.704 -0.0011  1.5717 -0.9354
 7766SOL     OW34756   0.995   1.933   3.392  0.0660  0.4910  0.5335
 7766SOL    HW134757   0.993   1.839   3.410  2.1384  0.3536  0.0096
 7766SOL    HW234758   1.026   1.927   3.301  0.4561 -0.2257  0.7154
 7767SOL     OW34759   0.792   0.654   5.445 -0.2113 -0.3323  0.1108
 7767SOL    HW134760   0.790   0.649   5.541  3.5365 -0.8998  0.1734
 7767SOL    HW234761   0.777   0.564   5.416 -0.0371 -0.9804  2.0326
 7768SOL     OW34762   2.758   4.712   9.518  0.5814 -0.3411  0.4435
 7768SOL    HW134763   2.686   0.047   9.500 -0.1778 -1.4526 -0.2295
 7768SOL    HW234764   2.816   0.041   9.465 -1.0454  0.2502 -0.7546
 7769SOL     OW34765   4.080   2.472   3.171  0.1050  0.8694 -0.4210
 7769SOL    HW134766   4.173   2.458   3.187 -0.8527 -1.3002  3.0716
 7769SOL    HW234767   4.085   2.563   3.141  0.8539  1.2469  0.8279
 7770SOL     OW34768   4.286   2.203  10.265 -0.0866  0.0312  0.4509
 7770SOL    HW134769   4.263   2.194  10.357  1.2311  2.1790  0.9848
 7770SOL    HW234770   4.208   2.247  10.229 -0.5550 -1.6108 -0.5492
 7771SOL     OW34771   4.602   1.569   4.632 -0.0060  0.1449  0.1512
 7771SOL    HW134772   4.663   1.639   4.611  2.0047 -0.6773  3.2270
 7771SOL    HW234773   4.655   1.490   4.634  1.5528  1.2368  1.7945
 7772SOL     OW34774   1.748   0.462   4.734 -0.4041 -0.1249  0.1302
 7772SOL    HW134775   1.668   0.490   4.690 -0.0104 -1.1053 -1.2244
 7772SOL    HW234776   1.803   0.423   4.666  1.3137  1.6853  0.5014
 7773SOL     OW34777   2.314   0.407   7.949 -0.0949  0.0930 -0.0675
 7773SOL    HW134778   2.399   0.365   7.936 -0.2368 -0.7874  1.8476
 7773SOL    HW234779   2.327   0.484   7.894  0.1543 -0.0517 -0.2090
 7774SOL     OW34780   1.100   1.477  14.842 -0.6167 -0.3783 -0.3382
 7774SOL    HW134781   1.187   1.444  14.861 -0.0494  0.2541 -1.7996
 7774SOL    HW234782   1.091   1.539  14.914  1.3673  0.1541 -0.5612
 7775SOL     OW34783   1.702   4.558   4.520  0.9269  0.2227  0.3140
 7775SOL    HW134784   1.731   4.486   4.464 -1.0048  0.1402 -0.5754
 7775SOL    HW234785   1.704   4.520   4.608  0.3021  0.2084  0.3213
 7776SOL     OW34786   2.409   1.320   7.265  0.2698  0.3449  0.6410
 7776SOL    HW134787   2.503   1.309   7.247  0.1819  1.1933 -0.3758
 7776SOL    HW234788   2.396   1.312   7.359 -0.9999 -0.9739  0.3529
 7777SOL     OW34789   0.006   0.010   9.422  0.1526 -0.5782  0.2980
 7777SOL    HW134790   0.081   0.065   9.446 -0.6572  1.4547 -1.8911
 7777SOL    HW234791   4.710   4.704   9.510 -0.4220  1.4854  0.8940
 7778SOL     OW34792   4.628   3.356   8.684  0.4669 -0.2683  0.2219
 7778SOL    HW134793   4.571   3.349   8.760 -2.2049  3.6748 -1.4200
 7778SOL    HW234794   4.697   3.291   8.697  0.3467 -0.4443 -0.0241
 7779SOL     OW34795   3.102   1.637   8.005 -0.6175  0.6679 -0.3734
 7779SOL    HW134796   3.111   1.555   7.958  1.6799  0.3769  0.5516
 7779SOL    HW234797   3.050   1.606   8.079  0.8294  1.3641  0.9574
 7780SOL     OW34798   0.520   0.987   3.025  0.1580  0.6024 -0.0922
 7780SOL    HW134799   0.478   0.972   2.940 -0.9858 -2.4414  0.9857
 7780SOL    HW234800   0.470   0.933   3.087  0.7732  1.3565  1.0559
 7781SOL     OW34801   3.228   4.278   4.424 -0.5238  0.1626 -0.1044
 7781SOL    HW134802   3.211   4.356   4.371 -2.5056 -0.3311 -0.1843
 7781SOL    HW234803   3.322   4.259   4.422 -0.6331 -0.5522  2.3221
 7782SOL     OW34804   3.530   3.112   4.099  0.0316 -0.2005 -0.1720
 7782SOL    HW134805   3.598   3.152   4.045  0.0486  1.6256  1.2058
 7782SOL    HW234806   3.537   3.167   4.177  0.5521 -1.3019  0.5461
 7783SOL     OW34807   4.203   0.833  16.686 -0.0768  0.5148  0.4430
 7783SOL    HW134808   4.189   0.745  16.653  0.5049  0.5836  0.0056
 7783SOL    HW234809   4.255   0.819  16.765  2.1658 -0.0833 -1.1119
 7784SOL     OW34810   0.256   2.031   3.256 -0.4738 -0.6346 -0.0511
 7784SOL    HW134811   0.349   2.031   3.237 -0.4932  0.8190 -0.1566
 7784SOL    HW234812   0.267   1.966   3.324  1.1715 -0.5984 -0.2898
 7785SOL     OW34813   4.352   3.541   9.671 -0.3474 -0.0179  0.6094
 7785SOL    HW134814   4.277   3.594   9.698  0.4676  1.2524  0.4142
 7785SOL    HW234815   4.313   3.485   9.604  0.4360  0.7193 -0.4737
 7786SOL     OW34816   1.836   2.854   5.721  0.5992 -0.0412 -0.0218
 7786SOL    HW134817   1.797   2.774   5.757 -0.1501 -0.1016 -0.9802
 7786SOL    HW234818   1.820   2.909   5.798  1.2651 -1.3819  1.0742
 7787SOL     OW34819   4.562   3.843   5.493  0.8202 -0.0869 -0.3324
 7787SOL    HW134820   4.648   3.871   5.462  0.6870  0.0582 -0.5739
 7787SOL    HW234821   4.508   3.920   5.475  1.6422  0.5931  0.1051
 7788SOL     OW34822   1.529   4.417   7.179  0.4979 -0.2425  0.2698
 7788SOL    HW134823   1.477   4.396   7.102 -0.0790 -0.4092  0.7021
 7788SOL    HW234824   1.482   4.368   7.246 -0.2180  0.2172  0.0994
 7789SOL     OW34825   0.086   2.535   5.460  0.0566  0.4547 -1.2987
 7789SOL    HW134826   0.098   2.442   5.437  0.3080  0.2543 -0.3417
 7789SOL    HW234827   0.039   2.532   5.543 -0.2754  0.5752 -1.4826
 7790SOL     OW34828   0.856   0.811  15.542 -0.4783  0.2919  0.5970
 7790SOL    HW134829   0.772   0.780  15.577 -0.4505 -1.8088 -1.1827
 7790SOL    HW234830   0.846   0.806  15.447  3.6380  0.4048  0.1988
 7791SOL     OW34831   2.331   1.290  10.084 -0.7996 -0.2565  0.2213
 7791SOL    HW134832   2.349   1.219  10.022 -0.5398  1.5251 -1.7170
 7791SOL    HW234833   2.318   1.355  10.016 -1.0718 -0.2381  0.2906
 7792SOL     OW34834   2.123   3.016  11.595 -0.3112 -0.5157 -0.4469
 7792SOL    HW134835   2.092   2.976  11.514  0.9024  0.2889 -1.3052
 7792SOL    HW234836   2.201   3.057  11.559  1.5563 -2.4441  1.3881
 7793SOL     OW34837   2.796   1.355  11.643  0.0091 -0.5668  0.4465
 7793SOL    HW134838   2.757   1.433  11.684 -0.4138 -1.0132  0.8842
 7793SOL    HW234839   2.791   1.377  11.550 -0.8367 -1.1793  0.3495
 7794SOL     OW34840   1.894   1.348  15.715  0.1256  0.0922 -0.0827
 7794SOL    HW134841   1.835   1.344  15.790 -2.6893  0.5975 -2.2635
 7794SOL    HW234842   1.839   1.340  15.637 -1.1362  0.1747  0.7886
 7795SOL     OW34843   3.224   0.405   0.096  0.5218  0.3313  0.4532
 7795SOL    HW134844   3.272   0.375   0.173  0.0555  3.4147  1.9417
 7795SOL    HW234845   3.136   0.406   0.133  0.6060  0.3322  0.6555
 7796SOL     OW34846   1.971   2.064   6.234  0.4228 -0.0897 -0.5732
 7796SOL    HW134847   1.938   2.096   6.317  0.1532 -0.6955 -0.4434
 7796SOL    HW234848   1.945   1.972   6.243 -0.6430  0.2801  0.0924
 7797SOL     OW34849   2.514   1.299  11.382  0.2639  0.7525  0.0378
 7797SOL    HW134850   2.606   1.322  11.369 -0.4614  0.7477 -4.8629
 7797SOL    HW234851   2.503   1.350  11.463 -1.7408  0.3599  0.0027
 7798SOL     OW34852   4.299   2.652   5.927  0.3991  0.8540  0.1942
 7798SOL    HW134853   4.314   2.629   6.019  0.3827  0.3966  0.0798
 7798SOL    HW234854   4.333   2.741   5.923  0.3552  0.8603 -0.0424
 7799SOL     OW34855   2.103   0.768   3.258 -0.4966 -0.1098 -0.6953
 7799SOL    HW134856   2.072   0.757   3.168  1.3381 -1.6660 -1.1661
 7799SOL    HW234857   2.188   0.809   3.240  1.0443 -2.6192  0.7433
 7800SOL     OW34858   2.143   1.696   2.263 -0.2503 -0.0945  0.5610
 7800SOL    HW134859   2.206   1.628   2.285 -0.4228 -0.8879 -1.3534
 7800SOL    HW234860   2.107   1.653   2.185  1.4411 -0.2271 -0.1547
 7801SOL     OW34861   0.930   2.474  11.553  0.4123 -0.7089 -0.3143
 7801SOL    HW134862   0.940   2.528  11.631  0.8859 -0.9208 -0.2306
 7801SOL    HW234863   0.846   2.429  11.566 -0.4270  1.1871  0.7037
 7802SOL     OW34864   4.494   3.478   4.305 -0.3271  0.0007  0.1043
 7802SOL    HW134865   4.516   3.395   4.347 -0.9475  0.4532  1.3164
 7802SOL    HW234866   4.486   3.537   4.380  0.1639  1.5433 -1.0489
 7803SOL     OW34867   0.116   1.159  10.352  0.5091  0.4193  0.7172
 7803SOL    HW134868   0.198   1.116  10.326 -0.9971 -1.6350 -0.6423
 7803SOL    HW234869   0.082   1.095  10.414 -0.9295 -0.7136 -1.2491
 7804SOL     OW34870   3.688   3.229   1.317 -0.1717 -0.5617  0.2742
 7804SOL    HW134871   3.641   3.156   1.276 -1.7646 -0.3410  1.7384
 7804SOL    HW234872   3.764   3.186   1.356 -0.7161 -0.6940  1.1679
 7805SOL     OW34873   3.581   0.664   9.789  0.7829  0.3774 -0.7620
 7805SOL    HW134874   3.625   0.749   9.800  0.7323  0.4463 -1.1057
 7805SOL    HW234875   3.489   0.685   9.804  1.1093  0.3163  1.3530
 7806SOL     OW34876   3.753   2.672   6.237 -0.0339  0.2226  0.3109
 7806SOL    HW134877   3.841   2.690   6.271  0.8347  0.0561 -1.7816
 7806SOL    HW234878   3.692   2.718   6.294 -1.8268 -2.5021  0.5551
 7807SOL     OW34879   2.766   3.929   5.007 -0.2123 -0.2689 -0.0491
 7807SOL    HW134880   2.704   3.902   4.939 -0.5077 -0.4176  0.2734
 7807SOL    HW234881   2.850   3.925   4.962  0.9557 -0.3838  2.1648
 7808SOL     OW34882   2.736   0.072  13.514 -0.0599 -0.1640 -0.4024
 7808SOL    HW134883   2.756   0.078  13.608  0.1810 -3.4235 -0.2477
 7808SOL    HW234884   2.649   0.031  13.525 -1.0292  1.9016 -0.4529
 7809SOL     OW34885   1.176   3.285   3.380 -0.7627 -0.0916  0.0697
 7809SOL    HW134886   1.136   3.372   3.371 -0.6619  0.1083  1.5406
 7809SOL    HW234887   1.187   3.276   3.475  1.6801  0.7420 -0.1391
 7810SOL     OW34888   3.126   3.153   7.440  0.0877 -0.2250 -0.2457
 7810SOL    HW134889   3.203   3.116   7.483 -1.3127 -2.0817  0.6422
 7810SOL    HW234890   3.137   3.247   7.452 -1.1896 -0.2122  0.7844
 7811SOL     OW34891   0.431   0.856   7.878  0.6722  0.0362 -0.1550
 7811SOL    HW134892   0.469   0.782   7.832  0.2719 -0.2612 -0.0010
 7811SOL    HW234893   0.354   0.879   7.826 -0.1803 -1.8838  0.2630
 7812SOL     OW34894   0.822   0.461   4.771 -1.1778 -0.1182 -0.5785
 7812SOL    HW134895   0.854   0.376   4.803 -3.3929 -0.9899 -0.6265
 7812SOL    HW234896   0.775   0.488   4.850 -1.1307  0.3554 -0.7142
 7813SOL     OW34897   2.009   3.260   4.959  0.1774  0.3489 -0.0321
 7813SOL    HW134898   1.950   3.234   5.030 -0.3814 -0.2190 -0.7168
 7813SOL    HW234899   1.953   3.264   4.882  0.2369  2.0133  0.0221
 7814SOL     OW34900   3.517   3.994  16.682 -0.4633  0.2308  0.2608
 7814SOL    HW134901   3.543   3.950  16.601  0.3206  2.9693 -0.9776
 7814SOL    HW234902   3.478   3.918  16.725  0.9872 -1.2417 -0.9923
 7815SOL     OW34903   3.748   3.183  10.262  0.5674 -0.6389 -0.3548
 7815SOL    HW134904   3.752   3.091  10.290 -1.5652 -0.4087  0.7022
 7815SOL    HW234905   3.808   3.231  10.320  0.3932 -1.3703  0.4347
 7816SOL     OW34906   0.100   3.024  15.956  0.0464 -0.3632  0.0314
 7816SOL    HW134907   0.172   2.964  15.936  2.0755  1.3247  2.2994
 7816SOL    HW234908   0.137   3.087  16.018  4.4601 -2.4976 -0.4197
 7817SOL     OW34909   2.946   2.646   5.250 -0.7477  0.3566  0.0292
 7817SOL    HW134910   3.013   2.594   5.206 -0.9892 -0.9251  1.1737
 7817SOL    HW234911   2.998   2.717   5.290 -0.9781  1.3283 -1.4296
 7818SOL     OW34912   1.045   4.564   1.933  0.5711 -0.2857  0.0778
 7818SOL    HW134913   0.976   4.571   1.868  0.9369 -0.7336 -0.3596
 7818SOL    HW234914   1.032   4.653   1.966 -1.8453 -1.5227  2.4483
 7819SOL     OW34915   2.077   1.899   7.116 -0.0864  0.7843 -0.4603
 7819SOL    HW134916   2.134   1.906   7.039 -1.3162 -1.6288 -1.5897
 7819SOL    HW234917   2.006   1.863   7.063  0.0520 -1.9767  1.2654
 7820SOL     OW34918   1.600   3.911   9.597  0.7024  0.1495  0.0281
 7820SOL    HW134919   1.668   3.866   9.646  0.5489 -2.6361 -2.3473
 7820SOL    HW234920   1.550   3.835   9.567  0.7046 -0.2664  1.0707
 7821SOL     OW34921   1.449   2.026  16.974  0.1918 -0.0353  0.4066
 7821SOL    HW134922   1.516   2.092  16.989 -1.3519  1.7781 -0.6784
 7821SOL    HW234923   1.490   1.957  17.027  1.4714  0.8801  0.6034
 7822SOL     OW34924   0.938   2.015   4.654 -0.0935  0.5467 -0.3606
 7822SOL    HW134925   0.862   2.063   4.687 -0.5482  1.3539 -2.5789
 7822SOL    HW234926   0.898   1.932   4.628  1.7650 -0.3141 -0.4686
 7823SOL     OW34927   4.652   3.273   4.997 -0.3535 -0.3987  0.4592
 7823SOL    HW134928   0.008   3.324   5.004 -0.5557 -0.3214  2.1462
 7823SOL    HW234929   4.624   3.250   5.085  1.3014 -0.5861  0.9291
 7824SOL     OW34930   3.581   2.658   8.461  0.5089 -0.1356  0.3415
 7824SOL    HW134931   3.608   2.632   8.373 -0.4387 -0.3257  0.1065
 7824SOL    HW234932   3.506   2.709   8.430 -0.7300 -0.6820  2.4331
 7825SOL     OW34933   3.487   3.284   2.191 -0.3684 -0.0643  0.4041
 7825SOL    HW134934   3.529   3.366   2.218 -0.6864  0.1843  0.1376
 7825SOL    HW234935   3.536   3.247   2.117 -1.4814 -2.1796  0.7227
 7826SOL     OW34936   1.619   2.300   7.510 -0.3866  0.0698  0.0159
 7826SOL    HW134937   1.530   2.283   7.541 -0.0970 -1.0305  0.2201
 7826SOL    HW234938   1.670   2.231   7.552 -0.2076 -0.8106 -1.6312
 7827SOL     OW34939   4.660   3.998   3.696 -0.2867 -0.1883  0.1738
 7827SOL    HW134940   4.641   4.078   3.746  0.8510  0.1812  0.0223
 7827SOL    HW234941   4.574   3.979   3.658 -1.2002 -0.3195  2.2846
 7828SOL     OW34942   1.288   0.274   9.375 -0.3551  0.3703  0.2723
 7828SOL    HW134943   1.344   0.268   9.453 -1.2345 -0.5991  0.8394
 7828SOL    HW234944   1.350   0.311   9.313 -0.7465 -1.1825 -1.0276
 7829SOL     OW34945   3.932   2.539  10.684 -0.3370 -0.2533  0.6272
 7829SOL    HW134946   4.018   2.505  10.710  0.6639  0.9305 -1.0596
 7829SOL    HW234947   3.916   2.608  10.747  1.3316 -1.2957  2.1868
 7830SOL     OW34948   0.407   1.016   8.972  0.4775  0.1983 -0.0601
 7830SOL    HW134949   0.379   1.107   8.983  0.4229  0.2426 -0.5543
 7830SOL    HW234950   0.369   0.980   9.052  0.3352  1.6842  0.5578
 7831SOL     OW34951   1.488   3.936   9.213  0.4638 -0.0768 -0.8431
 7831SOL    HW134952   1.491   3.901   9.124 -1.7787  1.3466 -1.4642
 7831SOL    HW234953   1.529   3.861   9.258 -2.6282 -1.4974 -0.3882
 7832SOL     OW34954   3.305   1.048   3.684 -0.4559 -0.9415 -0.1852
 7832SOL    HW134955   3.289   1.005   3.600 -2.9923 -1.7787  0.7172
 7832SOL    HW234956   3.337   1.132   3.651 -1.6831  0.2112  1.6041
 7833SOL     OW34957   0.661   0.481   4.988  0.3943  1.2630  0.7338
 7833SOL    HW134958   0.579   0.516   5.024  1.0565  1.2749  2.1917
 7833SOL    HW234959   0.630   0.404   4.940  0.8164 -0.2422  2.8888
 7834SOL     OW34960   1.329   2.861  11.736  0.3668 -0.0991 -0.0243
 7834SOL    HW134961   1.237   2.838  11.745  0.1001  1.0733  0.2716
 7834SOL    HW234962   1.328   2.948  11.777  1.9221 -0.9709  1.9033
 7835SOL     OW34963   1.930   1.138   4.193 -0.4270 -0.5182 -0.1036
 7835SOL    HW134964   1.913   1.213   4.250  0.4654  0.9654 -1.7927
 7835SOL    HW234965   2.011   1.168   4.153  0.9671 -0.5515  2.6501
 7836SOL     OW34966   2.165   4.519   4.809  0.7803  0.2320  0.0651
 7836SOL    HW134967   2.172   4.442   4.865  2.3699  0.2885 -0.0426
 7836SOL    HW234968   2.087   4.499   4.757  2.4263  0.0849 -2.3686
 7837SOL     OW34969   3.889   2.517   8.356  0.4070 -0.1428 -0.9087
 7837SOL    HW134970   3.916   2.588   8.297 -1.3190  1.0213 -0.2942
 7837SOL    HW234971   3.959   2.517   8.422  0.4098 -0.6424 -0.9166
 7838SOL     OW34972   1.033   4.546   4.625 -0.4056  0.1569 -0.3978
 7838SOL    HW134973   1.084   4.549   4.544  0.1853 -1.9410 -0.1214
 7838SOL    HW234974   0.954   4.508   4.587  0.6033 -3.5342  1.1537
 7839SOL     OW34975   3.604   1.248   7.846  0.2998  0.2183  0.0222
 7839SOL    HW134976   3.549   1.257   7.923  0.4216  2.7346 -0.1840
 7839SOL    HW234977   3.650   1.166   7.863 -0.5245 -0.0303  1.0410
 7840SOL     OW34978   0.144   0.380  12.465  0.3472 -0.2889  0.4563
 7840SOL    HW134979   0.223   0.368  12.412  1.2440 -0.1994  1.7660
 7840SOL    HW234980   0.154   0.473  12.484 -1.8094 -0.9021  4.4215
 7841SOL     OW34981   1.905   4.415  12.121  0.3651 -0.0187  0.3100
 7841SOL    HW134982   1.884   4.342  12.062 -0.1189  0.7017 -0.4101
 7841SOL    HW234983   1.998   4.399  12.136  0.9769  3.3070 -0.0602
 7842SOL     OW34984   3.856   4.232   4.897  0.1575 -0.6262  0.2504
 7842SOL    HW134985   3.924   4.174   4.931  0.2777  0.2122  1.4495
 7842SOL    HW234986   3.789   4.169   4.870 -0.1469 -0.1878 -0.0119
 7843SOL     OW34987   4.328   0.870   2.834 -0.2025 -1.0042  0.2688
 7843SOL    HW134988   4.262   0.805   2.811 -1.3580  0.0431  0.6159
 7843SOL    HW234989   4.363   0.885   2.746 -1.4417  3.4632  0.5415
 7844SOL     OW34990   3.160   0.624  15.415 -0.3181 -0.5811 -0.3105
 7844SOL    HW134991   3.093   0.674  15.369  0.6963  1.4555  0.4293
 7844SOL    HW234992   3.223   0.695  15.426 -0.4343 -0.5638  0.2026
 7845SOL     OW34993   3.595   2.460   5.883  0.3724  0.1751 -0.0915
 7845SOL    HW134994   3.510   2.474   5.926  0.2742  1.8708 -0.8483
 7845SOL    HW234995   3.636   2.545   5.895 -0.3653  0.6950 -1.2154
 7846SOL     OW34996   0.933   0.820  16.862 -0.0576  0.4012  0.3909
 7846SOL    HW134997   0.933   0.750  16.796 -0.5663  0.7794 -0.0144
 7846SOL    HW234998   0.971   0.890  16.809  0.3886  0.4941  0.8326
 7847SOL     OW34999   0.945   2.293  13.942 -0.0219  0.4960  0.6941
 7847SOL    HW135000   0.980   2.205  13.957 -0.3125  0.9145  3.9650
 7847SOL    HW235001   0.960   2.334  14.028  2.8285 -0.4159  0.6361
 7848SOL     OW35002   3.893   2.927  16.301 -0.2788 -0.1262  0.5729
 7848SOL    HW135003   3.941   2.964  16.376 -0.0574 -0.1839  0.4601
 7848SOL    HW235004   3.951   2.875  16.245  0.7300  0.5014  1.0283
 7849SOL     OW35005   1.643   4.281   6.067 -0.5244 -0.4021  0.1076
 7849SOL    HW135006   1.706   4.214   6.094 -1.1527 -0.9112  0.3173
 7849SOL    HW235007   1.696   4.361   6.064  0.3031 -0.9342  0.6705
 7850SOL     OW35008   1.222   0.191   2.239 -0.4164 -0.1013 -0.4366
 7850SOL    HW135009   1.284   0.217   2.170  0.5650  1.7123  1.1399
 7850SOL    HW235010   1.143   0.241   2.218  0.1803  0.5475 -1.1340
 7851SOL     OW35011   3.056   2.817   6.575  0.4746 -0.2900 -0.6864
 7851SOL    HW135012   3.128   2.777   6.527  0.4616  0.9380 -1.7382
 7851SOL    HW235013   3.003   2.851   6.503 -1.6160  1.2004  1.5117
 7852SOL     OW35014   0.085   3.609   2.393 -0.1124 -0.5722 -0.0055
 7852SOL    HW135015   0.162   3.569   2.353  1.0331  1.3996  0.2716
 7852SOL    HW235016   0.084   3.577   2.484  0.8950 -0.9998 -0.1413
 7853SOL     OW35017   0.578   3.136   4.110 -0.4038  0.3109  0.0106
 7853SOL    HW135018   0.539   3.156   4.195 -0.2609 -1.2362  0.4424
 7853SOL    HW235019   0.501   3.126   4.056  0.3767  0.7318 -1.1741
 7854SOL     OW35020   2.459   3.033   4.597 -0.1354 -0.3333  0.2034
 7854SOL    HW135021   2.478   2.941   4.615 -1.5047 -0.4066  1.3107
 7854SOL    HW235022   2.513   3.072   4.666 -1.8737 -1.5491  2.2731
 7855SOL     OW35023   0.337   2.463   5.160  0.5919  0.6337  0.4030
 7855SOL    HW135024   0.348   2.370   5.180  0.8751  0.7086  0.5905
 7855SOL    HW235025   0.418   2.496   5.198  1.2875  2.1953 -2.4131
 7856SOL     OW35026   1.899   3.263   8.085  0.2440  0.1115 -0.2289
 7856SOL    HW135027   1.981   3.286   8.129  1.6301 -3.3410 -1.0368
 7856SOL    HW235028   1.833   3.265   8.155 -0.1084 -0.9658 -0.5357
 7857SOL     OW35029   4.706   4.438   2.677  0.3077 -0.3987  0.4946
 7857SOL    HW135030   0.054   4.379   2.659  0.8172  0.1644  0.7113
 7857SOL    HW235031   4.650   4.425   2.600 -0.6933 -0.6400  1.2818
 7858SOL     OW35032   3.363   2.549   8.614  0.1851 -0.3266  0.7820
 7858SOL    HW135033   3.323   2.464   8.598 -0.7324  0.4293 -0.9197
 7858SOL    HW235034   3.446   2.534   8.568  0.9683  0.5881  1.8941
 7859SOL     OW35035   0.870   2.966   2.861 -0.4900 -0.6191  0.2876
 7859SOL    HW135036   0.816   3.033   2.904 -1.3506 -1.0036 -0.1973
 7859SOL    HW235037   0.873   2.906   2.935  2.4402  2.4596  2.7095
 7860SOL     OW35038   1.851   0.902   6.180  0.4029  0.1096  0.3947
 7860SOL    HW135039   1.944   0.922   6.193  0.5551 -0.8697  0.7561
 7860SOL    HW235040   1.846   0.818   6.225 -3.3392 -0.6777 -1.4788
 7861SOL     OW35041   3.129   3.294   5.302  0.0633 -0.3876  0.3550
 7861SOL    HW135042   3.139   3.342   5.220  0.9792 -1.4799 -0.1699
 7861SOL    HW235043   3.177   3.349   5.364  0.2267 -0.2549  0.1057
 7862SOL     OW35044   1.553   4.406   6.481  0.3581 -0.0220 -0.2081
 7862SOL    HW135045   1.481   4.424   6.420  1.0691 -1.6990 -1.5219
 7862SOL    HW235046   1.520   4.430   6.568 -1.4526 -3.8253  0.1208
 7863SOL     OW35047   0.437   2.111  17.122 -0.0333  0.0727  0.1788
 7863SOL    HW135048   0.388   2.056  17.184  1.4986 -0.9120  0.4995
 7863SOL    HW235049   0.490   2.162  17.183 -0.2816 -0.5789  0.9421
 7864SOL     OW35050   1.490   1.211  17.304  0.2742  0.2713 -0.2202
 7864SOL    HW135051   1.446   1.255  17.376  2.2015 -0.2325  1.2682
 7864SOL    HW235052   1.425   1.164  17.251  2.8475 -1.2395 -2.0662
 7865SOL     OW35053   3.296   4.704   7.184  0.2996 -0.1084  0.3620
 7865SOL    HW135054   3.340   0.053   7.225 -1.6779 -0.3013  2.8519
 7865SOL    HW235055   3.206   0.013   7.181 -0.2887 -1.7454 -1.1156
 7866SOL     OW35056   0.770   1.091   5.529 -1.0642  0.8278  0.1504
 7866SOL    HW135057   0.803   1.161   5.473 -0.1118  1.4445  1.4698
 7866SOL    HW235058   0.746   1.024   5.465 -0.4138 -0.4217  1.2219
 7867SOL     OW35059   3.032   4.597  13.824 -0.5625 -0.2328  0.2966
 7867SOL    HW135060   2.997   4.686  13.832  0.5816  0.3142 -0.7189
 7867SOL    HW235061   3.018   4.590  13.730  0.5085 -2.1919  0.2973
 7868SOL     OW35062   2.042   3.698   4.919 -0.3570 -0.3908  0.3017
 7868SOL    HW135063   2.005   3.785   4.936 -1.3341 -1.0959  1.6998
 7868SOL    HW235064   1.963   3.649   4.897  0.4090 -1.3799 -0.2456
 7869SOL     OW35065   2.812   3.017  10.186  0.1334  0.3006  0.2288
 7869SOL    HW135066   2.831   2.988  10.097  1.6805  1.0911  0.3062
 7869SOL    HW235067   2.719   3.038  10.182 -0.3006 -1.6222  0.4312
 7870SOL     OW35068   3.784   0.384  12.212  0.0347  0.2735  0.1469
 7870SOL    HW135069   3.762   0.293  12.191 -2.0672  1.2511 -1.9565
 7870SOL    HW235070   3.712   0.432  12.170  0.5427  1.0798  0.1916
 7871SOL     OW35071   4.032   1.000  11.982 -0.1459  0.2383 -0.5312
 7871SOL    HW135072   3.985   0.977  12.062  0.4718  2.0574  0.3492
 7871SOL    HW235073   4.119   0.972  12.011 -1.1168 -2.3645 -0.0631
 7872SOL     OW35074   4.106   4.065   3.092  0.3682 -0.1447 -0.5612
 7872SOL    HW135075   4.052   4.142   3.112  0.0690 -0.4436 -0.2116
 7872SOL    HW235076   4.135   4.042   3.180  0.6904  2.8652  0.1352
 7873SOL     OW35077   2.683   1.176   5.473 -0.5353  0.5698  0.1735
 7873SOL    HW135078   2.642   1.134   5.397 -1.3626  2.4014 -0.3887
 7873SOL    HW235079   2.607   1.180   5.531  0.1598  0.0973  1.1132
 7874SOL     OW35080   3.028   0.029   7.138  0.3258 -0.1854 -0.3758
 7874SOL    HW135081   3.000   4.664   7.153 -0.0400 -0.0588 -0.2981
 7874SOL    HW235082   2.970   0.068   7.204  2.3121  1.1660  0.5777
 7875SOL     OW35083   2.485   1.208  17.300 -0.3703  0.0788 -0.0354
 7875SOL    HW135084   2.542   1.243  17.369 -0.6435  1.8955 -0.7252
 7875SOL    HW235085   2.522   1.258  17.227  0.7359 -0.8638 -0.1221
 7876SOL     OW35086   0.657   2.863  13.169 -0.0561  0.1245  0.1050
 7876SOL    HW135087   0.603   2.814  13.231  1.5367 -0.9834  0.5969
 7876SOL    HW235088   0.660   2.954  13.200 -0.5333  0.5736 -1.1482
 7877SOL     OW35089   2.688   3.783   6.698 -0.7744  0.4519 -0.6749
 7877SOL    HW135090   2.611   3.767   6.644  0.3975 -0.5626 -2.0598
 7877SOL    HW235091   2.744   3.845   6.652  1.2053 -1.5971 -1.0261
 7878SOL     OW35092   0.840   4.352  11.675 -0.0731 -0.2639  0.4511
 7878SOL    HW135093   0.794   4.271  11.653 -0.7666  0.4149 -0.5547
 7878SOL    HW235094   0.925   4.322  11.642 -0.4044  0.6426 -1.2357
 7879SOL     OW35095   0.275   3.851  17.694  0.2446 -0.2695 -0.2686
 7879SOL    HW135096   0.261   3.858   0.086  0.7719 -2.4219 -0.0387
 7879SOL    HW235097   0.347   3.788  17.687  0.6948  0.3615 -1.3622
 7880SOL     OW35098   0.449   1.136   6.707 -0.2520  0.4675  0.4600
 7880SOL    HW135099   0.412   1.057   6.668  1.6458 -0.8961  1.4035
 7880SOL    HW235100   0.364   1.174   6.731 -0.4902  0.7921 -0.9357
 7881SOL     OW35101   0.568   2.068   9.933  0.2906  0.1132 -0.0091
 7881SOL    HW135102   0.614   2.138   9.887 -1.1480  0.5863 -0.7262
 7881SOL    HW235103   0.636   2.001   9.933  0.3665  0.1898 -0.7006
 7882SOL     OW35104   0.162   2.497   3.570 -0.3657  0.1502 -0.0934
 7882SOL    HW135105   0.210   2.425   3.529 -1.1764  0.9619 -2.5212
 7882SOL    HW235106   0.157   2.556   3.494  0.3375  0.2012 -0.0973
 7883SOL     OW35107   4.495   4.591   8.706 -0.1167 -0.9209 -0.4862
 7883SOL    HW135108   4.488   4.506   8.661  0.4546 -0.8185 -0.7683
 7883SOL    HW235109   4.570   4.585   8.765 -1.6612  1.6449  1.7420
 7884SOL     OW35110   1.202   2.182   1.968  0.1952  0.1507 -0.0144
 7884SOL    HW135111   1.194   2.170   2.063  0.9479 -1.3244 -0.1363
 7884SOL    HW235112   1.112   2.179   1.935  0.3193 -1.4433 -0.2524
 7885SOL     OW35113   3.988   4.433   9.597  0.6690 -0.4032  0.4386
 7885SOL    HW135114   4.073   4.399   9.569  1.0197 -0.6047  1.7342
 7885SOL    HW235115   3.944   4.354   9.628  2.0292 -0.9130  1.0571
 7886SOL     OW35116   3.538   2.056  10.932 -0.0865 -0.4495  0.1039
 7886SOL    HW135117   3.591   2.028  11.006 -0.0358  1.4494  0.7775
 7886SOL    HW235118   3.569   1.997  10.863  1.3043  1.0789 -0.6039
 7887SOL     OW35119   3.246   4.508   6.344  0.5366 -0.4818  0.5418
 7887SOL    HW135120   3.325   4.454   6.342  1.9327  1.5230  0.8394
 7887SOL    HW235121   3.288   4.586   6.306 -2.3358  1.2665  0.9619
 7888SOL     OW35122   0.375   1.997   7.182  0.2013  0.0987  0.1031
 7888SOL    HW135123   0.442   1.930   7.189  0.2643 -0.0680 -2.1116
 7888SOL    HW235124   0.369   1.998   7.086 -0.3522  1.2915  0.1445
 7889SOL     OW35125   3.584   3.944   2.767 -0.2568 -0.2554  0.0653
 7889SOL    HW135126   3.666   3.983   2.797 -0.1009 -0.9079  0.5043
 7889SOL    HW235127   3.609   3.906   2.683 -1.8235 -0.4032 -0.3352
 7890SOL     OW35128   2.697   0.106   6.339  0.6551 -0.2390 -0.5707
 7890SOL    HW135129   2.638   0.177   6.367  0.4054 -0.1857 -1.2487
 7890SOL    HW235130   2.646   0.051   6.280  1.5235  0.4078 -1.8948
 7891SOL     OW35131   3.777   2.411   6.356  0.0897  0.0067 -0.3873
 7891SOL    HW135132   3.796   2.501   6.330  0.0844 -0.2668 -1.3128
 7891SOL    HW235133   3.754   2.372   6.272 -3.6327  0.9375  0.1843
 7892SOL     OW35134   1.904   3.018   0.004  0.4661 -0.3970 -0.3731
 7892SOL    HW135135   1.964   3.065  17.648  2.1079 -1.6377  0.3073
 7892SOL    HW235136   1.840   3.088   0.015  1.1851  0.7763 -3.5006
 7893SOL     OW35137   2.529   4.608   6.631 -0.3936  0.4632  0.0435
 7893SOL    HW135138   2.616   4.610   6.593 -0.5158 -3.7578 -0.3927
 7893SOL    HW235139   2.479   4.631   6.553 -0.6474  1.3218  0.4533
 7894SOL     OW35140   1.586   0.964   2.107 -0.4970  0.2720 -0.3322
 7894SOL    HW135141   1.545   0.902   2.166 -0.2702 -0.6162 -1.1138
 7894SOL    HW235142   1.624   1.021   2.174 -1.6889  0.5367  0.1324
 7895SOL     OW35143   0.173   0.135   2.738 -0.1596 -0.3334  0.4129
 7895SOL    HW135144   0.162   0.093   2.823 -0.8673  0.8925  0.9211
 7895SOL    HW235145   0.103   0.097   2.684  2.1700 -2.1754 -1.3166
 7896SOL     OW35146   3.793   1.985   3.917 -0.2687  0.1620  0.0518
 7896SOL    HW135147   3.720   2.017   3.862 -0.3595 -0.1396 -0.0061
 7896SOL    HW235148   3.853   1.945   3.854  2.0398 -2.1922  3.7435
 7897SOL     OW35149   0.958   0.256   2.770 -0.0502  0.8203  0.0589
 7897SOL    HW135150   1.022   0.191   2.741  1.2911  1.4838  1.5546
 7897SOL    HW235151   0.976   0.256   2.864  2.3623  0.2718 -0.3967
 7898SOL     OW35152   0.627   2.533   7.621  0.6832 -0.0071  0.0047
 7898SOL    HW135153   0.611   2.499   7.532  0.6267  1.7548 -0.6467
 7898SOL    HW235154   0.721   2.515   7.623  0.3817 -1.8107 -1.4216
 7899SOL     OW35155   3.409   3.996   1.981  0.6473 -0.0800  0.2053
 7899SOL    HW135156   3.491   4.045   1.975  0.2617  0.3875 -1.3097
 7899SOL    HW235157   3.411   3.986   2.076  1.3124  2.7040  0.5007
 7900SOL     OW35158   3.821   3.549   7.201  0.2179  0.2619  0.6576
 7900SOL    HW135159   3.867   3.518   7.280  0.3299  0.9028  0.8450
 7900SOL    HW235160   3.890   3.599   7.158 -0.5965  0.1202 -0.8088
 7901SOL     OW35161   4.347   4.592   8.429  0.4860  0.3030 -0.7423
 7901SOL    HW135162   4.430   4.625   8.394  1.9024  0.2591  2.5699
 7901SOL    HW235163   4.315   4.665   8.481  1.0865 -0.0381  0.1015
 7902SOL     OW35164   1.556   3.461   0.874 -0.0828 -0.0336  0.1304
 7902SOL    HW135165   1.479   3.419   0.913  0.9922 -2.3477 -0.2267
 7902SOL    HW235166   1.532   3.554   0.874  4.0068  1.0419 -1.2108
 7903SOL     OW35167   1.994   3.308   7.347  0.5315 -0.5528 -0.0489
 7903SOL    HW135168   2.062   3.338   7.286  0.3153  0.7209  0.3523
 7903SOL    HW235169   1.961   3.230   7.301  0.9004 -1.4339  1.1794
 7904SOL     OW35170   2.937   1.119   5.557  0.4643  0.4294 -0.1122
 7904SOL    HW135171   2.904   1.048   5.610 -0.4476 -0.3901 -1.7799
 7904SOL    HW235172   2.856   1.134   5.509 -0.2467 -2.0621  0.3269
 7905SOL     OW35173   4.638   2.248   2.704  0.1307 -0.1470 -0.6482
 7905SOL    HW135174   4.562   2.249   2.646  0.3322 -0.4048 -0.9136
 7905SOL    HW235175   4.678   2.331   2.678  2.3442 -1.8190 -2.5436
 7906SOL     OW35176   2.583   0.308   0.863 -0.0983 -0.6929  0.4346
 7906SOL    HW135177   2.627   0.334   0.944 -0.9618  1.1493  0.3266
 7906SOL    HW235178   2.651   0.314   0.796  0.1398  0.6033  0.7779
 7907SOL     OW35179   3.432   0.236   3.629 -0.3636  0.3151  0.0533
 7907SOL    HW135180   3.351   0.255   3.677  0.2918  0.9988  0.8727
 7907SOL    HW235181   3.444   0.319   3.582  0.9093  0.6307  0.9473
 7908SOL     OW35182   1.224   0.770   6.660 -0.0729 -0.2668 -0.4257
 7908SOL    HW135183   1.246   0.746   6.570 -1.8162  0.1660 -0.9816
 7908SOL    HW235184   1.310   0.776   6.701 -0.1043 -1.0456 -0.2347
 7909SOL     OW35185   1.485   1.821  10.410 -0.2493 -0.0753  0.0026
 7909SOL    HW135186   1.452   1.822  10.320 -0.4629  2.4041  0.0956
 7909SOL    HW235187   1.493   1.730  10.438 -0.2507  0.3995  1.5804
 7910SOL     OW35188   3.764   4.484   5.787 -0.0244  0.0810 -0.2102
 7910SOL    HW135189   3.794   4.565   5.828  0.5572 -1.2353  1.9323
 7910SOL    HW235190   3.672   4.509   5.794 -0.2102 -0.1394 -1.7746
 7911SOL     OW35191   1.808   3.444   7.891  0.5326  0.2647 -0.6193
 7911SOL    HW135192   1.872   3.476   7.826 -0.7307  1.2028 -1.3988
 7911SOL    HW235193   1.864   3.379   7.933 -0.6621  0.0600  0.6397
 7912SOL     OW35194   2.865   2.992   3.920  0.0114 -0.0148  0.3831
 7912SOL    HW135195   2.850   2.903   3.952 -3.6511 -0.0359 -1.3902
 7912SOL    HW235196   2.950   3.014   3.959  0.4871 -0.3616 -0.4467
 7913SOL     OW35197   3.959   3.058  17.212  0.6436  0.2926 -0.3513
 7913SOL    HW135198   4.050   3.042  17.240  1.1018  1.1820 -1.3165
 7913SOL    HW235199   3.920   3.089  17.294  0.3915  0.4955 -0.5483
 7914SOL     OW35200   4.515   1.255  13.025 -0.3755  0.7583 -0.5827
 7914SOL    HW135201   4.516   1.288  13.115  0.7345  0.4730 -0.4998
 7914SOL    HW235202   4.457   1.317  12.981 -1.8065  0.6955  1.1788
 7915SOL     OW35203   2.741   3.627   8.615 -0.1362  0.0484  0.3297
 7915SOL    HW135204   2.773   3.716   8.629  1.2186 -0.2493 -0.9251
 7915SOL    HW235205   2.721   3.625   8.522 -0.9672 -2.9195  0.5755
 7916SOL     OW35206   0.644   4.012   5.714 -0.2692  0.4038  0.2365
 7916SOL    HW135207   0.675   4.044   5.629 -0.2806 -0.5995 -0.1483
 7916SOL    HW235208   0.605   3.929   5.687 -0.4281 -0.3630  2.8401
 7917SOL     OW35209   4.159   1.273   2.432 -0.3417  0.0005  0.3959
 7917SOL    HW135210   4.133   1.356   2.393  0.9218  0.1622 -0.0847
 7917SOL    HW235211   4.097   1.214   2.388 -0.7054  0.3051  0.4975
 7918SOL     OW35212   3.288   0.470   3.500  0.3506  0.0615  0.1279
 7918SOL    HW135213   3.273   0.544   3.441 -1.0170 -0.3142  0.0080
 7918SOL    HW235214   3.202   0.432   3.479 -0.6386  1.8310  0.9806
 7919SOL     OW35215   1.433   0.832  16.066  0.0400  0.3263  0.6573
 7919SOL    HW135216   1.506   0.888  16.041  0.2802 -0.4524 -0.3844
 7919SOL    HW235217   1.372   0.863  15.999 -0.9948  1.0634  1.9423
 7920SOL     OW35218   2.333   2.108  12.479  0.2727 -0.1537 -0.0880
 7920SOL    HW135219   2.344   2.122  12.385 -1.3905 -0.8278 -0.3862
 7920SOL    HW235220   2.292   2.189  12.510 -0.1957 -0.1814 -0.6207
 7921SOL     OW35221   1.182   3.411  11.867  0.3389 -0.1445  0.0564
 7921SOL    HW135222   1.233   3.455  11.800 -0.5057  1.1547  0.2495
 7921SOL    HW235223   1.211   3.453  11.948 -1.8831 -1.6319  1.6388
 7922SOL     OW35224   3.212   3.202   4.027  0.3426  0.5701  0.5218
 7922SOL    HW135225   3.300   3.205   3.989  0.5700 -0.3624  0.9649
 7922SOL    HW235226   3.165   3.229   3.948  0.5871  0.3762  0.3075
 7923SOL     OW35227   0.788   1.183   5.803 -0.2111  0.0028  0.2942
 7923SOL    HW135228   0.825   1.100   5.834  0.4458 -0.0749 -0.7021
 7923SOL    HW235229   0.798   1.159   5.711 -2.5495  0.3856 -0.0545
 7924SOL     OW35230   3.670   0.245   9.753 -0.2382  0.6782 -0.1688
 7924SOL    HW135231   3.699   0.260   9.663 -2.5224  0.1411 -0.9846
 7924SOL    HW235232   3.713   0.161   9.769 -0.1395  0.9032  0.7370
 7925SOL     OW35233   2.322   1.915   3.000 -0.7757 -0.8906 -0.5051
 7925SOL    HW135234   2.274   1.997   3.009  0.2706 -0.2005 -1.2333
 7925SOL    HW235235   2.409   1.942   2.972 -0.0518 -2.6404  0.0979
 7926SOL     OW35236   1.936   0.519   8.311  0.1009  0.2999 -0.3329
 7926SOL    HW135237   1.882   0.447   8.343 -0.2615  0.3718 -0.7761
 7926SOL    HW235238   2.026   0.490   8.326 -0.1845  0.6065  1.8997
 7927SOL     OW35239   4.526   0.529   6.489 -0.0772  0.1225  0.0597
 7927SOL    HW135240   4.486   0.527   6.402 -1.9453 -1.6245  0.9454
 7927SOL    HW235241   4.609   0.571   6.468 -0.6641  2.1574  1.8209
 7928SOL     OW35242   1.813   2.578   7.066  0.0779 -0.2148  0.4190
 7928SOL    HW135243   1.749   2.553   7.000 -0.5275 -1.6412  1.5510
 7928SOL    HW235244   1.868   2.632   7.010 -0.5645  1.0233  0.9736
 7929SOL     OW35245   1.944   4.629   9.296  0.1422 -0.3315 -0.2346
 7929SOL    HW135246   2.015   4.592   9.350  0.2981  0.0657 -0.1695
 7929SOL    HW235247   1.944   4.723   9.312 -0.7845 -0.2962 -0.4550
 7930SOL     OW35248   3.808   3.794   7.588 -0.2357  0.7818  0.3694
 7930SOL    HW135249   3.728   3.753   7.621 -0.5316  1.6927  0.7987
 7930SOL    HW235250   3.787   3.883   7.618 -0.6365  1.4373 -1.8421
 7931SOL     OW35251   1.098   1.709  13.279 -0.6631  0.3107  0.1971
 7931SOL    HW135252   1.090   1.718  13.374  0.2386 -2.1416  0.5228
 7931SOL    HW235253   1.007   1.726  13.254 -0.3122  0.5595 -0.9051
 7932SOL     OW35254   3.659   1.713  15.889  0.2383  0.0774  0.1995
 7932SOL    HW135255   3.615   1.710  15.973 -2.0091 -1.1757 -1.0383
 7932SOL    HW235256   3.596   1.685  15.823 -0.1641 -1.6266  1.3086
 7933SOL     OW35257   4.723   2.719   8.496  0.0273 -0.2946  0.3055
 7933SOL    HW135258   0.034   2.804   8.521  0.9322 -0.3835 -0.7310
 7933SOL    HW235259   4.679   2.696   8.578  0.3714  1.3310  0.9441
 7934SOL     OW35260   3.460   2.397   1.656 -0.2905 -0.0963  0.0066
 7934SOL    HW135261   3.511   2.418   1.578 -0.4629  2.1761  0.5034
 7934SOL    HW235262   3.455   2.473   1.714  0.4934  1.7859 -2.4158
 7935SOL     OW35263   3.444   3.153  14.126  0.5328  0.3053 -0.7091
 7935SOL    HW135264   3.384   3.227  14.136 -0.7958 -1.0055  0.7898
 7935SOL    HW235265   3.395   3.096  14.068 -0.1190 -0.1268  0.2707
 7936SOL     OW35266   0.373   0.326   9.329 -0.0901 -0.1577 -0.1207
 7936SOL    HW135267   0.338   0.415   9.340  0.6707  0.1419 -0.1120
 7936SOL    HW235268   0.295   0.287   9.291 -1.0302  1.6442 -0.0246
 7937SOL     OW35269   0.724   0.373   3.312 -0.4690  0.4252 -0.5092
 7937SOL    HW135270   0.690   0.348   3.226  0.7973 -1.6130 -0.4327
 7937SOL    HW235271   0.814   0.343   3.298 -0.7781 -0.9698  0.4418
 7938SOL     OW35272   2.738   3.509  13.826  0.2545 -0.9206 -0.1415
 7938SOL    HW135273   2.668   3.445  13.813  0.1576 -0.4316 -2.0576
 7938SOL    HW235274   2.806   3.471  13.771 -1.0588 -2.3209 -0.7788
 7939SOL     OW35275   4.510   3.883   3.063  0.6719 -0.2773  0.0319
 7939SOL    HW135276   4.582   3.820   3.053 -0.4642 -1.4856 -0.6240
 7939SOL    HW235277   4.439   3.821   3.082  1.8057 -2.7606 -3.7185
 7940SOL     OW35278   2.964   0.093   4.984  0.6643  0.0314 -0.3339
 7940SOL    HW135279   2.897   0.081   5.052  1.0195 -2.6912 -0.4442
 7940SOL    HW235280   2.906   0.110   4.910  0.3916 -3.8897 -1.0266
 7941SOL     OW35281   4.608   4.181   2.436 -0.2199  0.0407  0.2061
 7941SOL    HW135282   4.572   4.106   2.390 -2.2346 -0.0166  1.8527
 7941SOL    HW235283   4.534   4.237   2.459  1.0675  1.7266  0.2700
 7942SOL     OW35284   4.558   1.604  13.013  0.3908 -0.2784 -0.3037
 7942SOL    HW135285   4.621   1.647  13.070  2.4480 -3.2257 -0.3470
 7942SOL    HW235286   4.494   1.586  13.082  3.2712 -1.6693  1.9785
 7943SOL     OW35287   4.146   0.502  12.714  0.0779  0.0166 -0.3119
 7943SOL    HW135288   4.148   0.459  12.800  0.0921  0.0928 -0.2736
 7943SOL    HW235289   4.235   0.535  12.703  0.5228 -0.9633  0.3368
 7944SOL     OW35290   1.289   3.097   6.022  0.2561  0.0108  0.4849
 7944SOL    HW135291   1.325   3.179   5.987  1.3872 -0.9752 -0.6654
 7944SOL    HW235292   1.196   3.109   6.005 -0.0659 -2.5029  0.4527
 7945SOL     OW35293   3.813   1.756  12.576  0.5853 -0.6029  0.4424
 7945SOL    HW135294   3.766   1.683  12.535  0.0250  0.0191 -0.0256
 7945SOL    HW235295   3.883   1.772  12.513  1.4222  2.0745  2.0625
 7946SOL     OW35296   3.262   2.783   3.628  0.1805 -0.0397 -0.0088
 7946SOL    HW135297   3.188   2.751   3.679  0.9955 -0.5701  0.8345
 7946SOL    HW235298   3.220   2.808   3.546 -0.2774  0.7339  0.4613
 7947SOL     OW35299   1.740   2.238   4.532  0.1383  1.1181 -0.0485
 7947SOL    HW135300   1.652   2.215   4.561 -0.1169  0.4182 -1.4184
 7947SOL    HW235301   1.774   2.292   4.604  1.5232  1.2687 -0.8200
 7948SOL     OW35302   1.871   1.050   2.046 -0.0052 -0.1290 -0.0324
 7948SOL    HW135303   1.910   0.972   2.085 -0.0379  0.8489  1.9454
 7948SOL    HW235304   1.819   1.006   1.978  1.8908  0.9787 -2.2005
 7949SOL     OW35305   4.250   1.731   3.039 -0.3456  0.5453  0.0595
 7949SOL    HW135306   4.232   1.637   3.033  2.3538  0.3174 -4.1620
 7949SOL    HW235307   4.341   1.735   3.067  0.0212 -2.6608 -0.6621
 7950SOL     OW35308   0.095   1.404   4.714  0.5058  0.2985  0.0566
 7950SOL    HW135309   0.099   1.470   4.784  2.4261  1.7684 -1.4423
 7950SOL    HW235310   0.167   1.341   4.728  2.0297  1.8550 -0.7886
 7951SOL     OW35311   4.546   2.554   5.264  0.9753  0.6171 -0.4426
 7951SOL    HW135312   4.546   2.512   5.350  0.0194  1.5199  0.0072
 7951SOL    HW235313   4.464   2.516   5.231  1.9754  0.8712 -3.2320
 7952SOL     OW35314   0.287   3.809   3.656 -0.0178 -0.1528 -0.2119
 7952SOL    HW135315   0.345   3.742   3.692  0.8843  0.9686  0.4078
 7952SOL    HW235316   0.353   3.834   3.591  0.8012 -0.8867  0.3264
 7953SOL     OW35317   4.341   0.344   8.110  0.3547 -0.2244  0.2102
 7953SOL    HW135318   4.314   0.386   8.191 -0.3684 -1.4245  0.5908
 7953SOL    HW235319   4.263   0.362   8.057  0.7983 -1.7169 -0.9490
 7954SOL     OW35320   2.590   2.228  14.489 -0.3313 -0.8434 -0.3440
 7954SOL    HW135321   2.635   2.313  14.483  0.0896 -0.9980  0.5891
 7954SOL    HW235322   2.566   2.218  14.397  0.5629 -0.6531 -0.5982
 7955SOL     OW35323   2.663   2.252   0.085 -0.6640  0.1244  0.4845
 7955SOL    HW135324   2.570   2.237   0.098 -0.2801 -2.1612  0.5301
 7955SOL    HW235325   2.658   2.320   0.017 -0.1854 -0.9571 -0.6290
 7956SOL     OW35326   3.513   1.623   5.547  0.0472  0.3807  0.5091
 7956SOL    HW135327   3.580   1.560   5.573  0.0932 -1.7547 -4.8388
 7956SOL    HW235328   3.566   1.688   5.500  1.3387 -0.9872  0.0674
 7957SOL     OW35329   2.418   3.974  15.929 -0.0911 -0.1034 -0.3989
 7957SOL    HW135330   2.445   3.935  15.846 -0.3282 -1.4734  0.1704
 7957SOL    HW235331   2.348   4.025  15.888  1.3259  0.7910 -1.6924
 7958SOL     OW35332   1.095   3.339   1.177  0.3520 -0.1190 -0.0408
 7958SOL    HW135333   1.109   3.249   1.207 -1.8272 -0.3473  0.3342
 7958SOL    HW235334   1.005   3.330   1.146 -0.0699 -1.9735  1.6901
 7959SOL     OW35335   4.527   3.168  13.423  0.3547  0.2655 -0.0369
 7959SOL    HW135336   4.528   3.083  13.466 -1.5348  1.6572  2.7504
 7959SOL    HW235337   4.613   3.203  13.448  1.1405 -1.9034  0.2942
 7960SOL     OW35338   2.596   1.899  14.790 -0.0839 -0.2117 -0.6773
 7960SOL    HW135339   2.624   1.874  14.879 -0.1195 -1.3431 -0.9964
 7960SOL    HW235340   2.527   1.838  14.767 -1.4400  0.0390  2.7298
 7961SOL     OW35341   0.091   1.583   5.530  0.4734  0.5630 -0.4199
 7961SOL    HW135342   0.008   1.536   5.520  0.7192  0.1389 -0.4780
 7961SOL    HW235343   0.055   1.668   5.556  0.9737  0.5413  0.3441
 7962SOL     OW35344   0.735   1.079   3.224  0.3598  0.1927 -0.5932
 7962SOL    HW135345   0.808   1.022   3.248  0.7447  0.5845 -0.8209
 7962SOL    HW235346   0.690   1.033   3.153 -0.0134  0.9100 -0.8223
 7963SOL     OW35347   1.408   3.063   5.403  0.2686  0.4790 -0.6706
 7963SOL    HW135348   1.394   3.002   5.331 -0.5588  1.3703 -1.2713
 7963SOL    HW235349   1.497   3.037   5.425  0.0854  0.2398 -0.2053
 7964SOL     OW35350   3.412   3.134   2.986  0.5330 -0.4671 -0.2640
 7964SOL    HW135351   3.495   3.164   2.950 -0.7947  3.0007 -0.3833
 7964SOL    HW235352   3.379   3.224   2.988  2.7036  0.4570 -6.4442
 7965SOL     OW35353   2.197   2.885   1.019  0.2601  0.1900  0.5492
 7965SOL    HW135354   2.163   2.815   1.075  0.0736 -0.2445 -0.1071
 7965SOL    HW235355   2.127   2.885   0.954 -0.8892 -0.3462  1.8017
 7966SOL     OW35356   1.233   1.196   1.910 -0.0137  0.2961 -0.1910
 7966SOL    HW135357   1.216   1.241   1.827  0.6982 -0.8002 -0.9377
 7966SOL    HW235358   1.317   1.153   1.892  0.8699  1.2812  1.6564
 7967SOL     OW35359   0.635   1.849   6.773  0.4551  0.0314 -0.4925
 7967SOL    HW135360   0.647   1.779   6.837  0.1035 -0.5475 -1.0621
 7967SOL    HW235361   0.634   1.785   6.702 -1.9419 -1.0577  0.5135
 7968SOL     OW35362   1.665   1.889   8.430 -0.1879  0.4392 -0.0658
 7968SOL    HW135363   1.610   1.958   8.394  1.3591  2.5238  1.5719
 7968SOL    HW235364   1.598   1.834   8.471  2.4861 -1.8813  1.1450
 7969SOL     OW35365   3.185   2.434   9.114  0.1431 -0.7509 -0.6912
 7969SOL    HW135366   3.214   2.478   9.033 -0.6000 -1.2520 -1.2212
 7969SOL    HW235367   3.251   2.456   9.180  2.6343 -2.1372 -2.7214
 7970SOL     OW35368   4.077   4.386   3.998 -1.0703 -0.5764 -0.1942
 7970SOL    HW135369   4.071   4.480   3.985  0.1423 -0.6033 -1.0091
 7970SOL    HW235370   4.013   4.360   3.932 -1.1757 -0.2657 -0.2118
 7971SOL     OW35371   0.632   2.887  11.916  0.1333 -0.2455 -0.2168
 7971SOL    HW135372   0.713   2.877  11.966  1.1468 -2.4552 -2.3125
 7971SOL    HW235373   0.669   2.928  11.839  0.9483 -0.8515 -0.1475
 7972SOL     OW35374   0.292   3.871  16.287 -0.2469  0.2849 -0.4907
 7972SOL    HW135375   0.342   3.807  16.337  0.0364  0.1787 -0.9081
 7972SOL    HW235376   0.234   3.914  16.350  1.2471 -0.1802  1.1900
 7973SOL     OW35377   0.153   0.819   1.497  0.1776 -0.4007 -0.2209
 7973SOL    HW135378   0.096   0.895   1.481  0.3509 -0.5423 -1.5195
 7973SOL    HW235379   0.104   0.743   1.467 -0.5762 -1.8739  4.6568
 7974SOL     OW35380   1.213   2.274   4.258  0.3462 -0.3557 -0.0053
 7974SOL    HW135381   1.224   2.311   4.346 -1.7963  0.1996  0.0291
 7974SOL    HW235382   1.133   2.321   4.234 -0.0303 -0.4004  1.2049
 7975SOL     OW35383   0.089   1.799  11.824 -0.1194  0.7064 -0.0511
 7975SOL    HW135384   0.133   1.782  11.907 -0.7425  1.7629  0.4899
 7975SOL    HW235385   0.119   1.886  11.797  0.8992 -0.1832 -1.7869
 7976SOL     OW35386   1.584   0.764   1.068 -0.1156  0.5456  0.4312
 7976SOL    HW135387   1.663   0.790   1.116  0.4604 -1.3102  0.4790
 7976SOL    HW235388   1.527   0.840   1.079 -0.4148  0.1579  1.5637
 7977SOL     OW35389   0.494   3.134  11.524  0.2097 -1.0047 -0.1087
 7977SOL    HW135390   0.399   3.131  11.514  0.4579 -1.1779 -2.3642
 7977SOL    HW235391   0.528   3.196  11.460 -2.4186 -0.5593 -1.0713
 7978SOL     OW35392   2.692   4.307   0.492  0.3673 -0.4879  0.5818
 7978SOL    HW135393   2.660   4.365   0.561  1.4003  1.2952 -0.4375
 7978SOL    HW235394   2.625   4.241   0.471 -2.3654  2.9064 -1.2748
 7979SOL     OW35395   3.909   1.618   8.630 -0.3321 -0.5333 -0.3870
 7979SOL    HW135396   3.889   1.545   8.571 -0.0585  0.9845 -2.3194
 7979SOL    HW235397   3.826   1.666   8.628  0.1864  0.4246  0.9510
 7980SOL     OW35398   0.701   0.890   3.933  0.2524 -0.7851  0.3633
 7980SOL    HW135399   0.732   0.886   3.842  0.2832 -1.3008  0.3977
 7980SOL    HW235400   0.719   0.800   3.957 -0.8519 -1.0185  0.2867
 7981SOL     OW35401   3.198   3.479  10.157  0.1686  0.0156  0.1815
 7981SOL    HW135402   3.181   3.444  10.070 -0.5311 -1.7619  1.0381
 7981SOL    HW235403   3.165   3.569  10.165 -1.8684 -0.6040 -1.4759
 7982SOL     OW35404   4.638   4.325   4.919  0.5844 -0.1181  0.3141
 7982SOL    HW135405   4.558   4.379   4.921 -0.2045 -1.2600 -0.6927
 7982SOL    HW235406   4.711   4.380   4.948  1.3383 -1.7544  1.4726
 7983SOL     OW35407   3.494   4.699   7.979  0.5803  0.0525 -0.2833
 7983SOL    HW135408   3.565   4.647   7.941  1.5074  1.4384 -0.4454
 7983SOL    HW235409   3.425   4.633   7.981 -0.2247  0.8542 -1.2630
 7984SOL     OW35410   3.095   2.903   3.429  0.0639  0.1506 -0.3098
 7984SOL    HW135411   3.056   2.889   3.342  0.7569  0.5304 -0.6767
 7984SOL    HW235412   3.022   2.887   3.489  0.4843 -0.8627 -0.0761
 7985SOL     OW35413   3.610   0.879  15.282 -0.1334 -0.1370 -0.4669
 7985SOL    HW135414   3.642   0.922  15.361  0.8908  0.1644 -1.0344
 7985SOL    HW235415   3.692   0.882  15.231 -0.8004 -0.0084 -1.5406
 7986SOL     OW35416   3.375   2.610  11.255 -0.1951  0.6599  0.6549
 7986SOL    HW135417   3.408   2.528  11.292 -0.4422 -0.7610 -2.3331
 7986SOL    HW235418   3.279   2.611  11.261 -0.2283 -0.8626  0.4906
 7987SOL     OW35419   4.599   2.316  14.387  0.5797  0.1086 -0.4111
 7987SOL    HW135420   4.612   2.239  14.331  4.2560 -0.9771  1.8844
 7987SOL    HW235421   4.508   2.341  14.376  0.1385  0.4013  3.9032
 7988SOL     OW35422   3.472   1.598   1.044  0.0505 -0.2538  0.2570
 7988SOL    HW135423   3.393   1.625   1.091  1.0734  1.1145  1.2025
 7988SOL    HW235424   3.496   1.530   1.107  0.9538 -1.5396 -1.5020
 7989SOL     OW35425   1.404   1.382   2.598  0.4225 -0.3816  0.1268
 7989SOL    HW135426   1.385   1.444   2.528  2.4720  2.6698  2.3152
 7989SOL    HW235427   1.373   1.416   2.681  1.5247 -0.0599  0.3949
 7990SOL     OW35428   1.414   3.887   5.142 -0.2795 -0.3798  0.1024
 7990SOL    HW135429   1.467   3.825   5.193  0.7710  0.0221 -0.4966
 7990SOL    HW235430   1.332   3.870   5.188 -1.4081 -1.7447 -2.4286
 7991SOL     OW35431   1.855   1.494   8.847  0.2224  0.6530  0.5145
 7991SOL    HW135432   1.910   1.512   8.771  1.2367 -1.0820  0.8352
 7991SOL    HW235433   1.786   1.459   8.791  0.3070  1.5779 -0.1680
 7992SOL     OW35434   2.586   3.067   8.530  0.2654  0.0240  0.2386
 7992SOL    HW135435   2.491   3.065   8.535  0.0223  0.7049 -4.0133
 7992SOL    HW235436   2.592   3.153   8.488 -0.7548 -0.1698 -0.3090
 7993SOL     OW35437   2.225   0.067   6.822  0.1199  0.4008  0.0300
 7993SOL    HW135438   2.197   0.084   6.732 -1.1201 -2.4042 -0.0959
 7993SOL    HW235439   2.169   4.716   6.839 -0.9523  1.4961  1.4079
 7994SOL     OW35440   3.255   3.722  13.517  0.0827 -0.4377  0.5174
 7994SOL    HW135441   3.349   3.705  13.520  0.2774  0.6937  0.6220
 7994SOL    HW235442   3.231   3.692  13.429  0.8951 -0.4899  0.3147
 7995SOL     OW35443   3.177   2.494   4.037 -0.1445  0.4800 -0.3073
 7995SOL    HW135444   3.191   2.582   4.001 -0.7231  1.1006  0.9574
 7995SOL    HW235445   3.133   2.520   4.118  0.1925 -1.1737  0.4041
 7996SOL     OW35446   1.337   2.104   0.070 -0.3228  0.0620 -0.3421
 7996SOL    HW135447   1.354   2.149   0.153 -1.0816 -0.2258 -0.0289
 7996SOL    HW235448   1.417   2.051   0.071 -0.8669 -0.7720 -0.9947
 7997SOL     OW35449   3.047   0.944  13.629 -0.6145  0.2425  0.2184
 7997SOL    HW135450   2.980   0.883  13.660 -0.3325 -0.0135  0.3228
 7997SOL    HW235451   3.028   0.940  13.536 -1.1408 -2.0857  0.4139
 7998SOL     OW35452   0.420   1.612   9.195 -0.1022 -0.5452 -0.4727
 7998SOL    HW135453   0.420   1.591   9.102 -2.1388  1.8205 -1.0014
 7998SOL    HW235454   0.329   1.592   9.217  0.1903 -1.2990  0.0756
 7999SOL     OW35455   3.864   1.089   7.050  0.3668 -0.3020 -0.0744
 7999SOL    HW135456   3.799   1.067   6.984  0.6669 -0.2473 -0.3852
 7999SOL    HW235457   3.867   1.007   7.099  2.5474 -0.3286 -0.2652
 8000SOL     OW35458   2.599   3.215   6.223 -0.0840  0.2463  0.5913
 8000SOL    HW135459   2.618   3.182   6.135 -1.6187 -0.4625  0.5332
 8000SOL    HW235460   2.681   3.261   6.242 -0.3971  1.6991 -1.4757
 8001SOL     OW35461   1.048   2.042  13.918  0.3145 -0.2310  0.5674
 8001SOL    HW135462   1.040   1.965  13.974 -1.7312 -1.6518 -1.6462
 8001SOL    HW235463   1.137   2.028  13.885 -0.1076  1.3072 -1.2426
 8002SOL     OW35464   4.459   1.523   3.994 -0.5480 -0.5086  0.3982
 8002SOL    HW135465   4.479   1.445   3.942  1.0264  1.2967 -1.6757
 8002SOL    HW235466   4.537   1.531   4.049 -0.5817  0.1956  0.3440
 8003SOL     OW35467   3.398   3.815  15.601 -0.0252  0.3290 -0.6976
 8003SOL    HW135468   3.476   3.770  15.634 -0.4553  1.2324  1.5418
 8003SOL    HW235469   3.388   3.749  15.532 -0.8381 -1.2885  0.9912
 8004SOL     OW35470   1.412   2.254   5.184 -0.2272  0.1125  0.2340
 8004SOL    HW135471   1.457   2.192   5.241 -0.1646  1.2534  1.4375
 8004SOL    HW235472   1.454   2.230   5.102 -0.9968 -0.9136  0.1396
 8005SOL     OW35473   3.776   2.994   3.423  0.2287 -0.3426 -0.3849
 8005SOL    HW135474   3.694   2.945   3.422 -1.2874  2.1547  0.6998
 8005SOL    HW235475   3.766   3.047   3.343 -1.8185 -1.3549 -0.8051
 8006SOL     OW35476   1.657   3.329   4.184  0.1841  0.0100 -0.1229
 8006SOL    HW135477   1.651   3.284   4.100 -0.8359 -0.3551  0.1571
 8006SOL    HW235478   1.739   3.294   4.221 -0.2428 -1.4197 -0.5632
 8007SOL     OW35479   0.647   0.066   7.139 -0.5375  0.3565 -0.0068
 8007SOL    HW135480   0.588   0.093   7.068 -0.8015 -0.5809 -0.1439
 8007SOL    HW235481   0.585   0.003   7.176  0.6189 -0.7026  0.1304
 8008SOL     OW35482   0.816   1.261   1.566  0.1395 -1.0556 -0.2352
 8008SOL    HW135483   0.727   1.295   1.579  0.6334  0.0683  0.2107
 8008SOL    HW235484   0.799   1.167   1.561  0.1309 -1.0473 -0.3557
 8009SOL     OW35485   4.031   1.381   9.481 -0.6570 -0.3045  0.8267
 8009SOL    HW135486   4.022   1.435   9.402  0.5151  2.5986  2.6765
 8009SOL    HW235487   3.945   1.341   9.491 -1.4381  1.1097 -0.0710
 8010SOL     OW35488   4.511   1.997   0.336 -0.6635 -0.5179  0.0991
 8010SOL    HW135489   4.544   1.993   0.246  1.2104 -0.6014  0.7920
 8010SOL    HW235490   4.467   2.080   0.317  0.4852 -0.3873 -1.9972
 8011SOL     OW35491   3.748   1.046   3.191 -0.0711  0.2028  0.4392
 8011SOL    HW135492   3.812   1.038   3.119  1.5279 -1.8349  2.0817
 8011SOL    HW235493   3.695   0.971   3.166  0.1232 -0.1984  1.2147
 8012SOL     OW35494   0.940   3.798   7.547 -0.0629  0.3311  0.1004
 8012SOL    HW135495   0.912   3.887   7.565 -0.1505  0.0129  1.5094
 8012SOL    HW235496   0.943   3.761   7.635 -1.0713 -0.7465 -0.3160
 8013SOL     OW35497   4.341   3.339   8.159 -0.3242  0.0851  0.1850
 8013SOL    HW135498   4.383   3.355   8.075 -0.7540 -0.4860 -0.1343
 8013SOL    HW235499   4.411   3.354   8.222  0.5761 -0.7723 -0.6165
 8014SOL     OW35500   2.007   0.879   2.176  0.1663  0.7645  0.2445
 8014SOL    HW135501   2.103   0.879   2.178  0.1842 -0.2139 -0.7527
 8014SOL    HW235502   1.988   0.862   2.269  0.6542 -0.7102  0.0793
 8015SOL     OW35503   2.138   0.184   0.001 -0.2276  0.5072  0.3797
 8015SOL    HW135504   2.130   0.221   0.089  1.4170  2.1843 -0.1688
 8015SOL    HW235505   2.155   0.091   0.017  0.3506  0.5990  0.2847
 8016SOL     OW35506   0.825   4.008   8.695  0.3390 -0.0830 -0.0047
 8016SOL    HW135507   0.732   4.005   8.672 -0.0304  1.5121  1.3117
 8016SOL    HW235508   0.862   4.071   8.633  1.7154 -0.5408  0.3593
 8017SOL     OW35509   0.716   4.310   8.380  0.2091  0.4866  0.3119
 8017SOL    HW135510   0.784   4.268   8.433 -0.2711 -0.1252  0.4330
 8017SOL    HW235511   0.735   4.263   8.299  0.6856  0.6602  0.3192
 8018SOL     OW35512   4.635   1.928   2.268  0.7538 -0.0675  0.1467
 8018SOL    HW135513   4.703   1.863   2.248  3.5639  3.4226 -1.6778
 8018SOL    HW235514   4.627   1.967   2.181  2.4340  0.8604  0.4036
 8019SOL     OW35515   1.207   2.239  11.157  0.7984 -0.2706 -0.4760
 8019SOL    HW135516   1.222   2.213  11.066  0.8195  0.1705 -0.6021
 8019SOL    HW235517   1.163   2.160  11.188 -0.6293  0.4725 -0.6028
 8020SOL     OW35518   4.467   4.092  13.162 -0.1124  1.0104  0.1282
 8020SOL    HW135519   4.550   4.086  13.210  0.8673  0.6993 -1.6229
 8020SOL    HW235520   4.487   4.156  13.093  0.4060  0.7155  0.0075
 8021SOL     OW35521   2.388   0.997   4.530  0.3091 -0.5991 -0.4088
 8021SOL    HW135522   2.420   0.934   4.465  1.3751 -1.1828  0.6831
 8021SOL    HW235523   2.297   0.970   4.542  0.4257 -0.5644  0.6064
 8022SOL     OW35524   0.333   1.563   8.914  0.0201  0.1621 -0.4006
 8022SOL    HW135525   0.408   1.596   8.864 -1.7618  0.9322 -2.5613
 8022SOL    HW235526   0.264   1.570   8.848 -0.6289 -1.3399  0.1066
 8023SOL     OW35527   2.330   2.115   4.920  0.0613 -0.0914  0.0906
 8023SOL    HW135528   2.302   2.204   4.939  0.1072 -0.6176  2.6992
 8023SOL    HW235529   2.397   2.121   4.852  1.0382 -1.2270  0.9296
 8024SOL     OW35530   1.449   1.687   4.089  0.1458 -0.7399 -0.3424
 8024SOL    HW135531   1.536   1.662   4.122  1.8288  2.7294 -2.2023
 8024SOL    HW235532   1.428   1.605   4.044  1.8226 -1.1390 -0.3918
 8025SOL     OW35533   1.858   2.379   0.007 -0.3143 -0.6829  0.4842
 8025SOL    HW135534   1.939   2.365  17.660 -0.1947  1.7651  0.0012
 8025SOL    HW235535   1.870   2.304   0.066 -0.0955 -0.0528  1.2397
 8026SOL     OW35536   3.353   1.068  12.488 -0.1994 -0.1190  0.3030
 8026SOL    HW135537   3.349   1.161  12.466  2.7975  0.0926  0.5906
 8026SOL    HW235538   3.365   1.036  12.399  1.3740 -0.0385  0.4825
 8027SOL     OW35539   1.986   4.593   7.260  0.1111 -0.2355  0.6062
 8027SOL    HW135540   2.005   4.503   7.234 -2.0939 -0.8940  1.2253
 8027SOL    HW235541   1.896   4.614   7.235 -0.1160  0.0297  1.6302
 8028SOL     OW35542   3.725   2.175  17.263 -0.0297  0.0355  0.0540
 8028SOL    HW135543   3.659   2.215  17.207  1.6573 -1.3418 -2.8788
 8028SOL    HW235544   3.688   2.187  17.351 -1.1319  1.7957 -0.6491
 8029SOL     OW35545   1.838   2.117   4.859 -0.0801  0.3264 -0.5088
 8029SOL    HW135546   1.876   2.161   4.783  2.5736  1.3718  1.4036
 8029SOL    HW235547   1.914   2.098   4.915 -1.4149 -0.9917  0.8395
 8030SOL     OW35548   2.658   3.832   4.793  0.1251  0.5410  0.1028
 8030SOL    HW135549   2.730   3.769   4.799 -1.6215 -1.4959 -0.2151
 8030SOL    HW235550   2.645   3.835   4.699 -0.3388 -1.4343  0.1109
 8031SOL     OW35551   3.447   4.352   6.523 -0.4856 -0.0149 -0.7163
 8031SOL    HW135552   3.376   4.337   6.584  0.0006 -2.3364 -0.7100
 8031SOL    HW235553   3.474   4.260   6.515  2.5701  0.7445  0.5698
 8032SOL     OW35554   0.440   2.187   5.518  0.2306  0.1361  0.5989
 8032SOL    HW135555   0.481   2.272   5.537 -3.3491  2.0752 -0.3454
 8032SOL    HW235556   0.494   2.132   5.574 -0.1907 -0.9977 -0.1188
 8033SOL     OW35557   1.615   0.742   5.614  0.4910  0.8856 -0.8856
 8033SOL    HW135558   1.609   0.830   5.578 -1.1447  1.0035 -0.3327
 8033SOL    HW235559   1.605   0.762   5.707 -2.6121  0.7910 -1.1959
 8034SOL     OW35560   3.710   4.049   3.176 -0.1656 -0.0619 -0.7434
 8034SOL    HW135561   3.732   4.101   3.253 -1.3952  1.7306 -1.5951
 8034SOL    HW235562   3.618   4.069   3.159 -0.6524 -0.1531  1.8784
 8035SOL     OW35563   3.625   3.627   7.719  0.6573 -0.0260 -0.1605
 8035SOL    HW135564   3.538   3.636   7.757  0.5649 -1.0019 -0.1266
 8035SOL    HW235565   3.665   3.601   7.802  1.5084  3.8266  0.6433
 8036SOL     OW35566   4.275   0.085   6.289 -0.4858 -0.1566 -0.6746
 8036SOL    HW135567   4.190   0.124   6.308  0.5626  0.7643  2.1934
 8036SOL    HW235568   4.255   0.014   6.229  1.4006 -0.8507 -0.5022
 8037SOL     OW35569   0.245   2.305   4.584  0.5123 -0.0809  0.6007
 8037SOL    HW135570   0.219   2.269   4.669  0.7608  0.0989  0.7534
 8037SOL    HW235571   0.177   2.368   4.561  0.3839 -0.2960  0.3830
 8038SOL     OW35572   2.570   3.863   5.768  0.3512 -0.2403  0.7982
 8038SOL    HW135573   2.590   3.773   5.745 -0.2920  0.0689 -0.9813
 8038SOL    HW235574   2.639   3.876   5.833  0.6502 -0.1041  0.4542
 8039SOL     OW35575   3.038   0.888  16.384  0.0593 -0.0214 -0.3125
 8039SOL    HW135576   3.111   0.837  16.348 -0.4229 -0.0370 -1.2673
 8039SOL    HW235577   2.962   0.834  16.362  2.1351 -3.2483  0.5127
 8040SOL     OW35578   3.099   1.140   6.115 -0.1577 -0.2738  0.4258
 8040SOL    HW135579   3.193   1.128   6.102 -0.2032  1.0420 -1.2051
 8040SOL    HW235580   3.076   1.048   6.123 -0.7643 -0.2764 -1.4302
 8041SOL     OW35581   3.458   0.061  12.883 -0.0970  0.3990  0.1867
 8041SOL    HW135582   3.464   4.707  12.937  1.0480 -0.4159 -1.1357
 8041SOL    HW235583   3.487   0.119  12.954 -0.0904 -0.4277  0.8698
 8042SOL     OW35584   0.989   2.208   6.659 -0.0377 -0.3639 -0.2789
 8042SOL    HW135585   0.986   2.249   6.573  1.0767 -0.2683 -0.2770
 8042SOL    HW235586   0.899   2.176   6.659 -0.5111  0.9617  0.0733
 8043SOL     OW35587   0.713   2.570   6.951 -0.2717 -0.0044  0.1574
 8043SOL    HW135588   0.646   2.532   6.894 -0.1780 -0.4545  0.3516
 8043SOL    HW235589   0.673   2.603   7.031 -1.1219  0.6448 -0.5376
 8044SOL     OW35590   1.762   1.673   7.981 -0.5841 -0.1602 -0.0749
 8044SOL    HW135591   1.810   1.604   8.026 -1.6057 -0.7936  0.0369
 8044SOL    HW235592   1.789   1.750   8.031 -0.2032 -1.3048  1.4641
 8045SOL     OW35593   4.515   3.105   7.590 -0.1066  0.3588 -0.4998
 8045SOL    HW135594   4.484   3.030   7.641  0.7374  2.1525  2.6500
 8045SOL    HW235595   4.587   3.062   7.542  0.0923 -0.4635  0.5535
 8046SOL     OW35596   3.274   1.920   5.287 -0.0526  0.3931 -0.8110
 8046SOL    HW135597   3.287   1.918   5.382 -1.6631  0.9956 -0.5809
 8046SOL    HW235598   3.179   1.928   5.284  0.0476  1.9724  0.0399
 8047SOL     OW35599   2.472   4.153   2.773  0.0782  0.2842 -0.1871
 8047SOL    HW135600   2.436   4.101   2.701 -3.0682  1.2720  0.6689
 8047SOL    HW235601   2.434   4.240   2.755  0.2229  0.6058  1.0510
 8048SOL     OW35602   0.239   3.765   7.849  0.3332  0.1516  0.0602
 8048SOL    HW135603   0.244   3.692   7.911 -1.6386 -0.6253 -0.7012
 8048SOL    HW235604   0.318   3.815   7.871 -0.2304  0.1783  2.0363
 8049SOL     OW35605   2.185   1.190   6.686  0.1974  0.8824  0.2884
 8049SOL    HW135606   2.264   1.136   6.683  0.8855  1.9535 -0.9844
 8049SOL    HW235607   2.227   1.258   6.634 -1.9187  1.0769 -1.1916
 8050SOL     OW35608   0.196   0.288   7.903 -1.0288  0.3781  0.2647
 8050SOL    HW135609   0.132   0.343   7.859  1.0780  0.8443 -2.2135
 8050SOL    HW235610   0.141   0.224   7.948 -1.5108 -1.2225 -2.5975
 8051SOL     OW35611   3.625   0.151   5.913 -0.6215  0.2608 -0.4001
 8051SOL    HW135612   3.647   0.190   5.998 -1.6251  1.3462 -0.6413
 8051SOL    HW235613   3.715   0.126   5.893 -1.2575 -1.0268 -1.6257
 8052SOL     OW35614   1.159   2.850  11.159  0.1992  0.6440 -0.3911
 8052SOL    HW135615   1.158   2.821  11.068  2.1071 -2.7527  0.6517
 8052SOL    HW235616   1.198   2.773  11.200  2.6825  1.2021 -1.6996
 8053SOL     OW35617   0.109   4.033   1.539  1.0911  0.1125 -0.2552
 8053SOL    HW135618   0.048   4.044   1.611  0.7560  2.2234 -0.8542
 8053SOL    HW235619   0.060   4.077   1.469  1.5418  0.6457 -0.2355
 8054SOL     OW35620   0.344   2.778  12.712 -0.2053  0.0673 -0.7848
 8054SOL    HW135621   0.433   2.806  12.693  0.8601 -3.6143 -1.3509
 8054SOL    HW235622   0.358   2.718  12.786 -5.1405 -0.7887 -0.5748
 8055SOL     OW35623   4.265   3.034   3.332 -0.1977  0.4987 -0.0042
 8055SOL    HW135624   4.185   3.087   3.337  1.0258  2.4118 -0.7305
 8055SOL    HW235625   4.250   2.993   3.247  2.3899 -1.8694  0.6843
 8056SOL     OW35626   3.376   0.328  10.078 -0.4312 -0.2287 -0.2447
 8056SOL    HW135627   3.419   0.410  10.102 -0.1502  0.1248 -2.0106
 8056SOL    HW235628   3.372   0.290  10.166 -2.2471  0.4907 -0.0002
 8057SOL     OW35629   4.050   1.815   1.668  0.4656 -0.6196  0.5513
 8057SOL    HW135630   4.036   1.734   1.618 -0.8293 -0.6400  0.9609
 8057SOL    HW235631   4.013   1.883   1.612  0.1036  0.0928  1.6550
 8058SOL     OW35632   2.792   2.996  12.626  0.2778  0.1552 -0.6137
 8058SOL    HW135633   2.729   3.023  12.692  1.7907  1.9929  0.0678
 8058SOL    HW235634   2.776   2.903  12.613  0.9947 -0.0205 -0.2243
 8059SOL     OW35635   3.918   1.968   2.216 -0.4768  0.0660 -0.6309
 8059SOL    HW135636   3.994   1.978   2.274 -1.6100 -1.2138  1.0520
 8059SOL    HW235637   3.948   1.892   2.167  1.5582 -0.5366  1.5633
 8060SOL     OW35638   3.540   2.857  17.022 -0.0751  0.4436 -0.4190
 8060SOL    HW135639   3.603   2.870  17.092  0.1365 -2.7377 -0.0141
 8060SOL    HW235640   3.521   2.949  17.003  0.4650  0.9618  1.5459
 8061SOL     OW35641   0.484   3.201   3.134  0.4663 -0.1054  0.7866
 8061SOL    HW135642   0.549   3.247   3.082  0.8504 -0.5173  0.9007
 8061SOL    HW235643   0.440   3.151   3.065 -0.3899 -0.9434  1.9287
 8062SOL     OW35644   0.396   2.891  11.799 -0.5613 -0.5204  0.0775
 8062SOL    HW135645   0.437   2.838  11.730 -1.6391 -0.0734 -0.8981
 8062SOL    HW235646   0.465   2.891  11.865 -0.2159 -0.0037 -0.2832
 8063SOL     OW35647   0.900   4.701   5.308  0.1622  0.4111  0.0972
 8063SOL    HW135648   0.850   4.663   5.236  1.0626 -2.1404  0.8233
 8063SOL    HW235649   0.841   0.033   5.358  1.9186  2.1868  0.1417
 8064SOL     OW35650   0.959   2.445   0.785  0.4675  0.0003 -0.2349
 8064SOL    HW135651   0.928   2.378   0.846  1.8991 -0.4826 -0.0466
 8064SOL    HW235652   0.961   2.404   0.698  0.7631 -1.1203  0.2944
 8065SOL     OW35653   4.663   3.678   2.750 -0.5241  0.0504 -0.4985
 8065SOL    HW135654   4.638   3.640   2.834  1.5819 -1.7147 -0.6693
 8065SOL    HW235655   4.698   3.603   2.703 -0.5264  0.1417 -0.6466
 8066SOL     OW35656   1.317   4.376   2.893 -0.6311 -0.1121 -0.5609
 8066SOL    HW135657   1.283   4.400   2.980  1.4487  0.7826 -0.0051
 8066SOL    HW235658   1.244   4.400   2.836  0.8053  1.3858 -1.7465
 8067SOL     OW35659   4.249   1.492  11.261  0.2052 -0.4849 -0.7188
 8067SOL    HW135660   4.185   1.423  11.278  0.2572 -0.2101  0.6036
 8067SOL    HW235661   4.193   1.549  11.208  1.4268  3.1816  1.9364
 8068SOL     OW35662   3.328   2.331   7.636  0.4455  0.8581 -0.0565
 8068SOL    HW135663   3.297   2.342   7.726  2.0227  0.4058  0.5329
 8068SOL    HW235664   3.321   2.235   7.633 -0.0038  0.9098 -0.7206
 8069SOL     OW35665   0.125   4.426   3.583  0.5071 -0.4155 -0.0856
 8069SOL    HW135666   0.036   4.439   3.616  1.2646  1.3159  1.2784
 8069SOL    HW235667   0.168   4.499   3.628  0.2186 -0.9539  1.0573
 8070SOL     OW35668   1.451   3.702   9.550  0.0807 -0.6797  0.8947
 8070SOL    HW135669   1.430   3.682   9.641 -2.1080 -0.9267  0.3384
 8070SOL    HW235670   1.381   3.652   9.507  0.7807 -0.5747 -0.3724
 8071SOL     OW35671   3.247   0.725  11.719  0.0145  0.0711  0.1581
 8071SOL    HW135672   3.175   0.691  11.772 -2.9451  1.3637 -3.0408
 8071SOL    HW235673   3.316   0.712  11.784 -0.7218  1.5890  1.2314
 8072SOL     OW35674   2.453   2.149  11.728 -0.4089  0.6488  0.0631
 8072SOL    HW135675   2.471   2.188  11.642  2.8159  1.4803  1.0997
 8072SOL    HW235676   2.452   2.229  11.781 -1.2026  0.0433  0.9434
 8073SOL     OW35677   1.068   2.917   9.597 -0.3240  0.0714 -0.0001
 8073SOL    HW135678   1.067   2.843   9.536 -3.2700  0.5604 -0.5637
 8073SOL    HW235679   1.002   2.899   9.664 -0.2724  0.6963  0.2209
 8074SOL     OW35680   1.295   0.156   7.624  0.2675 -0.4082 -0.0630
 8074SOL    HW135681   1.381   0.166   7.583  1.1677 -2.5304  1.3387
 8074SOL    HW235682   1.265   0.079   7.577 -2.0303  1.3004 -1.4276
 8075SOL     OW35683   3.446   1.230   3.540 -0.2915 -0.2732 -0.9862
 8075SOL    HW135684   3.413   1.313   3.505  1.3284  1.1260  0.8193
 8075SOL    HW235685   3.530   1.255   3.579  0.1127 -0.3208 -1.8303
 8076SOL     OW35686   0.208   4.690   3.488 -0.0625 -0.3524  0.3395
 8076SOL    HW135687   0.302   4.688   3.468  0.1144 -1.4703  1.3172
 8076SOL    HW235688   0.214   4.683   3.583 -1.9084  2.3478  0.6693
 8077SOL     OW35689   0.304   2.285  16.961 -0.1269  0.5851 -0.2472
 8077SOL    HW135690   0.360   2.309  16.887  1.4791 -0.5357  0.6001
 8077SOL    HW235691   0.353   2.238  17.029 -2.3309 -0.7047  0.4381
 8078SOL     OW35692   0.717   4.608   5.837  0.3400 -0.4447 -0.1653
 8078SOL    HW135693   0.630   4.644   5.821  0.1228 -0.3498  1.2322
 8078SOL    HW235694   0.778   4.667   5.794 -0.0506 -0.9428 -1.3883
 8079SOL     OW35695   1.364   2.697  17.572  0.1968  0.9700 -0.0559
 8079SOL    HW135696   1.455   2.723  17.589  0.3993 -0.4262  1.0153
 8079SOL    HW235697   1.377   2.627  17.508  0.9355  0.4675  0.6338
 8080SOL     OW35698   0.344   2.789   7.932  0.0415  0.4314 -0.3089
 8080SOL    HW135699   0.364   2.734   8.007 -1.5909 -1.4168 -1.2299
 8080SOL    HW235700   0.411   2.761   7.869  0.7750  1.4050  0.0526
 8081SOL     OW35701   4.107   4.321   5.370  0.1910 -0.2147 -0.1210
 8081SOL    HW135702   4.039   4.329   5.303 -0.5297  0.4106  0.6940
 8081SOL    HW235703   4.057   4.326   5.451 -1.3135  1.9290 -1.1821
 8082SOL     OW35704   3.112   4.574   3.103  0.0466 -0.1532 -0.0665
 8082SOL    HW135705   3.181   4.637   3.123 -1.9597  2.0822 -0.1335
 8082SOL    HW235706   3.159   4.490   3.107  2.7002  1.4053  1.2221
 8083SOL     OW35707   1.051   0.997   6.227 -0.1979 -0.1336  0.1010
 8083SOL    HW135708   1.076   0.975   6.317  0.4198 -1.0257 -0.2866
 8083SOL    HW235709   1.016   0.914   6.195  0.6665 -0.9881  1.3390
 8084SOL     OW35710   2.733   4.350   2.145  0.4548  0.5220 -0.2628
 8084SOL    HW135711   2.752   4.414   2.077  0.4395 -0.6239 -1.3423
 8084SOL    HW235712   2.676   4.290   2.096 -0.1431  0.5383  0.4108
 8085SOL     OW35713   3.366   3.336   3.833  0.3146  0.4200 -0.2388
 8085SOL    HW135714   3.447   3.383   3.814  1.3162 -1.5676 -0.9194
 8085SOL    HW235715   3.393   3.246   3.819 -2.2263 -0.4312  0.3120
 8086SOL     OW35716   1.307   3.164   6.942  0.6260  0.2258 -0.6588
 8086SOL    HW135717   1.249   3.210   7.003  0.0626 -0.9209 -0.3336
 8086SOL    HW235718   1.367   3.138   7.011 -1.3627  0.8069  1.2972
 8087SOL     OW35719   1.003   3.446   7.650  0.0932  0.4966  0.5468
 8087SOL    HW135720   1.079   3.403   7.610  1.8539  1.9401  2.3469
 8087SOL    HW235721   0.931   3.417   7.594  0.5332 -0.1334  0.3087
 8088SOL     OW35722   2.628   0.804   8.637  0.4528  0.5040  0.5491
 8088SOL    HW135723   2.624   0.709   8.651  3.5631  0.5336  1.7806
 8088SOL    HW235724   2.715   0.830   8.670  1.4165 -1.7260 -0.2268
 8089SOL     OW35725   3.103   0.382   1.879 -0.1657  0.2153  0.6231
 8089SOL    HW135726   3.084   0.439   1.805  1.6668 -1.4530 -1.1547
 8089SOL    HW235727   3.192   0.411   1.899 -0.4651  0.3102  1.8239
 8090SOL     OW35728   2.211   3.020   7.464 -0.4181  0.0666 -0.7479
 8090SOL    HW135729   2.230   3.074   7.387  0.6930  0.3363 -0.2772
 8090SOL    HW235730   2.120   2.999   7.442 -0.8209  2.8267 -1.7334
 8091SOL     OW35731   2.943   4.228   0.521 -0.0737 -0.2447  0.2072
 8091SOL    HW135732   2.858   4.271   0.530 -0.4439 -1.0451  0.5479
 8091SOL    HW235733   2.925   4.167   0.449  0.8292 -2.4372  1.8253
 8092SOL     OW35734   0.910   0.175   4.047 -0.1169  0.6079  0.2279
 8092SOL    HW135735   0.856   0.117   4.101  0.5973 -2.6108 -2.4930
 8092SOL    HW235736   1.001   0.154   4.066 -0.3900 -1.4325 -0.7185
 8093SOL     OW35737   0.120   0.071   6.850 -0.5794  0.0685  0.1667
 8093SOL    HW135738   0.133   0.166   6.854  1.9392 -0.4121  3.5301
 8093SOL    HW235739   0.026   0.065   6.864 -0.5441 -1.8603 -0.4454
 8094SOL     OW35740   3.679   2.161  16.701  0.5376  0.4229 -0.1354
 8094SOL    HW135741   3.719   2.089  16.653  2.4742  0.5772  1.2509
 8094SOL    HW235742   3.755   2.219  16.708  1.1127 -0.3513  0.0587
 8095SOL     OW35743   2.085   2.876   5.831 -0.1043 -0.2380 -0.0533
 8095SOL    HW135744   2.028   2.879   5.755 -0.4952 -0.6683  0.2242
 8095SOL    HW235745   2.022   2.900   5.898  0.6307  0.8295  0.2636
 8096SOL     OW35746   3.663   1.125   8.868  0.0348  0.1791  0.0821
 8096SOL    HW135747   3.622   1.039   8.864  0.2332  0.1525 -1.2872
 8096SOL    HW235748   3.609   1.163   8.938  1.3790  1.6161  0.3463
 8097SOL     OW35749   4.460   4.466   9.997  0.0415  0.3981  0.2573
 8097SOL    HW135750   4.505   4.534   9.947 -0.6135 -0.6368 -1.7177
 8097SOL    HW235751   4.532   4.406  10.018 -1.5118 -1.1266  1.2615
 8098SOL     OW35752   1.313   2.570   5.438  0.7367  0.0326  0.1948
 8098SOL    HW135753   1.291   2.659   5.466 -0.1653  0.2100 -1.0895
 8098SOL    HW235754   1.376   2.553   5.509  0.0872  0.0777  0.7775
 8099SOL     OW35755   4.222   1.457   3.824  0.0538  0.5281  0.5350
 8099SOL    HW135756   4.267   1.381   3.785  0.5474  0.1962  1.7578
 8099SOL    HW235757   4.290   1.485   3.885  1.0476  0.6352 -0.6139
 8100SOL     OW35758   2.083   4.277   8.928  0.5173  0.0100  0.7795
 8100SOL    HW135759   2.003   4.227   8.909  1.2010 -0.2937 -1.3798
 8100SOL    HW235760   2.056   4.357   8.972  2.8793  1.2545 -0.0180
 8101SOL     OW35761   4.707   3.873   4.659 -0.5166  0.5927 -0.4301
 8101SOL    HW135762   0.056   3.918   4.700 -0.6569  0.1162  0.3540
 8101SOL    HW235763   4.655   3.843   4.734 -0.2661  2.4742  0.4902
 8102SOL     OW35764   4.675   2.067  10.298 -0.2898  0.2380 -0.4588
 8102SOL    HW135765   4.669   2.059  10.203 -3.2105  0.1314 -0.2419
 8102SOL    HW235766   4.608   2.003  10.322 -1.3463  1.3549 -0.4520
 8103SOL     OW35767   3.932   1.409   7.921  0.5352  0.1650  0.1283
 8103SOL    HW135768   3.990   1.485   7.928  0.2551  0.5756 -1.8659
 8103SOL    HW235769   3.863   1.445   7.866  0.9967 -1.6359 -1.6005
 8104SOL     OW35770   2.219   1.106   7.817 -0.0373  0.7526  0.3748
 8104SOL    HW135771   2.190   1.027   7.771  2.5376  1.6969 -2.8396
 8104SOL    HW235772   2.202   1.169   7.747  0.7480  0.0654 -0.4400
 8105SOL     OW35773   2.025   1.938  11.478  0.1310  0.8154  0.2291
 8105SOL    HW135774   2.098   1.943  11.417  0.7646  1.6015  1.0565
 8105SOL    HW235775   2.015   1.844  11.493  0.5498  0.4342 -1.8838
 8106SOL     OW35776   3.824   4.606  11.940 -0.3663  0.3709  0.2043
 8106SOL    HW135777   3.776   4.534  11.898 -0.6827  1.2103 -0.8858
 8106SOL    HW235778   3.912   4.574  11.917 -0.7064  1.7456 -3.0903
 8107SOL     OW35779   0.607   2.428   2.593 -0.2308 -0.5261  0.1945
 8107SOL    HW135780   0.535   2.462   2.646 -0.6179 -0.0892 -0.6094
 8107SOL    HW235781   0.653   2.509   2.569 -2.3151  0.6703  0.1925
 8108SOL     OW35782   1.008   3.489   3.621 -0.3880 -0.6797  0.4306
 8108SOL    HW135783   0.917   3.463   3.634 -1.2995  1.2704 -2.2234
 8108SOL    HW235784   1.052   3.431   3.683  0.7235  0.9104  1.1351
 8109SOL     OW35785   1.455   2.335   2.932  0.7124  0.5903  0.1030
 8109SOL    HW135786   1.506   2.394   2.877  0.3774  0.4065 -0.4126
 8109SOL    HW235787   1.460   2.385   3.013  0.9574 -0.0358  0.4757
 8110SOL     OW35788   0.225   1.839  14.311  0.9302  0.4106  0.7914
 8110SOL    HW135789   0.246   1.789  14.232  1.2711  0.2217  0.9987
 8110SOL    HW235790   0.211   1.929  14.283  0.6454 -0.0130 -0.4283
 8111SOL     OW35791   1.067   3.718   1.668  0.0654 -0.0234  0.2179
 8111SOL    HW135792   1.080   3.778   1.595 -1.5067  4.2126  3.4238
 8111SOL    HW235793   1.023   3.647   1.621 -0.5336  0.3786  0.1628
 8112SOL     OW35794   0.579   3.093   6.657 -0.2016 -0.3874  0.2181
 8112SOL    HW135795   0.637   3.068   6.728  2.4493  1.2062 -1.4120
 8112SOL    HW235796   0.494   3.067   6.694 -0.2351 -0.2462  0.2400
 8113SOL     OW35797   3.575   1.380   5.939  0.4671  0.3271  0.0206
 8113SOL    HW135798   3.541   1.333   6.015 -2.7677 -0.9895 -2.2650
 8113SOL    HW235799   3.511   1.354   5.873  0.8242  1.2896 -0.7163
 8114SOL     OW35800   1.997   0.884   4.311  0.3170  0.0991  0.0440
 8114SOL    HW135801   2.003   0.956   4.248 -1.4391 -1.6643 -2.1979
 8114SOL    HW235802   1.908   0.901   4.344  0.6470 -0.1512  1.0324
 8115SOL     OW35803   0.435   1.717   2.734 -0.1815 -0.0581 -0.1272
 8115SOL    HW135804   0.446   1.785   2.668  0.7938  0.2985  0.4106
 8115SOL    HW235805   0.360   1.670   2.696 -0.3378 -1.1282  1.4871
 8116SOL     OW35806   1.440   3.106   3.848 -0.3353  0.3213 -0.3388
 8116SOL    HW135807   1.471   3.040   3.910 -2.8724 -0.9526 -0.4072
 8116SOL    HW235808   1.408   3.175   3.906 -1.5706 -0.5179 -0.0159
 8117SOL     OW35809   1.537   2.476   2.728  0.0564 -0.3628  0.4223
 8117SOL    HW135810   1.482   2.474   2.650 -1.3854 -1.5771  1.4686
 8117SOL    HW235811   1.552   2.569   2.746  2.0415 -0.8997  1.5815
 8118SOL     OW35812   1.408   1.961  13.522  0.2147 -0.5908 -0.7317
 8118SOL    HW135813   1.366   1.957  13.436  2.6702  1.6274 -2.0291
 8118SOL    HW235814   1.444   1.873  13.528  1.6649  0.0569  0.1913
 8119SOL     OW35815   3.995   3.476   3.608  0.7134  0.0340  0.6871
 8119SOL    HW135816   3.963   3.420   3.537  0.2103 -1.0435  1.7678
 8119SOL    HW235817   4.044   3.426   3.674 -0.5767 -0.9526  0.9163
 8120SOL     OW35818   0.612   4.554   3.229  0.1705 -0.0933 -0.0690
 8120SOL    HW135819   0.659   4.637   3.234  0.5076 -0.2295 -0.9502
 8120SOL    HW235820   0.670   4.517   3.162  0.0122 -1.8975  0.7808
 8121SOL     OW35821   3.592   0.891   4.238 -0.2976 -0.4480 -0.3570
 8121SOL    HW135822   3.606   0.967   4.181 -1.3922 -2.8399 -3.8466
 8121SOL    HW235823   3.673   0.881   4.288 -0.4155 -0.9749 -0.2700
 8122SOL     OW35824   0.035   2.810   3.068  0.6426 -0.0685  0.4721
 8122SOL    HW135825   0.124   2.836   3.092 -0.1361  2.0397  1.1188
 8122SOL    HW235826   0.032   2.718   3.094 -3.7174 -0.5661 -1.8544
 8123SOL     OW35827   1.063   1.452   0.320 -0.4626 -0.2878  0.6896
 8123SOL    HW135828   0.990   1.435   0.260 -0.9874  2.7127  0.4690
 8123SOL    HW235829   1.136   1.414   0.270 -0.1728  0.4997  0.5243
 8124SOL     OW35830   4.641   3.693   9.251 -0.3999  0.5078  0.3929
 8124SOL    HW135831   4.681   3.622   9.302 -1.2505  0.6829  1.3067
 8124SOL    HW235832   4.572   3.647   9.204  1.5470 -0.0474 -1.9175
 8125SOL     OW35833   3.828   1.246   7.250  0.2945 -0.2587  0.5254
 8125SOL    HW135834   3.749   1.202   7.282  0.8547 -1.6015  0.0442
 8125SOL    HW235835   3.854   1.188   7.179 -1.1853 -0.2067 -0.0610
 8126SOL     OW35836   2.203   3.154  14.857 -0.0852  0.2925 -0.2750
 8126SOL    HW135837   2.250   3.116  14.783  0.5883  0.8182 -0.1215
 8126SOL    HW235838   2.182   3.244  14.831 -0.6699  0.4220  0.6561
 8127SOL     OW35839   0.681   0.464   1.426  0.5553 -0.2204  0.1422
 8127SOL    HW135840   0.776   0.463   1.434  0.8605  2.7028 -3.0975
 8127SOL    HW235841   0.668   0.550   1.385  1.0058  0.4100  1.3416
 8128SOL     OW35842   1.976   1.168   0.541 -0.4426 -0.5320 -0.0756
 8128SOL    HW135843   2.007   1.091   0.590  0.0960 -1.2623 -1.5596
 8128SOL    HW235844   2.052   1.184   0.485 -0.0706 -1.1077  0.2638
 8129SOL     OW35845   4.284   3.955  10.519 -0.4023 -0.6447  0.0208
 8129SOL    HW135846   4.298   3.919  10.607 -0.3466  0.3428  0.4225
 8129SOL    HW235847   4.366   4.005  10.516 -0.2976 -0.7505  0.9018
 8130SOL     OW35848   1.988   0.318   6.765  0.1973  0.0555  0.1688
 8130SOL    HW135849   2.043   0.277   6.832 -2.4519 -1.8116  1.2200
 8130SOL    HW235850   2.022   0.269   6.690  0.9603  0.2967  0.3624
 8131SOL     OW35851   3.700   1.287   3.699 -0.3908  0.0410 -0.0042
 8131SOL    HW135852   3.668   1.367   3.741 -1.4242 -0.5504  0.3383
 8131SOL    HW235853   3.788   1.271   3.732 -0.1282 -0.1511 -0.8003
 8132SOL     OW35854   0.536   3.795  16.205 -0.1051 -0.1810 -0.0661
 8132SOL    HW135855   0.482   3.858  16.253  0.3121  1.3088 -1.5662
 8132SOL    HW235856   0.566   3.839  16.125  0.3746  1.1026  0.8252
 8133SOL     OW35857   2.160   4.581   2.087  0.2622 -0.3222 -0.0412
 8133SOL    HW135858   2.130   4.598   1.998  1.9346  0.5182 -0.4342
 8133SOL    HW235859   2.132   4.490   2.102 -1.7887  0.0891 -1.2770
 8134SOL     OW35860   0.325   2.864   9.198 -0.1032  0.3045 -0.4996
 8134SOL    HW135861   0.279   2.948   9.200  0.5645  0.5753  3.4883
 8134SOL    HW235862   0.321   2.854   9.103  2.4861  3.2212 -0.9357
 8135SOL     OW35863   1.242   0.946  12.033  0.1453 -0.3268 -0.7309
 8135SOL    HW135864   1.260   0.857  12.004 -1.0573 -1.1879  1.1559
 8135SOL    HW235865   1.331   0.973  12.057 -0.4204  1.7528 -0.9825
 8136SOL     OW35866   0.818   1.061   7.497  0.5640 -0.0252  0.0674
 8136SOL    HW135867   0.893   1.068   7.438  0.5349  0.5596  0.0946
 8136SOL    HW235868   0.816   1.151   7.531  2.7994 -1.1748  3.2021
 8137SOL     OW35869   4.467   3.129   5.450  0.1500 -0.3125 -0.4811
 8137SOL    HW135870   4.475   3.157   5.359  0.7796 -0.2890 -0.4172
 8137SOL    HW235871   4.379   3.092   5.459 -0.9999  2.3415 -0.8199
 8138SOL     OW35872   2.577   4.403   9.851 -0.2093 -0.3517 -0.4887
 8138SOL    HW135873   2.646   4.466   9.832  0.0158 -0.8227 -1.2371
 8138SOL    HW235874   2.630   4.323   9.851  1.4767  0.7732 -0.3693
 8139SOL     OW35875   3.583   3.644   2.546  0.0581  0.0561 -0.0353
 8139SOL    HW135876   3.567   3.634   2.452  2.3531 -1.7537 -0.2438
 8139SOL    HW235877   3.501   3.635   2.593 -0.1150 -0.3499 -0.4086
 8140SOL     OW35878   4.033   4.678  13.837 -0.2246  0.1102 -0.3084
 8140SOL    HW135879   3.984   4.598  13.857  0.3159  0.3473  1.9382
 8140SOL    HW235880   4.088   4.679  13.915  0.9246  1.2248 -1.1432
 8141SOL     OW35881   0.469   1.763  13.265 -0.0013 -0.3194 -0.7038
 8141SOL    HW135882   0.496   1.736  13.353  1.6309 -1.8195 -1.6676
 8141SOL    HW235883   0.382   1.725  13.254 -1.8957  3.5879  0.5981
 8142SOL     OW35884   3.662   2.916   7.255 -0.5211  0.1193  0.2226
 8142SOL    HW135885   3.757   2.919   7.253 -0.4691 -1.4479  0.5127
 8142SOL    HW235886   3.643   2.843   7.315  1.6713 -0.5696  0.0596
 8143SOL     OW35887   1.262   0.287   7.864  0.0054 -0.0942  0.8680
 8143SOL    HW135888   1.266   0.244   7.779 -1.3594 -0.5133  1.0098
 8143SOL    HW235889   1.206   0.363   7.851  0.9962  0.5981  0.5957
 8144SOL     OW35890   0.406   3.198   4.930 -0.2778 -0.1289  0.1849
 8144SOL    HW135891   0.332   3.158   4.976 -0.9999  0.0203 -0.8410
 8144SOL    HW235892   0.400   3.288   4.962 -3.5131 -0.9006  1.7523
 8145SOL     OW35893   3.489   1.436   6.662 -0.7004  0.1235 -0.3323
 8145SOL    HW135894   3.456   1.362   6.711 -1.0285  1.1704  1.0100
 8145SOL    HW235895   3.542   1.386   6.599  0.0843 -0.6601  0.9672
 8146SOL     OW35896   1.584   1.739  13.637 -0.2667  0.1714 -0.0449
 8146SOL    HW135897   1.627   1.695  13.563 -1.4446  0.7123 -1.0493
 8146SOL    HW235898   1.540   1.663  13.676 -0.4158  0.5414  0.4989
 8147SOL     OW35899   3.468   2.846   4.703 -0.3770 -0.2989 -0.1730
 8147SOL    HW135900   3.488   2.924   4.652  1.7733 -0.3222  0.6672
 8147SOL    HW235901   3.464   2.792   4.624 -1.0107  0.3641 -0.5937
 8148SOL     OW35902   1.875   2.597   8.700  0.7831  0.4183 -0.2379
 8148SOL    HW135903   1.859   2.680   8.744  0.2040  0.0835  0.1798
 8148SOL    HW235904   1.822   2.608   8.621 -0.8252  1.4647  0.9785
 8149SOL     OW35905   4.580   0.548  15.787  0.4384  0.4232  0.4425
 8149SOL    HW135906   4.579   0.630  15.739 -0.8839 -0.3380 -0.8503
 8149SOL    HW235907   4.492   0.515  15.768  1.1128 -0.6268 -0.9121
 8150SOL     OW35908   3.448   0.658   7.587 -0.0901 -0.2514  0.1667
 8150SOL    HW135909   3.478   0.579   7.632 -2.1350 -0.6098  0.9413
 8150SOL    HW235910   3.353   0.646   7.584  0.1637 -1.7158 -2.6601
 8151SOL     OW35911   0.190   4.483  10.071  0.6429 -0.3021 -0.3003
 8151SOL    HW135912   0.154   4.568  10.045  0.1958 -0.7760 -1.2389
 8151SOL    HW235913   0.108   4.436  10.083  0.4134 -0.2023 -1.4485
 8152SOL     OW35914   3.671   4.674   7.292 -0.1633  0.0871 -0.3258
 8152SOL    HW135915   3.666   0.014   7.222 -0.9281  1.1860  0.7661
 8152SOL    HW235916   3.675   0.006   7.369 -1.0892 -1.6362  0.9943
 8153SOL     OW35917   0.582   3.790   1.616 -0.1572 -0.0381 -0.1970
 8153SOL    HW135918   0.578   3.874   1.570  0.6725 -0.1903 -0.5461
 8153SOL    HW235919   0.521   3.810   1.687 -0.0589 -2.7903  0.6516
 8154SOL     OW35920   4.316   1.618   7.762  0.5221 -0.2664  0.0006
 8154SOL    HW135921   4.393   1.674   7.777  1.1518 -1.1010 -0.0890
 8154SOL    HW235922   4.259   1.619   7.839 -0.6946  1.7162 -0.9194
 8155SOL     OW35923   2.740   3.225   5.011 -0.4253 -0.4290  0.9661
 8155SOL    HW135924   2.710   3.263   5.093 -2.3318  0.1639 -0.0002
 8155SOL    HW235925   2.713   3.134   5.026 -1.2443 -0.0780  1.5690
 8156SOL     OW35926   0.214   0.430  14.569 -0.1095  0.0245 -0.2336
 8156SOL    HW135927   0.130   0.390  14.593 -0.0195  0.0435  0.1180
 8156SOL    HW235928   0.193   0.503  14.511  1.0154  1.4224  1.1191
 8157SOL     OW35929   3.752   4.207   5.746 -0.1403  0.1007  0.3490
 8157SOL    HW135930   3.739   4.295   5.782  2.8929 -0.4718  2.8052
 8157SOL    HW235931   3.666   4.184   5.710  0.0663 -0.7236  0.3952
 8158SOL     OW35932   4.333   3.230   6.632  0.2243  0.1428  0.1628
 8158SOL    HW135933   4.341   3.302   6.570  1.4260 -1.0116 -1.0107
 8158SOL    HW235934   4.394   3.169   6.591  0.8543  1.0081 -0.1733
 8159SOL     OW35935   0.329   2.756   2.370  0.3278 -0.1197  0.1858
 8159SOL    HW135936   0.332   2.751   2.274 -1.1203 -1.5146  0.2151
 8159SOL    HW235937   0.248   2.803   2.391 -0.3819 -1.4418  0.4182
 8160SOL     OW35938   3.458   4.306   0.524 -0.1013  0.2622 -0.3983
 8160SOL    HW135939   3.506   4.312   0.607 -0.3573  1.0246 -0.3061
 8160SOL    HW235940   3.368   4.305   0.558 -0.0766  0.1408 -0.3359
 8161SOL     OW35941   2.548   2.417   6.428 -0.4800  0.0410  0.4427
 8161SOL    HW135942   2.452   2.426   6.431 -0.5566 -0.8429  0.6842
 8161SOL    HW235943   2.581   2.436   6.515 -0.5296  3.0658 -0.1875
 8162SOL     OW35944   0.923   2.284   9.387  0.2510  0.9281 -0.3093
 8162SOL    HW135945   0.882   2.238   9.313  0.1962  2.3357 -1.1663
 8162SOL    HW235946   0.867   2.248   9.456 -0.0095  1.3092 -0.3187
 8163SOL     OW35947   3.625   1.010   3.482 -0.0506  0.0275  0.0139
 8163SOL    HW135948   3.647   1.097   3.447 -0.3108 -0.2463 -0.8224
 8163SOL    HW235949   3.532   1.007   3.459  0.4058 -1.1108 -1.6369
 8164SOL     OW35950   0.085   1.185   6.494  0.1670  0.1286 -0.4430
 8164SOL    HW135951   0.132   1.140   6.424  0.4284  0.5936 -0.5642
 8164SOL    HW235952   0.059   1.262   6.444 -1.0140  1.8627  2.8502
 8165SOL     OW35953   4.642   0.341   4.793 -0.3748  0.8690 -0.7613
 8165SOL    HW135954   4.598   0.345   4.709 -1.5106 -0.7201 -0.2260
 8165SOL    HW235955   0.001   0.306   4.763 -0.8710 -1.3340  0.4758
 8166SOL     OW35956   2.254   1.647   7.988  0.4685 -0.3153  0.4140
 8166SOL    HW135957   2.204   1.571   7.959  1.0173 -0.5472  0.0805
 8166SOL    HW235958   2.199   1.676   8.062 -1.1922 -1.0021 -0.5549
 8167SOL     OW35959   0.742   4.487  12.990  0.6793 -0.1939  0.3214
 8167SOL    HW135960   0.760   4.394  12.980 -0.0727 -0.5789  2.4179
 8167SOL    HW235961   0.691   4.498  12.910  1.5918  2.5215  0.0930
 8168SOL     OW35962   4.323   1.482   2.109  0.0722  0.6772  0.2661
 8168SOL    HW135963   4.311   1.564   2.157 -0.4534  0.2937  0.8005
 8168SOL    HW235964   4.364   1.436   2.183  0.1240  0.7400  0.2758
 8169SOL     OW35965   1.193   1.733   7.480 -0.2303 -0.0294  0.2741
 8169SOL    HW135966   1.245   1.717   7.401 -1.0429  0.0588 -0.2777
 8169SOL    HW235967   1.161   1.822   7.466 -0.4862  0.2900  2.8333
 8170SOL     OW35968   3.171   4.394   5.777 -0.2386 -0.1056  0.4475
 8170SOL    HW135969   3.092   4.374   5.828  0.9401 -0.7360  1.9984
 8170SOL    HW235970   3.185   4.482   5.813 -0.4401  0.2731 -0.3963
 8171SOL     OW35971   1.559   3.492   8.448  0.4494  0.1901 -0.0189
 8171SOL    HW135972   1.537   3.556   8.380  0.4473 -0.5818 -0.7533
 8171SOL    HW235973   1.590   3.552   8.516  1.7941  0.1046 -0.5556
 8172SOL     OW35974   4.660   3.846   4.025 -0.0848  0.1772 -0.0346
 8172SOL    HW135975   4.719   3.887   3.962  0.7231  1.8167  1.8073
 8172SOL    HW235976   4.716   3.821   4.098  1.8002 -0.0620 -1.5555
 8173SOL     OW35977   0.065   3.313   9.593 -0.0009  0.0937 -0.0616
 8173SOL    HW135978   0.148   3.274   9.619  2.3117  3.6286 -2.1807
 8173SOL    HW235979   0.057   3.372   9.668 -0.0563  1.0750 -0.8271
 8174SOL     OW35980   0.890   2.432   2.892 -0.5890 -0.1192 -0.3038
 8174SOL    HW135981   0.951   2.400   2.825 -1.1302  0.6214 -1.1493
 8174SOL    HW235982   0.935   2.400   2.970  0.0490  0.8036 -0.2846
 8175SOL     OW35983   0.609   3.706   4.185  0.0121  0.8318 -0.1863
 8175SOL    HW135984   0.536   3.645   4.186 -1.4664  2.5678 -1.3011
 8175SOL    HW235985   0.573   3.776   4.130 -0.5363  1.6236  1.1788
 8176SOL     OW35986   0.584   1.430   4.750 -0.0479 -0.0583 -0.2952
 8176SOL    HW135987   0.653   1.371   4.720  0.2200  0.5249 -0.8367
 8176SOL    HW235988   0.539   1.440   4.666 -1.2221 -1.7379  0.1352
 8177SOL     OW35989   0.766   1.610   5.201 -0.0153 -0.0786  0.0987
 8177SOL    HW135990   0.849   1.564   5.190 -0.6849 -1.0721 -0.9428
 8177SOL    HW235991   0.764   1.627   5.295 -0.7839  2.1562 -0.3179
 8178SOL     OW35992   2.452   1.042   5.714  0.1166 -0.0737 -0.0086
 8178SOL    HW135993   2.544   1.044   5.738 -0.2857 -2.1421  1.7168
 8178SOL    HW235994   2.427   0.953   5.741  0.7730 -0.1512  0.3283
 8179SOL     OW35995   3.677   0.115   6.560 -0.4714 -0.7906 -0.2501
 8179SOL    HW135996   3.745   0.060   6.599 -0.6618  0.3257  1.6828
 8179SOL    HW235997   3.602   0.056   6.569 -1.4445  0.6835  1.4163
 8180SOL     OW35998   0.650   1.731   4.434 -0.1156 -0.1938 -0.1782
 8180SOL    HW135999   0.557   1.751   4.426 -0.1998 -0.6051 -0.2459
 8180SOL    HW236000   0.674   1.781   4.512 -1.5623 -0.0072  0.1559
 8181SOL     OW36001   4.036   0.183  13.633  0.4501  0.5430 -0.6856
 8181SOL    HW136002   4.115   0.190  13.686  0.2530  1.8731 -0.5664
 8181SOL    HW236003   4.023   0.089  13.645  1.2995  0.4063 -0.8158
 8182SOL     OW36004   4.013   2.447   8.008  0.1320 -0.1542  0.2646
 8182SOL    HW136005   3.927   2.407   7.999 -0.0313  0.4680 -0.8898
 8182SOL    HW236006   3.991   2.528   8.054  1.0142 -0.2438  0.8473
 8183SOL     OW36007   1.663   0.892  14.997  0.1359 -0.3983 -0.3909
 8183SOL    HW136008   1.688   0.802  15.017  1.7793 -0.1323 -1.2284
 8183SOL    HW236009   1.618   0.917  15.077 -1.0056 -1.5187 -0.6923
 8184SOL     OW36010   1.789   1.199   4.529  0.0849 -0.5616 -0.4200
 8184SOL    HW136011   1.774   1.193   4.624  2.1971  0.8575  0.0182
 8184SOL    HW236012   1.762   1.289   4.516  0.9429 -0.4023 -1.1148
 8185SOL     OW36013   0.707   2.068   3.629 -0.0279 -0.0299 -0.1422
 8185SOL    HW136014   0.712   2.011   3.553 -1.1843 -0.3682  0.0428
 8185SOL    HW236015   0.800   2.065   3.652 -0.6944  1.5521  2.7739
 8186SOL     OW36016   3.188   4.645  16.369 -0.3364 -0.3003  0.1537
 8186SOL    HW136017   3.172   0.014  16.377  1.3532  0.0138 -0.1332
 8186SOL    HW236018   3.265   4.636  16.425 -1.1625 -1.7150  1.0662
 8187SOL     OW36019   3.190   4.507   3.501 -0.2789  0.2811  0.1336
 8187SOL    HW136020   3.237   4.590   3.501  0.8419 -0.3444  2.7521
 8187SOL    HW236021   3.121   4.518   3.567  1.1710  0.0435  1.6951
 8188SOL     OW36022   3.233   2.560  14.586  0.3187  0.2957 -0.1603
 8188SOL    HW136023   3.280   2.640  14.607  0.2354 -0.4235  2.7395
 8188SOL    HW236024   3.164   2.556  14.652  0.2530 -0.9222 -0.3041
 8189SOL     OW36025   3.937   0.044  12.320  0.4181 -0.7300 -0.0359
 8189SOL    HW136026   3.893   0.052  12.235 -3.8311  0.1127  2.2463
 8189SOL    HW236027   3.889   0.109  12.371 -0.2243 -0.6990 -0.6712
 8190SOL     OW36028   2.354   3.520   9.275  0.6460 -0.3674 -0.6550
 8190SOL    HW136029   2.411   3.487   9.345 -2.7942  0.0162  2.3192
 8190SOL    HW236030   2.333   3.610   9.298 -1.2893 -0.9061 -0.3104
 8191SOL     OW36031   3.943   0.618   7.586 -0.0027 -0.4505  0.2782
 8191SOL    HW136032   4.031   0.657   7.590 -0.6439  1.1105 -0.9982
 8191SOL    HW236033   3.945   0.528   7.553  1.1911 -0.2838 -0.1326
 8192SOL     OW36034   4.416   4.259   3.596  0.1701  0.0023 -0.0320
 8192SOL    HW136035   4.446   4.277   3.685 -0.6672  0.8342  0.0821
 8192SOL    HW236036   4.396   4.166   3.598  1.6147 -0.3273 -1.0186
 8193SOL     OW36037   0.764   1.558   7.430  0.5777  0.2767 -0.4023
 8193SOL    HW136038   0.783   1.581   7.339  1.0457  0.0095 -0.3686
 8193SOL    HW236039   0.715   1.633   7.465  0.7909  0.1117  0.2569
 8194SOL     OW36040   0.813   1.275  12.338 -0.0550 -0.3258 -0.2429
 8194SOL    HW136041   0.741   1.239  12.287 -1.1137  2.4395 -0.6901
 8194SOL    HW236042   0.765   1.340  12.388  0.9176  2.1375 -2.5222
 8195SOL     OW36043   3.851   3.779  10.323 -0.1751 -0.0059  0.7461
 8195SOL    HW136044   3.821   3.864  10.356 -0.1250 -0.0155  0.8160
 8195SOL    HW236045   3.800   3.719  10.378 -0.6522  0.7056  1.0808
 8196SOL     OW36046   1.072   0.814   7.560  0.1491  0.2150 -0.3730
 8196SOL    HW136047   1.101   0.725   7.539  0.9297  0.3033  0.3505
 8196SOL    HW236048   1.107   0.863   7.486  0.6500 -0.0524 -0.3116
 8197SOL     OW36049   4.398   3.197  13.191  0.2811 -0.0829  0.1048
 8197SOL    HW136050   4.435   3.179  13.277 -0.1676 -1.8002 -0.0559
 8197SOL    HW236051   4.466   3.258  13.162  0.6204 -0.0057  1.0475
 8198SOL     OW36052   1.701   3.672  14.829  0.5500  0.1651 -0.0598
 8198SOL    HW136053   1.759   3.600  14.805 -0.2928 -1.5375  3.1076
 8198SOL    HW236054   1.637   3.631  14.888 -0.3003  2.2752  0.4909
 8199SOL     OW36055   0.745   2.150  11.056  0.0425  0.8326  0.4407
 8199SOL    HW136056   0.812   2.100  11.009  0.1826 -0.3906  1.9465
 8199SOL    HW236057   0.733   2.109  11.142  0.6450  2.8894  1.4895
 8200SOL     OW36058   2.083   3.879   8.357 -0.3690  0.0876  0.7386
 8200SOL    HW136059   2.038   3.964   8.362  0.8237  0.8328 -1.0196
 8200SOL    HW236060   2.035   3.831   8.424  1.1900 -1.1468  0.9606
 8201SOL     OW36061   3.103   0.680  11.975  0.5116 -0.0507 -0.4256
 8201SOL    HW136062   3.033   0.743  11.994  1.0096  0.0099  1.1353
 8201SOL    HW236063   3.173   0.743  11.990 -0.8057  0.9570  1.5576
 8202SOL     OW36064   3.865   0.032   5.822  0.2525 -0.1906 -0.3204
 8202SOL    HW136065   3.898   0.014   5.910 -0.2704  0.9749  0.1126
 8202SOL    HW236066   3.933   4.723   5.764 -1.8294 -0.4446 -2.6088
 8203SOL     OW36067   1.025   1.047   4.484 -0.1065  0.0605 -0.0992
 8203SOL    HW136068   0.994   1.131   4.451 -0.2319  0.5594  1.2962
 8203SOL    HW236069   0.965   0.985   4.443 -0.3421 -0.5885  1.2203
 8204SOL     OW36070   3.474   4.011   6.257 -0.0140 -0.0757  0.2759
 8204SOL    HW136071   3.522   3.946   6.207 -0.4219  1.8097 -2.5981
 8204SOL    HW236072   3.436   4.069   6.190  1.1593 -0.0796 -0.3896
 8205SOL     OW36073   3.442   3.815   1.614 -0.6071  0.0930  0.5983
 8205SOL    HW136074   3.416   3.816   1.522 -0.6864 -1.3569  0.6078
 8205SOL    HW236075   3.534   3.795   1.600 -0.1833  1.1897  1.8298
 8206SOL     OW36076   1.825   3.053   2.500 -0.1066  0.4098  0.2821
 8206SOL    HW136077   1.774   3.108   2.441  1.0023  0.9824 -0.1297
 8206SOL    HW236078   1.889   3.113   2.538 -0.3418 -0.6382  2.3553
 8207SOL     OW36079   3.115   1.334   2.479 -0.4465  0.3225 -0.3593
 8207SOL    HW136080   3.190   1.281   2.507 -0.0621  1.2470  0.3654
 8207SOL    HW236081   3.134   1.414   2.528  0.6329  0.2172 -0.6104
 8208SOL     OW36082   2.226   4.077   5.433 -0.6171 -0.0529 -0.0457
 8208SOL    HW136083   2.292   4.038   5.491 -0.1626  0.5114 -0.1725
 8208SOL    HW236084   2.245   4.171   5.431 -2.5636  0.3528  0.6902
 8209SOL     OW36085   2.251   4.383  15.499 -0.6062 -0.2802 -0.2937
 8209SOL    HW136086   2.160   4.403  15.522  0.0027  1.9475  0.1496
 8209SOL    HW236087   2.298   4.405  15.579 -1.3710  0.6819 -0.1102
 8210SOL     OW36088   0.088   2.506  10.843 -0.0413 -0.1710 -0.3243
 8210SOL    HW136089   0.145   2.458  10.782 -1.7018  0.9035 -2.7402
 8210SOL    HW236090   0.118   2.472  10.927 -0.6538  0.0240 -0.0270
 8211SOL     OW36091   1.190   1.876   3.048  0.5689 -0.0488  0.1376
 8211SOL    HW136092   1.098   1.882   3.073  0.8939  0.1426  1.2897
 8211SOL    HW236093   1.243   1.855   3.125 -1.4104  0.4388  1.6374
 8212SOL     OW36094   3.777   2.710   6.657 -0.0096  0.2141  0.1915
 8212SOL    HW136095   3.715   2.638   6.667  0.1811  0.3081  1.9869
 8212SOL    HW236096   3.741   2.776   6.715 -0.1535 -0.5088  0.9299
 8213SOL     OW36097   0.944   3.801   4.472 -0.3706  0.2954  0.0648
 8213SOL    HW136098   1.008   3.784   4.542 -0.3446  1.9176  0.4415
 8213SOL    HW236099   0.899   3.873   4.516 -0.6969  0.3008 -0.2826
 8214SOL     OW36100   2.204   2.770   0.626  1.1346  0.6084 -0.5277
 8214SOL    HW136101   2.227   2.679   0.643  1.0967  0.8703  0.8897
 8214SOL    HW236102   2.228   2.783   0.534  0.3188  1.6945 -0.5887
 8215SOL     OW36103   1.582   2.868  17.142 -0.8015 -0.7553 -0.3421
 8215SOL    HW136104   1.508   2.913  17.182  0.2262  0.5938  0.0172
 8215SOL    HW236105   1.633   2.841  17.219  1.7095  0.9767 -1.4042
 8216SOL     OW36106   0.555   0.414   7.158 -0.1829 -0.3036 -0.1958
 8216SOL    HW136107   0.471   0.387   7.195  0.0310 -2.0157 -0.9509
 8216SOL    HW236108   0.602   0.416   7.241  1.2875  0.4826 -1.0489
 8217SOL     OW36109   3.234   3.350  13.538 -0.1288 -0.0354 -0.1169
 8217SOL    HW136110   3.230   3.429  13.592 -0.2073 -0.1789  0.0855
 8217SOL    HW236111   3.198   3.286  13.600 -2.1323  0.0022 -1.2285
 8218SOL     OW36112   2.228   4.554  11.032 -0.2246  0.1430 -0.3397
 8218SOL    HW136113   2.214   4.614  11.106  0.9612  1.5077 -1.2378
 8218SOL    HW236114   2.321   4.574  11.025 -0.0662 -0.1344  0.8450
 8219SOL     OW36115   2.819   3.733   7.138  0.8221 -0.1995 -0.1603
 8219SOL    HW136116   2.735   3.722   7.094  0.3140  1.4182  0.3737
 8219SOL    HW236117   2.870   3.674   7.083  1.3463 -0.4173  0.5512
 8220SOL     OW36118   4.389   0.274   5.449  0.2918 -0.2596 -0.2150
 8220SOL    HW136119   4.321   0.215   5.482 -1.2577 -0.3627 -3.5518
 8220SOL    HW236120   4.404   0.238   5.361  0.4996 -1.3724  0.2805
 8221SOL     OW36121   0.249   4.645   1.363  0.2881 -0.6992  0.5396
 8221SOL    HW136122   0.278   4.719   1.416  1.0326 -1.7566  1.6306
 8221SOL    HW236123   0.196   4.679   1.291 -0.1824  1.3291  1.8378
 8222SOL     OW36124   3.681   1.067  10.397  0.2608 -0.5992  0.0490
 8222SOL    HW136125   3.653   1.129  10.330  0.6472  0.3497  0.7670
 8222SOL    HW236126   3.749   1.027  10.343  2.5848  1.2711  1.6189
 8223SOL     OW36127   2.262   2.093   5.557  0.2513  0.6605 -0.7525
 8223SOL    HW136128   2.350   2.128   5.547  0.1006  1.3065  0.2249
 8223SOL    HW236129   2.236   2.112   5.467 -2.4549  0.6549  0.0332
 8224SOL     OW36130   3.196   1.898   6.180  0.3327 -0.0241 -0.2992
 8224SOL    HW136131   3.256   1.898   6.255  0.3148 -1.0797 -0.2903
 8224SOL    HW236132   3.113   1.872   6.219  1.3290  0.2301  1.9800
 8225SOL     OW36133   2.628   4.615   8.762 -0.2536  0.3563  0.1972
 8225SOL    HW136134   2.563   4.684   8.751  1.7414  2.0890 -0.6518
 8225SOL    HW236135   2.584   4.538   8.799  2.4348 -0.5288  1.5847
 8226SOL     OW36136   0.979   2.772  11.422  0.9436  0.5364  0.3460
 8226SOL    HW136137   0.977   2.816  11.337  0.8265  2.5848  1.4039
 8226SOL    HW236138   0.967   2.680  11.399  0.3939  0.6886  0.0322
 8227SOL     OW36139   1.895   2.790  12.266 -0.6693 -0.9274 -0.2834
 8227SOL    HW136140   1.978   2.815  12.226 -1.0307  1.7631  0.6215
 8227SOL    HW236141   1.877   2.710  12.218  4.1017 -0.6235 -2.5556
 8228SOL     OW36142   0.310   0.809   9.968  0.4021  0.6177 -0.2132
 8228SOL    HW136143   0.280   0.783   9.880  0.8151 -0.7068  0.0407
 8228SOL    HW236144   0.330   0.721   9.999 -1.2623 -0.5548 -2.4030
 8229SOL     OW36145   0.247   3.302   1.637 -0.2135 -0.2133 -0.0845
 8229SOL    HW136146   0.275   3.219   1.675 -1.6873  0.7172  3.0274
 8229SOL    HW236147   0.153   3.293   1.653 -0.0835  0.5232  1.0609
 8230SOL     OW36148   4.645   4.565   5.500 -0.0875 -0.4001 -0.6792
 8230SOL    HW136149   4.645   4.469   5.499  1.0990 -0.3972 -0.3515
 8230SOL    HW236150   4.667   4.579   5.592  0.3228 -0.8129 -0.7164
 8231SOL     OW36151   4.324   0.744  16.912 -0.5789  0.2593  0.0704
 8231SOL    HW136152   4.264   0.678  16.948  0.0757  0.2825  1.2175
 8231SOL    HW236153   4.301   0.831  16.945  1.5127  0.6500  0.4751
 8232SOL     OW36154   3.829   4.173   6.434  0.3722  0.0956  0.4334
 8232SOL    HW136155   3.865   4.126   6.358  0.5938  0.2572  0.4386
 8232SOL    HW236156   3.822   4.104   6.501 -1.2072 -0.5364 -0.3992
 8233SOL     OW36157   2.342   3.251   3.337  0.3555  0.3606  0.0982
 8233SOL    HW136158   2.366   3.222   3.425  1.2715  0.7532 -0.0155
 8233SOL    HW236159   2.351   3.346   3.339  0.7484  0.3435 -0.5567
 8234SOL     OW36160   2.211   2.792   2.325  0.1644  0.0466  0.6896
 8234SOL    HW136161   2.136   2.833   2.283  0.6554 -3.1568 -3.2919
 8234SOL    HW236162   2.284   2.854   2.319 -2.3908  2.9920 -0.1215
 8235SOL     OW36163   4.526   4.620   5.268 -0.1291  0.1009 -0.5159
 8235SOL    HW136164   4.554   4.702   5.227 -2.8101  0.8561 -0.8246
 8235SOL    HW236165   4.554   4.626   5.360  1.1254 -2.4145 -0.7502
 8236SOL     OW36166   2.260   0.717   7.099 -0.0393 -0.7516 -0.2121
 8236SOL    HW136167   2.247   0.672   7.183  1.9689  1.0888  1.0620
 8236SOL    HW236168   2.218   0.656   7.037 -0.0778 -0.6765 -0.2595
 8237SOL     OW36169   4.584   1.785   2.767 -0.0645  0.1624  0.0476
 8237SOL    HW136170   4.563   1.691   2.767 -1.7490  0.5499  2.0176
 8237SOL    HW236171   4.520   1.818   2.830  0.9157  1.4116  0.3818
 8238SOL     OW36172   4.685   3.521   9.466  0.0467  0.0211  0.4965
 8238SOL    HW136173   4.652   3.553   9.549  0.4523  1.4546  0.1094
 8238SOL    HW236174   4.702   3.431   9.493  0.1662 -0.8153 -2.3414
 8239SOL     OW36175   2.200   1.582  10.717  0.2919  0.0274  0.5284
 8239SOL    HW136176   2.211   1.500  10.668 -0.7171 -0.5519  1.2617
 8239SOL    HW236177   2.135   1.620  10.657 -2.2170 -2.0140  1.9159
 8240SOL     OW36178   0.654   1.801   5.972  0.0959  0.1090 -0.7843
 8240SOL    HW136179   0.591   1.744   5.928  0.5657 -1.7596  0.9813
 8240SOL    HW236180   0.599   1.878   5.989  1.3069  0.9519 -0.6455
 8241SOL     OW36181   3.827   0.945   5.497 -0.3677 -0.2096 -0.1416
 8241SOL    HW136182   3.857   0.868   5.451 -2.3198 -1.8134  1.2796
 8241SOL    HW236183   3.883   1.018   5.470  0.1084  0.0322  1.4503
 8242SOL     OW36184   3.722   0.765  10.345 -0.8636  0.0849  0.2572
 8242SOL    HW136185   3.792   0.820  10.381 -1.0862  0.4287  0.1552
 8242SOL    HW236186   3.664   0.764  10.421  0.5285 -0.7303  1.3048
 8243SOL     OW36187   1.863   1.697   6.738 -0.0360  0.0810  0.7392
 8243SOL    HW136188   1.943   1.699   6.791 -2.0567  0.1165  3.7798
 8243SOL    HW236189   1.837   1.609   6.765 -1.8792  0.8660  1.5178
 8244SOL     OW36190   2.355   2.910   5.898 -0.5477  0.3005 -0.3388
 8244SOL    HW136191   2.260   2.917   5.892 -0.6067 -0.6030 -0.3876
 8244SOL    HW236192   2.365   2.850   5.972 -0.6520  1.9014  0.9731
 8245SOL     OW36193   2.897   3.785  13.617  0.4574 -0.0501 -0.0478
 8245SOL    HW136194   2.857   3.817  13.697 -0.5861 -1.0547 -0.1698
 8245SOL    HW236195   2.989   3.812  13.624  0.2625  1.5717 -3.9878
 8246SOL     OW36196   2.725   0.228   0.611  0.5580 -0.3313  0.3349
 8246SOL    HW136197   2.813   0.213   0.645  0.1895 -3.1731  0.0412
 8246SOL    HW236198   2.741   0.248   0.519 -0.9188 -1.5300 -0.1842
 8247SOL     OW36199   1.027   2.564  10.348  0.2849 -0.3157 -0.0333
 8247SOL    HW136200   1.055   2.488  10.298 -1.6055  1.1012 -3.2232
 8247SOL    HW236201   1.108   2.575  10.398 -0.0660  0.5973  0.3389
 8248SOL     OW36202   0.357   1.100   8.212  1.0101 -0.4076  0.2902
 8248SOL    HW136203   0.387   1.159   8.281 -1.8156 -0.7788  1.8244
 8248SOL    HW236204   0.433   1.105   8.154  1.6688  0.7102  1.2486
 8249SOL     OW36205   2.771   2.190  16.284 -0.3168 -0.5020  0.0035
 8249SOL    HW136206   2.707   2.242  16.236  1.8762  1.9548 -0.2424
 8249SOL    HW236207   2.772   2.105  16.239 -1.5260 -0.6647  0.2744
 8250SOL     OW36208   2.963   2.353   5.497  0.2880  0.6093 -0.0949
 8250SOL    HW136209   3.021   2.282   5.524  1.1058  1.1376 -0.4244
 8250SOL    HW236210   3.032   2.420   5.494  0.1074  0.8160  0.4750
 8251SOL     OW36211   2.515   0.841   1.566 -0.1000  0.1135  0.0693
 8251SOL    HW136212   2.575   0.833   1.491  0.1751 -0.9459  0.4158
 8251SOL    HW236213   2.433   0.857   1.520  2.5432  1.5083 -4.2215
 8252SOL     OW36214   4.508   2.253  11.983 -0.4283  0.7532  0.0048
 8252SOL    HW136215   4.597   2.218  11.990 -0.9397 -0.7169 -0.9555
 8252SOL    HW236216   4.517   2.321  12.050 -2.4910 -0.4910  1.5497
 8253SOL     OW36217   1.431   1.729   8.182 -0.4184  0.3865 -0.1434
 8253SOL    HW136218   1.391   1.768   8.259 -1.8014  3.2121 -2.2916
 8253SOL    HW236219   1.500   1.795   8.177 -3.2034  3.4595  1.7580
 8254SOL     OW36220   3.542   1.173   8.375 -0.0108 -0.0205 -0.4959
 8254SOL    HW136221   3.461   1.184   8.423  0.1863 -1.5143  0.1994
 8254SOL    HW236222   3.603   1.178   8.449 -0.2176 -0.2955 -0.3086
 8255SOL     OW36223   1.889   3.702   3.892  0.2163  0.7362 -0.2678
 8255SOL    HW136224   1.855   3.688   3.803  0.7696  2.2025 -0.7190
 8255SOL    HW236225   1.809   3.682   3.940  0.0922 -2.9793 -2.0333
 8256SOL     OW36226   1.217   3.176  12.141 -0.2739 -0.2521 -0.0863
 8256SOL    HW136227   1.180   3.123  12.212 -1.7632 -0.7038 -1.1898
 8256SOL    HW236228   1.207   3.261  12.184  1.0407 -0.4792  0.6764
 8257SOL     OW36229   4.500   3.989   6.646  0.3541  0.1753 -0.4769
 8257SOL    HW136230   4.465   3.944   6.569  0.7521 -0.4250 -0.3037
 8257SOL    HW236231   4.422   4.023   6.689 -0.1465  0.1646 -1.3708
 8258SOL     OW36232   4.597   2.810   6.233  0.2727  0.2382  0.3231
 8258SOL    HW136233   4.668   2.834   6.174  2.1022 -1.3718  1.8777
 8258SOL    HW236234   4.636   2.840   6.314  0.3906  2.4687 -0.5643
 8259SOL     OW36235   4.187   2.750  12.289  0.4127 -0.1382  0.7273
 8259SOL    HW136236   4.281   2.758  12.304  0.5394  1.3705 -0.9725
 8259SOL    HW236237   4.171   2.735  12.383 -1.6254  2.4919  0.7866
 8260SOL     OW36238   1.277   1.225   5.408  0.0031 -0.3226  0.2795
 8260SOL    HW136239   1.329   1.181   5.340 -2.1789 -0.8701 -1.0488
 8260SOL    HW236240   1.283   1.316   5.380  1.4576 -1.3122 -2.6219
 8261SOL     OW36241   3.000   1.272   6.431 -0.2802 -0.1028 -0.0070
 8261SOL    HW136242   2.959   1.188   6.412 -0.4321 -0.7289  3.1152
 8261SOL    HW236243   3.032   1.258   6.520  3.4453 -0.0887 -1.3397
 8262SOL     OW36244   1.015   4.011  17.210  0.0645 -0.0162  0.4149
 8262SOL    HW136245   0.994   4.011  17.117  0.7605  0.3158  0.2597
 8262SOL    HW236246   1.029   4.105  17.217  0.2458 -0.1765  2.3814
 8263SOL     OW36247   0.358   2.005   4.929  0.2562 -1.0701 -0.6347
 8263SOL    HW136248   0.367   1.928   4.986 -2.1533 -1.4417 -0.7605
 8263SOL    HW236249   0.377   2.067   5.000  0.9116 -0.6015 -1.2185
 8264SOL     OW36250   0.858   0.366  10.260 -0.3270  0.0225  0.2597
 8264SOL    HW136251   0.860   0.339  10.168  0.1521 -0.3699  0.3846
 8264SOL    HW236252   0.925   0.435  10.256 -1.1998  0.8434 -0.4260
 8265SOL     OW36253   2.656   1.263   6.899 -0.7010  0.1677  0.1144
 8265SOL    HW136254   2.585   1.207   6.931 -0.4379 -0.4156 -0.3127
 8265SOL    HW236255   2.629   1.306   6.818 -2.1511  1.9481  1.5525
 8266SOL     OW36256   2.928   4.102   8.489  0.4747 -0.3279 -0.2957
 8266SOL    HW136257   2.918   4.178   8.547  0.1129 -0.4172 -0.2457
 8266SOL    HW236258   2.856   4.120   8.429 -1.8542 -3.3684  1.6239
 8267SOL     OW36259   0.387   3.922  11.311 -0.3528 -0.6465  0.9015
 8267SOL    HW136260   0.480   3.903  11.318 -0.1324  0.2412  0.3418
 8267SOL    HW236261   0.355   3.927  11.401 -1.3770  1.4285  0.4325
 8268SOL     OW36262   1.873   3.706   6.820  0.7617  0.2158  0.2117
 8268SOL    HW136263   1.959   3.749   6.818  0.2247  1.3202  0.7865
 8268SOL    HW236264   1.845   3.758   6.895  1.9682  0.2593  0.6209
 8269SOL     OW36265   4.206   0.005   5.044  0.1982  0.3520 -0.4086
 8269SOL    HW136266   4.155   0.086   5.035  2.7220  1.7055 -2.4746
 8269SOL    HW236267   4.191   4.692   4.958  0.5350 -0.8284  0.0546
 8270SOL     OW36268   3.131   3.041   3.153 -0.3283  0.2243  0.2424
 8270SOL    HW136269   3.094   3.095   3.084 -0.9329  0.2649  0.5965
 8270SOL    HW236270   3.061   2.975   3.149  0.5378 -0.7185  0.7832
 8271SOL     OW36271   2.927   3.892   5.325 -0.7127 -0.3561  0.1398
 8271SOL    HW136272   3.007   3.841   5.317 -0.5080 -0.2352  1.3784
 8271SOL    HW236273   2.902   3.884   5.417 -1.6728  0.9990  0.0072
 8272SOL     OW36274   3.354   2.909   7.797 -0.7626  0.2401 -0.3672
 8272SOL    HW136275   3.308   2.912   7.881 -1.3584  2.2160 -0.7754
 8272SOL    HW236276   3.300   2.838   7.763 -1.1755  0.7310 -0.7250
 8273SOL     OW36277   1.901   4.159  16.699 -0.2131 -0.0663 -0.1382
 8273SOL    HW136278   1.898   4.144  16.605 -0.4073  2.7057 -0.5810
 8273SOL    HW236279   1.836   4.096  16.731  2.0432 -2.1918  0.2691
 8274SOL     OW36280   4.685   2.041   3.418 -0.1423  0.2659 -0.3283
 8274SOL    HW136281   0.002   2.017   3.500 -1.3140  0.1053  0.2315
 8274SOL    HW236282   0.010   2.121   3.399  0.5238 -0.4873 -1.7254
 8275SOL     OW36283   2.120   1.426   0.192  0.0705 -0.1162  0.3607
 8275SOL    HW136284   2.082   1.441   0.279 -0.5276 -1.0802  0.2588
 8275SOL    HW236285   2.050   1.395   0.135 -0.8067  1.8633  0.3217
 8276SOL     OW36286   2.850   2.948   8.353  0.4481  0.1936  0.0089
 8276SOL    HW136287   2.784   2.912   8.294 -0.5331  1.9192  0.0565
 8276SOL    HW236288   2.853   3.037   8.318 -2.1746  0.2513 -0.0599
 8277SOL     OW36289   1.041   0.678   4.351  0.2766  0.2744 -0.1725
 8277SOL    HW136290   1.013   0.769   4.357  0.3346  0.1952  1.2804
 8277SOL    HW236291   1.030   0.667   4.257 -1.2238 -2.7828  0.3550
 8278SOL     OW36292   2.870   0.630  13.207  0.6104  0.1649  0.0401
 8278SOL    HW136293   2.900   0.594  13.124 -1.6034 -1.8572  0.1071
 8278SOL    HW236294   2.832   0.554  13.252 -0.3850 -1.1354 -2.9815
 8279SOL     OW36295   2.409   2.756  16.586  0.1601 -0.1766  0.3589
 8279SOL    HW136296   2.387   2.766  16.493  0.1521 -0.7859  0.2988
 8279SOL    HW236297   2.458   2.837  16.598 -3.3668  1.9544  0.5359
 8280SOL     OW36298   4.621   0.069   6.539 -0.0294  0.2650  0.0519
 8280SOL    HW136299   4.570   0.146   6.563  0.3936  0.8736 -1.0051
 8280SOL    HW236300   4.712   0.099   6.545 -0.3156  1.2691 -0.5595
 8281SOL     OW36301   1.913   1.285   4.828  0.3114  1.0057 -0.1478
 8281SOL    HW136302   1.850   1.270   4.898  2.1757  0.1140  1.3282
 8281SOL    HW236303   1.985   1.322   4.879  0.2631  0.8797  0.0137
 8282SOL     OW36304   4.229   2.305   0.994 -0.2118 -0.6336  0.0202
 8282SOL    HW136305   4.297   2.353   1.042 -1.1111  0.8676 -0.2247
 8282SOL    HW236306   4.148   2.353   1.009  0.9787  1.2243  0.5129
 8283SOL     OW36307   0.550   0.824  13.336  0.6346 -0.2217 -0.6221
 8283SOL    HW136308   0.487   0.846  13.267  0.0651 -1.5109 -0.5226
 8283SOL    HW236309   0.632   0.842  13.291  0.9073 -1.2141 -0.5345
 8284SOL     OW36310   2.693   4.536   2.916  0.1776 -0.5278 -0.0060
 8284SOL    HW136311   2.634   4.577   2.853  1.0791 -1.7341 -1.6337
 8284SOL    HW236312   2.780   4.550   2.879  1.5189 -2.4265  2.4612
 8285SOL     OW36313   3.246   1.791   6.773 -0.3279 -0.3446 -0.3638
 8285SOL    HW136314   3.207   1.774   6.687 -0.6258 -2.7701  0.2619
 8285SOL    HW236315   3.223   1.711   6.818  1.0868 -0.2351  0.5437
 8286SOL     OW36316   2.846   0.407  15.642  0.1988 -0.0462 -0.2535
 8286SOL    HW136317   2.845   0.480  15.580 -0.7157 -0.9652 -1.3035
 8286SOL    HW236318   2.887   0.343  15.584 -1.1958  0.2499 -1.5396
 8287SOL     OW36319   1.164   1.591   3.727 -0.1970  0.2789 -0.0716
 8287SOL    HW136320   1.174   1.521   3.663 -0.0215  0.8977 -0.7109
 8287SOL    HW236321   1.132   1.539   3.801 -0.1850 -0.0531 -0.2967
 8288SOL     OW36322   4.539   2.855  13.904 -0.6609  0.2422 -0.5521
 8288SOL    HW136323   4.519   2.895  13.819 -0.6280  1.6065  0.0873
 8288SOL    HW236324   4.461   2.848  13.958  0.0984  0.4939  0.5760
 8289SOL     OW36325   0.408   1.136   6.198 -0.5319  0.0838 -0.1175
 8289SOL    HW136326   0.483   1.125   6.141 -0.4797 -1.5893  0.2956
 8289SOL    HW236327   0.464   1.157   6.273  0.0777 -0.2041 -0.4991
 8290SOL     OW36328   0.802   3.513   6.952  0.0835 -0.5423 -0.8785
 8290SOL    HW136329   0.805   3.476   6.864 -0.4529  2.9689 -2.3742
 8290SOL    HW236330   0.793   3.608   6.940 -0.8254 -0.6238 -0.7952
 8291SOL     OW36331   0.262   2.853   7.528 -0.0551  0.5153  0.5879
 8291SOL    HW136332   0.309   2.895   7.599  0.3292  1.3724 -0.1680
 8291SOL    HW236333   0.227   2.776   7.573  1.9586 -0.8039 -0.0970
 8292SOL     OW36334   0.197   1.955   5.230  0.1150  0.2745  0.2620
 8292SOL    HW136335   0.221   1.912   5.148  0.9474  0.4199  0.4346
 8292SOL    HW236336   0.278   1.956   5.280  0.8828 -1.6106 -0.9546
 8293SOL     OW36337   4.059   2.486   5.342 -0.5558 -0.4902 -0.5504
 8293SOL    HW136338   3.966   2.505   5.324 -1.0519 -0.5725  1.8800
 8293SOL    HW236339   4.076   2.541   5.418 -0.5513  1.0387 -1.6545
 8294SOL     OW36340   4.454   1.841   3.591 -0.0427  0.3381  0.1556
 8294SOL    HW136341   4.415   1.915   3.638 -0.0960  0.3039  0.1652
 8294SOL    HW236342   4.545   1.872   3.589 -0.6152  2.1146  0.8787
 8295SOL     OW36343   2.034   1.702  13.387  0.3636  0.3601  0.1669
 8295SOL    HW136344   2.114   1.749  13.366  1.9289 -1.1897  2.7052
 8295SOL    HW236345   2.023   1.739  13.475 -0.9504 -0.8048  0.5006
 8296SOL     OW36346   4.512   3.569   1.750  0.1122  0.1437  0.0892
 8296SOL    HW136347   4.583   3.574   1.687 -1.1097 -1.7638 -1.4480
 8296SOL    HW236348   4.552   3.615   1.824  1.8801 -0.1171 -0.7067
 8297SOL     OW36349   4.294   1.782   5.718  0.5992 -0.5625 -0.0524
 8297SOL    HW136350   4.267   1.838   5.646 -1.1604  2.0278  2.6372
 8297SOL    HW236351   4.207   1.757   5.749  0.8435 -1.1973  0.1167
 8298SOL     OW36352   2.411   2.762  17.412  0.5931  0.3498 -0.0089
 8298SOL    HW136353   2.358   2.816  17.353  2.1670  1.1624 -0.6804
 8298SOL    HW236354   2.421   2.680  17.365 -0.8771 -0.0672  0.4004
 8299SOL     OW36355   2.172   1.397  15.512  0.2259  0.0835 -0.1831
 8299SOL    HW136356   2.139   1.439  15.433 -0.7592  1.6889  1.0906
 8299SOL    HW236357   2.125   1.447  15.579 -1.0411  0.0477 -1.0339
 8300SOL     OW36358   3.059   3.439  10.773  0.0971 -0.3729 -0.4224
 8300SOL    HW136359   3.126   3.476  10.715  1.5871 -0.5634  1.1566
 8300SOL    HW236360   3.009   3.515  10.801 -0.8380 -1.1308 -0.0522
 8301SOL     OW36361   4.557   3.729   8.136 -0.7638  0.3579  0.0068
 8301SOL    HW136362   4.649   3.707   8.152 -0.7914 -0.0438 -0.3875
 8301SOL    HW236363   4.522   3.754   8.221 -0.3919 -1.3565  0.6616
 8302SOL     OW36364   3.284   2.920   2.923 -0.5244 -0.0411  0.4793
 8302SOL    HW136365   3.313   3.010   2.941  0.9383  0.0044 -2.1127
 8302SOL    HW236366   3.235   2.895   3.002 -0.6012 -1.0444  0.1147
 8303SOL     OW36367   1.740   3.901   5.854 -0.2250  1.0241 -0.5330
 8303SOL    HW136368   1.824   3.923   5.894  0.8566 -2.7101 -0.7291
 8303SOL    HW236369   1.684   3.898   5.932  0.2137  1.7664 -0.1882
 8304SOL     OW36370   1.254   2.834   5.546  0.0740  0.8953  0.5292
 8304SOL    HW136371   1.317   2.905   5.529 -1.7316  2.9450  2.3622
 8304SOL    HW236372   1.239   2.859   5.638  1.5278  0.2183  0.9542
 8305SOL     OW36373   4.698   3.502   1.534  0.0773  0.9330 -0.1209
 8305SOL    HW136374   4.698   3.412   1.567 -1.0410  1.5259  1.5008
 8305SOL    HW236375   0.058   3.504   1.490  0.6548  0.5766  1.0024
 8306SOL     OW36376   3.057   2.008   1.579 -0.2867 -0.3181 -0.0837
 8306SOL    HW136377   3.047   1.940   1.646  1.0774 -0.1704  0.2786
 8306SOL    HW236378   3.087   1.954   1.505 -0.1049  0.3145 -0.4708
 8307SOL     OW36379   0.899   1.880   3.126 -0.2343  0.5139  0.5479
 8307SOL    HW136380   0.828   1.860   3.186 -1.7784  1.2284 -1.0552
 8307SOL    HW236381   0.858   1.856   3.043 -2.3486 -0.0263  1.7663
 8308SOL     OW36382   1.745   0.878   5.104 -0.1702  0.4548 -0.2583
 8308SOL    HW136383   1.788   0.819   5.042 -0.3532  1.1468 -1.0464
 8308SOL    HW236384   1.657   0.883   5.069 -0.6439  1.2177  1.0614
 8309SOL     OW36385   1.754   3.736   3.556  0.5308 -0.5980 -0.7054
 8309SOL    HW136386   1.768   3.641   3.559  0.3805 -0.7310 -3.6981
 8309SOL    HW236387   1.690   3.722   3.486 -0.7529  2.7781 -0.1661
 8310SOL     OW36388   2.019   2.430  10.992 -0.1280 -0.3194 -0.0640
 8310SOL    HW136389   1.960   2.455  10.921  1.1186 -0.5526 -1.1735
 8310SOL    HW236390   1.966   2.436  11.072  0.6716 -0.9446  0.5064
 8311SOL     OW36391   1.485   3.179   1.083  0.3577  0.0518  0.5514
 8311SOL    HW136392   1.499   3.235   1.159  3.1140  0.6528 -0.3841
 8311SOL    HW236393   1.448   3.239   1.018  1.1267 -1.5810 -1.3774
 8312SOL     OW36394   2.013   1.800   4.812  0.6211  0.5372 -0.0326
 8312SOL    HW136395   1.924   1.836   4.805  0.3037 -0.1304  0.5267
 8312SOL    HW236396   2.002   1.735   4.743  0.1639  1.5965 -0.9531
 8313SOL     OW36397   2.228   2.127   7.929  0.5532 -0.1202 -0.6534
 8313SOL    HW136398   2.210   2.180   7.852  0.2283  1.7135  0.6759
 8313SOL    HW236399   2.227   2.191   8.000  1.1152  0.5244 -1.2348
 8314SOL     OW36400   2.997   4.442   5.373 -0.0362  0.0657 -0.2533
 8314SOL    HW136401   3.000   4.532   5.339 -0.6719  0.5598  0.9810
 8314SOL    HW236402   3.080   4.446   5.419 -1.4913  1.7204  2.2281
 8315SOL     OW36403   0.289   3.966  13.855  0.1883  0.8937  0.6546
 8315SOL    HW136404   0.210   4.017  13.839  0.2623  1.0979  0.9373
 8315SOL    HW236405   0.269   3.888  13.803 -0.4141  1.9647 -0.7448
 8316SOL     OW36406   0.709   1.518  12.410 -0.4105  0.2895 -0.3008
 8316SOL    HW136407   0.660   1.554  12.484  0.0365  0.7056 -0.2045
 8316SOL    HW236408   0.797   1.522  12.447 -0.6552  1.9473  0.0702
 8317SOL     OW36409   1.491   2.271   6.706 -0.4535  0.5836  0.3517
 8317SOL    HW136410   1.468   2.232   6.791 -0.0755  1.2627  0.7670
 8317SOL    HW236411   1.441   2.219   6.644 -0.9148  1.2988  0.1194
 8318SOL     OW36412   0.339   3.389   7.638 -0.1229 -0.0646 -0.3900
 8318SOL    HW136413   0.384   3.357   7.716  0.2784  0.1055 -0.5541
 8318SOL    HW236414   0.247   3.387   7.666  0.3914  0.8511  1.3844
 8319SOL     OW36415   3.421   1.068   6.978  0.3557  0.4364 -0.0603
 8319SOL    HW136416   3.468   0.988   7.003 -1.4337  0.0443  2.0332
 8319SOL    HW236417   3.482   1.106   6.915 -0.3390 -0.9384 -1.5821
 8320SOL     OW36418   2.184   2.312  12.269 -0.6249 -0.2272 -0.1510
 8320SOL    HW136419   2.222   2.399  12.279 -1.4387  0.2400 -1.1444
 8320SOL    HW236420   2.260   2.268  12.232 -0.7489 -0.4811 -0.1036
 8321SOL     OW36421   3.528   3.907   0.050 -0.2030  0.1398  0.4553
 8321SOL    HW136422   3.536   4.001   0.036 -0.3022  0.4986  2.8808
 8321SOL    HW236423   3.617   3.880   0.024  0.2267  1.5460  0.4852
 8322SOL     OW36424   2.381   3.246   5.128  0.4623 -0.3341 -0.0385
 8322SOL    HW136425   2.452   3.184   5.112  0.1202 -1.3976  2.5549
 8322SOL    HW236426   2.414   3.288   5.207 -2.1069 -0.7428  1.2606
 8323SOL     OW36427   0.832   2.868   7.411  0.0618 -0.0443 -0.2228
 8323SOL    HW136428   0.739   2.855   7.428  0.0867 -0.6797 -0.5953
 8323SOL    HW236429   0.846   2.960   7.434 -3.1130  0.6698 -1.1565
 8324SOL     OW36430   1.943   1.367   4.339  0.6060  0.3162 -0.4074
 8324SOL    HW136431   1.980   1.330   4.419  0.5436  0.4511 -0.3153
 8324SOL    HW236432   1.933   1.459   4.363  1.0808 -0.0463  1.1741
 8325SOL     OW36433   4.253   2.113   8.542  0.0600  0.0100  0.6350
 8325SOL    HW136434   4.171   2.163   8.547  0.2089  0.4076 -1.2270
 8325SOL    HW236435   4.274   2.107   8.449 -4.0175 -0.7105 -0.2379
 8326SOL     OW36436   2.124   3.520   3.107  0.5257  0.0546 -0.7875
 8326SOL    HW136437   2.128   3.512   3.202  3.3647 -1.8587 -1.0773
 8326SOL    HW236438   2.197   3.581   3.095  0.0253  1.1230  1.6362
 8327SOL     OW36439   1.766   1.921   5.143  0.2036  0.6702  0.4903
 8327SOL    HW136440   1.792   1.944   5.232 -0.9520  1.9534  0.5069
 8327SOL    HW236441   1.853   1.924   5.105  0.2078 -0.3339  0.4179
 8328SOL     OW36442   1.618   2.407  14.067  0.2430 -0.6148 -0.3417
 8328SOL    HW136443   1.677   2.338  14.035  1.1712  0.0825 -0.1148
 8328SOL    HW236444   1.665   2.478  14.024 -1.7439  0.2446 -1.0868
 8329SOL     OW36445   2.681   3.188   6.535  0.0015 -0.0040  0.0163
 8329SOL    HW136446   2.613   3.220   6.594  1.7016  1.6442  1.1042
 8329SOL    HW236447   2.660   3.095   6.545 -1.8145  0.4757  0.6560
 8330SOL     OW36448   1.117   2.394  12.612  0.3413 -0.0067 -0.6284
 8330SOL    HW136449   1.150   2.310  12.644  0.0988 -1.0491 -3.1273
 8330SOL    HW236450   1.070   2.426  12.689  0.4561  3.1181 -1.8396
 8331SOL     OW36451   0.585   0.438   7.420 -0.1864  0.0308  0.3205
 8331SOL    HW136452   0.518   0.505   7.412 -0.2315 -0.0047  0.4002
 8331SOL    HW236453   0.525   0.367   7.445 -0.1329  0.2548  1.0633
 8332SOL     OW36454   4.112   2.429   7.505  0.0702 -0.2048  0.1447
 8332SOL    HW136455   4.098   2.489   7.578  0.0577 -0.5113  0.3968
 8332SOL    HW236456   4.181   2.367   7.532 -0.0308 -0.6501 -0.6047
 8333SOL     OW36457   1.068   3.021  12.315  0.6074 -0.0100 -0.3505
 8333SOL    HW136458   1.133   2.975  12.368  2.0296 -0.4122 -2.4794
 8333SOL    HW236459   1.004   3.051  12.379 -0.6675 -1.8788 -0.7351
 8334SOL     OW36460   0.527   1.579  14.742 -0.2934 -0.0852 -0.2558
 8334SOL    HW136461   0.619   1.602  14.757 -0.3839  1.0406 -1.3866
 8334SOL    HW236462   0.535   1.490  14.710 -0.3011 -0.2769  0.2813
 8335SOL     OW36463   1.788   0.883   5.364  0.8891 -0.1386 -0.1989
 8335SOL    HW136464   1.788   0.880   5.269  0.0300 -0.6185 -0.1900
 8335SOL    HW236465   1.695   0.870   5.384  0.7622 -1.0360 -1.3274
 8336SOL     OW36466   2.817   1.376   2.953  0.3811 -0.2959 -0.1564
 8336SOL    HW136467   2.744   1.317   2.932  0.6928 -1.0083  0.7815
 8336SOL    HW236468   2.811   1.440   2.882  1.3425  1.3512  1.2409
 8337SOL     OW36469   2.951   2.190   7.176  0.0582  0.4118 -0.0578
 8337SOL    HW136470   2.951   2.239   7.094  1.5146  1.0092  0.2899
 8337SOL    HW236471   3.020   2.128   7.158 -0.2296 -0.0197  0.3133
 8338SOL     OW36472   3.665   1.539  12.186  0.5545 -0.1722  0.4436
 8338SOL    HW136473   3.595   1.506  12.243  1.8693  3.0120  3.9420
 8338SOL    HW236474   3.616   1.525  12.106 -0.7325  0.3422  1.1404
 8339SOL     OW36475   1.327   1.618  13.197 -0.0733 -0.1264 -0.6662
 8339SOL    HW136476   1.247   1.670  13.207 -0.2618 -0.4915 -0.2466
 8339SOL    HW236477   1.318   1.538  13.251  0.1529  0.8959  0.8903
 8340SOL     OW36478   2.964   0.576   0.384 -0.8979  0.5124  0.4018
 8340SOL    HW136479   2.901   0.648   0.389  0.2220  1.6245 -1.5882
 8340SOL    HW236480   3.017   0.574   0.463 -0.7265 -0.4743  0.2552
 8341SOL     OW36481   1.634   2.817  17.619  0.0526  0.2436 -0.2476
 8341SOL    HW136482   1.618   2.829   0.011  0.1066 -0.2117 -0.1782
 8341SOL    HW236483   1.688   2.738  17.611 -1.5559 -0.9371  0.6185
 8342SOL     OW36484   0.505   1.927   2.594 -0.0353  0.4300 -0.3232
 8342SOL    HW136485   0.526   1.943   2.686 -1.9232  0.7968  0.0451
 8342SOL    HW236486   0.547   2.007   2.561 -0.5386  1.4238  1.4618
 8343SOL     OW36487   4.627   3.719  12.740 -0.5991  0.1902  0.6039
 8343SOL    HW136488   4.674   3.710  12.657  0.0875  1.0015  0.9118
 8343SOL    HW236489   4.569   3.793  12.723  0.7895  0.8974 -1.0510
 8344SOL     OW36490   0.243   1.713   4.764 -0.0363 -0.7563  0.3485
 8344SOL    HW136491   0.189   1.707   4.843 -1.4090  1.8481 -0.3756
 8344SOL    HW236492   0.276   1.626   4.783  0.7588 -0.4342  0.4450
 8345SOL     OW36493   2.559   0.309   7.924 -0.3694  0.0486  0.1447
 8345SOL    HW136494   2.648   0.345   7.922  0.1732 -1.4085 -1.9374
 8345SOL    HW236495   2.554   0.276   8.014  0.5942 -0.2799  0.0783
 8346SOL     OW36496   1.958   3.263   2.285 -0.1570  0.0466 -0.6056
 8346SOL    HW136497   2.014   3.311   2.347 -3.4149  0.5355  1.9198
 8346SOL    HW236498   2.001   3.178   2.294 -2.0989 -0.6685  1.8201
 8347SOL     OW36499   3.584   3.845   4.094  0.2313 -0.5486 -0.2107
 8347SOL    HW136500   3.535   3.787   4.152 -0.5267 -1.5401 -1.8402
 8347SOL    HW236501   3.522   3.867   4.024  0.7238 -1.0230 -0.7986
 8348SOL     OW36502   0.116   1.152   3.221  0.1185 -0.5018  0.4863
 8348SOL    HW136503   0.153   1.159   3.133  1.5066  0.7506  1.1748
 8348SOL    HW236504   0.028   1.122   3.201  0.0045 -0.0422  0.2869
 8349SOL     OW36505   3.068   0.154  13.537 -0.0355  0.3927  0.4652
 8349SOL    HW136506   3.004   0.116  13.478  0.9786 -2.3376  1.1180
 8349SOL    HW236507   3.014   0.160  13.616 -1.7945  1.0282 -0.7983
 8350SOL     OW36508   2.589   2.007   7.511  0.2561 -0.4019 -0.3145
 8350SOL    HW136509   2.640   1.942   7.561  1.4921  0.8749  0.0754
 8350SOL    HW236510   2.617   1.988   7.421  1.5865 -1.0243  0.2195
 8351SOL     OW36511   2.576   3.794  12.932  0.4225  0.2949 -0.3955
 8351SOL    HW136512   2.497   3.838  12.963  1.2182  1.5474 -0.1418
 8351SOL    HW236513   2.558   3.706  12.965  1.7703  0.1815  0.0289
 8352SOL     OW36514   0.954   2.995   6.278  0.2923 -0.3645 -0.1717
 8352SOL    HW136515   1.033   3.001   6.331  0.5866 -1.0588 -0.5257
 8352SOL    HW236516   0.900   3.050   6.334  0.5367 -0.1964 -0.1004
 8353SOL     OW36517   0.665   2.330   1.730 -0.3411 -0.6920 -0.5893
 8353SOL    HW136518   0.677   2.299   1.641 -1.6214 -0.2845 -0.9012
 8353SOL    HW236519   0.726   2.404   1.735  0.1754 -1.1913  0.5741
 8354SOL     OW36520   3.181   1.270   8.089  0.3287 -0.8015  0.0055
 8354SOL    HW136521   3.130   1.275   8.008  1.1190 -0.0710 -0.4535
 8354SOL    HW236522   3.113   1.306   8.146 -2.0731 -2.2363 -1.9645
 8355SOL     OW36523   0.048   2.935   0.555 -0.8063  0.9351 -0.6060
 8355SOL    HW136524   0.013   2.909   0.470  0.4020  0.0106 -0.8163
 8355SOL    HW236525   4.714   3.007   0.576 -0.8139  1.2272 -1.6091
 8356SOL     OW36526   3.444   0.454   7.836 -0.1036 -0.1791 -0.2939
 8356SOL    HW136527   3.535   0.482   7.825 -0.4281  0.4439 -1.4014
 8356SOL    HW236528   3.449   0.368   7.878  0.8087 -0.1476 -0.3279
 8357SOL     OW36529   2.120   2.882  10.440  0.1858 -0.0382 -0.1595
 8357SOL    HW136530   2.089   2.950  10.379  1.2866 -0.7041 -1.4583
 8357SOL    HW236531   2.082   2.910  10.523 -2.4169  0.3640 -1.4715
 8358SOL     OW36532   2.050   0.294   5.128 -0.3043  0.1442  0.3961
 8358SOL    HW136533   1.982   0.292   5.060  0.2306 -1.0719 -0.0861
 8358SOL    HW236534   2.003   0.251   5.201 -1.0851  0.5333  0.1271
 8359SOL     OW36535   3.459   3.785   6.598 -0.3030  0.3918  0.2683
 8359SOL    HW136536   3.448   3.690   6.600 -0.5911  0.3977 -1.7681
 8359SOL    HW236537   3.554   3.799   6.600 -0.5491  1.8495  2.6589
 8360SOL     OW36538   0.400   4.658   4.578  0.4932  0.5365 -0.1349
 8360SOL    HW136539   0.346   0.011   4.585 -0.6974 -0.2570 -0.3729
 8360SOL    HW236540   0.388   4.630   4.669 -1.9483  1.5174 -0.1555
 8361SOL     OW36541   1.510   1.916  17.235 -0.8126  0.0469  0.5227
 8361SOL    HW136542   1.599   1.903  17.267 -0.9646  1.1399  1.3768
 8361SOL    HW236543   1.454   1.852  17.278  0.7771 -2.1837 -0.7344
 8362SOL     OW36544   2.602   2.076   4.558  0.0773  0.2711 -0.3140
 8362SOL    HW136545   2.624   2.097   4.649  0.4838 -0.4595 -0.2509
 8362SOL    HW236546   2.511   2.050   4.574  0.2010  0.3068  0.4489
 8363SOL     OW36547   3.616   3.760   3.004 -0.7679  0.5918  0.0058
 8363SOL    HW136548   3.604   3.794   2.915  0.0452 -0.6076 -0.5685
 8363SOL    HW236549   3.711   3.767   3.011 -0.9230  2.6347  0.0625
 8364SOL     OW36550   2.638   0.114   7.230  0.2688 -0.2760 -0.6262
 8364SOL    HW136551   2.578   0.089   7.159 -0.3210 -0.3743 -0.0892
 8364SOL    HW236552   2.691   0.181   7.186 -0.9528  1.3827  0.3823
 8365SOL     OW36553   4.206   3.701   8.569 -0.0700 -0.1000  0.2165
 8365SOL    HW136554   4.283   3.653   8.601 -0.5109 -1.8442 -1.3354
 8365SOL    HW236555   4.143   3.630   8.558 -0.5431  0.4153 -0.4158
 8366SOL     OW36556   1.459   2.313   3.517 -0.0587  0.0680 -0.6392
 8366SOL    HW136557   1.458   2.257   3.595 -0.6655 -0.5183 -1.0621
 8366SOL    HW236558   1.388   2.376   3.528 -1.2310 -1.2939 -0.4403
 8367SOL     OW36559   3.579   2.962   8.879 -0.1947  0.5352  0.3112
 8367SOL    HW136560   3.522   2.895   8.916 -1.6334  1.3126 -0.4597
 8367SOL    HW236561   3.658   2.912   8.901  0.7597  1.8301 -0.1634
 8368SOL     OW36562   2.011   1.316   7.685  0.1596  0.2577  0.4184
 8368SOL    HW136563   2.059   1.287   7.607 -1.6603  3.0899 -1.7601
 8368SOL    HW236564   1.921   1.284   7.672 -0.3157  0.9210  2.1025
 8369SOL     OW36565   0.047   0.152   6.250 -0.0663 -0.5006 -0.0990
 8369SOL    HW136566   4.690   0.199   6.238  1.1041  1.0736 -1.8904
 8369SOL    HW236567   0.017   0.061   6.252 -1.2329 -0.1328 -1.3062
 8370SOL     OW36568   2.969   3.252   6.071  0.5042  0.2475  0.6454
 8370SOL    HW136569   2.944   3.254   6.163  1.9337 -1.9536  1.0818
 8370SOL    HW236570   3.020   3.171   6.068  0.0801  0.0357 -0.8002
 8371SOL     OW36571   0.015   0.551   4.940 -0.4835 -0.1129 -0.7016
 8371SOL    HW136572   4.677   0.489   4.903  0.9089 -1.0635 -1.4817
 8371SOL    HW236573   0.071   0.482   4.975  0.7965  0.5403 -1.5125
 8372SOL     OW36574   4.288   1.916   7.574 -0.4602 -0.3518  0.0008
 8372SOL    HW136575   4.375   1.948   7.550 -0.9811  0.2202 -1.1047
 8372SOL    HW236576   4.283   1.840   7.517 -0.4806  1.4822 -2.4491
 8373SOL     OW36577   1.982   0.193   9.240  0.0650  0.4524  0.1338
 8373SOL    HW136578   1.895   0.196   9.278 -0.3606 -1.9301 -0.6510
 8373SOL    HW236579   1.964   0.268   9.183 -0.4015  0.1994 -0.0520
 8374SOL     OW36580   1.301   0.906   0.045 -0.3508  0.5754 -0.0948
 8374SOL    HW136581   1.315   0.912  17.653 -1.4152  0.1749 -0.2742
 8374SOL    HW236582   1.375   0.849   0.065 -0.2557  1.4790  2.1078
 8375SOL     OW36583   3.481   2.561   7.636  0.5880 -0.2924  0.0457
 8375SOL    HW136584   3.532   2.495   7.685  2.2048 -0.9409 -2.4728
 8375SOL    HW236585   3.395   2.520   7.627  0.6880 -0.5170  0.1067
 8376SOL     OW36586   0.074   0.542   6.716 -0.3998  0.2404  0.1261
 8376SOL    HW136587   0.101   0.596   6.642 -0.2925  1.2830  0.9438
 8376SOL    HW236588   0.038   0.602   6.781 -0.0608 -0.7982  1.2784
 8377SOL     OW36589   0.687   4.696  15.644  0.7615  0.0732  0.1794
 8377SOL    HW136590   0.711   0.043  15.586  1.7305 -0.3135  0.0980
 8377SOL    HW236591   0.772   4.697  15.687  0.8954  0.1213 -0.0853
 8378SOL     OW36592   3.465   0.813   9.036 -0.4455  0.4298  0.6906
 8378SOL    HW136593   3.454   0.725   9.072  1.1085 -0.3417 -0.6805
 8378SOL    HW236594   3.533   0.853   9.090  0.9100 -1.6387  0.5391
 8379SOL     OW36595   2.785   3.377   3.012  0.4486  0.3455 -0.1896
 8379SOL    HW136596   2.756   3.293   2.974 -1.8153  0.5759  1.0234
 8379SOL    HW236597   2.755   3.443   2.950 -2.3300  0.7075  1.5466
 8380SOL     OW36598   1.550   2.139   5.383 -0.0104 -0.1889 -0.2050
 8380SOL    HW136599   1.498   2.184   5.450  0.1984  1.5336 -1.1843
 8380SOL    HW236600   1.594   2.076   5.440 -1.9752 -0.6458  0.7834
 8381SOL     OW36601   1.535   4.164   5.856 -0.2576  0.5238  0.1559
 8381SOL    HW136602   1.565   4.221   5.926  0.6344 -0.8458  0.8998
 8381SOL    HW236603   1.567   4.079   5.887  0.6000 -0.1057 -2.4048
 8382SOL     OW36604   1.536   3.888   6.033  0.0775 -0.0402  0.3065
 8382SOL    HW136605   1.573   3.827   6.098  0.9262 -1.1641 -1.2212
 8382SOL    HW236606   1.445   3.891   6.062 -0.5652  0.0346 -1.7161
 8383SOL     OW36607   3.830   0.174   1.275  0.2763 -0.0428 -0.2408
 8383SOL    HW136608   3.910   0.224   1.290  0.3309  0.5032 -2.3116
 8383SOL    HW236609   3.828   0.133   1.361  0.2488 -0.5461 -0.4830
 8384SOL     OW36610   3.641   2.000  12.597 -0.4430 -0.5246 -0.6776
 8384SOL    HW136611   3.570   1.983  12.659  0.0815 -1.4397 -0.3350
 8384SOL    HW236612   3.703   1.930  12.617  3.0197  2.5868 -0.6337
 8385SOL     OW36613   4.444   1.780  12.807  0.0171  0.2027 -0.7498
 8385SOL    HW136614   4.486   1.720  12.869  1.0742  1.5176 -0.1900
 8385SOL    HW236615   4.382   1.832  12.859  0.3458 -0.7704  0.6105
 8386SOL     OW36616   0.402   2.800   8.669 -0.5111 -0.0377  0.4756
 8386SOL    HW136617   0.449   2.767   8.592  1.5423 -0.8709  2.0904
 8386SOL    HW236618   0.355   2.872   8.627 -1.0961  0.5130  2.0727
 8387SOL     OW36619   3.043   1.191   6.971  0.5469  0.3188 -0.0263
 8387SOL    HW136620   3.001   1.261   7.021 -0.6593 -0.4081 -0.0402
 8387SOL    HW236621   2.996   1.192   6.888  1.0401 -1.0175 -0.3196
 8388SOL     OW36622   0.398   0.690  17.061  0.0999  0.2979 -0.0514
 8388SOL    HW136623   0.393   0.770  17.008 -1.0913  1.2087  1.4806
 8388SOL    HW236624   0.428   0.715  17.148 -2.2534  3.3686 -0.1262
 8389SOL     OW36625   2.318   4.271  16.962  0.0420  0.7109 -0.4867
 8389SOL    HW136626   2.378   4.239  16.895  0.9110 -0.6694  0.9422
 8389SOL    HW236627   2.233   4.244  16.928  0.1747 -4.1167  2.9666
 8390SOL     OW36628   1.992   1.848   7.625 -0.5456  0.1483 -0.2674
 8390SOL    HW136629   2.049   1.873   7.553 -1.2499 -1.9776 -1.5742
 8390SOL    HW236630   2.042   1.887   7.697  0.3713  1.0488 -1.4171
 8391SOL     OW36631   4.488   2.180  13.116 -0.0665  0.8368 -0.3565
 8391SOL    HW136632   4.577   2.169  13.151 -0.7798 -0.3327  1.0924
 8391SOL    HW236633   4.503   2.168  13.022 -0.5644 -0.1579 -0.3204
 8392SOL     OW36634   0.358   4.602   6.919  0.0736 -0.3529 -1.1471
 8392SOL    HW136635   0.292   4.670   6.932 -0.5847 -0.6778 -2.6695
 8392SOL    HW236636   0.309   4.527   6.884 -1.2521  0.5690 -1.2803
 8393SOL     OW36637   1.100   0.562   6.856  0.1452  0.4269 -0.1196
 8393SOL    HW136638   1.172   0.616   6.824  1.1621 -0.5667  0.5335
 8393SOL    HW236639   1.082   0.619   6.931 -1.8815  0.4593 -0.6125
 8394SOL     OW36640   3.084   3.482   2.836  0.0503  0.2802 -0.5963
 8394SOL    HW136641   2.998   3.486   2.793 -0.4172  0.5016  0.3646
 8394SOL    HW236642   3.085   3.575   2.858 -1.6556 -0.2693  1.8463
 8395SOL     OW36643   2.062   2.573   4.705  0.0729 -0.5166  0.2685
 8395SOL    HW136644   2.151   2.591   4.675 -0.0367  0.9841  0.8469
 8395SOL    HW236645   2.057   2.580   4.800 -0.2386  1.4733  0.1032
 8396SOL     OW36646   2.944   2.842   3.195 -0.6718 -0.2313 -0.2331
 8396SOL    HW136647   2.945   2.780   3.122 -0.9452 -2.4282  1.6312
 8396SOL    HW236648   2.849   2.855   3.201 -0.9661 -1.9572 -1.2956
 8397SOL     OW36649   3.853   2.943   6.517 -0.3002 -0.3256 -0.2090
 8397SOL    HW136650   3.861   2.990   6.600 -2.3448 -2.4628  1.1628
 8397SOL    HW236651   3.821   2.856   6.538  2.0170 -1.7410 -2.4699
 8398SOL     OW36652   1.377   4.596   3.897 -0.2747 -0.3326  0.2652
 8398SOL    HW136653   1.431   4.552   3.963 -0.7225 -0.3396  0.6320
 8398SOL    HW236654   1.351   4.513   3.855 -0.0249  1.2651 -2.9989
 8399SOL     OW36655   0.524   1.231  10.376  0.8397 -0.1648  0.2803
 8399SOL    HW136656   0.567   1.295  10.320 -0.7301 -1.0286 -1.9055
 8399SOL    HW236657   0.458   1.187  10.323 -1.1219  2.3211  0.6829
 8400SOL     OW36658   3.291   1.997   5.925 -0.3232  0.1745  0.0823
 8400SOL    HW136659   3.382   2.026   5.933  0.5661 -3.0785  1.7130
 8400SOL    HW236660   3.267   1.987   6.017  2.9218  0.4410  0.9268
 8401SOL     OW36661   2.788   2.464  10.903 -0.0132 -0.6435  0.1638
 8401SOL    HW136662   2.831   2.387  10.942 -0.9992 -2.0091 -1.4334
 8401SOL    HW236663   2.695   2.457  10.924 -0.6396  1.3665 -2.0065
 8402SOL     OW36664   2.043   4.523   9.027  0.5489  0.4360 -0.0743
 8402SOL    HW136665   1.984   4.568   8.967 -1.1869 -0.2210  1.1230
 8402SOL    HW236666   1.999   4.536   9.112  3.1007 -1.0917  1.4941
 8403SOL     OW36667   4.278   1.399   8.491  0.0688  0.6731  0.7592
 8403SOL    HW136668   4.340   1.458   8.535  0.2980  0.1043  1.2076
 8403SOL    HW236669   4.218   1.467   8.461  2.8913  3.0255  0.4866
 8404SOL     OW36670   0.571   0.319   3.528  0.0948  0.2474  0.0989
 8404SOL    HW136671   0.609   0.234   3.550 -2.6744 -0.4569  2.2793
 8404SOL    HW236672   0.622   0.354   3.455 -1.5145  0.3629 -0.9700
 8405SOL     OW36673   2.101   0.348  15.366 -0.7882 -0.2567 -0.5392
 8405SOL    HW136674   2.193   0.334  15.387 -0.1608  2.2099 -1.6655
 8405SOL    HW236675   2.092   0.350  15.271 -1.9425  1.8915 -0.3921
 8406SOL     OW36676   3.619   1.853   4.393 -0.3088  0.2948 -0.6731
 8406SOL    HW136677   3.569   1.912   4.451 -2.1813 -2.4527  0.4916
 8406SOL    HW236678   3.660   1.914   4.331 -1.1401 -1.2780 -2.7646
 8407SOL     OW36679   1.662   2.322  17.322 -0.0149  0.2122  0.1518
 8407SOL    HW136680   1.623   2.402  17.287 -0.5696  0.8912  2.3614
 8407SOL    HW236681   1.750   2.346  17.352  0.1565 -1.7535  1.2047
 8408SOL     OW36682   1.573   0.965  11.702 -0.5486  0.3558 -0.2420
 8408SOL    HW136683   1.581   0.900  11.631  1.2540  0.9144 -0.5345
 8408SOL    HW236684   1.657   0.956  11.747  0.5597  0.4244 -2.2896
 8409SOL     OW36685   1.277   2.980   0.586 -0.2365 -0.3114 -0.2763
 8409SOL    HW136686   1.345   2.913   0.578 -0.8839 -0.8715 -1.0254
 8409SOL    HW236687   1.294   3.025   0.503  0.2243 -0.3484 -0.2069
 8410SOL     OW36688   1.964   2.631   5.469  0.9311 -0.3911 -0.2002
 8410SOL    HW136689   1.941   2.543   5.497  0.7041  0.2472  1.6287
 8410SOL    HW236690   2.021   2.660   5.541 -1.1453  0.8876  0.9442
 8411SOL     OW36691   2.309   1.654   5.177 -0.1702 -0.0449  0.4921
 8411SOL    HW136692   2.337   1.744   5.158 -0.1356 -0.2441 -0.4181
 8411SOL    HW236693   2.300   1.656   5.272  2.8668  0.9639  0.7700
 8412SOL     OW36694   1.326   3.445   8.684 -0.2051  0.3189 -0.4456
 8412SOL    HW136695   1.239   3.407   8.696  0.1874 -0.3651  0.2318
 8412SOL    HW236696   1.316   3.519   8.743 -0.7419  1.4604 -1.9553
 8413SOL     OW36697   2.907   1.904   3.608 -0.0998  0.6868  0.4868
 8413SOL    HW136698   2.917   1.978   3.668 -1.0753 -0.3566  1.9616
 8413SOL    HW236699   2.944   1.938   3.527  0.2130  1.1035  0.8026
 8414SOL     OW36700   2.629   1.077   0.660  0.2207 -1.0137 -0.7851
 8414SOL    HW136701   2.696   1.022   0.619  0.9879 -1.3066  0.8467
 8414SOL    HW236702   2.677   1.102   0.739  0.7166 -0.4786 -1.2566
 8415SOL     OW36703   1.734   0.322   2.630 -0.3527  0.4231 -0.2321
 8415SOL    HW136704   1.709   0.409   2.597 -0.0953 -0.0511 -1.6691
 8415SOL    HW236705   1.824   0.319   2.597 -0.5781  1.3717 -0.9423
 8416SOL     OW36706   3.954   4.036   9.873  0.2840 -0.2903 -0.2781
 8416SOL    HW136707   3.955   4.074   9.785 -0.3624 -0.9142 -0.5593
 8416SOL    HW236708   4.004   4.103   9.918 -3.8511  0.8898  2.5759
 8417SOL     OW36709   2.851   3.985   6.127  0.7030 -0.2575  0.3891
 8417SOL    HW136710   2.932   3.959   6.170  0.7334  1.2615  1.2495
 8417SOL    HW236711   2.824   3.911   6.073  0.2266  0.2469 -0.0641
 8418SOL     OW36712   2.530   4.172   3.929 -0.2192 -0.3679 -0.5594
 8418SOL    HW136713   2.490   4.230   3.864 -1.7308 -1.4666 -0.6086
 8418SOL    HW236714   2.526   4.086   3.887  0.5363 -0.7813  0.2213
 8419SOL     OW36715   2.729   2.912   6.242 -0.2526  0.4456 -0.1737
 8419SOL    HW136716   2.687   2.984   6.196  0.8483 -0.2826 -2.3008
 8419SOL    HW236717   2.739   2.855   6.165 -0.8291  0.3865 -0.2029
 8420SOL     OW36718   0.735   4.418  13.243  0.1008 -0.2947  0.0227
 8420SOL    HW136719   0.787   4.492  13.274 -2.7691  0.6316  2.6061
 8420SOL    HW236720   0.736   4.443  13.151 -0.9788  2.8205  0.8413
 8421SOL     OW36721   2.042   0.407  16.835 -0.7044  0.2640 -0.3877
 8421SOL    HW136722   2.126   0.367  16.812 -0.3704 -0.1501  1.5321
 8421SOL    HW236723   2.029   0.356  16.915  0.1488  1.1324  0.2953
 8422SOL     OW36724   1.198   4.088   4.705  0.8319 -0.5253  0.1022
 8422SOL    HW136725   1.196   3.992   4.708 -1.2362 -0.5243 -0.8417
 8422SOL    HW236726   1.275   4.096   4.762  1.5536  1.1060 -1.1294
 8423SOL     OW36727   4.470   0.917  10.954  0.2783 -0.0433  0.1883
 8423SOL    HW136728   4.376   0.915  10.973  0.0841  2.1825 -0.5593
 8423SOL    HW236729   4.512   0.948  11.034 -1.0570 -0.0977  0.9089
 8424SOL     OW36730   0.273   1.894   3.497  0.5128 -0.2171 -0.5623
 8424SOL    HW136731   0.181   1.906   3.519  0.6562 -0.3542  0.1124
 8424SOL    HW236732   0.320   1.882   3.580 -0.8681 -0.5617  0.1630
 8425SOL     OW36733   1.213   2.381   1.517  0.4830  0.3734 -0.4915
 8425SOL    HW136734   1.303   2.367   1.547  0.0380 -2.2277 -0.3097
 8425SOL    HW236735   1.162   2.301   1.535 -0.1807  0.9491  0.1891
 8426SOL     OW36736   3.088   1.711   9.836  0.2212  0.2576  0.3433
 8426SOL    HW136737   3.164   1.681   9.887  0.4061 -2.1181 -1.2966
 8426SOL    HW236738   3.066   1.794   9.878  1.7371  1.9920 -2.2606
 8427SOL     OW36739   3.315   1.970   5.559  0.6066  1.0339 -0.0555
 8427SOL    HW136740   3.287   1.897   5.614 -0.2561  0.8785 -0.7081
 8427SOL    HW236741   3.306   2.043   5.621 -0.2619  1.3839 -0.6087
 8428SOL     OW36742   1.574   4.294   7.814 -0.5315 -0.7319 -0.0598
 8428SOL    HW136743   1.601   4.204   7.830 -0.9647 -0.6223  1.3152
 8428SOL    HW236744   1.576   4.337   7.900  0.3616  0.4070 -0.6445
 8429SOL     OW36745   0.335   4.336   9.818 -0.1146 -0.0329 -0.2916
 8429SOL    HW136746   0.363   4.289   9.896 -1.2269  0.9555  0.7053
 8429SOL    HW236747   0.413   4.323   9.764  0.6634  0.0029  0.8268
 8430SOL     OW36748   0.099   2.523   3.119 -0.0440 -0.7469 -0.0620
 8430SOL    HW136749   0.194   2.523   3.121 -0.0234  0.7289 -0.5396
 8430SOL    HW236750   0.087   2.454   3.055 -1.3574 -1.4902  0.9812
 8431SOL     OW36751   4.339   2.834   4.890 -0.5591 -0.1007 -0.4970
 8431SOL    HW136752   4.372   2.751   4.856  1.3672  0.0149  1.0876
 8431SOL    HW236753   4.409   2.843   4.954 -1.2077 -0.1135  0.2072
 8432SOL     OW36754   2.014   1.508   0.430 -0.2290 -0.3715  0.1988
 8432SOL    HW136755   2.023   1.602   0.449 -1.3983 -0.3155  0.4686
 8432SOL    HW236756   2.003   1.484   0.522  0.1270 -0.5125  0.2034
 8433SOL     OW36757   0.218   0.345  14.955  0.3751 -0.5997  0.1121
 8433SOL    HW136758   0.213   0.345  15.051 -0.0734  0.4803  0.0786
 8433SOL    HW236759   0.130   0.307  14.949 -1.1954  2.9693  1.0240
 8434SOL     OW36760   0.756   4.407   3.051  0.1377 -0.0150 -1.1249
 8434SOL    HW136761   0.705   4.327   3.038 -0.3255  0.0236  0.4746
 8434SOL    HW236762   0.839   4.378   3.089 -0.8739 -0.6925  0.5957
 8435SOL     OW36763   1.046   0.191   8.654 -0.4942 -0.8271  0.0102
 8435SOL    HW136764   0.976   0.133   8.624  0.4710 -0.9532 -2.0306
 8435SOL    HW236765   0.999   0.272   8.672 -0.6769 -0.7087 -0.9959
 8436SOL     OW36766   0.432   0.988  17.667  0.1794  0.0866 -0.6011
 8436SOL    HW136767   0.473   0.984   0.052  0.4333  3.1003 -0.5663
 8436SOL    HW236768   0.339   0.970  17.681  0.1119  0.0099 -1.1719
 8437SOL     OW36769   4.494   4.375   6.565  0.5450 -0.8162  0.1776
 8437SOL    HW136770   4.452   4.298   6.603  0.6238 -1.8994 -1.9466
 8437SOL    HW236771   4.486   4.359   6.471 -2.3664 -2.6458  0.7270
 8438SOL     OW36772   1.789   1.304   7.134 -0.3518 -0.8288 -0.3077
 8438SOL    HW136773   1.799   1.398   7.117  1.5666 -0.5304  2.4765
 8438SOL    HW236774   1.704   1.300   7.178  0.3579  0.6829  1.1929
 8439SOL     OW36775   4.408   3.115  11.453  1.1756  0.5480 -0.2554
 8439SOL    HW136776   4.430   3.152  11.368 -0.1639 -0.3430 -0.9868
 8439SOL    HW236777   4.313   3.109  11.451  1.2016  0.0542 -0.0214
 8440SOL     OW36778   3.511   3.013   4.493 -0.3048 -0.0880 -0.1864
 8440SOL    HW136779   3.605   3.016   4.473 -0.3686  0.3133 -0.4229
 8440SOL    HW236780   3.489   3.103   4.467 -0.3250 -0.4467 -1.4107
 8441SOL     OW36781   4.110   0.078   1.027  0.1242 -0.0046 -0.5767
 8441SOL    HW136782   4.048   0.065   0.955  1.6695  0.5843 -2.0157
 8441SOL    HW236783   4.053   0.106   1.099 -0.0939  1.8746 -1.4736
 8442SOL     OW36784   1.559   0.005  10.802  0.4555  0.4942  0.3621
 8442SOL    HW136785   1.635   4.674  10.787  1.1637  1.1138  1.6794
 8442SOL    HW236786   1.588   0.094  10.780  0.9270  0.3471  0.3816
 8443SOL     OW36787   2.733   0.762   0.357 -0.4489  0.1535  0.5080
 8443SOL    HW136788   2.639   0.760   0.371 -0.6573 -0.3105 -1.0663
 8443SOL    HW236789   2.740   0.845   0.309  0.5917 -0.6094 -0.6358
 8444SOL     OW36790   1.189   4.720   6.920  0.7046  0.5618 -0.4213
 8444SOL    HW136791   1.098   4.722   6.951 -0.6107 -3.2238 -4.1126
 8444SOL    HW236792   1.219   4.676   6.999  0.8861 -1.4657 -1.6111
 8445SOL     OW36793   3.164   4.027   2.838 -0.1440 -0.2425  0.0183
 8445SOL    HW136794   3.243   4.078   2.818 -0.8945  0.6106 -0.8333
 8445SOL    HW236795   3.109   4.097   2.874 -0.3502 -0.2542 -0.2686
 8446SOL     OW36796   1.828   3.787   2.553  0.1573  0.3633 -0.3312
 8446SOL    HW136797   1.844   3.721   2.485 -0.0771  1.2868 -1.2826
 8446SOL    HW236798   1.732   3.786   2.545  0.1783 -0.8605 -0.3750
 8447SOL     OW36799   3.972   0.890  13.845 -0.8011 -0.0264 -0.2013
 8447SOL    HW136800   4.025   0.935  13.910 -1.6014  2.1254 -1.0419
 8447SOL    HW236801   3.902   0.956  13.844  0.7281  1.6079  1.3582
 8448SOL     OW36802   1.424   2.857   2.418  0.2237  0.4289 -0.4079
 8448SOL    HW136803   1.400   2.899   2.501  1.3010 -1.7604  1.0306
 8448SOL    HW236804   1.355   2.792   2.411  0.8161 -0.3444  0.7464
 8449SOL     OW36805   2.792   3.474  16.531 -0.1173 -0.9847  0.1753
 8449SOL    HW136806   2.854   3.539  16.498  0.2152 -1.6627 -0.5204
 8449SOL    HW236807   2.773   3.521  16.613 -1.2106  1.4194 -1.4795
 8450SOL     OW36808   3.096   4.483   2.575  0.9149 -0.1219  0.1876
 8450SOL    HW136809   3.044   4.540   2.519  1.2172  0.8451  0.8965
 8450SOL    HW236810   3.103   4.404   2.520  0.5718 -0.5136  0.7029
 8451SOL     OW36811   2.377   2.953   2.636  0.3433  0.6702 -0.1471
 8451SOL    HW136812   2.313   3.023   2.624  0.7110  1.3760  1.8955
 8451SOL    HW236813   2.446   2.989   2.580  1.2435 -0.3374  0.3099
 8452SOL     OW36814   3.682   0.689  16.309 -0.0711  0.2371  0.6489
 8452SOL    HW136815   3.606   0.714  16.257  0.1813 -2.1591 -0.8198
 8452SOL    HW236816   3.642   0.665  16.393 -2.2391  1.0677 -0.1460
 8453SOL     OW36817   0.568   1.652   8.798  0.5346 -0.3825  0.4759
 8453SOL    HW136818   0.635   1.679   8.735  0.6122  1.7541  1.4854
 8453SOL    HW236819   0.623   1.608   8.862 -1.6677 -1.2215  1.8161
 8454SOL     OW36820   0.917   3.473   4.141 -0.3446  0.0502  0.0804
 8454SOL    HW136821   0.940   3.562   4.166  0.8708 -0.6460  1.4200
 8454SOL    HW236822   0.921   3.433   4.228  0.6428  1.7614  0.8093
 8455SOL     OW36823   0.246   0.865   4.446  0.6475 -0.3225  0.5051
 8455SOL    HW136824   0.295   0.906   4.516 -0.0250 -0.1378  0.8731
 8455SOL    HW236825   0.274   0.926   4.377  2.4036 -0.8323  0.7825
 8456SOL     OW36826   0.489   2.115   0.063  0.0113 -0.6706  0.1793
 8456SOL    HW136827   0.454   2.044   0.116 -0.1121 -1.6473 -1.2041
 8456SOL    HW236828   0.467   2.190   0.118  0.4583 -0.4111  0.0073
 8457SOL     OW36829   1.692   2.469   5.051 -0.1871  0.2500 -0.1980
 8457SOL    HW136830   1.637   2.396   5.024  1.3064 -1.8987  2.6195
 8457SOL    HW236831   1.730   2.426   5.127 -2.4735 -0.8978  0.2638
 8458SOL     OW36832   4.653   3.860   9.657 -0.7556 -0.1880 -0.0921
 8458SOL    HW136833   4.592   3.883   9.587 -0.5412 -0.2862 -0.3117
 8458SOL    HW236834   4.634   3.768   9.674 -2.2098  0.2229  0.4824
 8459SOL     OW36835   4.376   2.879   8.723  0.1644  0.2876 -0.0775
 8459SOL    HW136836   4.395   2.791   8.691 -0.8818 -0.5173  1.4881
 8459SOL    HW236837   4.300   2.894   8.667 -0.4866  0.7976  0.9539
 8460SOL     OW36838   2.864   4.108   7.849  0.8957  0.0989 -0.5864
 8460SOL    HW136839   2.788   4.143   7.803 -0.2911 -1.7168 -0.0183
 8460SOL    HW236840   2.883   4.041   7.784  1.2135  0.5345 -0.9348
 8461SOL     OW36841   0.950   0.620   1.972 -0.1387  0.1069  0.0013
 8461SOL    HW136842   0.961   0.714   1.963  1.9614 -0.0020  1.6641
 8461SOL    HW236843   1.033   0.581   1.947 -0.8598 -1.2672 -0.2534
 8462SOL     OW36844   1.420   4.551   0.463  0.4688 -0.5356  0.0488
 8462SOL    HW136845   1.480   4.523   0.395 -0.3436 -0.1408 -0.8256
 8462SOL    HW236846   1.475   4.615   0.508  0.9476 -0.2519 -0.9412
 8463SOL     OW36847   4.176   2.754   3.212  0.1311 -1.0725 -0.9480
 8463SOL    HW136848   4.237   2.811   3.165 -0.3500 -0.6279 -1.0355
 8463SOL    HW236849   4.149   2.815   3.281  0.8776  0.0215 -1.6272
 8464SOL     OW36850   0.518   4.124   7.226 -0.5505  0.3427  0.0153
 8464SOL    HW136851   0.555   4.148   7.141 -0.9976  2.1108  0.3274
 8464SOL    HW236852   0.587   4.152   7.286 -0.3174  0.0750 -0.1242
 8465SOL     OW36853   2.832   1.939  12.981 -0.1518  0.0597  0.1433
 8465SOL    HW136854   2.800   1.918  13.068 -0.1478  2.2799  0.6623
 8465SOL    HW236855   2.769   2.007  12.959 -0.9082 -0.6056  0.2475
 8466SOL     OW36856   1.907   2.392  17.409 -0.1636  0.1635  0.2420
 8466SOL    HW136857   1.915   2.425  17.319 -0.0693  0.6307  0.4228
 8466SOL    HW236858   1.986   2.435  17.443 -0.1830  1.3127 -1.1859
 8467SOL     OW36859   0.784   0.057  11.681 -0.1076  0.4277 -0.3877
 8467SOL    HW136860   0.751   0.126  11.624  2.3568  0.7369 -1.4029
 8467SOL    HW236861   0.799   4.721  11.609  1.8921  1.0838 -0.5186
 8468SOL     OW36862   0.413   1.447   0.508  0.3776  0.1231  0.3699
 8468SOL    HW136863   0.491   1.486   0.469 -0.9506  2.3729 -0.0799
 8468SOL    HW236864   0.450   1.438   0.596  0.9769  0.6609  0.1748
 8469SOL     OW36865   2.191   4.689   3.434  0.0313 -0.4143  0.3994
 8469SOL    HW136866   2.266   4.716   3.379 -0.1382  0.7972  0.7513
 8469SOL    HW236867   2.140   0.045   3.438  0.0196 -0.3565 -0.7962
 8470SOL     OW36868   3.617   1.705  16.168  0.2666 -0.0346 -0.2850
 8470SOL    HW136869   3.712   1.709  16.183  0.3920  0.7348 -1.2338
 8470SOL    HW236870   3.594   1.798  16.178  0.5476 -0.0103  0.1364
 8471SOL     OW36871   4.709   2.311   2.123  0.4254  0.4686 -0.3289
 8471SOL    HW136872   0.049   2.362   2.074  0.0446  2.3611  1.1303
 8471SOL    HW236873   4.638   2.375   2.118  0.2980  0.4410  1.0034
 8472SOL     OW36874   4.452   0.637   2.378  0.6647 -0.4272  0.3464
 8472SOL    HW136875   4.462   0.728   2.407 -0.5846  0.1894 -1.1888
 8472SOL    HW236876   4.413   0.641   2.291 -0.6120 -2.8450  0.8048
 8473SOL     OW36877   1.881   4.539   7.886 -0.3582  0.0201 -0.1683
 8473SOL    HW136878   1.902   4.632   7.892 -1.1834  0.1615  0.6539
 8473SOL    HW236879   1.796   4.536   7.930  0.2307 -1.0984  0.8670
 8474SOL     OW36880   2.401   4.312   3.722 -0.6120  0.0745  0.2824
 8474SOL    HW136881   2.375   4.403   3.705 -1.4853  0.4755  3.6534
 8474SOL    HW236882   2.356   4.262   3.654 -0.0397  0.5461 -0.4418
 8475SOL     OW36883   2.446   2.398   4.329  0.2480 -0.0373  0.4134
 8475SOL    HW136884   2.500   2.381   4.406  1.9246 -1.8042 -1.1491
 8475SOL    HW236885   2.517   2.394   4.265  1.7879 -0.5303  2.1557
 8476SOL     OW36886   2.790   2.159   1.473 -0.0777 -0.1530  0.3986
 8476SOL    HW136887   2.873   2.185   1.512  0.4758 -0.5538 -0.5101
 8476SOL    HW236888   2.783   2.064   1.485 -0.0791 -0.1391  0.5094
 8477SOL     OW36889   1.737   0.129   8.163 -0.5398 -0.2128 -0.3481
 8477SOL    HW136890   1.733   0.208   8.216  1.9389  0.7205 -1.5075
 8477SOL    HW236891   1.681   0.153   8.089  0.5987  5.1406  0.5942
 8478SOL     OW36892   4.481   3.343   2.310  0.4221  0.2945 -0.1597
 8478SOL    HW136893   4.429   3.415   2.346  0.7060  0.6015 -0.3648
 8478SOL    HW236894   4.479   3.269   2.372  0.1600  1.0606  0.7495
 8479SOL     OW36895   4.478   3.034  12.477  0.2029  0.5111 -0.5325
 8479SOL    HW136896   4.518   2.949  12.491  0.4638  0.5973 -0.7554
 8479SOL    HW236897   4.512   3.086  12.550 -2.3392 -0.8620  1.6391
 8480SOL     OW36898   1.766   0.142   3.505 -0.3872  0.3113  0.1052
 8480SOL    HW136899   1.762   0.174   3.415  0.5307  0.5112  0.1311
 8480SOL    HW236900   1.720   0.206   3.559  0.3128  0.7381  0.1949
 8481SOL     OW36901   4.340   3.339   2.674 -0.0776  0.2777  0.5519
 8481SOL    HW136902   4.384   3.409   2.626  0.6554 -0.9060 -0.4872
 8481SOL    HW236903   4.250   3.372   2.670 -0.2306 -0.5340 -2.5221
 8482SOL     OW36904   1.263   1.941  16.778 -0.5823 -1.0044 -0.3534
 8482SOL    HW136905   1.328   1.884  16.737 -1.6031 -2.5507  0.1809
 8482SOL    HW236906   1.326   1.979  16.840 -1.3575 -1.6433  0.8089
 8483SOL     OW36907   2.411   3.588   2.566 -0.0620  0.5250  0.0073
 8483SOL    HW136908   2.378   3.616   2.652 -2.4228 -0.3798 -0.6059
 8483SOL    HW236909   2.343   3.611   2.504 -0.7298 -0.6914  0.2925
 8484SOL     OW36910   0.112   4.089   7.532 -0.3754 -0.4804  0.0177
 8484SOL    HW136911   0.159   4.134   7.462 -2.1163  1.8285  0.3276
 8484SOL    HW236912   0.105   4.002   7.494  1.6030 -0.2365 -0.8910
 8485SOL     OW36913   1.166   2.058   1.205 -0.6743  0.2611 -0.0585
 8485SOL    HW136914   1.153   2.122   1.275 -1.6536  0.6454 -0.6018
 8485SOL    HW236915   1.090   2.077   1.150  0.6865 -0.5271 -2.2459
 8486SOL     OW36916   0.806   4.519  15.937 -0.4466  0.0832  0.2049
 8486SOL    HW136917   0.859   4.591  15.903 -0.3843 -0.3805 -0.6827
 8486SOL    HW236918   0.803   4.475  15.852 -0.2555 -0.0612  0.2725
 8487SOL     OW36919   2.197   0.232   8.239 -0.5116 -0.2489  0.4111
 8487SOL    HW136920   2.171   0.139   8.240 -0.5684 -0.2435 -0.8296
 8487SOL    HW236921   2.194   0.253   8.332  0.5781  0.6820  0.2247
 8488SOL     OW36922   3.809   3.046   5.175  0.0906 -0.1710 -0.7600
 8488SOL    HW136923   3.731   3.003   5.212 -0.4067  0.3327 -1.2192
 8488SOL    HW236924   3.768   3.081   5.096 -0.4466 -0.5296 -0.6413
 8489SOL     OW36925   2.091   0.975   4.557  0.2097 -0.8987 -0.2315
 8489SOL    HW136926   2.074   1.068   4.539  0.0289 -1.1902 -1.5031
 8489SOL    HW236927   2.056   0.936   4.478 -0.5459  0.6578 -0.6817
 8490SOL     OW36928   0.990   0.213   9.666  0.9730 -0.2600 -0.3509
 8490SOL    HW136929   1.027   0.293   9.628 -0.7876  1.0777  0.7201
 8490SOL    HW236930   1.043   0.147   9.622  1.4616  1.3342 -2.1365
 8491SOL     OW36931   1.373   1.319  16.627  0.5105  0.3855 -0.0840
 8491SOL    HW136932   1.445   1.256  16.634 -1.4125 -1.5965  1.8446
 8491SOL    HW236933   1.388   1.347  16.536 -0.5245  2.9750  0.5320
 8492SOL     OW36934   2.961   2.536   9.236  0.1990  0.5055 -0.3341
 8492SOL    HW136935   2.900   2.463   9.222  0.8301  0.3021 -2.0453
 8492SOL    HW236936   3.038   2.491   9.202 -1.2315 -0.9681 -1.6196
 8493SOL     OW36937   0.533   3.542  15.797 -0.1612  0.0608 -0.6747
 8493SOL    HW136938   0.625   3.542  15.821 -0.7747  0.9927  1.6926
 8493SOL    HW236939   0.538   3.610  15.730  1.3598  0.8089  0.2048
 8494SOL     OW36940   1.325   3.321   2.108  0.0210  0.1015 -0.3118
 8494SOL    HW136941   1.360   3.233   2.125 -1.4780 -0.3402  0.4697
 8494SOL    HW236942   1.374   3.378   2.167  1.9236 -1.3603 -0.4785
 8495SOL     OW36943   4.592   4.660   6.335 -0.8470  0.2972  0.2897
 8495SOL    HW136944   4.503   4.625   6.335 -0.3775 -0.9199  2.0435
 8495SOL    HW236945   4.588   4.724   6.407 -2.0963  0.6265 -0.0592
 8496SOL     OW36946   2.722   0.758  13.016 -0.2657 -0.3985 -0.1228
 8496SOL    HW136947   2.789   0.756  13.084 -0.7411  0.7065  0.3786
 8496SOL    HW236948   2.715   0.850  12.993  0.2827 -0.3257 -0.0110
 8497SOL     OW36949   2.654   1.497   9.657  0.0698 -0.2515 -0.4343
 8497SOL    HW136950   2.725   1.550   9.694  0.0634 -1.1169  0.8153
 8497SOL    HW236951   2.611   1.460   9.734 -0.7908 -0.7817 -1.1730
 8498SOL     OW36952   0.291   3.837   0.694 -0.0399  0.3335  0.1741
 8498SOL    HW136953   0.329   3.822   0.608  0.1905 -3.3103  0.8777
 8498SOL    HW236954   0.261   3.927   0.683  1.4580  0.8869  0.6576
 8499SOL     OW36955   0.780   0.300   8.709 -0.0625  0.3335 -0.1976
 8499SOL    HW136956   0.796   0.395   8.707 -1.3009  0.5856  1.6427
 8499SOL    HW236957   0.763   0.292   8.803  1.1368 -2.4841 -0.2374
 8500SOL     OW36958   4.446   0.725   1.801  0.8724  0.4331 -0.1143
 8500SOL    HW136959   4.363   0.772   1.812 -0.5773 -2.0452 -0.2658
 8500SOL    HW236960   4.503   0.792   1.837 -0.1089  0.3920  1.5249
 8501SOL     OW36961   0.486   1.318  15.529  0.0327 -0.2846 -0.4575
 8501SOL    HW136962   0.544   1.393  15.526  0.2787 -0.4694 -0.3533
 8501SOL    HW236963   0.450   1.334  15.616 -0.2870 -0.9608 -0.4661
 8502SOL     OW36964   4.604   3.008   5.993  0.4182  0.3271  0.1079
 8502SOL    HW136965   4.636   3.027   5.905 -0.7656  1.0000 -0.1731
 8502SOL    HW236966   4.570   2.918   5.987  0.5156  0.0869  2.9892
 8503SOL     OW36967   0.688   1.612   3.856 -0.0388  0.0652  0.0680
 8503SOL    HW136968   0.765   1.556   3.842  0.4857  1.4893 -2.8420
 8503SOL    HW236969   0.667   1.606   3.949 -1.6030 -2.5148 -0.4462
 8504SOL     OW36970   2.610   4.217   1.903  0.4400 -0.5212 -0.5985
 8504SOL    HW136971   2.578   4.216   1.813  0.1701 -1.1769 -0.4894
 8504SOL    HW236972   2.544   4.279   1.935  1.1179 -0.5347  0.7919
 8505SOL     OW36973   3.193   1.653   1.961 -0.5183  0.5260 -0.5311
 8505SOL    HW136974   3.175   1.607   1.878 -0.9212  1.5500 -1.0157
 8505SOL    HW236975   3.187   1.743   1.929  2.2314  1.5262  1.8444
 8506SOL     OW36976   3.358   1.704   4.591  0.1059 -0.3304  0.3853
 8506SOL    HW136977   3.318   1.753   4.662  1.3812  2.9834 -1.2153
 8506SOL    HW236978   3.318   1.757   4.522  0.5024 -1.3182 -0.6051
 8507SOL     OW36979   3.959   0.498   5.551  0.7723  0.2878  0.1601
 8507SOL    HW136980   4.034   0.475   5.497  0.5633  0.9250 -0.3983
 8507SOL    HW236981   3.937   0.407   5.570  0.1253  0.1325 -1.2950
 8508SOL     OW36982   1.805   2.515   3.697 -0.0579 -0.3403  0.0233
 8508SOL    HW136983   1.756   2.571   3.636 -0.4696 -0.4027  0.2996
 8508SOL    HW236984   1.838   2.441   3.646 -2.5476  0.3637 -2.5731
 8509SOL     OW36985   2.124   3.580   6.252 -0.0658  0.3136  0.3675
 8509SOL    HW136986   2.218   3.597   6.257  0.2057 -1.6182  1.5261
 8509SOL    HW236987   2.102   3.656   6.197  0.8832  0.3360  0.0207
 8510SOL     OW36988   4.153   2.969   4.616 -0.6459  0.0110 -0.3778
 8510SOL    HW136989   4.078   2.963   4.675  1.1860 -2.6777  1.6398
 8510SOL    HW236990   4.144   2.880   4.582  1.5570  0.2053 -1.4412
 8511SOL     OW36991   2.609   2.730   4.949  0.7557 -0.2449 -0.3631
 8511SOL    HW136992   2.680   2.730   4.884 -0.7777 -1.7885 -2.0281
 8511SOL    HW236993   2.629   2.648   4.995 -1.1808  0.0997  1.0798
 8512SOL     OW36994   3.578   0.968   1.936  0.5549 -0.1762 -0.7167
 8512SOL    HW136995   3.606   0.879   1.960 -0.0885 -0.2331 -0.1944
 8512SOL    HW236996   3.487   0.977   1.965  0.4653 -0.6975 -0.8357
 8513SOL     OW36997   2.101   4.408   3.371 -0.1204 -0.0385 -0.1239
 8513SOL    HW136998   2.120   4.501   3.381 -3.5785  0.7054 -0.5882
 8513SOL    HW236999   2.034   4.390   3.437 -0.4882  1.6185 -0.0389
 8514SOL     OW37000   0.954   2.377   4.265  0.3193  0.1095 -0.5965
 8514SOL    HW137001   0.935   2.367   4.172 -0.1550  0.8084 -0.5703
 8514SOL    HW237002   0.912   2.296   4.292  1.7751 -0.9139 -1.3815
 8515SOL     OW37003   2.885   1.813   6.270 -0.1666 -0.0096  0.2253
 8515SOL    HW137004   2.874   1.752   6.197 -2.3159  1.5369 -0.7446
 8515SOL    HW237005   2.807   1.810   6.325 -0.1631  1.2177  0.2984
 8516SOL     OW37006   2.609   1.483  14.649 -0.7135  0.3300 -0.0076
 8516SOL    HW137007   2.681   1.535  14.685  0.0806 -0.0437 -1.0873
 8516SOL    HW237008   2.649   1.426  14.585 -0.8579  0.4559 -0.2096
 8517SOL     OW37009   3.585   4.319   3.332 -0.2381 -0.3329  0.4786
 8517SOL    HW137010   3.567   4.318   3.238  1.9105  0.8680  0.0501
 8517SOL    HW237011   3.570   4.411   3.354 -0.9459 -0.4916  0.6619
 8518SOL     OW37012   0.047   1.190   6.911 -0.3143 -0.0884  0.0164
 8518SOL    HW137013   4.685   1.166   6.880 -0.8738 -0.3126  1.8000
 8518SOL    HW237014   0.094   1.107   6.904  3.3718  2.0368 -0.9691
 8519SOL     OW37015   2.967   2.272   4.671  0.2566  0.2165 -0.2173
 8519SOL    HW137016   2.887   2.220   4.681  0.0324  0.6906  0.4405
 8519SOL    HW237017   2.956   2.328   4.747 -1.5713 -1.0521  0.4617
 8520SOL     OW37018   4.323   4.674  11.721 -0.3359  0.1253 -0.3099
 8520SOL    HW137019   4.296   0.017  11.783  0.8156  1.1568 -0.9373
 8520SOL    HW237020   4.244   4.624  11.702  0.1417 -0.7791  0.1045
 8521SOL     OW37021   0.513   3.100   1.863 -0.2497  0.5552 -0.9652
 8521SOL    HW137022   0.428   3.102   1.818 -1.1220 -1.1573  0.5928
 8521SOL    HW237023   0.480   3.152   1.937 -0.3591  2.3863 -2.3086
 8522SOL     OW37024   3.955   4.046   2.222  0.3756  1.1313  0.6481
 8522SOL    HW137025   3.944   4.127   2.173  1.2856 -0.2237 -1.7669
 8522SOL    HW237026   3.915   4.060   2.308  0.3055  0.4784  0.7222
 8523SOL     OW37027   3.326   0.603   5.665 -0.3202 -0.0160  0.5176
 8523SOL    HW137028   3.279   0.655   5.599 -0.3367  0.7015  1.0955
 8523SOL    HW237029   3.414   0.608   5.628 -0.7455 -0.0642 -0.5014
 8524SOL     OW37030   2.858   2.738  15.106 -0.7167  0.2978 -0.0422
 8524SOL    HW137031   2.853   2.828  15.075 -2.7441  0.1416 -0.1996
 8524SOL    HW237032   2.768   2.716  15.130 -0.9692 -0.6425 -1.8720
 8525SOL     OW37033   4.538   2.351   1.455  0.0649  0.2005  0.0548
 8525SOL    HW137034   4.496   2.299   1.525 -1.0969  0.4809 -0.4288
 8525SOL    HW237035   4.455   2.374   1.412  1.2778  1.2513 -1.6871
 8526SOL     OW37036   2.256   1.937   6.145  0.3151  0.0141  0.1113
 8526SOL    HW137037   2.170   1.978   6.143  0.6799  0.8397  1.2404
 8526SOL    HW237038   2.302   1.957   6.063  1.0639  1.9344  0.9825
 8527SOL     OW37039   1.853   0.430   7.413  0.2248 -0.0946 -0.0844
 8527SOL    HW137040   1.882   0.467   7.496 -0.8374 -2.6275  1.4049
 8527SOL    HW237041   1.845   0.508   7.357  0.3991 -0.7567 -1.0187
 8528SOL     OW37042   3.770   3.939   5.240  0.2059 -0.8590  0.0859
 8528SOL    HW137043   3.864   3.959   5.247  0.1222  0.4688 -2.6065
 8528SOL    HW237044   3.758   3.895   5.156 -0.0371  1.7188 -1.2359
 8529SOL     OW37045   1.019   2.088   0.979  1.1200  0.1019 -0.2100
 8529SOL    HW137046   1.098   2.083   0.927 -0.1105 -0.6269 -1.9994
 8529SOL    HW237047   0.965   2.022   0.934 -0.2961  2.9160 -2.6415
 8530SOL     OW37048   3.175   3.915   3.817 -0.4015 -0.2213  0.2189
 8530SOL    HW137049   3.184   3.825   3.786 -2.9278  0.2685 -2.0006
 8530SOL    HW237050   3.155   3.964   3.737 -1.7921  1.4931  1.6218
 8531SOL     OW37051   2.033   4.379   4.175 -0.2241  0.1158 -0.1454
 8531SOL    HW137052   2.081   4.297   4.171 -0.1066  0.1406  0.7393
 8531SOL    HW237053   1.969   4.369   4.246 -1.6708  2.7899 -1.0615
 8532SOL     OW37054   0.090   3.676   6.806 -0.2123  0.0633  0.5087
 8532SOL    HW137055   0.001   3.709   6.793  0.3114  0.8005 -1.1164
 8532SOL    HW237056   0.138   3.756   6.826  0.0275 -0.2458  1.1742
 8533SOL     OW37057   4.526   1.353   4.983  0.4079 -0.3466  0.2720
 8533SOL    HW137058   4.579   1.273   4.978  2.3973  1.0560 -0.9589
 8533SOL    HW237059   4.591   1.405   5.030  1.4963  0.4496 -2.1427
 8534SOL     OW37060   0.938   1.363   3.490  0.3625  0.3936  0.3437
 8534SOL    HW137061   0.914   1.277   3.455  0.4440 -1.0186  3.6969
 8534SOL    HW237062   0.855   1.410   3.495 -0.1641 -0.8281  3.1335
 8535SOL     OW37063   0.828   3.617   4.791 -0.2057  0.4793 -0.1918
 8535SOL    HW137064   0.774   3.592   4.867 -1.1305  0.3847 -0.8787
 8535SOL    HW237065   0.878   3.684   4.838 -2.2640  1.6598  0.3338
 8536SOL     OW37066   2.116   0.118   4.313  0.2058  0.2159  0.1550
 8536SOL    HW137067   2.185   0.117   4.379 -0.6719 -1.6733  1.0538
 8536SOL    HW237068   2.126   0.028   4.281 -1.9163  0.0567 -0.0278
 8537SOL     OW37069   4.648   3.809   1.638 -0.1759 -0.1164  0.8493
 8537SOL    HW137070   4.607   3.797   1.553 -2.7000  4.4976  1.4297
 8537SOL    HW237071   4.579   3.860   1.681 -0.9800 -1.4308  1.0863
 8538SOL     OW37072   4.615   1.461   3.525  0.2539  0.0746  0.2448
 8538SOL    HW137073   4.636   1.373   3.558 -0.5279  0.3086  1.3810
 8538SOL    HW237074   4.557   1.499   3.591  0.5525  1.4953 -0.3270
 8539SOL     OW37075   4.491   2.504   9.630  0.5493  0.4103  0.2680
 8539SOL    HW137076   4.491   2.488   9.725 -1.1938  0.0175  0.1965
 8539SOL    HW237077   4.398   2.527   9.630  0.1283 -1.2758  0.5901
 8540SOL     OW37078   0.246   3.047   8.236  0.4885  0.2852  0.9303
 8540SOL    HW137079   0.245   3.066   8.142 -3.0315  0.8464  1.0867
 8540SOL    HW237080   0.155   3.062   8.260  0.3526 -0.1158  0.6564
 8541SOL     OW37081   0.787   0.785  17.076  0.4487  0.3143  0.2703
 8541SOL    HW137082   0.700   0.766  17.041 -0.0163 -0.8357  2.0545
 8541SOL    HW237083   0.839   0.800  16.997  0.8531 -0.8792  0.3112
 8542SOL     OW37084   0.769   1.940  10.273 -0.2872 -0.4007  0.1563
 8542SOL    HW137085   0.777   1.914  10.365  0.9217 -0.8194 -0.0563
 8542SOL    HW237086   0.677   1.926  10.253 -0.2100  0.1990 -0.5994
 8543SOL     OW37087   4.638   1.982   6.152  0.2253 -0.3838  0.1603
 8543SOL    HW137088   4.616   1.946   6.238  0.8550 -0.9409  0.0837
 8543SOL    HW237089   4.561   1.954   6.101  0.5543 -1.4835  0.2591
 8544SOL     OW37090   3.742   3.314  13.322 -0.1778  0.3467 -0.2849
 8544SOL    HW137091   3.732   3.328  13.416 -0.1517  0.0384 -0.2359
 8544SOL    HW237092   3.836   3.332  13.321 -0.3429  1.2289  0.3148
 8545SOL     OW37093   2.253   1.804   0.510 -0.8018 -0.1361  0.3063
 8545SOL    HW137094   2.237   1.764   0.595  1.1624  0.2202  0.8381
 8545SOL    HW237095   2.270   1.733   0.448  1.0600 -0.8620  1.6539
 8546SOL     OW37096   3.694   2.008  16.175  0.3968 -0.1339  0.3311
 8546SOL    HW137097   3.779   2.048  16.195 -0.3562  2.0279 -0.8074
 8546SOL    HW237098   3.646   2.058  16.241  2.5650  1.1748  0.9330
 8547SOL     OW37099   4.108   2.436  13.626  0.2638 -0.9425 -0.6803
 8547SOL    HW137100   4.135   2.402  13.711  1.1195  1.1360 -0.1297
 8547SOL    HW237101   4.093   2.353  13.579 -1.2358 -1.1071  0.0739
 8548SOL     OW37102   3.670   2.201   6.204 -0.1402  0.2871  0.1036
 8548SOL    HW137103   3.710   2.214   6.118 -1.4031 -2.6982 -0.9229
 8548SOL    HW237104   3.709   2.114   6.216 -2.1184 -0.6749 -0.3762
 8549SOL     OW37105   3.442   1.772  10.223  0.6100 -0.5708  0.3365
 8549SOL    HW137106   3.416   1.733  10.139  2.1792 -0.6980 -0.0933
 8549SOL    HW237107   3.447   1.862  10.192  4.0302 -2.1078 -3.6436
 8550SOL     OW37108   0.222   2.161   2.741 -0.2179  0.3808 -0.0393
 8550SOL    HW137109   0.269   2.116   2.811 -0.6772 -1.6638 -1.0739
 8550SOL    HW237110   0.154   2.101   2.713  0.8471 -0.3413 -1.0813
 8551SOL     OW37111   3.704   4.039  10.126  0.0305 -0.0006 -0.2649
 8551SOL    HW137112   3.724   4.118  10.077 -2.4759  0.4927 -0.5117
 8551SOL    HW237113   3.782   4.037  10.181  0.6392 -2.3083 -1.2064
 8552SOL     OW37114   0.792   1.754   0.631 -0.1633 -0.1732  0.0378
 8552SOL    HW137115   0.712   1.706   0.609 -1.4053  0.7940  2.3952
 8552SOL    HW237116   0.843   1.680   0.663 -1.3969 -0.9705  0.1827
 8553SOL     OW37117   4.294   3.009   4.305  0.2463  0.0785 -0.6656
 8553SOL    HW137118   4.335   2.927   4.334 -1.3340  0.2926  2.1806
 8553SOL    HW237119   4.341   3.072   4.360 -0.7533 -0.8326  1.2312
 8554SOL     OW37120   3.272   1.438   5.795 -0.2629  0.2536  0.5078
 8554SOL    HW137121   3.318   1.468   5.717  1.2417 -0.8180  0.9950
 8554SOL    HW237122   3.251   1.348   5.767 -3.9441  1.3345 -0.2817
 8555SOL     OW37123   0.203   2.419   6.947 -0.5346 -0.0507  0.7111
 8555SOL    HW137124   0.194   2.360   6.872  2.2211  1.5389 -0.8562
 8555SOL    HW237125   0.246   2.357   7.005  1.7488  0.1409 -0.8093
 8556SOL     OW37126   3.777   3.382   5.315 -0.2953 -0.1573 -0.3697
 8556SOL    HW137127   3.819   3.330   5.383 -2.8485 -0.2148  1.1789
 8556SOL    HW237128   3.696   3.341   5.287 -0.2857  1.4401 -2.7651
 8557SOL     OW37129   3.317   2.166   2.092  0.3059 -0.1389  0.0530
 8557SOL    HW137130   3.367   2.207   2.162  1.0371  0.8944 -1.0682
 8557SOL    HW237131   3.278   2.245   2.053  2.5374  1.1527  0.4194
 8558SOL     OW37132   2.277   2.260   5.921  0.1378 -0.0086 -0.1257
 8558SOL    HW137133   2.258   2.180   5.872  1.5104 -0.3427 -0.1103
 8558SOL    HW237134   2.232   2.236   6.002  3.0706  1.1524  1.8379
 8559SOL     OW37135   0.984   4.407   0.963  0.1706  0.0749 -0.2413
 8559SOL    HW137136   1.017   4.494   0.982 -0.0768  0.1230 -0.0348
 8559SOL    HW237137   0.965   4.372   1.050  0.2137  0.4963 -0.0616
 8560SOL     OW37138   1.613   2.933   5.215 -0.6074 -0.0845 -0.3918
 8560SOL    HW137139   1.680   2.878   5.175  0.3377 -1.0198  2.4391
 8560SOL    HW237140   1.645   2.920   5.304 -0.2097 -1.1017 -0.6778
 8561SOL     OW37141   1.265   1.702   7.223 -0.0338  0.0616 -0.4786
 8561SOL    HW137142   1.331   1.646   7.264  0.4498  0.8581 -0.1697
 8561SOL    HW237143   1.293   1.692   7.132 -0.2756 -3.2214 -0.1707
 8562SOL     OW37144   1.083   1.481   2.853 -0.2296 -0.0463 -0.0760
 8562SOL    HW137145   1.002   1.433   2.839 -0.9437  1.1606 -0.0744
 8562SOL    HW237146   1.064   1.572   2.828 -0.5877  0.4317  1.9241
 8563SOL     OW37147   3.144   3.394   5.909  0.0145  1.1262 -0.0046
 8563SOL    HW137148   3.072   3.377   5.969 -0.6249  1.8918 -0.5521
 8563SOL    HW237149   3.143   3.489   5.895  0.1971  1.0573 -0.4904
 8564SOL     OW37150   0.623   4.083   1.619 -0.6363 -0.1134  0.0360
 8564SOL    HW137151   0.598   4.115   1.706  4.3734  4.3329 -0.2102
 8564SOL    HW237152   0.537   4.085   1.577 -0.3713 -1.7985 -0.6047
 8565SOL     OW37153   3.474   4.556  14.418  0.1950 -0.2653  0.3434
 8565SOL    HW137154   3.435   4.596  14.341 -0.6989 -0.9029  0.4603
 8565SOL    HW237155   3.541   4.501  14.377 -1.1811  0.3769 -2.7085
 8566SOL     OW37156   0.645   3.767  10.911 -0.0153  0.4646 -0.4661
 8566SOL    HW137157   0.666   3.717  10.991 -0.9504  1.3627  0.3369
 8566SOL    HW237158   0.611   3.688  10.868  0.9436  1.0814 -2.3353
 8567SOL     OW37159   1.259   4.697  11.340  0.2216 -0.0688 -0.0347
 8567SOL    HW137160   1.237   4.713  11.248 -1.7198 -1.4307  0.2097
 8567SOL    HW237161   1.173   4.690  11.380 -0.1762  1.5345 -0.6028
 8568SOL     OW37162   1.537   4.525   4.120  0.1266 -0.4195  0.4084
 8568SOL    HW137163   1.566   4.516   4.211  2.3503  0.6160 -0.1960
 8568SOL    HW237164   1.614   4.566   4.081 -0.3171  0.4265  0.4317
 8569SOL     OW37165   3.299   2.300   3.031  0.3979 -0.0780 -0.4738
 8569SOL    HW137166   3.378   2.249   3.012  0.5029 -0.7782  1.8060
 8569SOL    HW237167   3.334   2.389   3.023  0.9552 -0.1535  1.0232
 8570SOL     OW37168   1.237   0.597  13.336 -0.4032 -0.2601 -0.3574
 8570SOL    HW137169   1.235   0.693  13.337  0.0730 -0.2552  0.0285
 8570SOL    HW237170   1.168   0.585  13.270  2.3964 -0.3128 -3.2341
 8571SOL     OW37171   2.838   0.047  14.094 -0.2201  0.0923  0.0180
 8571SOL    HW137172   2.851   4.686  14.132 -0.3972  0.0323 -0.0608
 8571SOL    HW237173   2.923   0.050  14.050  0.3900 -0.7729  1.1366
 8572SOL     OW37174   3.251   0.889   4.988  0.4045 -0.5397 -0.0865
 8572SOL    HW137175   3.209   0.957   4.935  2.6397 -0.8791 -2.2740
 8572SOL    HW237176   3.256   0.819   4.923  2.3327 -2.4161  2.0780
 8573SOL     OW37177   2.824   1.995  12.035  0.1091 -0.5158 -0.2961
 8573SOL    HW137178   2.839   1.966  12.125  2.0987  1.6464  0.0804
 8573SOL    HW237179   2.729   1.992  12.027  0.1683 -1.4940 -0.5932
 8574SOL     OW37180   1.579   1.976   0.728 -0.1899  0.0179  0.5269
 8574SOL    HW137181   1.581   1.891   0.685 -1.0677  0.6664 -0.7790
 8574SOL    HW237182   1.550   1.949   0.815  1.2420  0.5523  1.1732
 8575SOL     OW37183   0.151   3.572   5.498  0.0450  0.1538 -0.4283
 8575SOL    HW137184   0.118   3.638   5.559  0.6723 -0.6065  0.7342
 8575SOL    HW237185   0.070   3.553   5.451  0.4124 -0.3390 -0.8578
 8576SOL     OW37186   2.237   1.985   5.794  0.5230  0.2716  0.8401
 8576SOL    HW137187   2.288   1.904   5.796 -1.7332 -1.1170  3.2565
 8576SOL    HW237188   2.257   2.025   5.710  2.8550  1.7276  2.1010
 8577SOL     OW37189   1.548   3.425   7.486  0.3403 -0.3992  0.7920
 8577SOL    HW137190   1.613   3.358   7.505  0.9303  0.1843  0.8155
 8577SOL    HW237191   1.551   3.435   7.391 -1.5770 -0.9888  0.6635
 8578SOL     OW37192   4.336   1.444  11.653 -0.3592  0.3697 -0.1797
 8578SOL    HW137193   4.289   1.364  11.628 -0.0383  0.4299 -0.9621
 8578SOL    HW237194   4.330   1.447  11.749  1.2452  0.4686 -0.0759
 8579SOL     OW37195   1.237   4.080  11.734  0.2311  0.8110 -0.1935
 8579SOL    HW137196   1.247   4.034  11.651 -0.2914  0.7080 -0.1977
 8579SOL    HW237197   1.242   4.171  11.704  0.2065  1.6260  2.2769
 8580SOL     OW37198   2.366   3.326   4.294 -0.3743 -0.0462 -0.0128
 8580SOL    HW137199   2.274   3.331   4.266 -1.3162  0.3764  3.1777
 8580SOL    HW237200   2.363   3.322   4.389 -1.2807  1.6548  0.0344
 8581SOL     OW37201   1.160   1.395   0.019 -0.3456 -0.4494  0.4544
 8581SOL    HW137202   1.155   1.300   0.012 -0.2181 -0.4199 -0.0721
 8581SOL    HW237203   1.071   1.421  17.695  0.0050 -1.0949 -1.3889
 8582SOL     OW37204   1.575   2.635   1.875 -0.6370  0.1280 -0.1497
 8582SOL    HW137205   1.576   2.610   1.968 -0.7271  1.4794  0.2173
 8582SOL    HW237206   1.512   2.577   1.833 -1.3794  1.1026 -0.3982
 8583SOL     OW37207   0.408   3.559  16.221 -1.0154  0.0069  0.1078
 8583SOL    HW137208   0.470   3.622  16.183  0.0383 -0.9090  0.2827
 8583SOL    HW237209   0.358   3.532  16.144 -0.5197 -0.0251 -0.2080
 8584SOL     OW37210   4.177   0.416   4.287  0.3389 -0.4453  0.6665
 8584SOL    HW137211   4.221   0.492   4.323  0.3798 -0.5823  0.9097
 8584SOL    HW237212   4.197   0.433   4.195 -0.1970  0.4766  0.7178
 8585SOL     OW37213   4.645   1.226   7.208  0.1156  0.0249 -0.2617
 8585SOL    HW137214   4.612   1.316   7.204 -1.1291 -0.4005  0.4267
 8585SOL    HW237215   4.663   1.224   7.114  0.9239 -0.2793 -0.1054
 8586SOL     OW37216   4.153   2.831   9.455  0.0017 -0.1517  0.3084
 8586SOL    HW137217   4.167   2.889   9.380  2.6071 -1.3189 -0.1330
 8586SOL    HW237218   4.162   2.892   9.528  1.9055  1.1812 -1.0388
 8587SOL     OW37219   0.101   3.950  14.675 -0.4871 -0.6674 -0.0732
 8587SOL    HW137220   0.144   4.031  14.701 -1.1947  0.0901 -1.2948
 8587SOL    HW237221   0.023   3.973  14.625  0.1098  0.7244 -0.3546
 8588SOL     OW37222   0.153   2.218  12.353  0.3250 -0.2278  0.4250
 8588SOL    HW137223   0.091   2.146  12.364  0.8449 -0.6991  0.2304
 8588SOL    HW237224   0.237   2.173  12.361  0.3015 -0.4671 -0.6907
 8589SOL     OW37225   1.757   4.168   5.240 -0.8129 -0.6840  0.1741
 8589SOL    HW137226   1.676   4.175   5.291 -0.9854  0.8437 -0.3093
 8589SOL    HW237227   1.733   4.100   5.178 -0.3681 -1.5042  0.9030
 8590SOL     OW37228   2.097   0.061   3.956  0.5820 -0.0594 -0.0729
 8590SOL    HW137229   2.125   4.705   3.998  0.0628 -0.3492 -0.2816
 8590SOL    HW237230   2.023   0.075   4.015  0.5911 -0.2933 -0.0055
 8591SOL     OW37231   2.870   2.869   4.288 -1.0484  0.0323 -0.1191
 8591SOL    HW137232   2.893   2.956   4.256  0.7621 -0.6217 -0.6334
 8591SOL    HW237233   2.950   2.847   4.336 -0.1089  0.2365 -1.5956
 8592SOL     OW37234   3.968   4.368  12.473  0.0247  0.0372  0.6635
 8592SOL    HW137235   3.992   4.276  12.470  0.1118  0.0312  1.6346
 8592SOL    HW237236   3.925   4.386  12.389  2.4628  2.1707 -0.1437
 8593SOL     OW37237   3.712   1.290  12.994 -0.1142 -0.1133  0.0034
 8593SOL    HW137238   3.702   1.348  13.069  3.4335 -2.8027  2.6043
 8593SOL    HW237239   3.625   1.252  12.980  0.2065 -1.1717  0.8408
 8594SOL     OW37240   4.102   3.603   7.644  0.2437 -0.4442 -0.1036
 8594SOL    HW137241   4.123   3.696   7.651  0.8336 -0.6715  1.0316
 8594SOL    HW237242   4.134   3.569   7.727 -0.8109  1.3694  1.0429
 8595SOL     OW37243   2.203   2.897   5.384 -0.1270 -0.3833  0.0933
 8595SOL    HW137244   2.186   2.965   5.319  2.5570  0.1416 -0.0708
 8595SOL    HW237245   2.168   2.950   5.455 -1.0527  0.3139 -0.8887
 8596SOL     OW37246   0.247   3.910   1.754  0.0168 -0.1502 -0.2217
 8596SOL    HW137247   0.244   3.817   1.731  1.4775  0.0365 -1.1972
 8596SOL    HW237248   0.210   3.961   1.682  0.0256 -0.8861 -0.7507
 8597SOL     OW37249   3.085   0.795   2.609  0.2423 -0.1279 -0.1317
 8597SOL    HW137250   3.101   0.855   2.537  2.4733 -0.6130 -0.0488
 8597SOL    HW237251   3.026   0.733   2.567 -1.4727  1.2732  0.1981
 8598SOL     OW37252   3.392   2.036   6.961  0.2875 -0.5166  0.0742
 8598SOL    HW137253   3.435   2.001   6.883  0.5964 -0.4926  0.2344
 8598SOL    HW237254   3.450   2.108   6.985 -2.2860  1.3734  0.5437
 8599SOL     OW37255   0.296   2.683   7.050  0.2441 -0.1344  0.4229
 8599SOL    HW137256   0.238   2.610   7.032 -0.0115  0.1467  0.0929
 8599SOL    HW237257   0.295   2.687   7.146  0.3860  1.7103  0.3615
 8600SOL     OW37258   3.950   0.954   2.080 -0.1511  0.3529 -0.1685
 8600SOL    HW137259   3.933   0.997   1.997  0.9775  0.5528 -0.2929
 8600SOL    HW237260   4.045   0.962   2.087 -0.0469  0.8210 -2.3513
 8601SOL     OW37261   1.070   4.109   4.292  0.0679 -0.5033 -0.0010
 8601SOL    HW137262   1.116   4.183   4.332  2.2285 -1.8826  0.0654
 8601SOL    HW237263   0.992   4.120   4.346  0.1278 -2.0896  0.4184
 8602SOL     OW37264   3.343   1.376   3.987 -0.5777  0.2489 -0.2543
 8602SOL    HW137265   3.253   1.405   3.976 -1.1054 -1.8685 -1.5909
 8602SOL    HW237266   3.355   1.392   4.081  0.7182  0.9673 -0.5468
 8603SOL     OW37267   3.632   2.747   0.978 -0.0815 -0.0540  0.2487
 8603SOL    HW137268   3.632   2.718   1.070 -0.5696 -1.6949 -0.2582
 8603SOL    HW237269   3.558   2.807   0.982 -0.3640 -0.5089  1.9197
 8604SOL     OW37270   4.172   3.439  11.739  0.1291  0.5222 -0.7423
 8604SOL    HW137271   4.197   3.476  11.824 -1.3829  0.4952 -0.2802
 8604SOL    HW237272   4.144   3.520  11.696  0.4245  0.6479 -0.6996
 8605SOL     OW37273   3.968   1.009   9.055 -0.0232 -0.4411 -0.1438
 8605SOL    HW137274   3.985   0.966   8.971 -0.3306 -1.1968  0.1819
 8605SOL    HW237275   4.059   0.993   9.080 -0.2800 -0.2161  0.9145
 8606SOL     OW37276   4.140   0.864   2.308 -0.2799  0.5087 -0.1271
 8606SOL    HW137277   4.218   0.910   2.341 -1.6684  0.6082  2.9870
 8606SOL    HW237278   4.181   0.800   2.250 -0.3269 -0.8514  1.3311
 8607SOL     OW37279   0.532   3.094   4.436  0.0886  0.7117 -0.2711
 8607SOL    HW137280   0.492   3.106   4.522  0.6346 -1.8741  0.3426
 8607SOL    HW237281   0.589   3.171   4.428  0.6377  0.4088  0.7588
 8608SOL     OW37282   2.090   4.135  11.316  0.5948 -0.0616  0.7406
 8608SOL    HW137283   2.039   4.157  11.394 -0.7285  1.5550 -0.6126
 8608SOL    HW237284   2.078   4.040  11.316  0.8369 -0.0964 -1.8764
 8609SOL     OW37285   0.485   4.385   2.604 -0.4877 -0.2497  0.0118
 8609SOL    HW137286   0.546   4.446   2.561 -0.4559  0.5884  1.2543
 8609SOL    HW237287   0.498   4.303   2.557 -1.1157  0.5026 -1.4919
 8610SOL     OW37288   0.480   3.903   7.968 -0.6877  0.3509 -0.2757
 8610SOL    HW137289   0.463   3.940   8.054  1.6107  0.3452  0.1644
 8610SOL    HW237290   0.572   3.926   7.955  0.1992 -2.2606  1.4548
 8611SOL     OW37291   0.286   0.550   8.684 -0.2354 -0.6735  0.7652
 8611SOL    HW137292   0.276   0.563   8.778 -2.1042  1.0720  0.3268
 8611SOL    HW237293   0.254   0.627   8.637  1.2115 -0.4587  0.1423
 8612SOL     OW37294   0.319   1.791   8.046 -0.1615 -0.0320  0.1901
 8612SOL    HW137295   0.260   1.850   8.094 -0.0620 -0.5545  0.9399
 8612SOL    HW237296   0.398   1.845   8.042  0.0793 -0.2576  2.0686
 8613SOL     OW37297   1.739   4.669   7.164  0.4875  0.8315  0.3196
 8613SOL    HW137298   1.718   4.631   7.250  0.0592  1.8140  0.6418
 8613SOL    HW237299   1.675   4.630   7.105  1.2927 -0.4071  0.2417
 8614SOL     OW37300   2.342   4.423   5.191 -0.3105 -0.3806 -0.7185
 8614SOL    HW137301   2.324   4.411   5.285 -0.3332  0.3852 -0.6243
 8614SOL    HW237302   2.383   4.509   5.195 -1.4935  0.2189 -1.8193
 8615SOL     OW37303   3.972   1.581   5.996  0.7345 -0.4809 -0.2443
 8615SOL    HW137304   4.043   1.526   6.028  0.9639  1.0293  1.8999
 8615SOL    HW237305   3.917   1.508   5.968 -1.2527  1.0042 -0.2351
 8616SOL     OW37306   2.900   1.093   9.372  0.0310 -0.1292 -0.4969
 8616SOL    HW137307   2.853   1.036   9.433 -0.5152  0.9597  0.1154
 8616SOL    HW237308   2.865   1.171   9.416 -0.1493 -0.7573  0.4568
 8617SOL     OW37309   1.893   2.378   2.057  0.2078  0.5862 -0.2195
 8617SOL    HW137310   1.897   2.294   2.102 -1.2408 -0.1524 -1.4572
 8617SOL    HW237311   1.966   2.367   1.995  0.9908  0.1243  0.7865
 8618SOL     OW37312   3.928   4.282   6.001 -0.0570 -0.0287 -0.7080
 8618SOL    HW137313   3.847   4.312   6.043  0.5712 -0.0649  0.5319
 8618SOL    HW237314   3.890   4.293   5.914  2.9494 -0.5458 -2.0720
 8619SOL     OW37315   2.258   4.545   5.822  0.4319 -0.0890 -0.5160
 8619SOL    HW137316   2.268   4.451   5.832 -0.6146 -0.2190 -0.7526
 8619SOL    HW237317   2.344   4.584   5.841  0.1027  0.4014 -0.0132
 8620SOL     OW37318   0.786   0.964   2.444 -0.0714 -0.0154 -0.1177
 8620SOL    HW137319   0.866   0.922   2.473  0.3626  2.5806  2.5438
 8620SOL    HW237320   0.806   1.041   2.390 -0.0411  0.0695  0.0148
 8621SOL     OW37321   1.572   3.176   3.251 -0.1571 -0.8088  0.3535
 8621SOL    HW137322   1.506   3.197   3.185 -1.3594 -0.3949  1.6646
 8621SOL    HW237323   1.571   3.080   3.249 -0.5921 -0.7817 -0.8603
 8622SOL     OW37324   4.007   1.757  15.889  0.1485  0.0608 -0.3113
 8622SOL    HW137325   4.043   1.738  15.803 -0.6956  2.7500 -1.2766
 8622SOL    HW237326   3.938   1.822  15.873  0.5050  0.3529 -0.6779
 8623SOL     OW37327   1.102   0.663  16.468  0.4183  0.2950 -0.0831
 8623SOL    HW137328   1.178   0.700  16.425 -0.1057 -0.9144 -2.0523
 8623SOL    HW237329   1.137   0.601  16.532  0.3428 -0.0506 -0.3773
 8624SOL     OW37330   1.954   2.674  10.361  0.3255  0.0201 -0.6077
 8624SOL    HW137331   2.008   2.656  10.284  1.7136  0.1466  0.3568
 8624SOL    HW237332   2.003   2.747  10.399  0.8294 -0.1496 -0.9362
 8625SOL     OW37333   4.068   0.267   5.834 -0.2480 -0.1799 -0.7393
 8625SOL    HW137334   4.050   0.332   5.902  2.2708  0.8283 -1.0339
 8625SOL    HW237335   4.137   0.312   5.785  0.4441  0.7446  1.0451
 8626SOL     OW37336   0.619   3.475   8.777  0.3508  0.5309  0.5527
 8626SOL    HW137337   0.705   3.470   8.736  0.3548 -1.8777  0.8659
 8626SOL    HW237338   0.632   3.401   8.837  0.2773  0.7338  0.8217
 8627SOL     OW37339   4.462   4.500   0.527  0.3742 -0.0428  0.2565
 8627SOL    HW137340   4.384   4.447   0.539 -0.5273  1.0238 -0.8646
 8627SOL    HW237341   4.417   4.583   0.540  0.0904 -0.2906  0.8319
 8628SOL     OW37342   1.761   0.164   9.380 -0.1717  0.2794 -0.1382
 8628SOL    HW137343   1.749   0.093   9.444  0.4005  1.7255  1.5707
 8628SOL    HW237344   1.670   0.186   9.359  0.3229  0.2920 -2.2630
 8629SOL     OW37345   2.030   0.456  17.673 -0.3026 -0.1461  0.4454
 8629SOL    HW137346   2.076   0.472   0.053  0.1395 -0.3911  0.2428
 8629SOL    HW237347   2.082   0.381  17.646  0.1197  0.4469 -0.3701
 8630SOL     OW37348   2.243   3.070   7.843  0.0601  0.0628 -0.0024
 8630SOL    HW137349   2.288   3.009   7.784  0.1757 -1.6425  1.8497
 8630SOL    HW237350   2.214   3.002   7.903 -1.0154  1.2525  0.8224
 8631SOL     OW37351   0.371   4.509   5.619 -0.8757 -0.9536  0.0511
 8631SOL    HW137352   0.329   4.434   5.577 -0.6146 -1.2258  0.2791
 8631SOL    HW237353   0.338   4.583   5.568  0.2310 -0.2619  0.3358
 8632SOL     OW37354   1.430   2.161   6.942 -0.1751 -0.9861 -0.2097
 8632SOL    HW137355   1.380   2.152   7.023  0.9076  0.4117  0.6128
 8632SOL    HW237356   1.496   2.092   6.943  0.6030 -0.2141  0.6959
 8633SOL     OW37357   1.768   3.349  16.891 -0.3530 -0.2033 -0.5109
 8633SOL    HW137358   1.775   3.288  16.965  0.4868 -1.0322 -1.2788
 8633SOL    HW237359   1.741   3.287  16.824  0.4162  0.1582 -1.1556
 8634SOL     OW37360   2.402   2.544   3.601  0.0155  0.5409  0.5244
 8634SOL    HW137361   2.324   2.599   3.606  0.1812  0.7874  0.4090
 8634SOL    HW237362   2.363   2.460   3.576  1.2268 -0.3832  1.7310
 8635SOL     OW37363   3.263   2.456  16.963  0.6173  0.1326 -0.0361
 8635SOL    HW137364   3.283   2.420  17.050 -1.2730  1.0460  0.7910
 8635SOL    HW237365   3.333   2.521  16.954  0.4524  0.0160 -2.0757
 8636SOL     OW37366   2.116   1.412   7.939 -0.6046  0.1769  0.2869
 8636SOL    HW137367   2.030   1.424   7.979 -1.1006  0.8872 -0.9893
 8636SOL    HW237368   2.089   1.348   7.873 -3.2503  0.7046  0.8513
 8637SOL     OW37369   0.761   1.919   8.318 -0.1741  0.2264  0.3512
 8637SOL    HW137370   0.814   1.972   8.259  0.0111 -1.5847 -1.0993
 8637SOL    HW237371   0.806   1.924   8.402 -0.4906 -0.2795  0.5489
 8638SOL     OW37372   2.919   1.950  12.278 -0.5343 -1.0451  0.5614
 8638SOL    HW137373   2.959   1.876  12.324 -0.5608 -0.9281  0.7772
 8638SOL    HW237374   2.980   2.023  12.284 -2.5870  0.8390 -1.3899
 8639SOL     OW37375   1.608   3.699   3.334 -0.0364 -0.0988 -0.2560
 8639SOL    HW137376   1.570   3.614   3.355 -2.0121  0.7913 -0.2147
 8639SOL    HW237377   1.666   3.678   3.261  0.7958 -2.5103  1.0899
 8640SOL     OW37378   3.147   4.116   9.767  0.7688 -0.2103  0.4135
 8640SOL    HW137379   3.236   4.152   9.768  0.2995  0.9247  0.9157
 8640SOL    HW237380   3.102   4.158   9.694  0.6627  1.2648  1.3394
 8641SOL     OW37381   3.973   1.152   7.825  0.4311  0.1739  0.7620
 8641SOL    HW137382   3.897   1.131   7.879  0.0912  1.7948  0.9334
 8641SOL    HW237383   3.982   1.245   7.848  0.4567  0.1076  1.0242
 8642SOL     OW37384   3.259   3.167   5.801 -0.6509  0.4741 -0.3115
 8642SOL    HW137385   3.191   3.160   5.734 -0.8559 -2.9347  0.2486
 8642SOL    HW237386   3.230   3.247   5.845 -0.2748 -0.8245  2.2879
 8643SOL     OW37387   3.581   4.220   2.270  0.0077  0.6098 -0.7310
 8643SOL    HW137388   3.518   4.240   2.201 -0.8116  2.3078  0.4968
 8643SOL    HW237389   3.652   4.206   2.207 -1.9480 -2.1245 -2.3516
 8644SOL     OW37390   3.872   0.488  14.863  0.0733  0.2781  0.4804
 8644SOL    HW137391   3.783   0.524  14.868  0.0103  0.7144 -3.6797
 8644SOL    HW237392   3.855   0.455  14.774  1.3927  0.1500  0.2842
 8645SOL     OW37393   1.557   0.237   0.752 -0.7076 -0.6381 -0.0212
 8645SOL    HW137394   1.643   0.266   0.782  0.0454 -2.1106 -0.7469
 8645SOL    HW237395   1.494   0.299   0.790  1.0066  0.6483  0.7607
 8646SOL     OW37396   1.641   3.231   5.112 -0.4943  0.7110 -0.4206
 8646SOL    HW137397   1.643   3.159   5.049  1.8152 -0.4401  0.9755
 8646SOL    HW237398   1.547   3.248   5.105 -0.4793  0.7665 -0.4876
 8647SOL     OW37399   1.334   1.011  15.883 -0.1940  0.0854  0.0247
 8647SOL    HW137400   1.335   1.081  15.819  0.5159  0.4624  0.4525
 8647SOL    HW237401   1.250   1.033  15.925 -0.5772 -2.1054  0.3997
 8648SOL     OW37402   2.464   3.270   6.691 -0.2485  0.5769  0.2439
 8648SOL    HW137403   2.517   3.271   6.771 -0.6023 -1.5674  0.5040
 8648SOL    HW237404   2.381   3.228   6.714 -0.9514  2.1972  0.7140
 8649SOL     OW37405   1.167   4.685  13.461  0.5578 -0.6804 -0.6438
 8649SOL    HW137406   1.239   0.012  13.425  0.5644 -0.2895 -0.0653
 8649SOL    HW237407   1.213   4.642  13.534 -0.1710  0.7749  0.6712
 8650SOL     OW37408   0.783   0.048   5.021  0.2631 -0.8528 -0.5049
 8650SOL    HW137409   0.767   4.686   4.985  0.3650  0.0136 -2.6094
 8650SOL    HW237410   0.692   0.067   5.045  0.9019  0.5787  0.7810
 8651SOL     OW37411   0.037   1.923  15.679  0.0473 -0.2006  0.1777
 8651SOL    HW137412   0.017   1.846  15.625 -0.4396  1.2616 -1.7278
 8651SOL    HW237413   0.111   1.883  15.725  0.1852  1.4390  1.3420
 8652SOL     OW37414   2.038   2.000   4.007  0.3725  0.0380  0.0965
 8652SOL    HW137415   2.001   2.088   4.006 -3.5519 -1.5914  4.4374
 8652SOL    HW237416   1.994   1.958   3.933  0.3328  0.2310  0.0091
 8653SOL     OW37417   1.323   3.102   0.815  0.6174  0.0914  0.4228
 8653SOL    HW137418   1.300   3.017   0.853  3.1618 -0.4214  0.7847
 8653SOL    HW237419   1.328   3.080   0.722  1.1622  4.0773 -0.5104
 8654SOL     OW37420   3.054   4.204  10.430 -0.0379 -0.0250 -0.0990
 8654SOL    HW137421   3.056   4.109  10.417 -2.2105  0.0083 -0.5876
 8654SOL    HW237422   3.096   4.210  10.516  0.1063 -1.1908 -0.0891
 8655SOL     OW37423   3.180   0.006   1.100 -0.1099  0.3374 -0.7165
 8655SOL    HW137424   3.163   4.645   1.062  2.1724 -0.1273 -0.6374
 8655SOL    HW237425   3.103   0.056   1.073 -0.2147  0.0032 -1.0491
 8656SOL     OW37426   3.081   1.242   4.226  0.1918 -0.3091  0.2395
 8656SOL    HW137427   3.125   1.327   4.231 -2.0290  0.8061  0.7067
 8656SOL    HW237428   2.990   1.273   4.225  0.2840 -0.0910 -1.4934
 8657SOL     OW37429   2.781   0.439   9.892 -0.0549  0.6503 -0.3636
 8657SOL    HW137430   2.697   0.443   9.846 -0.1964  0.2425 -0.1374
 8657SOL    HW237431   2.825   0.383   9.828  2.1342  0.2509  1.4827
 8658SOL     OW37432   3.629   3.105  14.528 -0.3330  0.1220  0.3834
 8658SOL    HW137433   3.711   3.140  14.563 -0.8161  0.2171  1.3912
 8658SOL    HW237434   3.652   3.013  14.536 -0.6976  0.0407  0.4779
 8659SOL     OW37435   2.944   1.972   5.508  0.0718  0.0059  0.3968
 8659SOL    HW137436   2.976   2.039   5.567  1.9468 -1.6472  1.2627
 8659SOL    HW237437   2.952   1.903   5.574 -0.2632 -1.5700 -1.2138
 8660SOL     OW37438   1.128   0.659  11.197 -0.1443  0.1537 -0.1173
 8660SOL    HW137439   1.086   0.721  11.257 -0.4595 -2.4358  2.3362
 8660SOL    HW237440   1.218   0.689  11.200  0.3704 -1.3563 -0.2266
 8661SOL     OW37441   1.574   1.509   0.884 -0.5729  0.3840 -0.0101
 8661SOL    HW137442   1.597   1.450   0.812 -0.8971  0.6716 -0.3472
 8661SOL    HW237443   1.649   1.567   0.894 -0.4292  0.0547  0.7952
 8662SOL     OW37444   3.233   2.336   4.315  0.1094 -0.1055  0.0285
 8662SOL    HW137445   3.329   2.330   4.324  0.0947  0.5820  0.6629
 8662SOL    HW237446   3.208   2.371   4.400 -2.0831 -0.8926 -0.3160
 8663SOL     OW37447   3.215   3.749   7.478  0.3143  0.0647 -0.2448
 8663SOL    HW137448   3.257   3.831   7.451 -1.1890  0.9552  0.1555
 8663SOL    HW237449   3.225   3.751   7.573  0.2024 -0.4183 -0.2253
 8664SOL     OW37450   1.741   3.542   8.671  0.3449 -0.1831  0.1876
 8664SOL    HW137451   1.749   3.447   8.680  3.0943  0.0675  0.5043
 8664SOL    HW237452   1.723   3.574   8.759 -0.3847  0.8142 -0.3202
 8665SOL     OW37453   4.677   1.036   1.376  0.5153 -0.1757 -0.0492
 8665SOL    HW137454   4.598   1.005   1.420  0.0685  0.5957 -0.3160
 8665SOL    HW237455   4.653   1.109   1.319  0.7981 -1.1841 -1.4455
 8666SOL     OW37456   0.242   0.481  13.912  0.1249 -0.4332  0.1639
 8666SOL    HW137457   0.284   0.533  13.843 -0.3941 -0.3024 -0.0539
 8666SOL    HW237458   0.149   0.494  13.897  1.0499  3.4708 -2.3948
 8667SOL     OW37459   0.494   0.397   6.642  0.0279  0.3269 -0.1074
 8667SOL    HW137460   0.495   0.366   6.551 -1.8521 -2.6479  0.8659
 8667SOL    HW237461   0.454   0.483   6.636  0.3614  0.5393  0.8123
 8668SOL     OW37462   2.608   2.022   0.244 -0.1429 -0.1787 -0.0126
 8668SOL    HW137463   2.520   1.988   0.228 -0.2957  0.6878 -1.0850
 8668SOL    HW237464   2.601   2.112   0.211  1.5036  0.6926  2.0164
 8669SOL     OW37465   0.718   0.151   3.676  0.0150  0.0598  0.2155
 8669SOL    HW137466   0.747   0.228   3.726 -1.5504  0.3348  0.6803
 8669SOL    HW237467   0.793   0.091   3.683 -1.4365 -1.8147 -0.4036
 8670SOL     OW37468   1.581   2.221  14.796  0.4044 -0.5181 -0.0799
 8670SOL    HW137469   1.508   2.220  14.858 -0.0111 -0.0601 -0.5625
 8670SOL    HW237470   1.546   2.170  14.723 -1.4154  0.0044  0.4182
 8671SOL     OW37471   1.816   4.189  15.781  0.5225  0.1039  0.1633
 8671SOL    HW137472   1.911   4.199  15.772  0.4947 -1.3303 -1.7978
 8671SOL    HW237473   1.798   4.210  15.872 -0.6992 -1.3506  0.2604
 8672SOL     OW37474   2.032   0.702   3.554 -0.6337 -0.0738 -0.2214
 8672SOL    HW137475   1.944   0.665   3.546 -0.1878 -1.8297  3.3349
 8672SOL    HW237476   2.086   0.643   3.501 -2.1874 -2.1120  0.4732
 8673SOL     OW37477   2.408   2.050   7.051  0.2039 -0.6188  0.4848
 8673SOL    HW137478   2.338   2.023   6.992 -0.5414  1.8044  0.2442
 8673SOL    HW237479   2.357   2.069   7.130 -1.1768  0.3061 -0.6352
 8674SOL     OW37480   2.060   0.115   3.050 -0.7487  0.0986  0.2762
 8674SOL    HW137481   1.975   0.073   3.036 -1.1146  0.6187  0.8923
 8674SOL    HW237482   2.020   0.200   3.070  1.0812  1.1580 -0.6013
 8675SOL     OW37483   3.067   4.247   9.551  0.1207 -0.0026 -0.2727
 8675SOL    HW137484   3.054   4.325   9.606  3.2690  0.4888 -0.1889
 8675SOL    HW237485   2.997   4.252   9.486  0.7710 -0.1420 -0.9771
 8676SOL     OW37486   0.906   4.161   8.493 -0.0647  0.1921  0.4297
 8676SOL    HW137487   0.919   4.081   8.442 -1.4853  0.2272  0.0344
 8676SOL    HW237488   0.995   4.197   8.489 -0.1598  0.5628  1.7616
 8677SOL     OW37489   4.443   1.752  10.579 -0.2517  0.1438  0.0547
 8677SOL    HW137490   4.373   1.708  10.529 -0.5804 -0.4437  1.0382
 8677SOL    HW237491   4.468   1.811  10.507 -1.8033  1.4179  0.5607
 8678SOL     OW37492   0.957   1.237   8.286 -0.3268  0.2933 -0.0679
 8678SOL    HW137493   0.977   1.240   8.379 -0.5194  0.2658 -0.0267
 8678SOL    HW237494   0.962   1.142   8.273 -0.7776  0.1709  0.6598
 8679SOL     OW37495   3.396   3.534   8.117 -0.8811  0.6990 -0.5283
 8679SOL    HW137496   3.473   3.531   8.174 -1.3863  3.7769  0.2966
 8679SOL    HW237497   3.341   3.460   8.143  0.5573 -0.0004  0.5239
 8680SOL     OW37498   3.683   2.711   5.954  0.0702  0.2024 -0.0776
 8680SOL    HW137499   3.749   2.779   5.937 -1.0957  1.1492 -0.7980
 8680SOL    HW237500   3.706   2.705   6.047  2.4947  2.5114 -0.5182
 8681SOL     OW37501   1.511   0.861  17.544  0.1905  0.3445 -0.3924
 8681SOL    HW137502   1.546   0.807  17.615 -1.4602  0.8427  0.7963
 8681SOL    HW237503   1.599   0.894  17.524  0.5033 -1.4650 -2.0216
 8682SOL     OW37504   0.090   3.508   8.546  0.5809 -0.4150  0.1366
 8682SOL    HW137505   0.024   3.457   8.594  1.5166 -0.4776  1.3379
 8682SOL    HW237506   0.068   3.592   8.585 -1.3823  0.0529 -1.9140
 8683SOL     OW37507   0.624   3.845  12.988  0.1628  0.6537 -0.1103
 8683SOL    HW137508   0.542   3.797  12.985  0.1179  0.6174  1.8137
 8683SOL    HW237509   0.596   3.934  12.965 -2.2117 -0.1511 -0.3465
 8684SOL     OW37510   2.713   4.604  14.409 -0.5355 -0.5163  0.0618
 8684SOL    HW137511   2.769   4.596  14.332 -0.2433 -1.0955  0.3331
 8684SOL    HW237512   2.781   4.637  14.467 -0.8548 -0.8895  0.6455
 8685SOL     OW37513   1.254   4.271   4.487  0.1664 -0.3744  0.5564
 8685SOL    HW137514   1.234   4.217   4.563  2.7907 -1.4435  0.4914
 8685SOL    HW237515   1.310   4.337   4.527 -2.1341  1.8148  0.1070
 8686SOL     OW37516   0.416   3.622   4.704  0.2670  0.1716 -0.6158
 8686SOL    HW137517   0.474   3.546   4.695  1.5698  1.3787 -2.3275
 8686SOL    HW237518   0.408   3.631   4.610 -0.1347  1.2602 -0.4737
 8687SOL     OW37519   0.831   0.657   6.366  0.0447 -0.6582 -0.3271
 8687SOL    HW137520   0.763   0.710   6.409 -0.0235 -0.8266 -0.2262
 8687SOL    HW237521   0.875   0.609   6.436  0.1227  1.1040  0.8411
 8688SOL     OW37522   3.625   4.078  13.739  0.0978 -0.1341 -0.6329
 8688SOL    HW137523   3.564   4.141  13.702 -0.2058 -0.8918 -1.4218
 8688SOL    HW237524   3.570   4.000  13.740  1.8406 -1.3616 -0.2371
 8689SOL     OW37525   3.535   0.874   8.769 -0.5543 -0.3388  0.0496
 8689SOL    HW137526   3.618   0.826   8.771 -0.7666 -0.7823 -1.4418
 8689SOL    HW237527   3.493   0.853   8.853 -0.3779 -0.7060  0.0447
 8690SOL     OW37528   0.100   2.471  14.282 -0.1241 -0.5518  0.2766
 8690SOL    HW137529   0.026   2.415  14.305 -0.3378  0.6354  2.4678
 8690SOL    HW237530   0.160   2.406  14.245 -0.1537  0.4889 -1.5690
 8691SOL     OW37531   2.616   0.305   9.224  0.2551 -0.5042 -0.0294
 8691SOL    HW137532   2.611   0.213   9.200  0.7426 -0.8566  1.2118
 8691SOL    HW237533   2.699   0.312   9.271  0.0137 -0.5900  0.4071
 8692SOL     OW37534   1.823   2.046  12.089  0.2574  0.0640  0.6047
 8692SOL    HW137535   1.867   1.993  12.156 -1.1132 -0.3023  1.2032
 8692SOL    HW237536   1.858   2.133  12.107  0.8747  0.4346 -2.3217
 8693SOL     OW37537   4.508   1.329   1.888 -0.6081 -0.5465  0.4160
 8693SOL    HW137538   4.434   1.377   1.924  0.4429  1.4150 -0.0700
 8693SOL    HW237539   4.501   1.250   1.942 -0.2149  0.2652  1.6567
 8694SOL     OW37540   4.328   1.823   3.359  0.0843 -0.5032 -0.1362
 8694SOL    HW137541   4.350   1.807   3.451  2.4746  0.0612 -0.6241
 8694SOL    HW237542   4.411   1.821   3.313 -1.0997 -1.3760 -2.2091
 8695SOL     OW37543   4.015   0.133  11.197 -0.4584 -0.2687  0.4366
 8695SOL    HW137544   4.072   0.209  11.183 -0.1035 -0.2974  1.7933
 8695SOL    HW237545   4.064   0.056  11.168 -1.1216 -1.0050  1.2881
 8696SOL     OW37546   1.980   2.153   5.967 -0.2675 -0.0984  0.0153
 8696SOL    HW137547   1.934   2.078   5.929  0.4352 -0.9416  0.8196
 8696SOL    HW237548   1.967   2.151   6.062  1.4535 -0.9464  0.2338
 8697SOL     OW37549   0.650   0.587   9.442  0.1709 -0.0724 -0.0017
 8697SOL    HW137550   0.567   0.540   9.456  0.4735 -0.7345 -0.3885
 8697SOL    HW237551   0.627   0.671   9.402 -1.4355 -0.3841  0.2685
 8698SOL     OW37552   2.691   2.463   1.216 -0.1552 -0.5653  0.4912
 8698SOL    HW137553   2.748   2.537   1.194 -0.8661  0.2827  1.5517
 8698SOL    HW237554   2.750   2.391   1.191 -0.0974 -0.3461  0.0023
 8699SOL     OW37555   2.947   4.356  10.018 -0.2116 -0.1328  0.6953
 8699SOL    HW137556   2.898   4.323   9.942 -1.3348  0.7196  1.0593
 8699SOL    HW237557   2.875   4.387  10.072 -1.1074 -0.2050 -0.4629
 8700SOL     OW37558   1.460   2.731   6.987 -0.2394 -0.1188  0.0588
 8700SOL    HW137559   1.498   2.753   7.072  0.9833 -0.7790 -0.3145
 8700SOL    HW237560   1.372   2.702   7.009  0.2441 -1.5699  0.0691
 8701SOL     OW37561   2.908   1.815   1.766  0.2285 -0.2049  0.2533
 8701SOL    HW137562   2.899   1.776   1.679  0.8067 -1.1531  0.6119
 8701SOL    HW237563   2.819   1.806   1.800  0.9330  0.6180  2.2804
 8702SOL     OW37564   1.668   1.183   6.788 -0.2140  0.4294  0.3067
 8702SOL    HW137565   1.627   1.137   6.862 -3.6725 -1.1170 -2.5705
 8702SOL    HW237566   1.692   1.100   6.746  0.6551  1.1581 -0.6313
 8703SOL     OW37567   1.609   0.458   8.817 -0.4470 -0.2754  0.4995
 8703SOL    HW137568   1.563   0.384   8.856 -1.4908 -0.1967 -0.6010
 8703SOL    HW237569   1.535   0.496   8.771  0.4741  0.3805 -0.4572
 8704SOL     OW37570   0.455   2.840   4.434  0.2677  0.5928 -0.5482
 8704SOL    HW137571   0.505   2.912   4.395  2.0794 -0.8838 -0.9366
 8704SOL    HW237572   0.370   2.884   4.440  0.6631  1.5475 -1.7995
 8705SOL     OW37573   4.246   2.372   9.833 -0.3543  0.2017  0.4126
 8705SOL    HW137574   4.190   2.441   9.867  1.8310  3.0878 -1.7788
 8705SOL    HW237575   4.276   2.310   9.899  0.7643 -0.1632 -0.4350
 8706SOL     OW37576   1.407   0.482   6.294  0.1670 -0.7248 -0.2783
 8706SOL    HW137577   1.326   0.502   6.342  0.7441 -0.4246  0.5813
 8706SOL    HW237578   1.443   0.570   6.297  1.1193 -1.1908  2.3150
 8707SOL     OW37579   1.325   3.728   6.461 -0.0721  0.2740  0.1613
 8707SOL    HW137580   1.324   3.653   6.401  1.8419 -0.0177  0.4733
 8707SOL    HW237581   1.232   3.734   6.482 -1.0687 -1.6968 -3.7465
 8708SOL     OW37582   0.169   1.465   3.411 -0.1399 -0.1812 -0.0370
 8708SOL    HW137583   0.124   1.442   3.330 -1.5610 -0.6374  0.8890
 8708SOL    HW237584   0.093   1.447   3.466  0.4446 -0.5094  0.6572
 8709SOL     OW37585   1.515   0.872   4.934 -0.5435  0.4276 -0.0926
 8709SOL    HW137586   1.426   0.907   4.933 -0.7339 -0.1639 -3.1909
 8709SOL    HW237587   1.521   0.837   4.845 -0.3121  2.4367 -0.8814
 8710SOL     OW37588   4.416   2.067   2.351 -0.2725  0.1452  0.1108
 8710SOL    HW137589   4.489   2.007   2.333  0.1508  0.6476  0.1332
 8710SOL    HW237590   4.448   2.129   2.417 -1.0172  1.0170 -0.3455
 8711SOL     OW37591   2.831   2.944   6.685  0.1036 -0.3450  0.6328
 8711SOL    HW137592   2.889   2.891   6.632  1.1992  0.1895  1.3042
 8711SOL    HW237593   2.747   2.906   6.659 -0.7902  1.0536  1.4718
 8712SOL     OW37594   3.843   3.596   8.193  0.0668  0.1666  0.5533
 8712SOL    HW137595   3.824   3.545   8.272  2.0500 -0.7115  0.4736
 8712SOL    HW237596   3.790   3.554   8.125 -0.5664 -2.3025  2.5541
 8713SOL     OW37597   3.087   0.084   9.201  0.6009  0.6795 -0.4851
 8713SOL    HW137598   3.070   0.003   9.153 -3.3729  1.7116 -0.8821
 8713SOL    HW237599   3.119   0.133   9.125  1.7884  0.5529 -0.0621
 8714SOL     OW37600   1.019   1.298   6.624 -0.7026  0.3427 -0.3476
 8714SOL    HW137601   1.007   1.358   6.697 -3.9610 -1.0183  0.2098
 8714SOL    HW237602   1.093   1.340   6.580  0.6487 -0.2488  1.3363
 8715SOL     OW37603   2.236   3.290   1.734  0.1064  0.4979  0.0249
 8715SOL    HW137604   2.193   3.270   1.651 -0.1526 -1.3200  0.6066
 8715SOL    HW237605   2.291   3.213   1.749  1.0937  1.2670  0.4058
 8716SOL     OW37606   1.620   3.674   3.942  0.1706  0.2600  0.3972
 8716SOL    HW137607   1.566   3.615   3.889 -1.2343  1.3248  0.6425
 8716SOL    HW237608   1.611   3.757   3.896 -0.6793 -0.0203  0.0635
 8717SOL     OW37609   2.458   0.783   3.438  0.1836  0.2884 -0.2238
 8717SOL    HW137610   2.545   0.743   3.439 -0.3260 -0.8027  0.2159
 8717SOL    HW237611   2.402   0.711   3.468  0.4719  0.0607 -0.2233
 8718SOL     OW37612   2.859   4.639   5.726  0.6319 -0.2043 -0.3479
 8718SOL    HW137613   2.858   4.718   5.672  2.0015  0.0313 -0.0198
 8718SOL    HW237614   2.950   4.645   5.755  0.3562 -2.3375  0.9771
 8719SOL     OW37615   2.554   1.063   5.255 -0.3660  0.1837  0.2457
 8719SOL    HW137616   2.561   0.987   5.198 -1.7267 -0.1240  0.4723
 8719SOL    HW237617   2.467   1.096   5.232 -0.8900  0.5022  2.5799
 8720SOL     OW37618   1.917   1.146  15.925  0.0126  0.1064  0.2604
 8720SOL    HW137619   1.957   1.205  15.861 -0.1853 -0.0778 -0.0288
 8720SOL    HW237620   1.989   1.148  15.988  1.1533  2.4123 -1.1228
 8721SOL     OW37621   3.998   3.547  10.522  0.3536  0.1516 -0.0192
 8721SOL    HW137622   4.049   3.542  10.603  0.8652  0.9205 -0.2887
 8721SOL    HW237623   4.058   3.517  10.454  0.7740  1.1552 -0.1060
 8722SOL     OW37624   1.119   1.844   5.825  0.1442 -0.0489 -0.2436
 8722SOL    HW137625   1.199   1.811   5.865 -1.5552 -2.6659  0.9826
 8722SOL    HW237626   1.054   1.795   5.874 -0.3372  0.1169 -0.7077
 8723SOL     OW37627   0.914   0.713   4.092 -0.2333 -0.2907 -0.3998
 8723SOL    HW137628   0.857   0.642   4.122 -0.5884 -0.0678 -0.5451
 8723SOL    HW237629   0.962   0.662   4.027 -3.0374 -1.8893 -1.2088
 8724SOL     OW37630   3.025   4.304   6.278  0.0743  0.2470  0.4186
 8724SOL    HW137631   3.097   4.360   6.309 -0.5539  1.3083 -0.0444
 8724SOL    HW237632   3.051   4.222   6.320  0.6053  0.0604 -0.2788
 8725SOL     OW37633   4.250   4.550  16.373 -0.3696  0.4957  0.2727
 8725SOL    HW137634   4.195   4.531  16.297 -1.3770  1.5190  0.7438
 8725SOL    HW237635   4.183   4.601  16.419 -1.7676 -0.3827 -0.8194
 8726SOL     OW37636   0.653   4.004   6.742 -0.2351  0.2183  0.2054
 8726SOL    HW137637   0.561   3.991   6.716 -0.0977 -0.6055  0.1332
 8726SOL    HW237638   0.699   4.038   6.665  1.3521  0.4464  1.2688
 8727SOL     OW37639   0.066   0.727   4.590  0.2942  0.0834  0.3505
 8727SOL    HW137640   0.120   0.794   4.548  0.7575 -0.8402 -0.5202
 8727SOL    HW237641   0.131   0.664   4.619 -1.0350 -1.3545  0.1986
 8728SOL     OW37642   1.937   3.723  15.005 -0.5027 -0.1131 -0.0694
 8728SOL    HW137643   1.849   3.757  14.988 -0.6118 -1.1647 -1.6397
 8728SOL    HW237644   1.928   3.635  14.966  0.6879 -0.3525  0.2028
 8729SOL     OW37645   0.895   1.879   5.609 -0.5961  0.2610  0.2299
 8729SOL    HW137646   0.942   1.910   5.532  0.5118  2.2310  1.6852
 8729SOL    HW237647   0.956   1.819   5.652  0.6109  0.0231 -1.8465
 8730SOL     OW37648   1.301   3.234   1.421 -0.0354  0.2912  0.1206
 8730SOL    HW137649   1.303   3.313   1.474  0.8099 -1.1767  2.2976
 8730SOL    HW237650   1.384   3.240   1.375  0.4860  1.3282  1.2086
 8731SOL     OW37651   4.424   3.240   9.608  0.1770 -0.0308 -0.1005
 8731SOL    HW137652   4.335   3.275   9.599 -0.5864 -1.5424  1.7644
 8731SOL    HW237653   4.455   3.276   9.691  1.0623 -1.6372  0.2546
 8732SOL     OW37654   2.367   2.734   6.131 -0.0603 -0.0812  0.1686
 8732SOL    HW137655   2.397   2.646   6.105 -1.4558 -0.0679 -1.4993
 8732SOL    HW237656   2.421   2.744   6.209 -0.6506  0.7698  0.4618
 8733SOL     OW37657   2.229   1.252  10.954  0.5327  0.1332  0.0236
 8733SOL    HW137658   2.293   1.200  11.002  0.5982 -0.1983 -0.4191
 8733SOL    HW237659   2.267   1.339  10.961  1.2835 -0.4187  2.7099
 8734SOL     OW37660   3.122   2.505   7.148 -0.2325  0.4119  0.7376
 8734SOL    HW137661   3.199   2.465   7.107 -2.1277 -2.7274  0.1694
 8734SOL    HW237662   3.159   2.511   7.236  0.2700 -1.7371  0.6896
 8735SOL     OW37663   0.866   3.862  14.343 -0.0871 -0.2299 -0.8436
 8735SOL    HW137664   0.843   3.778  14.304  1.2166 -0.8607 -0.2541
 8735SOL    HW237665   0.789   3.876  14.398  0.0647 -0.8437 -0.4685
 8736SOL     OW37666   0.757   3.608   5.794  0.6474 -0.1931 -0.4591
 8736SOL    HW137667   0.731   3.667   5.865  1.1598 -0.5787  0.0413
 8736SOL    HW237668   0.733   3.653   5.712  0.1020  1.2026  0.4625
 8737SOL     OW37669   0.448   2.401  15.142  0.2118  0.4991  0.1046
 8737SOL    HW137670   0.406   2.357  15.068  1.5529 -0.7088  0.0588
 8737SOL    HW237671   0.429   2.350  15.220  1.3435  2.5458  1.7472
 8738SOL     OW37672   3.181   3.716  17.570  0.6117 -0.3908 -0.4425
 8738SOL    HW137673   3.158   3.691  17.660 -1.7843  4.3313  0.2714
 8738SOL    HW237674   3.275   3.699  17.566  0.8101  0.4391  0.6960
 8739SOL     OW37675   3.074   0.074   8.027  0.2692 -0.0585 -0.2863
 8739SOL    HW137676   3.135   0.000   8.017 -0.7859 -1.1205  1.2212
 8739SOL    HW237677   3.134   0.149   8.021 -0.9929  0.8536 -1.5017
 8740SOL     OW37678   1.639   1.310   1.450  0.0469 -0.2241  0.1433
 8740SOL    HW137679   1.658   1.257   1.373 -0.4948  1.5598 -1.2202
 8740SOL    HW237680   1.711   1.370   1.468 -0.7020  0.6611  0.1998
 8741SOL     OW37681   4.079   2.919  16.083  0.0085  0.5035 -0.3732
 8741SOL    HW137682   4.103   2.857  16.014 -0.2182  0.6166 -0.5560
 8741SOL    HW237683   4.076   3.001  16.033  1.4025  1.1357  0.5967
 8742SOL     OW37684   0.784   1.124   7.184  0.1797 -0.6150 -0.7962
 8742SOL    HW137685   0.740   1.057   7.236  1.9893  0.1215  1.6652
 8742SOL    HW237686   0.723   1.132   7.111 -2.3050  1.6752  1.5332
 8743SOL     OW37687   4.670   0.504   0.784  0.0318 -0.0318  0.8113
 8743SOL    HW137688   4.635   0.433   0.838  0.8083 -0.3927  0.8334
 8743SOL    HW237689   4.659   0.477   0.693  0.6333 -2.0433  1.3199
 8744SOL     OW37690   0.314   4.246   4.673  0.4850 -0.2119  0.0879
 8744SOL    HW137691   0.289   4.169   4.724 -0.7718 -0.2252 -0.5428
 8744SOL    HW237692   0.409   4.240   4.662  0.1133 -0.6339 -2.8899
 8745SOL     OW37693   1.426   2.419   4.114 -0.4789  0.0878  0.2143
 8745SOL    HW137694   1.390   2.350   4.169 -2.1378  0.5912 -0.2575
 8745SOL    HW237695   1.482   2.373   4.050 -0.6428  1.1996 -0.7262
 8746SOL     OW37696   3.103   1.978  13.580  0.1068 -0.3096  0.3850
 8746SOL    HW137697   3.193   2.003  13.559 -0.2661  0.8834  0.2241
 8746SOL    HW237698   3.081   2.066  13.609  0.5023 -0.1321  0.1445
 8747SOL     OW37699   1.496   1.960  12.152 -0.5547 -0.1695  0.4447
 8747SOL    HW137700   1.442   2.038  12.164  0.3143  0.7929 -1.9676
 8747SOL    HW237701   1.563   2.005  12.101 -1.4681 -1.4988 -1.9049
 8748SOL     OW37702   0.738   2.148   9.584  0.3601 -0.9804 -0.3600
 8748SOL    HW137703   0.741   2.162   9.679  1.3528  0.9266 -0.6677
 8748SOL    HW237704   0.648   2.120   9.568  0.6691 -2.4539  0.4620
 8749SOL     OW37705   4.050   4.683   7.335  0.5631  0.2466 -0.2473
 8749SOL    HW137706   4.100   4.625   7.393 -1.1793  0.0371  1.0573
 8749SOL    HW237707   4.116   0.027   7.327 -0.5697  1.3283 -0.3185
 8750SOL     OW37708   4.347   3.932   6.145  0.1029 -0.9368 -0.3020
 8750SOL    HW137709   4.320   4.001   6.084 -0.7712 -1.4505 -0.4860
 8750SOL    HW237710   4.274   3.870   6.153 -0.8130  0.1975  0.2090
 8751SOL     OW37711   2.832   1.437   7.045 -1.1771  0.2611  0.1796
 8751SOL    HW137712   2.847   1.479   6.960 -0.0424  2.2299  1.3495
 8751SOL    HW237713   2.752   1.392   7.019 -0.4076 -0.3652 -1.1275
 8752SOL     OW37714   3.460   3.747   1.888 -0.0741 -0.0074 -0.1304
 8752SOL    HW137715   3.460   3.841   1.908 -0.9489  0.5356 -2.6755
 8752SOL    HW237716   3.437   3.757   1.796 -1.8952  1.5782  0.4916
 8753SOL     OW37717   2.087   1.936  15.636 -0.0925 -0.0715 -0.0817
 8753SOL    HW137718   2.045   1.990  15.570 -1.1967 -0.7554  0.0558
 8753SOL    HW237719   2.180   1.942  15.615 -0.2554 -2.4509 -1.4777
 8754SOL     OW37720   1.236   1.165   0.713 -0.3666  0.5499 -0.4341
 8754SOL    HW137721   1.140   1.169   0.711 -0.4034  0.1453  1.0587
 8754SOL    HW237722   1.257   1.257   0.726 -1.2067  0.9913 -2.1668
 8755SOL     OW37723   3.077   4.366   9.034  0.3644 -0.2964  0.2305
 8755SOL    HW137724   3.063   4.294   8.972  0.0058  1.1966 -1.4159
 8755SOL    HW237725   3.166   4.357   9.067 -0.1306 -0.4271  1.5195
 8756SOL     OW37726   1.538   2.712   3.305  0.1217 -0.9038 -0.2786
 8756SOL    HW137727   1.553   2.795   3.260 -0.4132  0.1228  1.4704
 8756SOL    HW237728   1.520   2.743   3.393 -1.8493  0.3468 -1.1336
 8757SOL     OW37729   2.474   4.689  17.685  0.1823 -0.5415 -0.5733
 8757SOL    HW137730   2.514   4.602  17.695 -0.0024 -0.4773  0.8321
 8757SOL    HW237731   2.383   4.658  17.685  0.3799 -1.0856 -1.8776
 8758SOL     OW37732   0.898   1.249  15.540 -0.0339 -0.1775 -0.1835
 8758SOL    HW137733   0.952   1.300  15.601 -2.3921  0.7663  1.0932
 8758SOL    HW237734   0.823   1.233  15.597  1.1957  1.5583  1.9105
 8759SOL     OW37735   1.610   1.469   1.157  0.3015  0.0703 -0.0358
 8759SOL    HW137736   1.581   1.463   1.066 -2.1940  1.4394  0.6588
 8759SOL    HW237737   1.654   1.384   1.170  0.3418  0.1749  0.4951
 8760SOL     OW37738   2.767   4.164   8.270 -0.1969 -0.2889 -0.6666
 8760SOL    HW137739   2.718   4.137   8.193  0.4111 -1.1086 -0.7605
 8760SOL    HW237740   2.790   4.250   8.235  0.1745  0.2779  0.9484
 8761SOL     OW37741   1.021   1.559   9.834  0.0096  0.2756 -0.2753
 8761SOL    HW137742   1.105   1.597   9.806  0.0459  1.2378  1.1328
 8761SOL    HW237743   1.001   1.617   9.907 -0.9753  1.3930 -1.4475
 8762SOL     OW37744   2.470   4.436   1.999 -0.0951  0.3021  0.5361
 8762SOL    HW137745   2.377   4.436   2.023 -0.5046 -1.3753 -1.0837
 8762SOL    HW237746   2.500   4.515   2.043 -0.0788  0.9274 -0.6218
 8763SOL     OW37747   2.795   3.546   5.995  0.3699 -0.0849  0.0810
 8763SOL    HW137748   2.752   3.534   6.080  1.3541  0.8696  0.7230
 8763SOL    HW237749   2.828   3.457   5.983  1.6092  0.3473  0.3224
 8764SOL     OW37750   2.618   2.902   7.352 -0.6895  0.6280 -0.1735
 8764SOL    HW137751   2.679   2.846   7.400 -0.5122  0.8024 -0.1954
 8764SOL    HW237752   2.592   2.963   7.421  0.2199 -2.2852  2.7573
 8765SOL     OW37753   1.520   1.474   5.138  0.2672  0.4455 -0.2039
 8765SOL    HW137754   1.598   1.526   5.117 -0.7955  1.8590 -0.6220
 8765SOL    HW237755   1.478   1.478   5.052  0.7186  0.6768 -0.4135
 8766SOL     OW37756   1.283   4.653  10.748 -0.2321  0.4664  0.3257
 8766SOL    HW137757   1.371   4.670  10.781 -0.5814 -1.0856  2.0498
 8766SOL    HW237758   1.258   0.017  10.723 -0.8334  0.3308  0.4474
 8767SOL     OW37759   2.179   4.336   7.363  0.0886 -0.5207 -0.7726
 8767SOL    HW137760   2.272   4.346   7.344  0.1010 -1.3820 -1.1746
 8767SOL    HW237761   2.168   4.407   7.427 -0.4082  0.5559 -2.0674
 8768SOL     OW37762   0.907   2.536   6.051  0.6142  0.0351 -0.1809
 8768SOL    HW137763   0.958   2.520   6.130  1.0316 -0.8762 -0.6357
 8768SOL    HW237764   0.889   2.445   6.026  0.8330  0.0144 -0.2619
 8769SOL     OW37765   0.354   0.008   7.402 -0.3128 -0.0196  0.1136
 8769SOL    HW137766   0.284   0.019   7.338  1.3461  0.1545 -1.6776
 8769SOL    HW237767   0.300   0.026   7.478 -0.4652 -0.5373  0.1327
 8770SOL     OW37768   1.697   2.186   2.261 -0.2913 -0.8213  0.2589
 8770SOL    HW137769   1.733   2.269   2.293 -2.2350  0.5879 -1.1874
 8770SOL    HW237770   1.698   2.207   2.167  1.4883 -0.2397  0.4212
 8771SOL     OW37771   0.820   4.118  14.592  0.2700  0.0068 -0.5936
 8771SOL    HW137772   0.786   4.206  14.575  2.2930  0.8780 -0.1326
 8771SOL    HW237773   0.739   4.072  14.569  0.2823 -0.5511  0.5269
 8772SOL     OW37774   1.453   1.413   3.629  0.6350 -0.5204 -0.3996
 8772SOL    HW137775   1.358   1.405   3.624  0.6987 -2.2127  1.0063
 8772SOL    HW237776   1.477   1.330   3.587  0.2162 -0.2424 -1.1816
 8773SOL     OW37777   1.223   1.869   4.800 -0.1375  0.9265  0.2565
 8773SOL    HW137778   1.306   1.822   4.812  0.3268  1.2949 -1.4057
 8773SOL    HW237779   1.249   1.961   4.800  0.4866  0.7535  0.0484
 8774SOL     OW37780   1.332   4.074   6.866 -0.2618  0.0877  0.3790
 8774SOL    HW137781   1.418   4.036   6.887  0.0968  0.6966  0.0021
 8774SOL    HW237782   1.332   4.060   6.772  1.5728  2.9775 -0.0338
 8775SOL     OW37783   4.147   4.383   4.815  0.3158 -0.6119 -0.1248
 8775SOL    HW137784   4.114   4.350   4.731  0.7378  2.0773 -1.3363
 8775SOL    HW237785   4.120   4.313   4.875  0.2352 -0.7235 -0.2893
 8776SOL     OW37786   3.076   3.232   4.574 -0.1157  0.1272 -0.1934
 8776SOL    HW137787   3.159   3.219   4.529 -0.2578  1.8841 -0.9460
 8776SOL    HW237788   3.013   3.223   4.502  1.3465  1.2610 -1.6201
 8777SOL     OW37789   2.842   0.605   0.798 -0.5047  0.3217 -0.0942
 8777SOL    HW137790   2.905   0.545   0.757  1.0812  1.4368  0.7115
 8777SOL    HW237791   2.895   0.634   0.872 -0.0020  0.5105 -0.5275
 8778SOL     OW37792   0.749   1.804   2.878  0.4248  0.0939 -0.4845
 8778SOL    HW137793   0.679   1.738   2.886  0.4917  0.3873  2.6075
 8778SOL    HW237794   0.702   1.887   2.868 -0.2179  0.1636  2.8862
 8779SOL     OW37795   2.411   3.641   5.172  0.4455  0.2229 -0.0894
 8779SOL    HW137796   2.491   3.644   5.120  1.5708 -0.4775  1.6131
 8779SOL    HW237797   2.420   3.721   5.223  2.8101  1.9323 -3.1771
 8780SOL     OW37798   2.716   2.367   2.789  0.2545 -0.8580  0.6522
 8780SOL    HW137799   2.756   2.287   2.756  2.4445  0.6177 -0.2618
 8780SOL    HW237800   2.767   2.389   2.867  0.9143  2.4615 -0.7164
 8781SOL     OW37801   1.452   3.183   7.178  0.6577 -0.4555  0.0640
 8781SOL    HW137802   1.420   3.140   7.258 -3.1216 -0.0845 -1.2696
 8781SOL    HW237803   1.410   3.267   7.196  3.0123  0.7078  0.0694
 8782SOL     OW37804   2.781   0.506  15.278 -0.7308 -0.6112 -0.3143
 8782SOL    HW137805   2.862   0.457  15.265 -0.8919 -0.3513 -2.2519
 8782SOL    HW237806   2.766   0.541  15.190 -0.6918  0.4641  0.1067
 8783SOL     OW37807   2.229   3.038   8.241 -0.3720 -0.2456 -0.2210
 8783SOL    HW137808   2.219   2.962   8.299 -1.9819  2.4694  3.0459
 8783SOL    HW237809   2.227   2.993   8.157 -1.1692  0.2147 -0.4496
 8784SOL     OW37810   0.868   0.736   7.284  0.1663 -0.2372  0.8609
 8784SOL    HW137811   0.963   0.741   7.276 -0.2817  2.8669 -2.6404
 8784SOL    HW237812   0.860   0.670   7.353  0.6890 -0.9887  0.2023
 8785SOL     OW37813   3.576   1.616   2.898 -0.4556 -0.1412  0.7386
 8785SOL    HW137814   3.643   1.596   2.963 -0.4833 -1.4192  0.3692
 8785SOL    HW237815   3.600   1.703   2.868 -1.7085  0.4559  1.4735
 8786SOL     OW37816   0.351   4.362   6.098  0.1720 -0.9206  0.0557
 8786SOL    HW137817   0.313   4.450   6.105 -1.7439 -1.7500 -0.0271
 8786SOL    HW237818   0.411   4.369   6.024  1.0987 -2.1752  0.6869
 8787SOL     OW37819   3.275   2.186   9.166 -0.2150  0.1393 -0.9037
 8787SOL    HW137820   3.270   2.281   9.153 -0.4493  0.5772  2.2848
 8787SOL    HW237821   3.273   2.156   9.075  1.3771 -0.4237 -0.7524
 8788SOL     OW37822   4.717   3.854  14.032  0.2520 -0.2932  0.1008
 8788SOL    HW137823   4.658   3.888  13.964  0.6783  0.2619  0.0083
 8788SOL    HW237824   4.723   3.932  14.088  1.8111  0.4069 -1.0353
 8789SOL     OW37825   0.801   0.488  11.171 -0.4435  0.2875 -0.5810
 8789SOL    HW137826   0.800   0.574  11.128 -0.9149 -0.4826 -2.1257
 8789SOL    HW237827   0.894   0.468  11.173 -0.0948  1.9313 -0.5134
 8790SOL     OW37828   3.803   0.160   2.231  0.1634 -0.1872  0.2593
 8790SOL    HW137829   3.724   0.119   2.264  0.1590  0.2452  0.8012
 8790SOL    HW237830   3.838   0.198   2.312  0.2668 -0.4070  0.3154
 8791SOL     OW37831   4.709   2.291   3.939  0.5852  0.4221 -0.0147
 8791SOL    HW137832   0.038   2.220   3.973  0.5142 -1.3647 -3.6938
 8791SOL    HW237833   0.001   2.356   4.007 -0.3492  0.7360 -0.0844
 8792SOL     OW37834   3.189   3.126  10.310 -0.0098  0.0010  0.4230
 8792SOL    HW137835   3.207   3.204  10.361 -1.1271 -0.0849  0.9443
 8792SOL    HW237836   3.153   3.171  10.234  0.0296 -0.6443  0.0184
 8793SOL     OW37837   1.838   2.859   5.056 -0.0066 -0.3038 -0.1983
 8793SOL    HW137838   1.877   2.944   5.037  1.4051 -0.7131  0.8891
 8793SOL    HW237839   1.885   2.821   5.130 -0.9951 -0.1589  0.5086
 8794SOL     OW37840   0.592   0.013   8.029  0.3931 -0.2973  0.0996
 8794SOL    HW137841   0.676   4.697   8.048  0.7712  0.4387  0.0230
 8794SOL    HW237842   0.529   4.667   8.039 -1.0734  0.9786  0.0253
 8795SOL     OW37843   0.686   4.099   1.944  0.0539  0.3430 -0.3042
 8795SOL    HW137844   0.696   4.188   1.979 -2.8838  0.6653 -0.3004
 8795SOL    HW237845   0.592   4.087   1.931 -0.1259  1.7249 -0.2572
 8796SOL     OW37846   1.948   3.805  12.096 -0.0156 -0.0728  0.0154
 8796SOL    HW137847   1.942   3.730  12.155 -1.3496  1.3840  1.7690
 8796SOL    HW237848   1.902   3.874  12.144  1.2976  0.7495  0.0979
 8797SOL     OW37849   0.232   4.014   8.747 -0.5701  0.1180  0.5348
 8797SOL    HW137850   0.153   4.063   8.768 -0.5338 -0.3563  1.7908
 8797SOL    HW237851   0.271   4.017   8.835 -3.2921  5.1261  1.5714
 8798SOL     OW37852   2.351   3.356   5.638 -0.4144  0.1582 -0.1002
 8798SOL    HW137853   2.397   3.403   5.708  1.5291 -0.2749 -1.1019
 8798SOL    HW237854   2.281   3.419   5.621 -1.1322 -0.6548 -0.0951
 8799SOL     OW37855   3.112   2.170  15.053 -0.8902 -0.3531  0.7920
 8799SOL    HW137856   3.150   2.134  15.133 -1.0894 -1.6828  0.2725
 8799SOL    HW237857   3.023   2.181  15.088 -0.7669  0.2240  0.9261
 8800SOL     OW37858   0.302   0.803  15.112  0.0620 -0.3218  0.3843
 8800SOL    HW137859   0.292   0.719  15.067  1.0437 -0.8562  1.1610
 8800SOL    HW237860   0.393   0.795  15.140  0.3387  0.1040 -0.3820
 8801SOL     OW37861   3.702   4.548   9.586 -0.5633  0.1785  0.1706
 8801SOL    HW137862   3.796   4.531   9.582 -1.0573 -3.5204  3.5363
 8801SOL    HW237863   3.678   4.469   9.635 -0.9912 -0.3390 -0.8773
 8802SOL     OW37864   2.601   1.643   2.350 -0.5956  0.6868 -0.2370
 8802SOL    HW137865   2.591   1.676   2.440 -1.2304 -1.4737  0.4905
 8802SOL    HW237866   2.559   1.558   2.361  2.0573 -0.5233  0.6509
 8803SOL     OW37867   0.608   2.205   7.419 -0.3472 -0.0321  0.4588
 8803SOL    HW137868   0.659   2.165   7.348 -2.7658 -1.2804 -0.5504
 8803SOL    HW237869   0.673   2.205   7.490 -0.0256  0.4440  0.1703
 8804SOL     OW37870   1.793   0.508   6.823  0.1644 -0.1483 -0.1956
 8804SOL    HW137871   1.838   0.588   6.850  0.9730 -1.1725  1.4849
 8804SOL    HW237872   1.862   0.449   6.795 -0.1358 -0.3037 -0.6189
 8805SOL     OW37873   1.664   3.023   5.499 -0.1507 -0.2311  0.6549
 8805SOL    HW137874   1.744   3.074   5.483 -0.7103  0.2865 -0.4661
 8805SOL    HW237875   1.703   2.937   5.515  0.0217 -0.3477 -0.3717
 8806SOL     OW37876   3.359   0.427  17.579 -0.0129  0.6312 -0.6924
 8806SOL    HW137877   3.450   0.445  17.606 -0.1070 -1.3875  1.0134
 8806SOL    HW237878   3.313   0.410  17.661 -0.6683  0.1315 -1.1611
 8807SOL     OW37879   3.929   1.300   5.556 -0.0454 -0.7425 -0.0621
 8807SOL    HW137880   4.021   1.314   5.536 -0.8920  2.7957 -1.5740
 8807SOL    HW237881   3.897   1.267   5.472  1.0124  2.0098 -1.5443
 8808SOL     OW37882   0.981   2.671   0.084  0.3209  0.2748 -0.2883
 8808SOL    HW137883   0.998   2.594   0.140 -2.3692 -0.0277  0.0995
 8808SOL    HW237884   0.974   2.624   0.001  1.6413 -2.4223  1.1086
 8809SOL     OW37885   1.448   3.961   6.441 -0.1155  0.0448 -0.1940
 8809SOL    HW137886   1.430   3.867   6.448  0.8148 -0.0095  1.4178
 8809SOL    HW237887   1.361   3.998   6.455  0.3427  0.5795  1.1639
 8810SOL     OW37888   1.186   0.049   3.788  0.3457 -0.2371  0.0737
 8810SOL    HW137889   1.185   0.135   3.830 -2.8341 -0.7279  1.0257
 8810SOL    HW237890   1.249   4.724   3.838 -0.9499 -1.3474  0.5927
 8811SOL     OW37891   2.967   0.796   9.732  0.4998 -0.1515 -0.1413
 8811SOL    HW137892   3.019   0.764   9.659 -0.7178  2.7290 -2.2312
 8811SOL    HW237893   2.894   0.734   9.730  0.4828 -0.0736 -1.8618
 8812SOL     OW37894   2.462   0.433   8.467 -0.2423 -0.3571 -0.1624
 8812SOL    HW137895   2.406   0.357   8.483  0.9401 -1.4569 -1.2734
 8812SOL    HW237896   2.443   0.454   8.375 -0.0453 -0.2250 -0.1741
 8813SOL     OW37897   1.876   3.935   2.213 -0.2044  0.1298 -0.1278
 8813SOL    HW137898   1.822   3.881   2.271 -0.4287  0.4776 -0.0184
 8813SOL    HW237899   1.810   4.001   2.192 -0.2994  0.1571  0.2622
 8814SOL     OW37900   1.711   1.466   0.464 -0.2271  0.4422 -0.1281
 8814SOL    HW137901   1.661   1.392   0.429 -2.9224  0.8741  2.7458
 8814SOL    HW237902   1.733   1.425   0.548  2.0425  1.6621 -0.1177
 8815SOL     OW37903   2.713   1.214   4.645 -0.5648 -1.1158 -0.2005
 8815SOL    HW137904   2.625   1.215   4.607 -0.0121 -1.0784 -1.4897
 8815SOL    HW237905   2.756   1.282   4.593 -1.6536 -0.9499 -0.8916
 8816SOL     OW37906   2.625   1.605   8.738  0.0725  0.2783  0.1325
 8816SOL    HW137907   2.549   1.662   8.745  0.8496  1.2274  0.7168
 8816SOL    HW237908   2.653   1.619   8.828  1.2485  0.6652 -0.2956
 8817SOL     OW37909   3.085   1.700   2.390 -0.2314  0.3616 -0.2591
 8817SOL    HW137910   3.034   1.639   2.336 -0.8164  0.9911 -0.4234
 8817SOL    HW237911   3.049   1.787   2.374  3.1123  1.5353 -1.3895
 8818SOL     OW37912   3.375   4.021   6.525  0.6790 -0.2929  0.1818
 8818SOL    HW137913   3.407   3.933   6.541 -0.6394 -0.9242 -0.6349
 8818SOL    HW237914   3.391   4.026   6.430 -0.5282  1.6246  0.0787
 8819SOL     OW37915   2.150   0.075  13.574 -0.1050  0.7992 -0.5699
 8819SOL    HW137916   2.209   0.001  13.556  1.8279  1.9860  0.8831
 8819SOL    HW237917   2.097   0.043  13.647 -0.0971  0.3114 -0.7794
 8820SOL     OW37918   1.360   1.867   3.271 -0.0529 -0.2001  0.7783
 8820SOL    HW137919   1.365   1.954   3.310  1.0069 -0.2533  0.7807
 8820SOL    HW237920   1.424   1.812   3.317  0.6763  2.5074  3.0561
 8821SOL     OW37921   4.581   1.734   3.308  0.1949  0.1839 -0.4039
 8821SOL    HW137922   4.528   1.654   3.301 -0.9819  0.9257 -0.0612
 8821SOL    HW237923   4.647   1.692   3.363 -1.1836 -0.7234  0.5821
 8822SOL     OW37924   3.146   1.323  13.431 -0.2802 -0.0603 -0.4830
 8822SOL    HW137925   3.193   1.265  13.370  1.4090  2.4347 -1.5542
 8822SOL    HW237926   3.138   1.404  13.380 -2.9720  0.6760  1.1058
 8823SOL     OW37927   3.510   0.653   7.313  0.2083 -0.2678  0.0404
 8823SOL    HW137928   3.496   0.646   7.408 -1.2921 -0.9002 -0.2195
 8823SOL    HW237929   3.605   0.660   7.310  0.3018 -0.7016  1.7240
 8824SOL     OW37930   2.883   0.155   5.547  0.0227 -0.1452  0.4055
 8824SOL    HW137931   2.799   0.185   5.582 -1.1499 -0.5832 -2.0313
 8824SOL    HW237932   2.914   0.246   5.546  0.9758 -0.4677  1.2320
 8825SOL     OW37933   4.178   1.920   5.529 -0.1594 -0.3721  0.3029
 8825SOL    HW137934   4.259   1.918   5.477  0.2670  1.1426  0.9214
 8825SOL    HW237935   4.143   2.007   5.512  1.2760 -0.6348 -4.2051
 8826SOL     OW37936   3.352   0.750   3.125 -0.1066  0.1758 -0.3574
 8826SOL    HW137937   3.397   0.823   3.082  1.0153 -0.9937 -1.1656
 8826SOL    HW237938   3.272   0.737   3.075  0.2323 -2.1859 -0.2887
 8827SOL     OW37939   2.193   1.946   9.906 -0.0136  0.0098 -0.2991
 8827SOL    HW137940   2.191   1.963  10.001  2.2361 -0.7288 -0.1164
 8827SOL    HW237941   2.233   1.859   9.906 -0.7821 -0.3428  1.6546
 8828SOL     OW37942   1.040   3.039   0.963  0.1101  0.0548 -0.5251
 8828SOL    HW137943   0.989   3.072   0.889  0.0249 -0.8141 -0.8497
 8828SOL    HW237944   1.129   3.069   0.945 -0.3039  0.6806 -1.5215
 8829SOL     OW37945   1.163   4.404   9.045  0.4441  0.4768 -0.1260
 8829SOL    HW137946   1.102   4.344   9.004  1.2051  0.1109 -0.7240
 8829SOL    HW237947   1.220   4.342   9.091  3.1916  0.8583 -3.0470
 8830SOL     OW37948   4.411   2.578   3.066  0.0120  0.0982  0.7277
 8830SOL    HW137949   4.478   2.639   3.035 -0.2325 -0.1853 -0.3636
 8830SOL    HW237950   4.415   2.591   3.161 -1.1849  1.8139  0.5556
 8831SOL     OW37951   3.302   2.779  11.940 -0.3503 -0.4284  0.2970
 8831SOL    HW137952   3.339   2.792  11.852 -0.9054  2.5085  0.4856
 8831SOL    HW237953   3.365   2.722  11.983  0.1073 -0.8832 -0.9659
 8832SOL     OW37954   2.347   3.527   1.053  0.0053 -0.4404  0.2778
 8832SOL    HW137955   2.315   3.462   1.116  1.7754  0.2388  1.8742
 8832SOL    HW237956   2.320   3.482   0.973 -2.7327  1.9777 -0.1655
 8833SOL     OW37957   1.109   2.519   3.057  0.3596 -0.2487  0.1395
 8833SOL    HW137958   1.064   2.526   2.972 -2.7606  3.0868  2.0616
 8833SOL    HW237959   1.152   2.605   3.057 -0.3705  0.1265 -1.4235
 8834SOL     OW37960   0.485   3.620   3.014  0.1082  0.4674  0.3135
 8834SOL    HW137961   0.420   3.605   3.083 -2.1103  4.2569 -0.9420
 8834SOL    HW237962   0.542   3.686   3.054 -0.3501 -0.9002  3.2475
 8835SOL     OW37963   3.043   3.774   4.250 -0.0598 -0.6922 -0.2155
 8835SOL    HW137964   3.063   3.705   4.186 -0.0764  1.4812 -2.5531
 8835SOL    HW237965   3.000   3.839   4.195  0.3912  0.5832  0.9612
 8836SOL     OW37966   1.413   1.572   1.334 -0.0640 -0.2028  0.4450
 8836SOL    HW137967   1.343   1.596   1.273  0.6987  0.1683 -0.2813
 8836SOL    HW237968   1.489   1.563   1.277 -1.2719  3.1500 -1.6584
 8837SOL     OW37969   0.167   1.110   5.772 -0.2608  0.5137  0.3992
 8837SOL    HW137970   0.107   1.078   5.705 -1.0244  0.9598  0.8647
 8837SOL    HW237971   0.169   1.201   5.740  0.7237  0.2578 -0.2798
 8838SOL     OW37972   4.366   1.203   0.384  0.0273  0.2341  0.1046
 8838SOL    HW137973   4.346   1.174   0.295 -0.9837 -1.2592  0.8195
 8838SOL    HW237974   4.318   1.148   0.445  1.5802 -0.1451  1.0020
 8839SOL     OW37975   0.479   2.616   4.568  0.4466  0.3569 -0.3944
 8839SOL    HW137976   0.470   2.687   4.505  1.5656  0.4709 -0.4100
 8839SOL    HW237977   0.403   2.628   4.625  1.5097  4.2996  0.1388
 8840SOL     OW37978   2.569   3.451  14.638 -0.9908  0.3963 -0.1811
 8840SOL    HW137979   2.606   3.378  14.588  1.1525  1.2876  0.1078
 8840SOL    HW237980   2.628   3.524  14.620  1.1607 -1.1548  0.6661
 8841SOL     OW37981   3.786   0.032   6.331 -0.0908  0.0718  0.0345
 8841SOL    HW137982   3.781   0.116   6.286 -0.0707  0.2360  0.3399
 8841SOL    HW237983   3.737   0.063   6.408  1.0497 -0.0924  0.8146
 8842SOL     OW37984   4.042   2.148  14.025 -0.3081 -0.2708 -0.0274
 8842SOL    HW137985   4.062   2.086  13.955  0.7861  1.4840 -1.2497
 8842SOL    HW237986   3.996   2.089  14.084 -0.2844 -1.8601 -1.5977
 8843SOL     OW37987   1.671   1.742   1.271 -0.3955 -0.3091 -0.2237
 8843SOL    HW137988   1.689   1.653   1.239 -0.3526 -1.5865  3.3150
 8843SOL    HW237989   1.721   1.746   1.352 -0.3914  0.9983 -0.2876
 8844SOL     OW37990   3.587   4.247   5.231 -0.0628 -0.4510 -0.8957
 8844SOL    HW137991   3.587   4.177   5.166 -0.9888 -1.2377 -0.0515
 8844SOL    HW237992   3.543   4.319   5.185 -0.9148  0.4600  1.3377
 8845SOL     OW37993   1.102   3.490   9.195  0.0169  0.1335  0.8639
 8845SOL    HW137994   1.064   3.500   9.108  1.5732 -1.4193  0.0245
 8845SOL    HW237995   1.097   3.396   9.212  0.7168  0.0009  0.3213
 8846SOL     OW37996   1.203   3.685   6.773 -0.0323 -0.0760 -0.3583
 8846SOL    HW137997   1.226   3.690   6.866  2.5603  0.2339 -1.0176
 8846SOL    HW237998   1.115   3.723   6.776 -0.9557 -2.3302  1.5199
 8847SOL     OW37999   4.554   1.499   0.565  0.1152  0.3013 -0.4565
 8847SOL    HW138000   4.564   1.581   0.613 -0.2908  0.6527 -0.9781
 8847SOL    HW238001   4.493   1.523   0.495 -1.2603 -1.8436 -0.0101
 8848SOL     OW38002   3.858   4.390   6.868 -0.6170 -0.3492 -0.1277
 8848SOL    HW138003   3.782   4.350   6.826  0.3861 -0.5452 -1.7385
 8848SOL    HW238004   3.824   4.430   6.949  1.2121 -0.9493  0.9336
 8849SOL     OW38005   0.571   3.057   5.523 -0.3972 -0.2344  0.3179
 8849SOL    HW138006   0.667   3.050   5.526 -0.2548  1.5899 -0.0164
 8849SOL    HW238007   0.551   2.978   5.471 -0.3015 -0.9516  1.3739
 8850SOL     OW38008   3.528   1.479   3.793  0.0030 -0.7623  0.0070
 8850SOL    HW138009   3.445   1.435   3.810 -0.1910 -1.0032 -1.5234
 8850SOL    HW238010   3.520   1.555   3.851  3.4009 -0.4409  0.0353
 8851SOL     OW38011   3.300   1.753  13.267  0.5426 -0.3917 -0.2385
 8851SOL    HW138012   3.283   1.846  13.251  1.3259 -0.3876 -1.0916
 8851SOL    HW238013   3.378   1.766  13.322 -0.6766  1.1604  1.1192
 8852SOL     OW38014   0.950   0.036   7.032  0.2057 -0.5698  0.4845
 8852SOL    HW138015   0.985   0.117   7.069  2.5535 -2.2232  1.8805
 8852SOL    HW238016   0.869   0.020   7.081 -0.2169  3.4716  1.1344
 8853SOL     OW38017   2.708   0.043  13.803  0.0778 -0.2030 -0.1423
 8853SOL    HW138018   2.649   0.012  13.872 -0.2823  0.2741 -0.2393
 8853SOL    HW238019   2.776   0.083  13.858 -0.2654  1.0926 -0.6618
 8854SOL     OW38020   2.234   3.181   7.227 -0.0590  0.2439 -0.2046
 8854SOL    HW138021   2.282   3.182   7.144  1.6073  0.8552  0.7624
 8854SOL    HW238022   2.245   3.268   7.264 -1.7946 -0.9071  2.9807
 8855SOL     OW38023   3.477   0.822   5.451 -0.2236  0.4830  0.4540
 8855SOL    HW138024   3.428   0.798   5.373  0.1658 -1.2435  0.7373
 8855SOL    HW238025   3.543   0.752   5.449  2.9660  3.5603 -1.2955
 8856SOL     OW38026   0.713   0.312   8.297 -0.5664  0.2695  0.1464
 8856SOL    HW138027   0.684   0.233   8.344  1.8496  0.6673  2.2994
 8856SOL    HW238028   0.668   0.301   8.213 -0.8703  1.1496  0.1979
 8857SOL     OW38029   2.215   2.659   6.708  0.1251 -0.3800  0.4006
 8857SOL    HW138030   2.138   2.636   6.761 -0.0663 -1.7263 -0.4648
 8857SOL    HW238031   2.186   2.638   6.619 -3.0262  1.5658  0.9474
 8858SOL     OW38032   0.567   0.825   9.347 -0.5841 -0.3549  0.0964
 8858SOL    HW138033   0.647   0.873   9.322  0.2405 -1.4874  0.5901
 8858SOL    HW238034   0.501   0.894   9.343  0.8811  1.1010  0.7217
 8859SOL     OW38035   2.705   2.949   3.168 -0.5407 -0.2979  0.6484
 8859SOL    HW138036   2.695   2.991   3.253 -1.7684  0.5792  0.0883
 8859SOL    HW238037   2.617   2.977   3.140 -0.5784 -0.3646  0.6998
 8860SOL     OW38038   0.788   3.378   2.568  0.1256  0.2772 -0.0206
 8860SOL    HW138039   0.843   3.398   2.644 -1.1241 -0.8288  1.1775
 8860SOL    HW238040   0.772   3.285   2.585  0.6798  0.4423  1.3859
 8861SOL     OW38041   2.265   0.573   7.653 -0.3447  0.4737  0.4162
 8861SOL    HW138042   2.172   0.557   7.635 -0.2512  1.1659 -0.6989
 8861SOL    HW238043   2.305   0.521   7.583 -0.4692  0.7930  0.1061
 8862SOL     OW38044   1.762   4.662   8.335 -0.2902  0.5638 -0.6176
 8862SOL    HW138045   1.813   4.605   8.278  0.8740  0.1151  0.8852
 8862SOL    HW238046   1.751   0.013   8.278  1.1505  2.2562  1.3850
 8863SOL     OW38047   0.703   1.819   1.510 -0.2366 -0.3470  0.8218
 8863SOL    HW138048   0.650   1.868   1.573  1.0023  3.1109 -0.8107
 8863SOL    HW238049   0.734   1.742   1.557  1.3937 -1.1971 -1.5896
 8864SOL     OW38050   0.893   3.876   5.488 -0.1806  0.2417  0.3438
 8864SOL    HW138051   0.964   3.837   5.539  0.8136  0.0874 -1.1431
 8864SOL    HW238052   0.917   3.964   5.516  0.6534 -0.4573  1.8331
 8865SOL     OW38053   1.099   0.429  13.129  0.1121 -0.3316  0.0821
 8865SOL    HW138054   1.075   0.465  13.044 -2.4902 -1.4130  0.3495
 8865SOL    HW238055   1.142   0.347  13.104 -1.2930 -1.8739  2.6587
 8866SOL     OW38056   1.306   0.029   9.245  0.0939  0.6615  0.1887
 8866SOL    HW138057   1.276   0.017   9.336 -0.7873 -0.8982 -0.2969
 8866SOL    HW238058   1.251   0.105   9.225 -0.2196  0.2202 -0.6138
 8867SOL     OW38059   0.445   4.558   3.456 -0.2799  0.0312  0.1973
 8867SOL    HW138060   0.505   4.558   3.381 -0.1782  2.7507  0.2908
 8867SOL    HW238061   0.507   4.545   3.528 -1.0205  0.2815  0.8729
 8868SOL     OW38062   3.422   3.851   3.343 -0.4740 -0.0354  0.6130
 8868SOL    HW138063   3.437   3.929   3.396  1.9481  0.3213 -0.5952
 8868SOL    HW238064   3.368   3.886   3.272 -0.2430 -2.3091 -0.6821
 8869SOL     OW38065   0.159   3.328   6.101  0.3134 -0.0119 -0.8306
 8869SOL    HW138066   0.115   3.380   6.169  0.5491 -4.2002  2.5391
 8869SOL    HW238067   0.238   3.377   6.078 -0.7657  1.4258 -1.4205
 8870SOL     OW38068   0.393   2.101  12.279 -0.0880 -0.6534 -0.5757
 8870SOL    HW138069   0.360   2.071  12.194  0.6062 -0.3001 -0.9668
 8870SOL    HW238070   0.487   2.117  12.279 -0.6245  2.6453  1.0624
 8871SOL     OW38071   0.740   3.231   2.225 -0.0752  0.0941 -0.0139
 8871SOL    HW138072   0.719   3.138   2.219  2.1970 -0.4657  0.9955
 8871SOL    HW238073   0.757   3.246   2.318 -2.0421  0.8550  0.2237
 8872SOL     OW38074   3.262   1.587  10.035  0.2286  0.0836 -0.3275
 8872SOL    HW138075   3.251   1.499  10.069 -0.0347 -0.1969 -1.1493
 8872SOL    HW238076   3.303   1.569   9.951  0.7391  0.2659 -0.1193
 8873SOL     OW38077   2.194   4.703   9.677 -0.8148  0.0558  0.1881
 8873SOL    HW138078   2.169   0.020   9.594 -0.3215 -1.8953 -0.9450
 8873SOL    HW238079   2.268   4.646   9.660 -3.5032 -3.0673 -1.0061
 8874SOL     OW38080   0.809   4.289   6.122 -0.3457  0.1095  0.0279
 8874SOL    HW138081   0.831   4.320   6.210  2.3833  1.8271 -1.2320
 8874SOL    HW238082   0.759   4.210   6.144 -0.7525  0.0668 -1.0497
 8875SOL     OW38083   3.580   1.320  14.581  0.0328  0.3256 -0.1223
 8875SOL    HW138084   3.563   1.383  14.510  2.0456  2.4491  1.2633
 8875SOL    HW238085   3.561   1.245  14.525  0.4810 -0.5563  0.9111
 8876SOL     OW38086   0.890   1.643  10.296  0.2514  0.4586 -0.5467
 8876SOL    HW138087   0.859   1.730  10.271  0.0961  0.4279 -0.4578
 8876SOL    HW238088   0.895   1.648  10.391  0.5889  0.9642 -0.5901
 8877SOL     OW38089   3.408   1.892   1.711  0.0263  0.6703 -0.0578
 8877SOL    HW138090   3.375   1.856   1.629  2.0445 -1.0272 -0.1469
 8877SOL    HW238091   3.398   1.987   1.711  1.7101  0.8606 -0.3847
 8878SOL     OW38092   1.049   0.438   8.799 -0.4894 -0.7815  0.1133
 8878SOL    HW138093   0.964   0.478   8.778 -0.3493 -1.4142 -1.6081
 8878SOL    HW238094   1.098   0.509   8.758  1.2566 -1.8679  0.3224
 8879SOL     OW38095   0.204   4.090   0.655 -0.1752  0.0380 -0.1560
 8879SOL    HW138096   0.246   4.143   0.723  1.4909 -2.4159  0.7432
 8879SOL    HW238097   0.115   4.127   0.657 -0.0279  0.4016 -0.4291
 8880SOL     OW38098   4.722   0.335   7.378 -0.0033 -0.9035 -0.1279
 8880SOL    HW138099   4.671   0.410   7.347  0.4187 -0.3790  0.4502
 8880SOL    HW238100   0.064   0.383   7.426 -1.0713 -0.6540  1.1086
 8881SOL     OW38101   1.317   0.975  11.297 -0.1309  0.4237 -0.1491
 8881SOL    HW138102   1.371   0.899  11.274  1.7455  1.7978 -0.3300
 8881SOL    HW238103   1.315   0.982  11.392 -0.8372  0.7426 -0.1958
 8882SOL     OW38104   2.709   3.739   0.387 -1.2070  0.0979 -0.1530
 8882SOL    HW138105   2.748   3.797   0.321  0.0463 -0.9453 -0.3311
 8882SOL    HW238106   2.777   3.730   0.454 -1.9640  1.6970  0.8338
 8883SOL     OW38107   1.110   1.035  10.349  0.2681 -0.0053  0.1084
 8883SOL    HW138108   1.184   1.067  10.400 -0.2035  2.8185 -0.9525
 8883SOL    HW238109   1.150   0.958  10.308 -0.7392 -1.9671  2.8106
 8884SOL     OW38110   4.686   4.643   3.371  0.2038 -0.1249 -0.5107
 8884SOL    HW138111   0.041   4.676   3.412  0.5624  0.7352 -1.9111
 8884SOL    HW238112   0.009   4.602   3.299 -1.0037  2.1479 -2.5885
 8885SOL     OW38113   1.423   2.468   2.495 -0.3828 -0.2544 -0.1925
 8885SOL    HW138114   1.330   2.486   2.483 -0.4675  0.0817  0.9484
 8885SOL    HW238115   1.442   2.398   2.433 -3.0727 -0.8937 -0.3070
 8886SOL     OW38116   1.087   2.578   7.305  0.4953 -0.1860 -0.1179
 8886SOL    HW138117   1.040   2.496   7.321  0.9571  0.0980  2.6825
 8886SOL    HW238118   1.066   2.623   7.386  0.1404  0.2208 -0.4375
 8887SOL     OW38119   0.302   1.215   2.117  0.3487 -0.0039  0.1545
 8887SOL    HW138120   0.239   1.256   2.176 -1.1626 -0.1947 -1.3212
 8887SOL    HW238121   0.367   1.180   2.177 -2.0544 -2.2748  1.4508
 8888SOL     OW38122   0.728   3.908   8.054 -0.3761 -0.3131  0.1824
 8888SOL    HW138123   0.822   3.889   8.058 -0.0829  0.5078 -2.8120
 8888SOL    HW238124   0.683   3.864   8.126 -2.0337  0.2580 -0.5224
 8889SOL     OW38125   4.715   1.883   7.884  0.7228  0.1819 -0.2022
 8889SOL    HW138126   0.029   1.907   7.800  1.8371  0.9215  0.5419
 8889SOL    HW238127   0.052   1.927   7.941 -0.0362  0.5948  0.2953
 8890SOL     OW38128   0.615   2.743  10.311  0.5844 -0.0726 -1.0148
 8890SOL    HW138129   0.554   2.800  10.357  3.2271  3.2030 -1.5521
 8890SOL    HW238130   0.582   2.745  10.221  1.5094  0.2076 -1.3469
 8891SOL     OW38131   2.486   3.084   7.532 -0.2987  0.0774  0.0202
 8891SOL    HW138132   2.476   3.004   7.584 -1.1270  0.8173  1.0050
 8891SOL    HW238133   2.395   3.078   7.501 -0.6588  3.1750  0.5254
 8892SOL     OW38134   3.191   4.133  13.584 -0.1016  0.3484 -0.3746
 8892SOL    HW138135   3.281   4.165  13.587 -0.1260  0.3720  0.0335
 8892SOL    HW238136   3.143   4.170  13.510  0.7512  1.4197 -0.3901
 8893SOL     OW38137   0.244   1.381  12.718 -0.4165 -0.4585  0.3342
 8893SOL    HW138138   0.164   1.373  12.770 -0.5459  0.4762  0.2902
 8893SOL    HW238139   0.279   1.293  12.727 -0.3355 -0.5525 -1.0284
 8894SOL     OW38140   2.859   0.773   4.794 -0.0963 -0.0873  0.1896
 8894SOL    HW138141   2.875   0.837   4.725 -0.7243 -0.7558 -0.5876
 8894SOL    HW238142   2.785   0.816   4.836  1.8206  0.8915  2.5700
 8895SOL     OW38143   3.644   2.701   3.086  0.1868  0.6490  0.2608
 8895SOL    HW138144   3.700   2.779   3.089  2.8968 -1.4134  2.9277
 8895SOL    HW238145   3.640   2.679   2.993 -1.2079  0.4683  0.3545
 8896SOL     OW38146   4.208   0.536   5.040  0.1004 -0.0773 -0.0891
 8896SOL    HW138147   4.291   0.542   4.993 -0.5335  0.2826 -1.1572
 8896SOL    HW238148   4.220   0.604   5.106 -0.0637  0.0833 -0.2240
 8897SOL     OW38149   1.093   4.608   6.121  0.3911  0.3262 -0.5535
 8897SOL    HW138150   1.000   4.618   6.142  0.3476  0.6881 -0.9270
 8897SOL    HW238151   1.130   4.695   6.112 -2.2067  1.4678 -0.1960
 8898SOL     OW38152   1.531   4.172   5.390 -0.7685  0.5181 -0.1110
 8898SOL    HW138153   1.472   4.098   5.399 -0.7053  0.0921 -3.0871
 8898SOL    HW238154   1.544   4.201   5.480 -0.3614  0.8028 -0.2623
 8899SOL     OW38155   0.815   1.648   0.985  0.2877 -0.7618  0.1087
 8899SOL    HW138156   0.874   1.711   0.944 -1.2857  0.7502  0.1744
 8899SOL    HW238157   0.800   1.584   0.915  1.2001 -0.1349 -0.6514
 8900SOL     OW38158   1.550   2.220   1.019 -0.4538  0.4031  0.1134
 8900SOL    HW138159   1.563   2.126   1.012  2.2565  0.8211 -0.4432
 8900SOL    HW238160   1.614   2.238   1.088  0.4946  0.7226 -0.8555
 8901SOL     OW38161   2.817   4.639   8.292  0.2201 -0.6132 -0.4389
 8901SOL    HW138162   2.813   4.709   8.228  1.3499 -1.6513 -1.6288
 8901SOL    HW238163   2.726   4.609   8.279 -0.5140  0.8093  1.5137
 8902SOL     OW38164   3.121   2.896   8.271  0.0303  0.6387 -0.5928
 8902SOL    HW138165   3.090   2.821   8.221  2.5885 -0.9375  0.2040
 8902SOL    HW238166   3.037   2.924   8.306  0.1553  1.4549 -0.9407
 8903SOL     OW38167   0.829   0.535   7.487  0.5577  0.8678 -0.3128
 8903SOL    HW138168   0.894   0.465   7.478  0.6508  0.9237 -0.0952
 8903SOL    HW238169   0.750   0.484   7.471  0.8482  0.2232  0.2737
 8904SOL     OW38170   4.637   0.725   2.732  0.4928 -0.8839 -0.3908
 8904SOL    HW138171   4.610   0.707   2.822 -0.0386  1.3463 -0.1155
 8904SOL    HW238172   4.662   0.637   2.703  1.3949  0.0623 -2.4347
 8905SOL     OW38173   0.328   1.262   5.012 -0.2933  0.3493 -0.5383
 8905SOL    HW138174   0.289   1.238   4.928  0.2545  2.3290 -1.3461
 8905SOL    HW238175   0.413   1.219   5.009  0.0190  0.7241  2.2824
 8906SOL     OW38176   1.790   0.464  14.694  0.3808 -0.2671 -0.3636
 8906SOL    HW138177   1.746   0.534  14.646  1.3976  1.0291  0.6147
 8906SOL    HW238178   1.831   0.422  14.618  2.0978  1.6725 -0.4923
 8907SOL     OW38179   1.336   3.582  14.683 -0.2822 -0.1584  0.3948
 8907SOL    HW138180   1.365   3.610  14.596  0.7346  1.0491  1.1124
 8907SOL    HW238181   1.373   3.494  14.677  1.5917  0.8000 -2.0775
 8908SOL     OW38182   3.710   4.085  10.989  0.1252  0.0223 -0.3458
 8908SOL    HW138183   3.765   4.082  10.911  2.2900 -1.8472  1.2838
 8908SOL    HW238184   3.739   4.010  11.041 -1.3203 -0.7100 -0.5868
 8909SOL     OW38185   1.400   0.707  11.200  0.0005  0.5964 -0.1839
 8909SOL    HW138186   1.493   0.726  11.184  0.5317 -0.6369  1.3573
 8909SOL    HW238187   1.419   0.622  11.239 -1.5975  0.5695  0.5161
 8910SOL     OW38188   1.972   3.622   1.258 -0.1801  0.1580 -0.0177
 8910SOL    HW138189   1.998   3.641   1.168 -4.0537 -0.1184 -1.1576
 8910SOL    HW238190   1.927   3.704   1.277 -0.3730  0.0105  0.1497
 8911SOL     OW38191   0.061   4.353  10.794 -0.4631  0.2749  0.1048
 8911SOL    HW138192   0.146   4.308  10.789 -0.1748  0.9215 -0.8868
 8911SOL    HW238193   0.003   4.278  10.804  0.5910 -0.5700 -0.0686
 8912SOL     OW38194   2.504   1.400   9.035  0.3763  0.7361 -0.2825
 8912SOL    HW138195   2.483   1.489   9.009 -0.2601  1.0485  1.2674
 8912SOL    HW238196   2.594   1.417   9.063  0.3404 -2.4529  1.8896
 8913SOL     OW38197   3.713   3.330  10.033 -0.1601  0.0798 -0.7549
 8913SOL    HW138198   3.732   3.269  10.105 -1.1585  1.5124  0.7275
 8913SOL    HW238199   3.746   3.415  10.063  0.0019 -0.1017 -0.4218
 8914SOL     OW38200   3.154   1.969   3.101  0.1833  0.1068  0.3777
 8914SOL    HW138201   3.113   1.882   3.093  0.7340 -0.0153 -1.0130
 8914SOL    HW238202   3.234   1.953   3.052  0.2439 -0.8969  0.7922
 8915SOL     OW38203   4.279   0.217  13.773  0.1750  0.8198  0.8585
 8915SOL    HW138204   4.342   0.164  13.821  0.5199  1.7462  1.4259
 8915SOL    HW238205   4.299   0.303  13.809 -0.0535  0.7804  1.0746
 8916SOL     OW38206   2.826   1.938   7.360 -1.0091  0.4895 -0.1565
 8916SOL    HW138207   2.764   1.953   7.289  1.1767  0.5286 -2.0611
 8916SOL    HW238208   2.833   2.026   7.399  0.2273  0.9907 -1.5018
 8917SOL     OW38209   4.652   0.276   3.179  0.4148 -0.0089  0.1399
 8917SOL    HW138210   4.708   0.202   3.155 -0.6247 -0.9833  0.6961
 8917SOL    HW238211   4.666   0.330   3.102  0.7047  0.5864  0.6105
 8918SOL     OW38212   4.324   3.480   9.259 -0.1764  0.0960 -0.1672
 8918SOL    HW138213   4.342   3.557   9.314  0.3633 -0.5372  0.5423
 8918SOL    HW238214   4.384   3.482   9.185 -0.3309 -1.2543 -0.3214
 8919SOL     OW38215   2.226   1.926   3.362  0.3539  0.0532 -0.5993
 8919SOL    HW138216   2.199   1.834   3.354 -0.5266  0.2429  0.2481
 8919SOL    HW238217   2.268   1.923   3.447  0.2253  1.2031 -0.4966
 8920SOL     OW38218   3.946   2.863   7.242  0.1198  0.2566 -0.0367
 8920SOL    HW138219   4.001   2.874   7.164  0.6275 -1.0281  0.1443
 8920SOL    HW238220   4.004   2.859   7.318  2.1939 -2.3889 -1.7546
 8921SOL     OW38221   2.064   1.238   7.435  0.5504  0.1627 -0.1713
 8921SOL    HW138222   2.075   1.146   7.411 -1.1893 -0.2200  0.5168
 8921SOL    HW238223   2.059   1.286   7.352  1.5306 -0.6554 -0.7037
 8922SOL     OW38224   1.207   0.410  13.571  0.4729 -0.0080  0.1906
 8922SOL    HW138225   1.154   0.362  13.635  0.2975 -1.8108 -1.2991
 8922SOL    HW238226   1.175   0.500  13.574  1.9803  0.4556  1.7659
 8923SOL     OW38227   1.925   3.163   5.459 -0.2954  0.3654 -0.0834
 8923SOL    HW138228   1.895   3.192   5.545 -0.9184 -1.8230  0.4398
 8923SOL    HW238229   2.021   3.160   5.463 -0.3245 -0.8676 -0.3179
 8924SOL     OW38230   2.250   4.373   3.160  0.3302 -0.0543 -0.0567
 8924SOL    HW138231   2.192   4.389   3.234  1.9527 -1.2421  1.5007
 8924SOL    HW238232   2.186   4.349   3.093  0.5623  1.5314 -0.8424
 8925SOL     OW38233   3.426   1.756   1.416 -0.1320  0.8847  0.3510
 8925SOL    HW138234   3.473   1.838   1.401  0.2423  0.3450 -1.4174
 8925SOL    HW238235   3.340   1.787   1.391 -0.0402  2.4670  2.0413
 8926SOL     OW38236   1.545   3.479   5.717 -0.0576 -0.1084 -0.0738
 8926SOL    HW138237   1.465   3.512   5.676 -0.0459 -0.8213 -0.6573
 8926SOL    HW238238   1.582   3.438   5.639 -0.5997  0.5498 -0.6873
 8927SOL     OW38239   1.760   2.402  11.706 -0.4360 -0.1175  0.0619
 8927SOL    HW138240   1.665   2.408  11.700 -0.3755  0.6562 -0.1570
 8927SOL    HW238241   1.783   2.317  11.668 -0.6751  0.2699 -0.9572
 8928SOL     OW38242   3.226   0.052   5.485 -0.3490 -0.2673 -0.0814
 8928SOL    HW138243   3.226   0.145   5.507 -1.0311 -0.7903  2.1224
 8928SOL    HW238244   3.211   0.052   5.390  3.2486 -1.1589 -0.6396
 8929SOL     OW38245   0.945   0.518  10.863  0.5930 -0.3897 -0.1719
 8929SOL    HW138246   0.868   0.533  10.808  0.7991  2.8435  0.4191
 8929SOL    HW238247   0.932   0.596  10.917 -1.3856 -2.4114  2.2526
 8930SOL     OW38248   4.062   1.391  11.013 -0.1740 -0.0223 -0.2536
 8930SOL    HW138249   4.009   1.366  10.937 -1.7745 -0.1752  0.9135
 8930SOL    HW238250   4.117   1.315  11.033 -2.2060 -0.9949  1.6625
 8931SOL     OW38251   0.135   0.333   7.051  0.2755  0.1908 -0.3773
 8931SOL    HW138252   0.109   0.425   7.045  1.1259  0.5543  1.5084
 8931SOL    HW238253   0.189   0.333   6.972 -1.0311 -2.9256 -1.2708
 8932SOL     OW38254   0.278   0.932   4.735 -0.1055 -0.3821  0.0688
 8932SOL    HW138255   0.257   0.847   4.775  0.7793  0.7336  2.8923
 8932SOL    HW238256   0.370   0.934   4.759  0.8205  1.4191 -3.7407
 8933SOL     OW38257   1.974   0.298  13.740 -0.0301 -0.3791 -0.1471
 8933SOL    HW138258   2.054   0.337  13.706 -0.7731  1.4990  0.3066
 8933SOL    HW238259   1.967   0.215  13.691 -1.9380  0.1215 -0.7175
 8934SOL     OW38260   0.450   4.469   2.099  0.0813 -0.0974  0.3706
 8934SOL    HW138261   0.406   4.389   2.069 -0.7804  0.6131 -0.2745
 8934SOL    HW238262   0.413   4.473   2.187  0.8659  2.0549  0.5910
 8935SOL     OW38263   2.016   3.326   0.842 -0.4977  0.2321  0.2254
 8935SOL    HW138264   1.997   3.244   0.795 -0.0041 -0.1365  0.6651
 8935SOL    HW238265   1.948   3.332   0.909 -0.6458 -1.9019  0.2848
 8936SOL     OW38266   2.675   4.475   5.806 -0.1849 -0.1418  0.5274
 8936SOL    HW138267   2.740   4.532   5.766 -0.9518 -0.1868 -0.7725
 8936SOL    HW238268   2.619   4.545   5.840 -0.8238 -0.1242 -0.5551
 8937SOL     OW38269   4.563   0.794   5.800 -0.5967  0.2860 -0.2431
 8937SOL    HW138270   4.540   0.865   5.860  1.1015  0.8032 -0.1921
 8937SOL    HW238271   4.511   0.821   5.725 -2.8975 -0.8349  0.9389
 8938SOL     OW38272   2.020   4.309  10.718 -0.3204  0.7407 -0.4064
 8938SOL    HW138273   2.054   4.399  10.720 -2.3161  1.3987  3.0046
 8938SOL    HW238274   1.955   4.320  10.787  1.2947 -1.8302  1.4681
 8939SOL     OW38275   2.824   2.632   2.604  0.6262 -0.1186 -0.1906
 8939SOL    HW138276   2.781   2.604   2.523 -0.0102 -0.3501  0.2277
 8939SOL    HW238277   2.749   2.656   2.658  1.4902  0.0489  0.9259
 8940SOL     OW38278   0.283   3.869  11.062 -0.1648 -0.1210  0.2203
 8940SOL    HW138279   0.364   3.899  11.022  0.2902  0.5569  1.6443
 8940SOL    HW238280   0.311   3.885  11.152 -0.6646 -0.0540  0.3680
 8941SOL     OW38281   4.645   4.312   4.457  0.6807  0.8042 -0.2864
 8941SOL    HW138282   0.014   4.333   4.460  0.9159 -0.1876 -0.7675
 8941SOL    HW238283   4.631   4.249   4.528  1.6659  2.6030  1.4901
 8942SOL     OW38284   1.430   3.838   6.733  0.4297  0.0964  0.1259
 8942SOL    HW138285   1.340   3.811   6.749  0.5848 -1.1465 -1.1767
 8942SOL    HW238286   1.433   3.835   6.637 -0.0526  2.0341  0.0478
 8943SOL     OW38287   2.521   3.766   3.282 -0.1351 -0.2534 -0.2222
 8943SOL    HW138288   2.575   3.709   3.338  1.9026  1.3179 -0.6049
 8943SOL    HW238289   2.589   3.791   3.219 -3.1345 -1.4520 -3.9155
 8944SOL     OW38290   2.794   3.497   9.533 -0.0429 -0.4668  0.2821
 8944SOL    HW138291   2.793   3.440   9.456 -0.3435 -0.9622  0.6557
 8944SOL    HW238292   2.719   3.553   9.510 -0.5794 -1.2541  0.1210
 8945SOL     OW38293   0.424   1.055   5.579  0.1647  0.7266 -0.1542
 8945SOL    HW138294   0.507   1.015   5.604 -0.4036 -0.1873  0.2701
 8945SOL    HW238295   0.386   1.072   5.665  0.4939  0.4169  0.0509
 8946SOL     OW38296   0.708   1.133   4.441 -0.0992  0.3684 -0.4061
 8946SOL    HW138297   0.747   1.177   4.517 -1.8850 -1.6178  1.6650
 8946SOL    HW238298   0.615   1.154   4.448 -0.0557  0.0021  1.4157
 8947SOL     OW38299   4.329   4.723   7.919 -0.5393  0.7666 -0.0421
 8947SOL    HW138300   4.414   4.679   7.920  0.4654  2.7241  0.4756
 8947SOL    HW238301   4.355   0.089   7.912  0.3667  0.3728 -1.8493
 8948SOL     OW38302   0.688   1.696   9.230  0.1967 -0.6642  0.6977
 8948SOL    HW138303   0.689   1.670   9.323 -0.6902  1.0866  1.2046
 8948SOL    HW238304   0.594   1.704   9.213  0.5819  0.9578 -0.6294
 8949SOL     OW38305   0.461   2.967   5.818 -0.1610  0.5325 -0.3242
 8949SOL    HW138306   0.513   2.952   5.739  0.3353  0.2238  0.0621
 8949SOL    HW238307   0.452   3.060   5.839 -2.1872 -0.6073  3.7864
 8950SOL     OW38308   2.765   4.604   6.501 -0.0304  0.6353  0.4152
 8950SOL    HW138309   2.754   4.680   6.443  1.6341 -0.4645 -1.3323
 8950SOL    HW238310   2.859   4.594   6.517 -0.1914 -0.1258  0.8510
 8951SOL     OW38311   3.647   0.273   4.038 -0.0094 -0.9870  0.5612
 8951SOL    HW138312   3.657   0.327   3.960 -0.5625  0.5451  1.5552
 8951SOL    HW238313   3.652   0.332   4.114 -2.1969  1.1868 -0.9963
 8952SOL     OW38314   1.233   1.162   8.124  0.2378  0.4235  0.6194
 8952SOL    HW138315   1.258   1.207   8.043  0.8756 -1.6544 -0.3396
 8952SOL    HW238316   1.200   1.235   8.176  0.0275  1.6621 -1.2561
 8953SOL     OW38317   0.171   3.457   7.021 -0.4796  0.4822 -0.3342
 8953SOL    HW138318   0.165   3.504   6.938  1.6844  1.3676  0.0334
 8953SOL    HW238319   0.197   3.368   6.996 -0.3419  0.0960  1.1593
 8954SOL     OW38320   2.390   3.790  16.112 -0.5204  0.1652  0.4105
 8954SOL    HW138321   2.391   3.875  16.069  1.0551  0.5208  1.1604
 8954SOL    HW238322   2.467   3.781  16.167  1.3111  1.3737 -1.9832
 8955SOL     OW38323   0.459   0.288  10.082 -0.1252  0.2833 -0.3621
 8955SOL    HW138324   0.425   0.259  10.167 -1.3489  1.3195 -0.5003
 8955SOL    HW238325   0.487   0.207  10.039  1.5448  1.1389 -0.8874
 8956SOL     OW38326   1.454   1.898   4.481  0.0946  0.1741  0.0083
 8956SOL    HW138327   1.454   1.988   4.512  0.7277  0.6926 -1.4637
 8956SOL    HW238328   1.380   1.923   4.424  0.5772  1.0578 -0.2295
 8957SOL     OW38329   2.997   3.578   7.483 -0.2147  0.3701 -0.5237
 8957SOL    HW138330   3.058   3.505   7.474  1.2492  1.3946  1.1508
 8957SOL    HW238331   3.064   3.644   7.464  1.0564 -0.8773 -0.2978
 8958SOL     OW38332   3.809   0.678   1.082  0.2589 -0.0467  0.5329
 8958SOL    HW138333   3.758   0.690   1.163  1.9679  0.6057  1.5132
 8958SOL    HW238334   3.752   0.622   1.030 -0.8606  0.5302  1.1434
 8959SOL     OW38335   3.248   3.064   6.447 -0.2210  0.3217  0.2679
 8959SOL    HW138336   3.274   3.015   6.526  0.1182 -1.0702 -0.7021
 8959SOL    HW238337   3.184   3.008   6.402  0.9631  0.5961 -1.7072
 8960SOL     OW38338   1.945   2.881   2.213 -0.1995 -0.3308  0.2222
 8960SOL    HW138339   1.949   2.788   2.234 -2.0413 -0.1889  1.2069
 8960SOL    HW238340   1.852   2.888   2.194  0.2741 -0.9089 -2.2352
 8961SOL     OW38341   0.445   3.465   4.011 -0.0499  0.4050 -0.5677
 8961SOL    HW138342   0.533   3.427   4.010  0.1896  0.9419  0.1155
 8961SOL    HW238343   0.403   3.386   3.977  0.6021 -0.5724  0.9106
 8962SOL     OW38344   2.604   1.963   7.208  0.4792 -0.2269 -0.2572
 8962SOL    HW138345   2.533   2.012   7.166  1.3162  0.5322 -0.7991
 8962SOL    HW238346   2.591   1.879   7.164  0.0743 -1.1094  1.5413
 8963SOL     OW38347   4.244   3.298   9.948 -0.5043  0.0599  0.3216
 8963SOL    HW138348   4.320   3.248   9.917 -1.4066 -0.0790 -1.6484
 8963SOL    HW238349   4.210   3.229  10.005 -0.5463 -0.0533  0.1612
 8964SOL     OW38350   2.971   2.940   6.338 -0.6316  0.2703  0.1955
 8964SOL    HW138351   2.976   3.035   6.332 -1.1093  0.2882  0.1165
 8964SOL    HW238352   2.883   2.906   6.324 -1.6900  2.3183  1.8452
 8965SOL     OW38353   2.243   1.967  11.308  0.1224  0.0032 -0.3376
 8965SOL    HW138354   2.285   2.052  11.313  0.6408 -0.2815  0.1882
 8965SOL    HW238355   2.317   1.911  11.331  0.6705  0.4867 -0.9309
 8966SOL     OW38356   3.018   2.293   1.592 -0.6724  0.2876 -0.1093
 8966SOL    HW138357   3.044   2.320   1.680 -2.2195  1.9192 -0.1657
 8966SOL    HW238358   3.054   2.204   1.588  0.8337  0.9380 -1.1141
 8967SOL     OW38359   0.135   2.843   6.124  0.0576  0.0518  0.8792
 8967SOL    HW138360   0.176   2.929   6.126 -2.6952  1.4229 -0.7431
 8967SOL    HW238361   0.207   2.795   6.164  0.0764 -0.7649 -0.1430
 8968SOL     OW38362   4.532   1.036   5.956  0.0614  0.2548  0.2559
 8968SOL    HW138363   4.487   1.107   5.910 -1.4863 -1.3852 -0.7454
 8968SOL    HW238364   4.510   1.059   6.046  2.9227 -0.9143  1.2320
 8969SOL     OW38365   2.107   3.010   2.010  0.5741  0.8585  0.4237
 8969SOL    HW138366   2.064   2.954   2.074 -0.2305 -0.1699 -1.0040
 8969SOL    HW238367   2.110   2.947   1.938 -0.1336 -0.1033  1.2401
 8970SOL     OW38368   3.026   4.629   6.487  0.0941  0.4452  0.3650
 8970SOL    HW138369   3.086   4.566   6.447  1.6838  1.9152  0.4311
 8970SOL    HW238370   3.031   4.698   6.421 -2.0759  0.7071  0.4750
 8971SOL     OW38371   2.289   2.454   8.640 -0.7364 -0.3710  0.1293
 8971SOL    HW138372   2.292   2.548   8.656 -1.1533 -0.9341  3.5247
 8971SOL    HW238373   2.347   2.419   8.707 -0.3470 -0.9641 -0.5196
 8972SOL     OW38374   1.046   2.497  12.853  0.1943  0.1406  0.5338
 8972SOL    HW138375   1.108   2.471  12.921  0.7502 -0.1679 -0.0952
 8972SOL    HW238376   0.967   2.459  12.893 -0.9234  1.3667 -0.4962
 8973SOL     OW38377   3.633   0.672   8.275  0.1806 -0.2206  0.1001
 8973SOL    HW138378   3.695   0.726   8.227 -1.1627  0.9541 -0.3407
 8973SOL    HW238379   3.609   0.732   8.346  0.3151  0.4696 -0.4360
 8974SOL     OW38380   1.489   0.491   7.244  0.0922  0.7551  0.3849
 8974SOL    HW138381   1.574   0.495   7.200  0.5659  1.1644  1.3278
 8974SOL    HW238382   1.488   0.396   7.259  1.3939  0.9675  1.8561
 8975SOL     OW38383   1.867   1.949   3.803  0.7432 -0.0870 -0.3607
 8975SOL    HW138384   1.820   2.006   3.741 -0.4277 -0.2787  0.3403
 8975SOL    HW238385   1.949   1.948   3.754  1.7983 -3.0037  1.4946
 8976SOL     OW38386   1.180   1.731   2.530  0.5454 -0.0997  0.2985
 8976SOL    HW138387   1.269   1.762   2.546  0.8027  0.1552 -1.6431
 8976SOL    HW238388   1.203   1.645   2.497  0.5417  0.1983 -0.4765
 8977SOL     OW38389   0.242   1.688   1.541  0.5392 -0.0705 -0.0612
 8977SOL    HW138390   0.323   1.739   1.545 -0.0681  0.8046  1.1064
 8977SOL    HW238391   0.193   1.719   1.617  1.1582  1.2633 -0.1917
 8978SOL     OW38392   2.220   3.323   2.413  0.3772  0.0521  0.3977
 8978SOL    HW138393   2.263   3.299   2.331 -1.3792  0.6784 -0.7158
 8978SOL    HW238394   2.243   3.415   2.402 -3.7381  0.9656 -0.4888
 8979SOL     OW38395   1.127   2.817  17.470  0.0383 -0.3966  0.6800
 8979SOL    HW138396   1.106   2.897  17.518 -3.1624 -0.7252 -0.2017
 8979SOL    HW238397   1.215   2.795  17.501  0.3562  0.0922  0.1238
 8980SOL     OW38398   0.672   1.621   6.627  0.2849  0.0800 -0.2712
 8980SOL    HW138399   0.604   1.553   6.633  0.6765 -0.0779  2.6401
 8980SOL    HW238400   0.736   1.579   6.569  1.3445  0.4911  0.5975
 8981SOL     OW38401   1.279   2.910   2.668  0.6343 -0.1285  0.3618
 8981SOL    HW138402   1.284   2.918   2.763 -0.0791  0.5877  0.3387
 8981SOL    HW238403   1.191   2.946   2.655  0.5039 -0.1998  1.0410
 8982SOL     OW38404   3.576   1.247   1.439 -0.2383  0.1954  0.7088
 8982SOL    HW138405   3.657   1.230   1.392 -1.1780  0.0659 -0.8725
 8982SOL    HW238406   3.607   1.337   1.452 -1.0628  1.0273 -3.2305
 8983SOL     OW38407   3.748   1.445   4.008 -0.3236  0.5822  0.3301
 8983SOL    HW138408   3.752   1.541   4.016  4.5267  0.0330  4.8355
 8983SOL    HW238409   3.820   1.431   3.946  1.6064 -1.7885  3.0972
 8984SOL     OW38410   1.282   1.741   6.109 -0.2732 -0.1728 -0.1344
 8984SOL    HW138411   1.310   1.816   6.162 -3.8404  3.3735 -3.1896
 8984SOL    HW238412   1.187   1.747   6.123  0.0854 -0.3859  2.4592
 8985SOL     OW38413   0.838   2.932   5.533 -0.1961 -0.0263 -0.9276
 8985SOL    HW138414   0.891   2.852   5.529 -0.0661 -0.0017  0.4826
 8985SOL    HW238415   0.857   2.971   5.618 -1.5873 -2.9400  0.7313
 8986SOL     OW38416   2.250   3.526  17.420 -0.0350  0.2084 -0.2788
 8986SOL    HW138417   2.308   3.584  17.469 -3.4890  0.9714  2.9006
 8986SOL    HW238418   2.313   3.487  17.359 -1.9752 -2.3539 -0.6466
 8987SOL     OW38419   4.694   2.730  14.087  0.2665  0.5210 -0.0105
 8987SOL    HW138420   4.608   2.692  14.106 -0.2704  0.8521 -1.7786
 8987SOL    HW238421   4.668   2.804  14.032 -2.0917 -1.5679 -1.6778
 8988SOL     OW38422   3.776   3.955   6.626 -0.0287  0.3463 -0.1651
 8988SOL    HW138423   3.746   3.865   6.610  3.7461 -0.9392  0.1550
 8988SOL    HW238424   3.854   3.931   6.676  0.1229 -1.1003 -1.1056
 8989SOL     OW38425   0.428   3.502   1.986 -0.1992  0.1867  0.1790
 8989SOL    HW138426   0.410   3.510   1.892 -0.2482 -0.7760  0.1101
 8989SOL    HW238427   0.493   3.573   1.986 -0.2056  0.1978 -2.0835
 8990SOL     OW38428   2.867   0.103   3.486  0.1238  0.0081  0.3533
 8990SOL    HW138429   2.803   0.112   3.555 -1.6716 -1.6278 -1.0941
 8990SOL    HW238430   2.888   0.011   3.503 -0.4584 -0.2614 -0.3575
 8991SOL     OW38431   2.064   1.090   5.190 -0.6219 -0.3711 -0.1557
 8991SOL    HW138432   2.061   1.019   5.254 -0.8670 -0.0898  0.1420
 8991SOL    HW238433   2.037   1.045   5.110 -0.9107 -0.4068 -0.0379
 8992SOL     OW38434   1.400   3.543  15.262 -0.3095 -0.1772  0.0382
 8992SOL    HW138435   1.358   3.475  15.210 -1.2536 -1.3629  2.3549
 8992SOL    HW238436   1.408   3.615  15.200 -2.3452  0.9210  1.0434
 8993SOL     OW38437   0.786   2.592   2.421 -0.1339 -0.4536  0.9528
 8993SOL    HW138438   0.819   2.502   2.425  0.4292 -0.4272 -2.5526
 8993SOL    HW238439   0.784   2.603   2.326 -0.7679 -0.2448  0.9924
 8994SOL     OW38440   4.529   3.495   9.072 -0.0491  0.0067 -0.2160
 8994SOL    HW138441   4.569   3.537   8.995  1.4864 -1.6905 -0.3202
 8994SOL    HW238442   4.586   3.422   9.094 -0.9807 -0.8449 -0.6179
 8995SOL     OW38443   0.453   1.495  17.692  0.4918 -0.1253  0.2503
 8995SOL    HW138444   0.378   1.444   0.021 -0.1109  2.4600  3.0975
 8995SOL    HW238445   0.472   1.438  17.617 -0.0084 -1.8549  1.4259
 8996SOL     OW38446   3.588   3.569   7.325 -0.5858 -0.7949 -0.3788
 8996SOL    HW138447   3.639   3.540   7.401 -0.8242 -1.9038 -0.6423
 8996SOL    HW238448   3.653   3.603   7.265  0.5743  0.3999  1.5529
 8997SOL     OW38449   1.134   3.484   4.620 -0.4157  0.2202 -0.4566
 8997SOL    HW138450   1.142   3.501   4.714  1.9052 -0.7987 -0.4669
 8997SOL    HW238451   1.213   3.437   4.594  1.4505  2.1580  1.6330
 8998SOL     OW38452   1.843   1.487  11.075 -0.0146  0.1560  0.3523
 8998SOL    HW138453   1.774   1.459  11.136  0.0791  0.9232  0.8149
 8998SOL    HW238454   1.843   1.404  11.027 -0.5425 -0.2665  1.0774
 8999SOL     OW38455   0.372   1.732   4.416 -0.2048  0.3211  0.3799
 8999SOL    HW138456   0.382   1.732   4.321  2.3075 -2.2276  0.6375
 8999SOL    HW238457   0.278   1.744   4.428 -0.1842  2.3991 -1.6529
 9000SOL     OW38458   3.430   0.927   9.654 -0.1721  0.3230  0.0732
 9000SOL    HW138459   3.359   0.982   9.619 -0.0172  1.2461  1.1729
 9000SOL    HW238460   3.376   0.865   9.704  1.3367 -0.0211  1.2671
 9001SOL     OW38461   3.974   1.749   1.412 -0.3552 -0.2310  1.1414
 9001SOL    HW138462   3.908   1.766   1.345  0.4471 -0.1456  0.3598
 9001SOL    HW238463   4.041   1.704   1.361  0.5825  0.8961  1.3561
 9002SOL     OW38464   3.247   3.894   7.080  0.0670  0.1110 -0.0915
 9002SOL    HW138465   3.269   3.802   7.098 -2.7661 -0.6729 -0.6463
 9002SOL    HW238466   3.151   3.894   7.085 -0.0235 -2.0328 -1.6546
 9003SOL     OW38467   3.182   2.793  16.208  0.4468 -0.3858  0.2038
 9003SOL    HW138468   3.219   2.736  16.276  0.6689 -0.0029  0.4025
 9003SOL    HW238469   3.102   2.811  16.258  0.5413 -1.3619  0.7034
 9004SOL     OW38470   1.645   3.165  14.611  0.2580 -0.3536  0.6904
 9004SOL    HW138471   1.662   3.071  14.616 -1.3916 -0.5799  2.5341
 9004SOL    HW238472   1.727   3.201  14.644 -0.6988  1.9419  0.5818
 9005SOL     OW38473   3.384   3.985   5.374  0.4949 -0.4295 -0.4419
 9005SOL    HW138474   3.351   4.034   5.298  1.6191  0.1458 -0.5469
 9005SOL    HW238475   3.460   4.033   5.406 -0.1282  0.7278 -0.7078
 9006SOL     OW38476   0.528   0.317   6.379  0.8141 -0.2123 -0.9007
 9006SOL    HW138477   0.532   0.306   6.284  3.5632  0.1769 -0.8291
 9006SOL    HW238478   0.599   0.259   6.407  1.2819  0.1574 -1.3279
 9007SOL     OW38479   1.728   3.230   7.506  0.4764 -0.4117  0.2783
 9007SOL    HW138480   1.790   3.256   7.438 -1.6474 -1.3298 -2.0012
 9007SOL    HW238481   1.783   3.204   7.580 -0.6539 -0.9576  0.9299
 9008SOL     OW38482   1.059   0.972  15.585  0.0119 -0.2451 -0.1137
 9008SOL    HW138483   1.126   0.904  15.595  1.3741  0.5778 -3.5966
 9008SOL    HW238484   0.986   0.912  15.571  1.1003 -2.0379  1.9846
 9009SOL     OW38485   2.496   3.499   7.313 -0.3030 -0.0872 -0.1022
 9009SOL    HW138486   2.425   3.462   7.260 -0.4995 -1.6939  1.3150
 9009SOL    HW238487   2.523   3.425   7.366  2.2619  2.2110  1.7863
 9010SOL     OW38488   2.954   2.722   4.978 -0.5449 -0.2617 -0.4793
 9010SOL    HW138489   2.884   2.685   5.031  0.2154  0.3815  0.9541
 9010SOL    HW238490   2.978   2.802   5.024  0.3802  0.0561 -1.5054
 9011SOL     OW38491   1.028   1.308   6.930  0.0823  0.2549  0.2020
 9011SOL    HW138492   0.966   1.237   6.910  1.7280 -0.9732 -0.5332
 9011SOL    HW238493   1.034   1.272   7.018  3.6495 -1.0720 -0.5896
 9012SOL     OW38494   3.430   1.509   5.276  0.3552  0.1111  0.4719
 9012SOL    HW138495   3.344   1.493   5.236  1.6667 -2.8059 -1.1501
 9012SOL    HW238496   3.404   1.511   5.368  0.6496 -1.2195  0.5757
 9013SOL     OW38497   3.987   2.953   3.964  0.1261  0.2962 -0.1809
 9013SOL    HW138498   4.023   2.996   3.885  0.6423 -1.7678 -1.0569
 9013SOL    HW238499   3.909   2.905   3.939  1.4011 -1.0844 -1.5420
 9014SOL     OW38500   0.308   0.125   9.758  0.0338  0.0490 -0.3188
 9014SOL    HW138501   0.329   0.046   9.808  0.6494  1.0999  1.0570
 9014SOL    HW238502   0.391   0.148   9.716  0.9969 -0.6417  1.2148
 9015SOL     OW38503   0.695   4.000  15.208  0.2273  0.0532  0.3232
 9015SOL    HW138504   0.732   3.964  15.289  1.2162  4.5706  1.9085
 9015SOL    HW238505   0.734   4.087  15.216 -0.2977  0.1745  1.6421
 9016SOL     OW38506   1.451   0.068   4.912 -0.3859  0.2547  0.4200
 9016SOL    HW138507   1.430   0.025   4.995 -1.4059  0.0415  0.0497
 9016SOL    HW238508   1.430   0.000   4.848 -1.5361  0.2668  0.7837
 9017SOL     OW38509   1.576   1.673   5.332  0.4709 -0.2088 -0.1942
 9017SOL    HW138510   1.611   1.668   5.243  4.0061  2.2610  1.0451
 9017SOL    HW238511   1.644   1.630   5.384  0.5747 -1.6056 -1.4823
 9018SOL     OW38512   3.890   0.988  10.230  0.2163  0.6200  0.4042
 9018SOL    HW138513   3.858   0.973  10.141  0.1629 -2.2117  0.9218
 9018SOL    HW238514   3.981   0.962  10.215 -0.3335 -0.8299 -0.4163
 9019SOL     OW38515   0.526   2.009   3.263  0.0334 -0.4976  0.5503
 9019SOL    HW138516   0.591   1.938   3.261 -0.3717 -0.8515  0.1741
 9019SOL    HW238517   0.581   2.083   3.289 -0.0604  0.0193 -0.7196
 9020SOL     OW38518   1.425   2.481  17.437  1.0125  0.3128 -0.1134
 9020SOL    HW138519   1.352   2.421  17.424 -0.5213  2.0729  0.3313
 9020SOL    HW238520   1.494   2.424  17.473 -1.0650  0.6127  4.2769
 9021SOL     OW38521   4.701   1.093   7.954 -0.0230 -0.2778  0.0434
 9021SOL    HW138522   4.614   1.084   7.913  0.0293  0.4611 -0.2224
 9021SOL    HW238523   0.010   1.179   7.930  2.6673 -1.2328  0.5350
 9022SOL     OW38524   2.822   2.207   0.861  0.1803 -0.7126 -0.5651
 9022SOL    HW138525   2.912   2.234   0.882 -0.0902  2.2679 -3.2410
 9022SOL    HW238526   2.792   2.275   0.801  1.6178  0.6407  0.2246
 9023SOL     OW38527   0.188   0.698   5.211  0.1326 -0.4178  0.4378
 9023SOL    HW138528   0.225   0.761   5.149  1.4422 -1.7946 -0.1883
 9023SOL    HW238529   0.165   0.756   5.283  0.7633 -0.6882  0.8592
 9024SOL     OW38530   0.196   4.044  15.139  0.2364  0.2609  0.1088
 9024SOL    HW138531   0.273   3.989  15.125  0.2752  0.2657  0.3071
 9024SOL    HW238532   0.195   4.054  15.234 -0.5952 -3.2337  0.4375
 9025SOL     OW38533   1.222   4.107   7.646 -0.3574  0.8282 -0.2524
 9025SOL    HW138534   1.217   4.185   7.701 -1.8560  1.6919 -1.5976
 9025SOL    HW238535   1.176   4.035   7.690  1.7512 -0.8477 -0.8120
 9026SOL     OW38536   4.307   2.567   9.292  0.2376  0.2267  0.4873
 9026SOL    HW138537   4.342   2.553   9.204  0.3200 -0.7706  0.6867
 9026SOL    HW238538   4.372   2.632   9.319  3.0399 -2.1947 -0.4646
 9027SOL     OW38539   3.989   2.697   6.345  0.0132 -0.2657  0.8169
 9027SOL    HW138540   4.039   2.618   6.327  0.5460  0.3491 -0.4042
 9027SOL    HW238541   3.993   2.689   6.440  3.3155  0.8709  0.7745
 9028SOL     OW38542   2.380   2.146   0.883 -0.1928 -0.1287  0.1084
 9028SOL    HW138543   2.433   2.222   0.908 -1.9540  0.8566  0.7943
 9028SOL    HW238544   2.330   2.123   0.962 -0.5425 -1.0215 -0.3708
 9029SOL     OW38545   1.769   0.556   4.982 -0.0500  0.3254 -0.5798
 9029SOL    HW138546   1.757   0.536   4.889  1.4855  1.2723 -0.9806
 9029SOL    HW238547   1.855   0.596   4.969  0.0231 -0.0147 -1.1713
 9030SOL     OW38548   0.250   3.876  11.561 -0.2454  0.3394  0.1813
 9030SOL    HW138549   0.196   3.832  11.625 -0.3856  0.3176  0.0486
 9030SOL    HW238550   0.303   3.805  11.525 -2.1007 -1.4250  0.9988
 9031SOL     OW38551   2.949   1.378  17.574  0.0961  0.2701  0.2723
 9031SOL    HW138552   2.886   1.333  17.630  0.5271 -1.6269 -0.7800
 9031SOL    HW238553   2.918   1.360  17.485 -0.3698  2.1877  0.0292
 9032SOL     OW38554   1.458   4.340  13.608  0.4377  0.0739 -0.1643
 9032SOL    HW138555   1.417   4.325  13.523  0.1857 -0.1048 -0.0069
 9032SOL    HW238556   1.387   4.392  13.645 -0.3044  0.7225 -2.4512
 9033SOL     OW38557   2.751   1.541   0.689  0.2661  0.8433 -0.2020
 9033SOL    HW138558   2.768   1.606   0.758  0.8664  0.8506 -0.3599
 9033SOL    HW238559   2.737   1.456   0.731 -0.4895  0.9077 -0.3179
 9034SOL     OW38560   2.571   3.935   7.826 -0.6111  0.9853 -0.6778
 9034SOL    HW138561   2.522   3.875   7.881  0.6085  2.8604  2.4750
 9034SOL    HW238562   2.572   3.887   7.743  2.5184  0.6155 -0.4297
 9035SOL     OW38563   1.038   1.361   4.347 -0.2852 -0.0667 -0.1100
 9035SOL    HW138564   0.980   1.407   4.287 -0.6770 -1.1885 -0.5993
 9035SOL    HW238565   1.121   1.390   4.310 -0.1407  0.2152  0.4327
 9036SOL     OW38566   3.758   3.423   8.411 -0.1796 -0.1809 -0.1527
 9036SOL    HW138567   3.789   3.469   8.489 -0.9092 -0.6164  0.3955
 9036SOL    HW238568   3.664   3.444   8.418 -0.5535 -1.3887 -1.6750
 9037SOL     OW38569   2.335   1.697   7.268 -0.7088  0.5050 -0.5112
 9037SOL    HW138570   2.428   1.672   7.263 -0.3133  1.5440  1.4608
 9037SOL    HW238571   2.354   1.764   7.334  1.7088 -1.4661  0.8115
 9038SOL     OW38572   2.962   1.336   7.640  0.7787  0.2912  0.1758
 9038SOL    HW138573   2.916   1.254   7.622  4.0116 -1.2440 -1.0237
 9038SOL    HW238574   2.922   1.400   7.581  1.2066  0.4609  0.0700
 9039SOL     OW38575   3.654   3.519   3.808  0.3033 -0.3822  0.2979
 9039SOL    HW138576   3.636   3.541   3.716 -1.4864 -0.7867  0.5425
 9039SOL    HW238577   3.735   3.564   3.827 -0.5248  2.1253 -2.0879
 9040SOL     OW38578   4.541   4.611   7.463 -0.2261  0.4933 -0.2446
 9040SOL    HW138579   4.545   4.552   7.388  0.3923  0.4607 -0.1906
 9040SOL    HW238580   4.510   4.692   7.422 -0.2764 -0.3482 -1.8799
 9041SOL     OW38581   2.260   3.670  16.337 -0.2179 -0.8269 -0.3366
 9041SOL    HW138582   2.294   3.756  16.314 -0.9755 -0.8024 -1.3500
 9041SOL    HW238583   2.174   3.675  16.296 -0.2030 -2.8515 -0.6541
 9042SOL     OW38584   1.358   0.045   8.287  0.5124  0.8375  0.2954
 9042SOL    HW138585   1.274   0.077   8.319  0.4751 -0.2387  1.2814
 9042SOL    HW238586   1.354   0.062   8.193  1.2375 -1.8796 -0.2338
 9043SOL     OW38587   1.176   0.930   3.667  0.6227 -0.1373  0.0354
 9043SOL    HW138588   1.219   0.964   3.588 -2.8266 -0.8068 -2.1474
 9043SOL    HW238589   1.222   0.984   3.730 -0.3716  0.1234  0.5345
 9044SOL     OW38590   2.132   0.919  14.061 -0.3307  0.4696  0.1925
 9044SOL    HW138591   2.167   0.847  14.115 -3.0940  0.5235  2.0746
 9044SOL    HW238592   2.207   0.956  14.015 -0.4041  2.5543  1.7393
 9045SOL     OW38593   3.326   4.402   2.985 -0.4780  0.2882 -0.1896
 9045SOL    HW138594   3.283   4.466   2.927  2.1858  0.3470 -2.1156
 9045SOL    HW238595   3.276   4.330   2.947  1.2659 -1.8297  1.5348
 9046SOL     OW38596   3.907   1.694   6.558 -0.2883  0.3688 -0.6307
 9046SOL    HW138597   3.890   1.637   6.483 -0.8945  0.9939 -0.9692
 9046SOL    HW238598   4.000   1.687   6.581 -0.5857  0.4952  0.5840
 9047SOL     OW38599   3.814   1.044   6.759 -0.7879 -0.2950 -0.4959
 9047SOL    HW138600   3.806   0.977   6.692 -3.8412  0.8990 -1.3205
 9047SOL    HW238601   3.909   1.043   6.774 -0.5470  1.5288 -1.9136
 9048SOL     OW38602   4.391   3.087   4.695 -0.0057  0.3101 -0.7341
 9048SOL    HW138603   4.311   3.043   4.667  0.1832 -0.8086  0.4821
 9048SOL    HW238604   4.357   3.107   4.783  0.8161 -0.9215 -0.1422
 9049SOL     OW38605   3.306   2.766   9.172 -0.4068  0.0639 -0.0597
 9049SOL    HW138606   3.399   2.783   9.156 -0.3515 -0.1975 -0.0091
 9049SOL    HW238607   3.306   2.674   9.197 -0.0274 -0.2586 -1.2331
 9050SOL     OW38608   4.550   3.626   4.576  0.4743  0.3852  0.2812
 9050SOL    HW138609   4.623   3.678   4.610  1.8331 -2.0099  1.0021
 9050SOL    HW238610   4.588   3.540   4.591 -2.8716 -1.3301 -1.1558
 9051SOL     OW38611   3.441   0.934  15.961 -0.6024  0.3904  0.3165
 9051SOL    HW138612   3.351   0.950  15.992  0.3744  1.6619  2.4992
 9051SOL    HW238613   3.493   0.987  16.021 -1.6851  0.2718  1.3690
 9052SOL     OW38614   2.742   2.054  17.592 -0.4893  0.3289 -0.2207
 9052SOL    HW138615   2.743   2.130  17.651 -3.1875  1.4633 -1.6255
 9052SOL    HW238616   2.700   1.985  17.643 -1.5932  2.6068  1.9599
 9053SOL     OW38617   3.291   1.893   8.782 -0.4627  0.1427  0.3888
 9053SOL    HW138618   3.364   1.833   8.764 -0.9401 -0.3419  0.0666
 9053SOL    HW238619   3.219   1.830   8.790  1.0023 -1.5276  0.4990
 9054SOL     OW38620   4.048   2.895   6.113 -0.2859 -0.3296 -0.4096
 9054SOL    HW138621   4.125   2.878   6.167 -0.3997  0.7787  0.1009
 9054SOL    HW238622   3.995   2.931   6.184  0.0888 -0.2595 -0.1667
 9055SOL     OW38623   2.548   0.329  14.877  0.5278  0.0897  0.3108
 9055SOL    HW138624   2.602   0.403  14.847 -0.0750  0.3271 -0.2001
 9055SOL    HW238625   2.485   0.314  14.807  0.4848  0.0632  0.3557
 9056SOL     OW38626   0.857   1.800  11.062 -0.0155 -0.4786  0.1988
 9056SOL    HW138627   0.782   1.819  11.118 -1.4771  1.1940 -2.3302
 9056SOL    HW238628   0.827   1.821  10.974  0.6297 -0.1108  0.0629
 9057SOL     OW38629   0.765   3.070   8.726 -0.4278 -0.1627  0.7528
 9057SOL    HW138630   0.765   3.136   8.795  0.9061 -2.2695  2.8112
 9057SOL    HW238631   0.859   3.073   8.709 -0.7035 -0.4112 -0.8004
 9058SOL     OW38632   4.116   1.974   8.161  0.3865 -0.5861  0.0792
 9058SOL    HW138633   4.057   1.995   8.088 -1.4825  0.1611  1.8074
 9058SOL    HW238634   4.159   2.056   8.185 -0.2541 -0.4049  0.6116
 9059SOL     OW38635   0.364   1.953   4.658  0.0732 -0.4806 -0.1769
 9059SOL    HW138636   0.380   1.972   4.750 -1.3952 -0.4967  0.0858
 9059SOL    HW238637   0.317   1.870   4.672 -2.0402  1.1409  2.3298
 9060SOL     OW38638   4.131   0.070   3.692  0.0554  0.0572  0.6928
 9060SOL    HW138639   4.115   4.706   3.663  0.0995 -0.0466  0.9867
 9060SOL    HW238640   4.137   0.054   3.787  1.3793 -2.5769  0.1806
 9061SOL     OW38641   0.273   3.299   2.565 -0.1166 -0.0953  0.0120
 9061SOL    HW138642   0.309   3.371   2.514 -2.0142  0.0406 -1.1256
 9061SOL    HW238643   0.335   3.270   2.632 -1.7671 -1.1838  1.0630
 9062SOL     OW38644   2.644   0.913   3.734 -0.2137 -0.3167 -0.3005
 9062SOL    HW138645   2.680   0.991   3.776 -0.0375 -1.4967  1.7836
 9062SOL    HW238646   2.659   0.938   3.643 -2.5468 -2.1708 -1.2142
 9063SOL     OW38647   0.702   3.416   6.416  0.4319  0.0229 -0.1792
 9063SOL    HW138648   0.750   3.431   6.497  0.2175  0.6388 -0.1716
 9063SOL    HW238649   0.615   3.398   6.452  0.5037 -0.6968 -0.3632
 9064SOL     OW38650   2.031   2.602   4.976 -0.0327  0.6335 -0.1014
 9064SOL    HW138651   2.040   2.667   5.045  1.2408 -0.8358  1.1129
 9064SOL    HW238652   1.993   2.523   5.015 -0.2458  0.0489 -1.4801
 9065SOL     OW38653   2.689   3.959   2.852  0.1518 -0.4097  0.2608
 9065SOL    HW138654   2.631   4.029   2.823  1.5848  0.3189 -0.7966
 9065SOL    HW238655   2.699   3.903   2.775 -1.2916  0.1431 -0.3231
 9066SOL     OW38656   3.182   4.449  16.754  0.3859 -0.5637 -0.1322
 9066SOL    HW138657   3.198   4.464  16.847 -0.0277  1.4241 -0.3896
 9066SOL    HW238658   3.112   4.511  16.733  1.2713  1.3897  2.6824
 9067SOL     OW38659   1.351   2.198   3.281  1.0402  0.1465  0.7646
 9067SOL    HW138660   1.439   2.191   3.242  0.8161 -0.6544  0.4140
 9067SOL    HW238661   1.379   2.217   3.370  0.2027  1.6390  0.7159
 9068SOL     OW38662   0.095   0.345   8.552 -0.1418  0.0998  0.0584
 9068SOL    HW138663   0.177   0.297   8.546  1.8779  3.5792  0.3467
 9068SOL    HW238664   0.127   0.434   8.561 -1.8921  0.7246  0.0954
 9069SOL     OW38665   3.137   4.539   6.058  0.2549  0.2792  0.3626
 9069SOL    HW138666   3.058   4.487   6.045 -0.0760  1.1865 -1.2080
 9069SOL    HW238667   3.132   4.537   6.154  1.4089 -1.2113  0.3919
 9070SOL     OW38668   2.319   4.373   2.829  0.3491  0.0835 -0.5518
 9070SOL    HW138669   2.268   4.409   2.756  0.5483 -0.2390 -0.8492
 9070SOL    HW238670   2.247   4.325   2.871  0.1652  1.2811  0.5196
 9071SOL     OW38671   2.446   3.059   3.123  0.0123 -0.5824  0.4014
 9071SOL    HW138672   2.432   3.134   3.065  0.0249 -0.4769  0.5335
 9071SOL    HW238673   2.423   3.104   3.204  1.1722  0.2343  0.2732
 9072SOL     OW38674   1.064   1.161   5.185 -0.3280 -0.0197 -0.4579
 9072SOL    HW138675   0.974   1.187   5.200 -1.1315 -2.7726 -0.4022
 9072SOL    HW238676   1.107   1.238   5.148 -2.3609  1.7822  0.9594
 9073SOL     OW38677   3.041   0.329   3.486 -0.0189 -0.5024 -0.2016
 9073SOL    HW138678   3.048   0.234   3.497  1.2632 -0.5412 -1.3538
 9073SOL    HW238679   2.997   0.351   3.568  1.6204 -0.5105  0.6915
 9074SOL     OW38680   2.168   2.419   5.554 -0.0149 -0.3518  0.1381
 9074SOL    HW138681   2.234   2.351   5.543  0.6265  0.1598  0.8846
 9074SOL    HW238682   2.203   2.469   5.628  0.0267  0.5144 -0.4589
 9075SOL     OW38683   0.558   4.225   3.387 -0.8903  0.5637 -0.0880
 9075SOL    HW138684   0.648   4.233   3.419 -0.6642  0.5646 -0.7150
 9075SOL    HW238685   0.498   4.240   3.460 -0.2328  2.1185  0.1169
 9076SOL     OW38686   1.655   2.895  11.520  0.2609 -0.3847 -0.4224
 9076SOL    HW138687   1.697   2.904  11.434 -0.2446  0.2069 -0.6078
 9076SOL    HW238688   1.714   2.947  11.574  0.2185 -0.9788  0.2020
 9077SOL     OW38689   2.979   2.230   5.201  0.4663 -0.2891  0.1487
 9077SOL    HW138690   3.052   2.241   5.141 -0.6694 -0.9626 -1.3447
 9077SOL    HW238691   3.008   2.298   5.262 -0.3971 -0.9002  1.2430
 9078SOL     OW38692   1.938   1.319  14.130  0.1378 -0.0197 -0.7971
 9078SOL    HW138693   2.022   1.354  14.159 -0.7776  0.5751  1.0824
 9078SOL    HW238694   1.945   1.229  14.162 -1.5614 -0.7742 -2.5339
 9079SOL     OW38695   3.155   3.170  15.853 -0.3305 -0.5850  0.4791
 9079SOL    HW138696   3.207   3.108  15.904  1.0827 -1.6072 -2.2032
 9079SOL    HW238697   3.134   3.106  15.785 -2.1903  0.6408 -0.0942
 9080SOL     OW38698   0.292   4.053  15.810  0.1448 -0.2823  0.1409
 9080SOL    HW138699   0.272   4.005  15.890 -0.5081  0.6741  0.5467
 9080SOL    HW238700   0.380   4.020  15.788  0.1415 -1.2810  1.7022
 9081SOL     OW38701   3.640   0.512   9.565  0.8551  0.6383  0.4785
 9081SOL    HW138702   3.621   0.549   9.650 -0.0079  2.3505 -0.4686
 9081SOL    HW238703   3.682   0.581   9.513 -0.8642  1.4745  0.2224
 9082SOL     OW38704   2.968   0.339  15.208  0.0675 -0.6549  0.2318
 9082SOL    HW138705   2.974   0.264  15.149  0.8682 -0.2915 -0.1535
 9082SOL    HW238706   3.064   0.342  15.212  0.0197 -1.0776  1.7186
 9083SOL     OW38707   2.516   1.056   3.469 -0.3155  0.1922  0.0706
 9083SOL    HW138708   2.452   0.986   3.456 -0.5280  0.5073 -0.5874
 9083SOL    HW238709   2.597   1.039   3.421 -0.3318 -1.5124  0.6606
 9084SOL     OW38710   1.556   0.951   0.418  0.3131 -0.8618  0.3392
 9084SOL    HW138711   1.461   0.945   0.427 -0.0679  1.6439 -2.0959
 9084SOL    HW238712   1.562   0.909   0.332 -0.5458 -1.4979  0.5931
 9085SOL     OW38713   1.232   3.145  11.169 -0.0814  0.2558  0.2918
 9085SOL    HW138714   1.168   3.173  11.234  1.0606  1.6606  0.8376
 9085SOL    HW238715   1.209   3.053  11.161 -0.3442  0.5380 -2.1697
 9086SOL     OW38716   4.467   0.503   7.819  0.2738  0.0434  0.0298
 9086SOL    HW138717   4.479   0.576   7.759  0.4115 -0.3468 -0.4223
 9086SOL    HW238718   4.440   0.549   7.898 -0.6442  2.6884 -1.8449
 9087SOL     OW38719   3.868   1.694   3.054  0.0450  0.2703  0.1987
 9087SOL    HW138720   3.870   1.773   3.109  0.8774  0.6139 -0.3358
 9087SOL    HW238721   3.913   1.725   2.976  0.1956 -1.7173 -0.4979
 9088SOL     OW38722   1.341   3.500   3.097  0.4214  0.0535 -0.3464
 9088SOL    HW138723   1.278   3.504   3.026  1.7589  1.6036 -1.4291
 9088SOL    HW238724   1.303   3.562   3.159 -0.5057 -0.1690 -0.6924
 9089SOL     OW38725   1.922   1.042  14.191 -0.4221 -0.2153 -0.3392
 9089SOL    HW138726   1.839   1.037  14.144 -1.5908 -1.3887  1.8732
 9089SOL    HW238727   1.981   0.986  14.141  0.7171  2.4371 -1.9891
 9090SOL     OW38728   3.167   1.683   6.473  0.1913  0.2787  0.4722
 9090SOL    HW138729   3.232   1.746   6.442 -0.4178 -0.7395 -2.8101
 9090SOL    HW238730   3.186   1.603   6.425 -1.0574  1.0986 -1.4146
 9091SOL     OW38731   0.569   2.902   2.815  0.3196  0.3887  0.0056
 9091SOL    HW138732   0.643   2.842   2.821 -0.4476 -0.5304  0.3404
 9091SOL    HW238733   0.547   2.903   2.721  2.8053 -0.8610 -0.5940
 9092SOL     OW38734   0.872   3.942  10.892  0.1031  0.0416  0.6612
 9092SOL    HW138735   0.811   3.874  10.864  1.5415 -0.2673 -1.7231
 9092SOL    HW238736   0.811   3.995  10.943  1.5087  0.8364  1.5376
 9093SOL     OW38737   4.035   3.647   4.400  0.0816  0.2651 -0.0579
 9093SOL    HW138738   4.052   3.556   4.372 -2.2487 -0.4706  0.9998
 9093SOL    HW238739   4.069   3.701   4.328 -0.4685  0.2415 -0.3327
 9094SOL     OW38740   3.193   4.517   4.793  0.2410 -0.1475  0.2308
 9094SOL    HW138741   3.107   4.540   4.758  0.0379 -1.9377 -0.4638
 9094SOL    HW238742   3.213   4.597   4.841 -1.7523  0.4106  0.1264
 9095SOL     OW38743   0.585   0.429  11.353 -0.4094  0.0498  0.4468
 9095SOL    HW138744   0.505   0.441  11.301 -0.1745  0.7508  0.2450
 9095SOL    HW238745   0.655   0.466  11.298  0.1218 -3.1009 -0.9665
 9096SOL     OW38746   2.172   2.314  15.196 -0.1428  0.5511  0.2664
 9096SOL    HW138747   2.203   2.285  15.110  0.8052 -0.2708  0.8879
 9096SOL    HW238748   2.201   2.405  15.201  2.6639 -0.2912 -0.4680
 9097SOL     OW38749   1.948   1.573   6.121 -0.3302 -1.0141 -0.4090
 9097SOL    HW138750   1.863   1.569   6.076 -0.7964  0.4551  0.3255
 9097SOL    HW238751   1.946   1.519   6.200  0.3126 -1.0791 -0.4371
 9098SOL     OW38752   4.523   2.769   9.304 -0.2137  0.0163 -0.2353
 9098SOL    HW138753   4.609   2.809   9.292  0.3832 -1.3158 -0.4501
 9098SOL    HW238754   4.471   2.798   9.229  0.2514  0.5975 -0.3308
 9099SOL     OW38755   3.294   3.981   7.368  0.3919 -0.3014  0.3871
 9099SOL    HW138756   3.284   3.980   7.273 -0.4037  2.3150  0.4400
 9099SOL    HW238757   3.387   3.998   7.379  0.4275 -0.3396  0.1476
 9100SOL     OW38758   2.159   1.261   6.265  0.0483  0.1910 -0.5124
 9100SOL    HW138759   2.114   1.344   6.282 -0.6334  0.3277 -2.8809
 9100SOL    HW238760   2.249   1.285   6.243 -0.1462  2.0627  0.7865
 9101SOL     OW38761   3.325   1.181  14.831 -0.1544  0.0047  0.0563
 9101SOL    HW138762   3.235   1.170  14.801 -0.4392  2.2261  0.1012
 9101SOL    HW238763   3.323   1.145  14.919  0.1230 -1.9706 -0.7561
 9102SOL     OW38764   1.831   1.685  16.810 -0.0891  0.1126  0.0572
 9102SOL    HW138765   1.822   1.687  16.714 -1.2145 -1.9811  0.1219
 9102SOL    HW238766   1.805   1.774  16.836 -1.3997  0.2604 -1.7388
 9103SOL     OW38767   1.193   4.267   1.551 -0.1799  0.5123  0.2791
 9103SOL    HW138768   1.119   4.321   1.577 -0.7238 -0.5010  0.8255
 9103SOL    HW238769   1.183   4.276   1.456  1.7457 -2.3352 -0.2002
 9104SOL     OW38770   4.529   4.266   9.432  0.2375 -0.5051  0.1201
 9104SOL    HW138771   4.579   4.316   9.497 -0.4974  0.7631 -0.2786
 9104SOL    HW238772   4.582   4.272   9.352 -1.4060  0.1234 -0.9136
 9105SOL     OW38773   1.039   2.562   5.318  0.2979 -0.4095  1.0712
 9105SOL    HW138774   0.965   2.602   5.365 -1.4315 -0.5377 -1.5798
 9105SOL    HW238775   1.097   2.542   5.392  0.8170  1.1786  1.0993
 9106SOL     OW38776   3.774   0.023   1.518 -0.4722 -0.1524  0.5174
 9106SOL    HW138777   3.737   0.053   1.601  1.1685 -1.5214  1.7510
 9106SOL    HW238778   3.714   4.679   1.491 -0.1638 -0.8089  1.5350
 9107SOL     OW38779   0.703   2.545   1.475 -0.0030  0.2987  0.0702
 9107SOL    HW138780   0.737   2.546   1.565 -0.0233  0.5653  0.0754
 9107SOL    HW238781   0.697   2.639   1.457 -1.0578  0.2243  0.0481
 9108SOL     OW38782   1.329   4.162   8.737  0.0468  0.0473  0.9473
 9108SOL    HW138783   1.342   4.145   8.830  0.8995 -2.5653  0.3690
 9108SOL    HW238784   1.342   4.076   8.695 -0.0318 -0.7147  2.4899
 9109SOL     OW38785   3.338   1.038  10.104 -0.2608  0.1638  0.1428
 9109SOL    HW138786   3.278   0.964  10.108 -2.8372  2.1689 -1.5618
 9109SOL    HW238787   3.380   1.048  10.190  0.9761  0.0404 -0.4450
 9110SOL     OW38788   1.373   1.357  17.508  0.0173 -0.2736  0.5068
 9110SOL    HW138789   1.381   1.443  17.549  1.2511  0.0473 -0.3853
 9110SOL    HW238790   1.278   1.358  17.501  0.1055  1.7124 -0.4369
 9111SOL     OW38791   1.538   2.459  17.000 -0.3960  0.0215  0.1220
 9111SOL    HW138792   1.601   2.516  16.956  0.0755 -0.5359  0.0657
 9111SOL    HW238793   1.552   2.483  17.091 -0.4141  0.0101  0.1278
 9112SOL     OW38794   1.222   3.830   5.335  0.1132 -0.4537 -0.3792
 9112SOL    HW138795   1.293   3.847   5.397  0.5653 -0.8290 -0.7940
 9112SOL    HW238796   1.191   3.749   5.374 -0.8776  1.0898  1.9966
 9113SOL     OW38797   2.889   1.702   0.900 -0.3715  0.2228 -0.0690
 9113SOL    HW138798   2.850   1.789   0.901  3.7588  2.0761  0.0589
 9113SOL    HW238799   2.926   1.715   0.813 -0.4884  1.2613  0.0403
 9114SOL     OW38800   1.692   1.064   5.760 -0.4424  0.1961  0.2494
 9114SOL    HW138801   1.691   0.972   5.784 -1.2006  0.2617  0.4876
 9114SOL    HW238802   1.741   1.107   5.830 -0.5476 -0.7262  0.8868
 9115SOL     OW38803   1.903   2.027   8.503 -0.5663 -0.2805 -0.2816
 9115SOL    HW138804   1.879   2.097   8.563  0.5049 -0.7329  0.6899
 9115SOL    HW238805   1.820   1.980   8.513  0.6603 -1.8568  2.6998
 9116SOL     OW38806   3.615   3.839   6.099  0.5026  0.1847  0.1546
 9116SOL    HW138807   3.568   3.778   6.042  1.7022  0.8066 -1.4930
 9116SOL    HW238808   3.676   3.878   6.037 -0.4376 -0.1935 -0.9973
 9117SOL     OW38809   0.710   4.309   9.637 -0.6573 -0.4199  0.1996
 9117SOL    HW138810   0.652   4.248   9.682  1.2129 -0.9168  1.9417
 9117SOL    HW238811   0.768   4.247   9.592 -0.9352 -1.0885  0.7777
 9118SOL     OW38812   0.369   1.419   4.005  0.3501  0.2335 -0.7826
 9118SOL    HW138813   0.361   1.366   3.926  2.6750 -0.9403 -0.2538
 9118SOL    HW238814   0.367   1.356   4.077  1.0738  1.5132  0.3459
 9119SOL     OW38815   0.027   4.486   6.565  0.5631  0.2119  0.0920
 9119SOL    HW138816   4.671   4.464   6.610  1.3209 -1.5961  0.5378
 9119SOL    HW238817   4.719   4.539   6.492 -1.0966 -0.9348  0.0148
 9120SOL     OW38818   2.739   1.867   4.183 -0.5538 -0.0518  0.3508
 9120SOL    HW138819   2.731   1.775   4.206 -2.4356  0.0644  0.1079
 9120SOL    HW238820   2.825   1.871   4.141 -0.0925 -1.0433  1.2019
 9121SOL     OW38821   1.787   4.251   8.026  0.5336  0.2941 -0.3026
 9121SOL    HW138822   1.831   4.307   8.090 -0.8987  0.9168  0.1318
 9121SOL    HW238823   1.706   4.218   8.065 -0.1070  1.3610 -0.7534
 9122SOL     OW38824   1.484   1.528  16.754 -0.1386 -0.4671  0.0771
 9122SOL    HW138825   1.499   1.502  16.845 -1.2143  0.0470  0.4010
 9122SOL    HW238826   1.442   1.451  16.714  1.2188  0.0757 -2.4089
 9123SOL     OW38827   0.983   4.644   3.456  0.2655  0.1199  0.2974
 9123SOL    HW138828   0.902   4.684   3.425  1.1569  1.7475  0.1034
 9123SOL    HW238829   0.957   4.657   3.547  2.0384  1.0904  0.6727
 9124SOL     OW38830   3.241   0.026   3.600  0.2747 -0.0698 -0.4840
 9124SOL    HW138831   3.300   0.088   3.557  0.1304  0.9741  0.8283
 9124SOL    HW238832   3.215   0.076   3.678  0.2848  0.4952 -0.8414
 9125SOL     OW38833   0.437   3.824   2.501 -0.6578  0.0947 -0.2213
 9125SOL    HW138834   0.446   3.730   2.485  4.4850  0.7616 -1.2700
 9125SOL    HW238835   0.342   3.836   2.496 -0.5365  0.9694 -0.5633
 9126SOL     OW38836   2.877   0.165   7.368 -0.3547 -0.0362  0.0932
 9126SOL    HW138837   2.850   0.249   7.405 -0.6997  0.0027 -0.2578
 9126SOL    HW238838   2.795   0.125   7.342 -0.2686  0.8236 -1.4834
 9127SOL     OW38839   2.559   0.916   7.454 -0.4566  0.5268  0.1684
 9127SOL    HW138840   2.505   0.893   7.530 -0.3083 -0.4546 -0.0334
 9127SOL    HW238841   2.494   0.897   7.387 -3.4583 -0.8967  3.4603
 9128SOL     OW38842   1.165   2.990   8.436  0.4782  0.4619 -0.1195
 9128SOL    HW138843   1.251   3.032   8.445  0.4543 -0.2332  3.3888
 9128SOL    HW238844   1.126   3.025   8.516 -0.7291 -1.3157  0.0710
 9129SOL     OW38845   3.423   0.319   4.296  0.1997 -0.0180  0.1617
 9129SOL    HW138846   3.465   0.403   4.278  0.8334 -0.2830  0.3986
 9129SOL    HW238847   3.502   0.266   4.312 -0.0934 -0.1004  1.3366
 9130SOL     OW38848   2.987   4.536   7.919 -0.1387  0.7272  0.2912
 9130SOL    HW138849   2.970   4.544   7.825 -0.5019 -0.7487  0.2409
 9130SOL    HW238850   2.972   4.628   7.943 -2.6262  0.1996  0.8306
 9131SOL     OW38851   1.902   2.626   1.858  0.6728 -0.2169 -0.4104
 9131SOL    HW138852   1.896   2.531   1.866 -0.2740 -0.1826 -0.7042
 9131SOL    HW238853   1.815   2.653   1.886  0.4945 -0.7751 -0.4429
 9132SOL     OW38854   1.254   2.681  10.430 -0.2936 -0.0241 -0.5752
 9132SOL    HW138855   1.335   2.678  10.481 -2.0016 -0.2066  2.1459
 9132SOL    HW238856   1.217   2.766  10.453  1.1511 -0.0302  1.7937
 9133SOL     OW38857   3.062   2.551   3.237  0.1481  0.3004 -0.0260
 9133SOL    HW138858   3.022   2.474   3.195  2.5206 -0.5364 -0.7388
 9133SOL    HW238859   2.982   2.599   3.259  0.3267  0.3182  0.5687
 9134SOL     OW38860   1.928   1.564   4.679  0.0104 -0.3142  0.2787
 9134SOL    HW138861   1.863   1.494   4.676 -1.2660  0.8194  1.7292
 9134SOL    HW238862   1.917   1.610   4.595  1.1687 -2.9370 -1.3036
 9135SOL     OW38863   0.204   3.299   3.306  0.2789  0.2538 -0.4831
 9135SOL    HW138864   0.270   3.268   3.368  0.6109  3.1008  0.5745
 9135SOL    HW238865   0.148   3.221   3.304  0.3408  0.1996 -0.0365
 9136SOL     OW38866   1.429   0.836   3.393  0.3797 -0.5471  0.0841
 9136SOL    HW138867   1.393   0.921   3.420 -0.8605 -1.0366 -0.0160
 9136SOL    HW238868   1.360   0.824   3.328 -0.5259 -1.9350  1.3103
 9137SOL     OW38869   3.793   1.975  14.661 -0.3584 -0.1634  0.1045
 9137SOL    HW138870   3.862   1.997  14.599  2.4699 -0.9388  2.9829
 9137SOL    HW238871   3.840   2.003  14.740  0.8405 -0.5625 -0.4801
 9138SOL     OW38872   3.981   0.045  15.070  0.1595  0.2162 -0.6213
 9138SOL    HW138873   3.889   0.043  15.098  0.1838 -1.7172 -0.6792
 9138SOL    HW238874   3.996   4.686  15.027  1.7568  0.8523 -1.2676
 9139SOL     OW38875   0.287   3.570   3.236  0.2793  0.2675 -0.6475
 9139SOL    HW138876   0.251   3.484   3.256 -3.0842  1.7533 -0.3546
 9139SOL    HW238877   0.372   3.553   3.276 -0.5042 -0.5562  0.6920
 9140SOL     OW38878   4.694   0.780   3.347 -0.6750 -0.2290  0.0014
 9140SOL    HW138879   4.688   0.857   3.290  2.3956  1.6611  2.2445
 9140SOL    HW238880   4.603   0.756   3.365 -1.7399  2.0625 -2.1758
 9141SOL     OW38881   1.725   1.610   5.969  0.2880 -0.7353  0.3072
 9141SOL    HW138882   1.637   1.642   5.954  0.9048  0.1002 -1.5279
 9141SOL    HW238883   1.756   1.593   5.880 -0.1624 -0.5896  0.1247
 9142SOL     OW38884   1.341   3.732   3.879  0.0511 -0.2019 -0.1426
 9142SOL    HW138885   1.317   3.643   3.904  0.6606 -0.1585  0.6141
 9142SOL    HW238886   1.260   3.773   3.910 -0.3845 -0.9913 -0.2581
 9143SOL     OW38887   2.350   3.437   8.797  0.2906 -0.4079  0.1600
 9143SOL    HW138888   2.395   3.489   8.862 -0.0890 -0.5535  0.5411
 9143SOL    HW238889   2.265   3.472   8.772  1.0167  1.1723 -0.0495
 9144SOL     OW38890   1.202   1.533   0.692 -0.1085  0.8687  0.0746
 9144SOL    HW138891   1.120   1.484   0.679  0.1677  0.3114  0.4209
 9144SOL    HW238892   1.245   1.495   0.615  0.9928 -1.1885  1.7277
 9145SOL     OW38893   4.149   0.205  16.102  0.2253  0.6266  0.0215
 9145SOL    HW138894   4.091   0.207  16.179  0.5201  0.7602  0.2419
 9145SOL    HW238895   4.128   0.293  16.073 -2.3696 -0.3619 -1.1253
 9146SOL     OW38896   3.682   1.807   8.559  0.1734 -0.4911 -0.6409
 9146SOL    HW138897   3.632   1.817   8.478 -0.1057  1.1571 -0.2680
 9146SOL    HW238898   3.740   1.883   8.557 -0.8894  0.2722 -2.4904
 9147SOL     OW38899   0.756   2.124   7.647 -0.0843  0.2519  0.4012
 9147SOL    HW138900   0.758   2.180   7.724  1.1739  0.8416 -0.0623
 9147SOL    HW238901   0.699   2.053   7.678 -0.5766 -0.4958 -2.2449
 9148SOL     OW38902   1.841   1.542   5.408  0.3376 -0.2349 -0.5453
 9148SOL    HW138903   1.844   1.449   5.388 -2.5772 -0.9003  2.1227
 9148SOL    HW238904   1.933   1.567   5.398  0.2862 -0.1746 -0.8623
 9149SOL     OW38905   2.385   1.077  15.318 -0.3154 -0.4752  0.0217
 9149SOL    HW138906   2.297   1.088  15.354 -0.4344  1.2666 -0.7962
 9149SOL    HW238907   2.372   1.033  15.234 -1.6675 -0.7105  0.3481
 9150SOL     OW38908   1.533   0.071  16.707  0.2711  0.0178 -0.3344
 9150SOL    HW138909   1.614   0.022  16.715 -1.7866 -3.1146  1.5585
 9150SOL    HW238910   1.511   0.083  16.799 -1.5342 -0.4684 -0.6884
 9151SOL     OW38911   4.136   3.858  11.267 -0.4353 -0.2611  0.1971
 9151SOL    HW138912   4.099   3.909  11.196 -0.6921  0.8995  1.1659
 9151SOL    HW238913   4.225   3.891  11.268 -0.6928  0.4540 -0.7931
 9152SOL     OW38914   3.510   3.887   6.912  0.3451 -0.1223 -0.2228
 9152SOL    HW138915   3.437   3.883   6.973 -0.1463  2.4061 -0.6336
 9152SOL    HW238916   3.552   3.806   6.940 -0.4290  0.0526  1.3889
 9153SOL     OW38917   3.160   3.570   6.522 -0.7573 -0.3566  0.1538
 9153SOL    HW138918   3.182   3.479   6.544  0.5418  0.5675  2.7106
 9153SOL    HW238919   3.190   3.567   6.431  0.3860  2.1662  0.4410
 9154SOL     OW38920   1.900   2.587   7.997 -0.3756  0.2700  0.2010
 9154SOL    HW138921   1.883   2.494   8.013  0.7954 -0.4031 -2.3746
 9154SOL    HW238922   1.809   2.616   7.992 -0.2093  0.7548 -0.0129
 9155SOL     OW38923   4.288   2.333   8.696  0.3193 -0.3852 -0.6471
 9155SOL    HW138924   4.303   2.319   8.789 -0.2980 -1.5711 -0.7238
 9155SOL    HW238925   4.281   2.244   8.663 -1.2345 -0.0727 -1.1654
 9156SOL     OW38926   2.133   1.649   9.124  0.4369 -0.4064  0.0096
 9156SOL    HW138927   2.128   1.568   9.072  0.7075 -0.2180 -0.3066
 9156SOL    HW238928   2.047   1.689   9.110  0.5494  0.4790  1.9244
 9157SOL     OW38929   1.332   1.883   0.948  0.5202 -0.0588 -0.1337
 9157SOL    HW138930   1.311   1.792   0.926  0.6615 -0.1193 -0.0189
 9157SOL    HW238931   1.326   1.875   1.044 -0.5417 -0.7735 -0.2481
 9158SOL     OW38932   3.081   3.602   2.333  0.1557  0.8926 -0.6740
 9158SOL    HW138933   3.141   3.653   2.387 -2.0747  0.0493  2.6341
 9158SOL    HW238934   3.110   3.514   2.360  0.5095  0.1432 -3.5040
 9159SOL     OW38935   4.227   0.306   3.867 -0.8091 -0.0733  0.1452
 9159SOL    HW138936   4.254   0.245   3.799  1.0235  0.2565  0.5745
 9159SOL    HW238937   4.294   0.298   3.935  0.0280  2.9023 -0.3183
 9160SOL     OW38938   0.957   3.322  11.979 -0.3313 -0.3185  0.1829
 9160SOL    HW138939   0.960   3.256  11.909  0.8036  0.3868 -0.4395
 9160SOL    HW238940   1.028   3.373  11.939 -1.2073 -0.3073 -1.3752
 9161SOL     OW38941   2.959   0.631   1.041 -0.1197  0.0264  0.3982
 9161SOL    HW138942   3.022   0.623   1.113 -0.1110  0.9789  0.4923
 9161SOL    HW238943   2.875   0.642   1.087  0.4670  0.4176  1.3820
 9162SOL     OW38944   4.162   2.147   3.847  0.6169  0.5377  0.7057
 9162SOL    HW138945   4.100   2.204   3.801  0.1757 -0.0934  0.5056
 9162SOL    HW238946   4.184   2.193   3.928  0.8808  1.0198  0.3581
 9163SOL     OW38947   3.664   0.614   1.298 -0.4115 -0.4303 -0.1192
 9163SOL    HW138948   3.600   0.682   1.276 -0.1690  0.0408  0.6164
 9163SOL    HW238949   3.644   0.604   1.392 -0.4120  0.4558 -0.0239
 9164SOL     OW38950   2.546   1.549   0.392  0.7790  0.2550 -0.4327
 9164SOL    HW138951   2.460   1.574   0.359 -0.3738 -0.3099  2.1561
 9164SOL    HW238952   2.518   1.463   0.423  0.0272  0.7479  0.2551
 9165SOL     OW38953   2.958   4.707   5.344 -0.1399  0.7992 -0.3406
 9165SOL    HW138954   2.990   0.059   5.297  0.5955 -0.4927 -1.9957
 9165SOL    HW238955   2.920   0.028   5.418 -0.7630 -1.6017  0.8357
 9166SOL     OW38956   0.285   4.609   9.020  0.0899  0.4682  0.3495
 9166SOL    HW138957   0.377   4.585   9.028 -0.2671 -0.5297  1.5295
 9166SOL    HW238958   0.244   4.575   9.100  0.3773 -0.0715  0.2651
 9167SOL     OW38959   0.300   2.295  13.922  0.0188  0.4349 -0.6959
 9167SOL    HW138960   0.338   2.337  13.845  2.7670 -0.1601  0.3415
 9167SOL    HW238961   0.239   2.234  13.881 -0.2802 -0.5511  1.2044
 9168SOL     OW38962   4.310   4.030   4.934 -0.6409  0.6081 -0.1045
 9168SOL    HW138963   4.383   4.042   4.873 -0.2000 -0.2537  0.2600
 9168SOL    HW238964   4.344   3.958   4.987  0.2321  0.7762 -0.4367
 9169SOL     OW38965   0.047   3.750  12.480  0.4912 -0.1150 -0.4106
 9169SOL    HW138966   0.109   3.792  12.421  0.2979 -1.1941 -1.3797
 9169SOL    HW238967   0.061   3.658  12.458  0.2655 -0.0945 -0.6419
 9170SOL     OW38968   0.820   3.307   4.834 -0.0400 -0.3360  0.2534
 9170SOL    HW138969   0.862   3.305   4.748  3.3741 -1.7133  1.9385
 9170SOL    HW238970   0.829   3.214   4.854  0.3357  0.1771  2.4432
 9171SOL     OW38971   2.480   2.926   6.560  0.1710  0.2778 -0.1729
 9171SOL    HW138972   2.439   3.000   6.516 -0.8910 -1.4440 -2.0703
 9171SOL    HW238973   2.464   2.854   6.499 -1.0288 -0.0860  0.5616
 9172SOL     OW38974   1.997   3.217   1.594 -0.3023 -0.4966 -0.5020
 9172SOL    HW138975   2.009   3.175   1.679  2.1670  1.8066  0.2888
 9172SOL    HW238976   1.907   3.248   1.603  0.1690  0.8114 -0.3237
 9173SOL     OW38977   3.079   4.429   1.253  0.2013  0.0591 -0.0763
 9173SOL    HW138978   3.097   4.475   1.171  0.4931  1.8204  0.9793
 9173SOL    HW238979   3.026   4.497   1.294  0.2147  0.2042 -0.2957
 9174SOL     OW38980   0.355   0.835   5.025 -0.6925  0.4190 -0.3240
 9174SOL    HW138981   0.373   0.882   5.107  1.1774  0.0403 -0.5110
 9174SOL    HW238982   0.435   0.786   5.004 -1.5812 -0.5838 -1.3713
 9175SOL     OW38983   4.370   0.503   9.530  0.6694  0.0655 -0.2576
 9175SOL    HW138984   4.331   0.549   9.456 -0.1761  0.9786  0.7515
 9175SOL    HW238985   4.321   0.541   9.603 -0.6378  1.0465 -1.6581
 9176SOL     OW38986   1.491   1.893  11.775 -0.4410 -0.7010  0.0876
 9176SOL    HW138987   1.455   1.916  11.860 -0.3696 -0.4069  0.0386
 9176SOL    HW238988   1.554   1.965  11.765 -0.4323 -0.6495  0.5254
 9177SOL     OW38989   3.235   3.282   7.129 -0.3948 -0.6339  0.1083
 9177SOL    HW138990   3.315   3.251   7.173 -0.3443 -0.7770 -0.0838
 9177SOL    HW238991   3.166   3.230   7.170 -1.0860  0.8707  0.8381
 9178SOL     OW38992   1.467   0.551  17.478 -0.0408  0.5632  0.0348
 9178SOL    HW138993   1.523   0.578  17.550 -0.6892  1.2909  0.2717
 9178SOL    HW238994   1.508   0.596  17.404  0.6422  1.3175  0.8844
 9179SOL     OW38995   3.160   2.793   0.988 -0.6379 -0.4161  0.0745
 9179SOL    HW138996   3.122   2.706   0.994 -0.0487 -0.6187  0.9550
 9179SOL    HW238997   3.087   2.852   0.968  1.1184  1.5164 -0.7164
 9180SOL     OW38998   0.854   1.352  12.008 -0.0672  0.0891  0.1552
 9180SOL    HW138999   0.787   1.315  11.951  1.7455 -0.2437 -1.7737
 9180SOL    HW239000   0.885   1.436  11.976  0.8018 -0.4340 -0.3840
 9181SOL     OW39001   4.171   0.638   3.009  0.4038 -0.0417  0.1496
 9181SOL    HW139002   4.147   0.545   3.006  1.0648 -0.2399  1.1865
 9181SOL    HW239003   4.214   0.644   2.924 -0.4444 -1.8801 -0.4344
 9182SOL     OW39004   1.432   2.836   6.038  0.7915  0.2688 -0.3328
 9182SOL    HW139005   1.420   2.804   6.127  3.0780  0.3871  0.0059
 9182SOL    HW239006   1.400   2.926   6.036 -1.2252 -0.4276  0.8683
 9183SOL     OW39007   2.750   4.208   9.872 -0.6467 -0.0393  0.6010
 9183SOL    HW139008   2.700   4.140   9.916 -0.0330 -0.3478  0.8193
 9183SOL    HW239009   2.790   4.162   9.797 -1.5715  0.0053  0.0851
 9184SOL     OW39010   2.417   3.913  14.538  0.2951  0.6421  0.0102
 9184SOL    HW139011   2.418   3.877  14.627 -1.4057 -0.8968 -0.5796
 9184SOL    HW239012   2.399   3.831  14.492  0.4898 -0.0932  1.2353
 9185SOL     OW39013   0.790   0.578   9.748 -0.3933 -0.2032 -0.2024
 9185SOL    HW139014   0.778   0.594   9.842  2.7586 -1.8052  0.4683
 9185SOL    HW239015   0.739   0.648   9.707  2.0460  1.0554 -1.1163
 9186SOL     OW39016   2.044   2.695   2.548 -0.2958  0.8251 -0.4468
 9186SOL    HW139017   2.075   2.607   2.571 -0.7378  0.6493 -0.5118
 9186SOL    HW239018   2.122   2.730   2.505  0.8339  1.0329  1.7807
 9187SOL     OW39019   0.341   4.127   6.961 -0.4234 -0.7409  0.4681
 9187SOL    HW139020   0.273   4.191   6.980  2.5284  1.7562  2.7837
 9187SOL    HW239021   0.406   4.191   6.932 -1.3589  0.0324  0.1074
 9188SOL     OW39022   0.582   0.660   6.098 -0.2474  0.0027  0.1514
 9188SOL    HW139023   0.592   0.724   6.169  0.3030  1.8195 -1.5327
 9188SOL    HW239024   0.500   0.674   6.050 -1.7848 -0.2395  2.7382
 9189SOL     OW39025   0.052   0.391   3.735  0.2306  0.3714 -0.4041
 9189SOL    HW139026   0.025   0.469   3.686  0.6695 -0.8084 -2.5184
 9189SOL    HW239027   0.133   0.421   3.774 -0.5284 -0.4451  1.7661
 9190SOL     OW39028   3.126   0.642   5.879 -0.0895 -0.4397 -0.3439
 9190SOL    HW139029   3.182   0.619   5.805 -1.0912  2.7023 -2.0724
 9190SOL    HW239030   3.193   0.614   5.942 -0.2743  0.9568  0.4890
 9191SOL     OW39031   1.692   4.359  16.787  0.0082  0.0480 -0.2620
 9191SOL    HW139032   1.770   4.308  16.768  0.6151 -0.0798  2.5916
 9191SOL    HW239033   1.626   4.318  16.730 -1.0330  3.6670 -1.6498
 9192SOL     OW39034   4.061   2.830   5.720 -0.3819 -0.3600 -0.0978
 9192SOL    HW139035   4.135   2.856   5.774  0.3718 -1.7279 -0.4763
 9192SOL    HW239036   3.991   2.890   5.746 -0.5232 -0.3293 -0.5412
 9193SOL     OW39037   4.170   4.657  12.314  0.2853  0.2786 -0.0694
 9193SOL    HW139038   4.076   4.678  12.311  1.1669  4.2343 -0.0246
 9193SOL    HW239039   4.201   4.684  12.400  0.0247  1.7906 -0.4565
 9194SOL     OW39040   1.850   2.565  12.127  0.0837  0.2622 -0.1897
 9194SOL    HW139041   1.763   2.557  12.088  0.7247 -1.7199 -1.1608
 9194SOL    HW239042   1.855   2.488  12.183 -0.2142 -0.8198 -1.6586
 9195SOL     OW39043   2.407   3.744   4.900 -0.0997 -0.3062 -0.0993
 9195SOL    HW139044   2.498   3.772   4.886  0.4765 -2.5839 -0.8276
 9195SOL    HW239045   2.410   3.689   4.823  0.0409 -1.0067  0.4104
 9196SOL     OW39046   0.193   1.641   9.415 -0.4094 -0.1014 -0.9733
 9196SOL    HW139047   0.217   1.557   9.453 -2.2024  0.0267  0.4069
 9196SOL    HW239048   0.126   1.616   9.351  0.5391 -0.7239 -1.7249
 9197SOL     OW39049   1.348   1.095   2.640  0.5306  0.0019  0.3230
 9197SOL    HW139050   1.368   1.189   2.635  1.6810 -0.3993 -2.2019
 9197SOL    HW239051   1.254   1.093   2.624  0.8355  1.7146 -1.6283
 9198SOL     OW39052   3.721   4.533   8.244 -0.4879  0.2675  0.5600
 9198SOL    HW139053   3.719   4.612   8.189 -1.1436 -0.2710 -0.1925
 9198SOL    HW239054   3.814   4.539   8.263 -0.1375  1.3772 -1.4523
 9199SOL     OW39055   3.976   0.550   6.697 -0.0998  0.0664  0.6258
 9199SOL    HW139056   3.919   0.485   6.737  1.8454 -0.3255  2.7458
 9199SOL    HW239057   4.054   0.496   6.685 -2.1090 -2.7819  0.3792
 9200SOL     OW39058   4.129   0.810   6.946  0.1421  0.5827 -0.1524
 9200SOL    HW139059   4.152   0.766   6.864 -1.6368 -0.0611 -0.2880
 9200SOL    HW239060   4.111   0.740   7.009  1.3181 -0.0377 -0.5126
 9201SOL     OW39061   1.319   1.053   5.610  0.6740 -0.5786  0.7064
 9201SOL    HW139062   1.237   1.003   5.606 -0.2992  1.1517 -0.5683
 9201SOL    HW239063   1.311   1.104   5.530 -0.4632  0.2934  1.3828
 9202SOL     OW39064   1.824   0.298   1.965 -0.1011 -0.3565 -0.1456
 9202SOL    HW139065   1.855   0.373   1.914  1.5192 -1.0830 -0.2224
 9202SOL    HW239066   1.896   0.275   2.024 -2.2892 -3.2230  1.4447
 9203SOL     OW39067   4.367   3.159  11.171  0.1058  0.1189  0.3443
 9203SOL    HW139068   4.286   3.141  11.219 -1.2413  0.0699 -1.9360
 9203SOL    HW239069   4.338   3.158  11.080  1.3135 -1.2343 -0.0363
 9204SOL     OW39070   3.427   1.141   9.226 -0.3190 -0.0005 -0.4651
 9204SOL    HW139071   3.361   1.176   9.285 -1.2004 -2.1401 -0.1755
 9204SOL    HW239072   3.502   1.129   9.286 -0.5291  1.5485  0.1007
 9205SOL     OW39073   4.585   2.507  13.589 -0.0831  0.1810  0.4259
 9205SOL    HW139074   4.584   2.480  13.681  2.0271 -0.2270  0.3135
 9205SOL    HW239075   4.612   2.599  13.596  0.2448 -0.0764  2.4534
 9206SOL     OW39076   4.478   2.838   3.936 -0.2118  0.3190  0.2332
 9206SOL    HW139077   4.537   2.819   3.864 -1.1652 -0.5507 -0.3257
 9206SOL    HW239078   4.446   2.923   3.906  2.6558  1.7499  1.2990
 9207SOL     OW39079   0.873   1.452   2.277  0.0588 -0.3329 -0.6960
 9207SOL    HW139080   0.835   1.473   2.363  1.1801  1.8084 -0.7312
 9207SOL    HW239081   0.854   1.528   2.222  0.4605  1.6785  1.9290
 9208SOL     OW39082   0.863   0.419  16.385  0.3394  0.0506 -0.1883
 9208SOL    HW139083   0.904   0.412  16.471  2.6706  2.0431 -1.1161
 9208SOL    HW239084   0.789   0.479  16.393  0.6201  0.2791  0.6855
 9209SOL     OW39085   2.244   0.737  12.324 -0.9642 -0.5287  0.1939
 9209SOL    HW139086   2.181   0.808  12.317  1.0731  1.3875  1.1386
 9209SOL    HW239087   2.248   0.725  12.418  0.6344  0.9043  0.3048
 9210SOL     OW39088   2.707   2.207   5.060  0.3996 -0.2684 -0.5897
 9210SOL    HW139089   2.783   2.190   5.116 -0.7662  0.8922  1.3071
 9210SOL    HW239090   2.641   2.201   5.129  1.4366 -2.3373  0.2314
 9211SOL     OW39091   0.357   1.849   9.332 -0.2661  0.2718  0.6853
 9211SOL    HW139092   0.272   1.825   9.367 -0.9863  1.4928 -0.2268
 9211SOL    HW239093   0.383   1.768   9.289  0.6585  0.2159  1.3408
 9212SOL     OW39094   4.358   2.326   3.222  0.3020 -0.0572  0.0039
 9212SOL    HW139095   4.379   2.244   3.267  1.6337  0.3059  0.0335
 9212SOL    HW239096   4.341   2.301   3.131  3.3816  0.0795 -0.5974
 9213SOL     OW39097   2.715   1.434  15.284  0.0517  0.3414 -0.3295
 9213SOL    HW139098   2.749   1.441  15.373 -1.4829 -1.5647  0.4188
 9213SOL    HW239099   2.741   1.346  15.255 -1.8199 -0.7031  1.1758
 9214SOL     OW39100   3.241   0.169   2.077  0.4415 -0.7705  0.3063
 9214SOL    HW139101   3.184   0.195   2.150 -2.0821  1.5758 -2.5294
 9214SOL    HW239102   3.314   0.230   2.083 -0.2523  0.2354 -1.6917
 9215SOL     OW39103   3.357   2.841   7.218 -0.6055 -0.0884 -0.7700
 9215SOL    HW139104   3.409   2.838   7.298 -1.5396  1.8542 -0.0799
 9215SOL    HW239105   3.281   2.896   7.236 -0.2554 -0.2101  1.0169
 9216SOL     OW39106   3.452   4.267  13.581 -0.1541 -0.3683 -0.5138
 9216SOL    HW139107   3.501   4.319  13.518 -2.0153 -0.9230 -2.4072
 9216SOL    HW239108   3.379   4.324  13.601  0.8765  0.1504  1.8457
 9217SOL     OW39109   0.648   2.822   6.532  0.0257  0.3791  0.1645
 9217SOL    HW139110   0.690   2.840   6.617  0.3743 -1.6725  0.4214
 9217SOL    HW239111   0.568   2.873   6.540 -1.6540 -2.1347 -0.7846
 9218SOL     OW39112   0.970   0.528   2.665  1.0482  0.2457 -0.2521
 9218SOL    HW139113   0.882   0.554   2.690  0.4801  0.0619 -2.0825
 9218SOL    HW239114   0.970   0.450   2.721  2.8442 -0.0823 -0.7086
 9219SOL     OW39115   2.231   4.096  15.438  0.1270 -0.4030  0.4226
 9219SOL    HW139116   2.263   4.183  15.462 -0.1011  0.1888 -1.4693
 9219SOL    HW239117   2.158   4.118  15.380 -0.3605  1.6556  1.8337
 9220SOL     OW39118   3.168   0.832   6.947  0.1562  0.0860  0.1323
 9220SOL    HW139119   3.205   0.778   7.017  0.1866  0.2772  0.2635
 9220SOL    HW239120   3.170   0.920   6.985  1.0570  0.0984  0.0571
 9221SOL     OW39121   0.847   3.240   6.812  0.0006  0.1718 -0.2069
 9221SOL    HW139122   0.774   3.236   6.874 -1.0820  0.4147 -1.4697
 9221SOL    HW239123   0.812   3.288   6.737  1.2367  0.9605 -0.2727
 9222SOL     OW39124   3.166   2.858   4.609 -0.5831  0.2562  0.4361
 9222SOL    HW139125   3.174   2.870   4.514 -1.0837  0.9782  0.4882
 9222SOL    HW239126   3.176   2.948   4.641  0.6357  0.2728  0.0322
 9223SOL     OW39127   1.937   1.158   3.054  0.7203 -0.0289 -0.4535
 9223SOL    HW139128   2.032   1.155   3.041  0.7367 -0.8106 -0.1605
 9223SOL    HW239129   1.935   1.199   3.140  0.9551 -0.1425 -0.3937
 9224SOL     OW39130   0.738   4.199  10.958  0.1005 -0.0270  0.5017
 9224SOL    HW139131   0.647   4.203  10.930  0.0886 -3.0400  0.1133
 9224SOL    HW239132   0.738   4.235  11.046 -0.8165  1.7271 -0.2284
 9225SOL     OW39133   4.715   0.099   1.620  0.4339 -0.1893  0.7341
 9225SOL    HW139134   0.004   0.007   1.643 -0.2184 -0.1727  1.1999
 9225SOL    HW239135   4.651   0.094   1.549  1.8971  0.7495 -0.6563
 9226SOL     OW39136   1.843   2.305   8.092  0.0796  0.8265 -0.3263
 9226SOL    HW139137   1.905   2.264   8.152  1.8728  0.2391 -2.5900
 9226SOL    HW239138   1.783   2.343   8.156  0.3018 -0.6563  0.7582
 9227SOL     OW39139   0.372   4.148   5.605  0.0107 -0.5230 -0.4322
 9227SOL    HW139140   0.459   4.107   5.607 -0.3414 -1.3002 -0.7352
 9227SOL    HW239141   0.393   4.224   5.551  0.9856 -1.2008 -1.0078
 9228SOL     OW39142   0.679   1.187  14.227 -0.2129  0.5339 -0.0069
 9228SOL    HW139143   0.724   1.232  14.298 -0.9031  0.0808  0.7268
 9228SOL    HW239144   0.744   1.117  14.223  1.1190  1.4241  6.1812
 9229SOL     OW39145   4.076   1.518   7.272 -0.0666  0.1409  1.0239
 9229SOL    HW139146   4.067   1.609   7.242 -0.9718 -0.2338  0.1738
 9229SOL    HW239147   4.143   1.496   7.207 -0.0926  2.4348  0.2073
 9230SOL     OW39148   1.510   2.639   4.678 -0.3600  0.3111  0.2110
 9230SOL    HW139149   1.513   2.680   4.765  0.3530  0.6333  0.0388
 9230SOL    HW239150   1.460   2.702   4.626 -0.6602 -0.1892 -0.1005
 9231SOL     OW39151   2.554   0.824   4.351 -0.1229 -0.7814 -0.0727
 9231SOL    HW139152   2.623   0.891   4.347 -0.6165 -0.3150 -0.7386
 9231SOL    HW239153   2.588   0.774   4.425 -0.9634 -0.7824  0.3103
 9232SOL     OW39154   3.759   3.395   4.799 -0.1926 -0.4152  0.2710
 9232SOL    HW139155   3.668   3.423   4.800 -0.4244 -1.0044 -4.0315
 9232SOL    HW239156   3.787   3.431   4.714 -2.2362 -2.1592 -1.1471
 9233SOL     OW39157   4.340   0.121  16.390  0.1237 -0.3085  0.5468
 9233SOL    HW139158   4.368   0.079  16.308  0.0716  3.7749 -1.5751
 9233SOL    HW239159   4.420   0.113  16.442  0.0120 -2.9044  0.3363
 9234SOL     OW39160   0.616   1.294   3.704 -0.3311 -0.0691  1.0036
 9234SOL    HW139161   0.644   1.211   3.665 -1.1512  1.2913 -2.4919
 9234SOL    HW239162   0.527   1.257   3.705  1.6915 -4.9296 -0.6217
 9235SOL     OW39163   4.718   0.603   3.588  0.1662  0.6643  0.0691
 9235SOL    HW139164   0.050   0.661   3.538 -1.4183  2.6175  0.5149
 9235SOL    HW239165   4.695   0.547   3.514 -1.4378  0.4185  0.7498
 9236SOL     OW39166   3.620   1.664   3.607 -0.5310  0.1622 -0.2142
 9236SOL    HW139167   3.636   1.626   3.693  2.2529  1.2125 -0.2583
 9236SOL    HW239168   3.527   1.644   3.596 -0.6092  0.9108 -0.9588
 9237SOL     OW39169   0.021   1.929   0.669 -0.1051 -0.1238 -0.2117
 9237SOL    HW139170   4.709   1.949   0.583 -0.7264  0.4509  0.1979
 9237SOL    HW239171   0.070   2.004   0.701  1.3560 -0.7073 -1.0687
 9238SOL     OW39172   1.940   3.153   7.695 -0.0359 -0.3207 -0.1246
 9238SOL    HW139173   1.997   3.077   7.683 -2.0189 -1.5819 -1.5958
 9238SOL    HW239174   1.878   3.115   7.757 -1.2884  1.1563 -0.4913
 9239SOL     OW39175   0.426   0.140   1.805  0.0531 -0.1197 -0.3802
 9239SOL    HW139176   0.507   0.128   1.855 -0.5762 -0.0678  0.6672
 9239SOL    HW239177   0.449   0.218   1.755 -0.0533 -0.4099 -0.8764
 9240SOL     OW39178   4.412   2.516   6.829  0.1976 -0.2466  0.7163
 9240SOL    HW139179   4.376   2.427   6.823  0.1999 -0.4215  3.2125
 9240SOL    HW239180   4.353   2.565   6.886 -1.8785 -2.7697  0.7526
 9241SOL     OW39181   4.653   3.891  10.697 -0.5843 -0.1239  0.4933
 9241SOL    HW139182   0.022   3.875  10.692 -0.9160 -2.5630  1.9925
 9241SOL    HW239183   4.612   3.806  10.682  1.0773 -0.7534 -0.4770
 9242SOL     OW39184   3.614   0.131   7.059 -0.3367  1.0919  0.6340
 9242SOL    HW139185   3.544   0.136   7.125 -1.5316 -2.8047 -0.3435
 9242SOL    HW239186   3.565   0.146   6.978 -1.5900 -0.8686  1.0271
 9243SOL     OW39187   3.312   2.566   2.469 -0.1596  0.3479  0.4726
 9243SOL    HW139188   3.255   2.516   2.411 -2.5688 -0.0439  3.1951
 9243SOL    HW239189   3.247   2.587   2.536  0.2516  0.3649  0.8649
 9244SOL     OW39190   2.448   1.798   9.803 -0.1573  0.5744 -0.3458
 9244SOL    HW139191   2.409   1.779   9.717  0.8383 -1.8433 -0.2475
 9244SOL    HW239192   2.509   1.866   9.773 -0.8701  1.6792  0.7177
 9245SOL     OW39193   2.604   2.989   5.062  0.1645  0.0730 -0.0212
 9245SOL    HW139194   2.615   2.977   5.156  0.4472 -1.8945 -0.3242
 9245SOL    HW239195   2.614   2.898   5.036 -0.6696 -0.1322  0.3623
 9246SOL     OW39196   2.634   4.522   3.471  0.1627 -0.3125  0.2420
 9246SOL    HW139197   2.590   4.440   3.448 -0.9103  0.0928  0.8270
 9246SOL    HW239198   2.663   4.544   3.382 -0.5432  1.5689  0.4670
 9247SOL     OW39199   0.786   2.857   2.456  0.0676 -0.0213 -0.2057
 9247SOL    HW139200   0.761   2.766   2.469 -1.6934  0.6580  1.1016
 9247SOL    HW239201   0.763   2.869   2.363 -0.2675  1.7677  0.1182
 9248SOL     OW39202   4.501   2.440   5.504  0.1506 -0.0931  0.1374
 9248SOL    HW139203   4.472   2.369   5.562 -2.4243  1.4630  0.7491
 9248SOL    HW239204   4.552   2.484   5.572 -3.1851  2.4551  1.0203
 9249SOL     OW39205   4.508   0.315   6.996  0.2452 -0.2357  0.2360
 9249SOL    HW139206   4.538   0.246   6.936 -0.2572  1.5377 -2.0611
 9249SOL    HW239207   4.482   0.262   7.071 -1.2061 -1.0384 -0.8419
 9250SOL     OW39208   2.499   4.695   5.884  0.4674  1.1025 -0.1714
 9250SOL    HW139209   2.505   0.008   5.796 -0.6986  0.6803 -0.4248
 9250SOL    HW239210   2.448   0.042   5.921 -1.4476  0.2458 -1.1039
 9251SOL     OW39211   1.204   1.185   9.269 -0.0915  0.2593  0.1226
 9251SOL    HW139212   1.126   1.235   9.246 -0.6609  0.4377  2.5082
 9251SOL    HW239213   1.181   1.147   9.354 -1.4470 -0.1017 -0.4020
 9252SOL     OW39214   2.055   1.265   6.940 -0.4119 -0.3746 -0.5177
 9252SOL    HW139215   1.993   1.325   6.898  0.9063  1.2519 -0.1315
 9252SOL    HW239216   2.099   1.234   6.860 -0.5072 -0.5514 -0.5034
 9253SOL     OW39217   4.524   2.779   9.581 -0.0478  0.3980 -0.2921
 9253SOL    HW139218   4.525   2.756   9.488  1.5267 -3.3126  0.6484
 9253SOL    HW239219   4.509   2.693   9.619  0.2710  0.3710 -0.2305
 9254SOL     OW39220   3.236   0.444  16.454 -0.2253 -0.4321 -0.0046
 9254SOL    HW139221   3.252   0.534  16.425  2.0256 -0.4528  1.1504
 9254SOL    HW239222   3.205   0.413  16.369 -0.2890 -0.1164 -0.0971
 9255SOL     OW39223   0.792   1.705  13.207 -0.2726  0.2905  0.8550
 9255SOL    HW139224   0.744   1.763  13.265 -1.0856  0.3093  0.1572
 9255SOL    HW239225   0.721   1.677  13.149  0.6234  0.7108 -0.4336
 9256SOL     OW39226   3.403   0.971   7.347  0.0280  0.2769 -0.3381
 9256SOL    HW139227   3.343   1.016   7.287  2.4581  0.7861 -2.4293
 9256SOL    HW239228   3.376   0.881   7.328  0.4984  0.0629 -0.0130
 9257SOL     OW39229   0.186   0.029   8.258 -0.4244  0.5336  0.6026
 9257SOL    HW139230   0.196   0.124   8.253 -2.6348  0.7093 -0.4400
 9257SOL    HW239231   0.154   0.022   8.348  2.0145 -0.1862  1.4089
 9258SOL     OW39232   0.389   2.271   7.138  0.2753 -0.3113 -0.4525
 9258SOL    HW139233   0.482   2.265   7.117  0.0712 -0.4419 -1.2935
 9258SOL    HW239234   0.385   2.186   7.184  0.0390 -0.3171 -0.4844
 9259SOL     OW39235   2.281   4.580  16.368 -0.0869 -0.2782 -0.0754
 9259SOL    HW139236   2.345   4.519  16.403  1.5651  1.1977 -0.5442
 9259SOL    HW239237   2.219   4.604  16.437  0.5517  0.8210  0.1143
 9260SOL     OW39238   2.065   1.148  10.009 -0.2481  0.0062  0.4337
 9260SOL    HW139239   2.127   1.174  10.077 -0.3961  1.3846  0.0448
 9260SOL    HW239240   2.081   1.215   9.942 -1.6826  0.2788  0.3662
 9261SOL     OW39241   2.997   3.328   1.659 -0.1542  0.1134  0.3431
 9261SOL    HW139242   3.070   3.369   1.613  0.8940 -0.4007  1.5455
 9261SOL    HW239243   3.002   3.379   1.741  0.6178  1.1678 -0.3631
 9262SOL     OW39244   0.560   0.150   5.114  0.2975  0.3896  0.1994
 9262SOL    HW139245   0.529   0.164   5.204  2.4824 -0.1559  1.0288
 9262SOL    HW239246   0.501   0.206   5.064  2.4513  1.0448 -1.5777
 9263SOL     OW39247   1.896   3.000   8.361 -0.1777  0.3301  0.1645
 9263SOL    HW139248   1.982   3.024   8.395 -0.6021  0.1121  1.4169
 9263SOL    HW239249   1.928   2.959   8.281  2.2152  0.3916  1.0979
 9264SOL     OW39250   4.042   3.818   9.510 -0.4527 -0.4792 -0.4798
 9264SOL    HW139251   4.006   3.754   9.449  0.5613  0.0760 -1.6669
 9264SOL    HW239252   4.045   3.764   9.589  0.0595 -1.3665 -1.1069
 9265SOL     OW39253   3.678   3.487   7.994 -0.0226  0.2007 -0.3026
 9265SOL    HW139254   3.646   3.396   7.996  0.7369 -0.0738 -0.6716
 9265SOL    HW239255   3.749   3.479   7.930  0.9940  2.3966  0.5564
 9266SOL     OW39256   1.485   3.308  11.976  0.0804 -0.6890 -0.2045
 9266SOL    HW139257   1.538   3.274  11.904  1.5209  1.2302 -0.0664
 9266SOL    HW239258   1.399   3.273  11.954  0.0751  0.2264 -1.6469
 9267SOL     OW39259   4.443   0.496   8.753  0.5226  0.1361 -0.1576
 9267SOL    HW139260   4.460   0.562   8.821 -2.8633 -0.7630  1.5368
 9267SOL    HW239261   4.439   0.420   8.812 -0.5593  0.0430 -0.3529
 9268SOL     OW39262   2.420   1.265   3.622 -0.0610 -0.3170  0.0427
 9268SOL    HW139263   2.325   1.258   3.635 -0.0195  1.3403  1.1509
 9268SOL    HW239264   2.435   1.182   3.576  2.3259  0.7305 -1.0340
 9269SOL     OW39265   2.101   0.895   2.699 -0.0463 -0.0284  0.5110
 9269SOL    HW139266   2.177   0.887   2.642 -0.9072  1.2797 -0.8323
 9269SOL    HW239267   2.059   0.809   2.693 -0.3446  0.1099  0.6167
 9270SOL     OW39268   1.293   4.386   7.791 -0.7187  0.1752 -0.3582
 9270SOL    HW139269   1.386   4.391   7.770 -0.8404  0.1961 -0.8948
 9270SOL    HW239270   1.292   4.338   7.874 -0.5575  0.2389 -0.3187
 9271SOL     OW39271   0.067   4.065  14.223 -0.0668 -0.1759  0.0661
 9271SOL    HW139272   0.047   4.101  14.310  3.3703 -3.1013  2.0917
 9271SOL    HW239273   0.040   4.134  14.163 -0.0257  0.7771  1.1516
 9272SOL     OW39274   0.626   4.006   7.619 -0.1496 -0.3506  0.3058
 9272SOL    HW139275   0.714   4.013   7.581  0.1001 -0.8994  0.7865
 9272SOL    HW239276   0.619   4.090   7.665  0.9802  0.7929 -1.6217
 9273SOL     OW39277   3.952   4.590   8.414 -0.0261  0.6273  0.0444
 9273SOL    HW139278   4.045   4.570   8.424 -0.0838  0.1747 -0.3562
 9273SOL    HW239279   3.953   4.686   8.418  0.4374  0.6377 -0.2847
 9274SOL     OW39280   2.689   1.002  12.908 -0.1426  0.3120  0.0914
 9274SOL    HW139281   2.776   1.000  12.868  0.8547 -1.0606  2.3179
 9274SOL    HW239282   2.636   1.064  12.858 -2.9484 -1.6132  0.6488
 9275SOL     OW39283   2.246   2.544   8.012  0.4984  0.3295  0.0362
 9275SOL    HW139284   2.217   2.458   8.042 -0.0468  0.5606  0.1627
 9275SOL    HW239285   2.299   2.571   8.087 -0.8907  1.2222  0.6881
 9276SOL     OW39286   0.961   3.809  16.086  0.4491 -0.1019 -0.1868
 9276SOL    HW139287   1.029   3.825  16.152 -0.9606  1.3254  0.8936
 9276SOL    HW239288   0.939   3.720  16.111  0.8011  0.2804  1.5018
 9277SOL     OW39289   4.320   4.244   2.416  0.5666 -0.3519  0.0235
 9277SOL    HW139290   4.300   4.217   2.326 -1.0676 -0.0035  0.2741
 9277SOL    HW239291   4.234   4.279   2.439  0.5759  0.3439 -0.9809
 9278SOL     OW39292   1.847   0.445   6.488  0.5321  0.3322 -0.7941
 9278SOL    HW139293   1.771   0.394   6.460  1.5539 -2.8841  2.2193
 9278SOL    HW239294   1.873   0.401   6.569  0.7257 -0.8313 -1.4747
 9279SOL     OW39295   3.716   2.681   4.455  0.1622 -0.9375  0.3416
 9279SOL    HW139296   3.760   2.622   4.394 -1.8705 -2.8481  0.7218
 9279SOL    HW239297   3.729   2.759   4.402 -0.4563  0.1811  1.8285
 9280SOL     OW39298   3.171   4.242  16.563 -0.7779 -0.5759 -0.3876
 9280SOL    HW139299   3.149   4.313  16.503 -0.3576 -1.4709 -1.6123
 9280SOL    HW239300   3.209   4.292  16.636 -2.1642 -1.2212  0.7664
 9281SOL     OW39301   0.948   1.114   0.672  0.5529  0.3235 -0.4129
 9281SOL    HW139302   0.859   1.108   0.636  0.2489  1.0122  0.2358
 9281SOL    HW239303   0.934   1.063   0.752  1.1378  1.3800  0.3498
 9282SOL     OW39304   1.125   2.111  12.667 -0.2106 -0.3173  0.6352
 9282SOL    HW139305   1.190   2.042  12.679 -0.1552 -0.7848 -2.4257
 9282SOL    HW239306   1.063   2.073  12.604 -0.8000 -0.0685  1.0695
 9283SOL     OW39307   2.606   0.422   1.838 -0.2719 -0.3436  0.0034
 9283SOL    HW139308   2.655   0.404   1.918 -2.6046 -0.7728  1.3146
 9283SOL    HW239309   2.517   0.391   1.853  0.4248 -1.7689  1.1794
 9284SOL     OW39310   4.441   3.024   6.493 -0.1170 -0.2984  0.0613
 9284SOL    HW139311   4.531   2.991   6.506 -1.3819 -2.0502  4.3841
 9284SOL    HW239312   4.389   2.945   6.508 -0.4235  0.1827  1.4890
 9285SOL     OW39313   0.040   0.587  14.739 -0.2808 -0.0420 -0.2192
 9285SOL    HW139314   0.132   0.577  14.764 -0.1896  1.0590 -0.1300
 9285SOL    HW239315   0.031   0.682  14.732 -0.2855 -0.0796 -0.7933
 9286SOL     OW39316   1.129   2.366   6.830 -0.1166 -0.0704 -0.1126
 9286SOL    HW139317   1.197   2.327   6.885  0.8360  1.6998 -0.0369
 9286SOL    HW239318   1.093   2.286   6.791 -1.1055  0.7789 -0.9282
 9287SOL     OW39319   0.684   1.774   3.222  0.1290  0.5277 -0.0553
 9287SOL    HW139320   0.629   1.770   3.300  1.7388 -0.0968  1.0481
 9287SOL    HW239321   0.627   1.738   3.154 -1.1003  0.5330  0.9702
 9288SOL     OW39322   1.358   1.872   6.347 -0.4606 -0.0622 -0.2735
 9288SOL    HW139323   1.453   1.868   6.350 -0.3638  2.4430 -0.3718
 9288SOL    HW239324   1.355   1.873   6.443 -2.1885 -1.0970 -0.3100
 9289SOL     OW39325   0.313   3.172   5.212  0.0728 -0.3091 -0.0840
 9289SOL    HW139326   0.305   3.126   5.295  0.7386  0.0271  0.1676
 9289SOL    HW239327   0.254   3.246   5.230  1.3550  0.3037  1.6352
 9290SOL     OW39328   0.244   3.456   8.833  0.3554 -0.1687 -0.3549
 9290SOL    HW139329   0.216   3.369   8.804  1.4117 -0.5785 -0.1494
 9290SOL    HW239330   0.293   3.439   8.914  0.6718 -0.9385 -0.7106
 9291SOL     OW39331   3.269   1.527   7.516  0.0466 -0.0232  0.4471
 9291SOL    HW139332   3.193   1.562   7.469 -1.6286 -0.2647  3.0100
 9291SOL    HW239333   3.318   1.474   7.453 -1.2451  0.4216 -0.9583
 9292SOL     OW39334   1.809   2.115   1.819 -0.0237 -0.2300  0.0322
 9292SOL    HW139335   1.755   2.171   1.875 -1.8515 -1.1972 -0.7831
 9292SOL    HW239336   1.745   2.061   1.774  0.3506 -1.1673  0.6247
 9293SOL     OW39337   2.220   2.140   5.301 -0.5995  0.1291 -0.1283
 9293SOL    HW139338   2.274   2.211   5.265 -0.2428 -0.5191 -0.8720
 9293SOL    HW239339   2.156   2.114   5.235  1.4335  0.4137 -2.2117
 9294SOL     OW39340   0.505   2.788   7.699 -0.1062 -0.2836 -0.2309
 9294SOL    HW139341   0.550   2.716   7.655 -1.6253 -0.8981 -0.7837
 9294SOL    HW239342   0.572   2.856   7.689 -0.0462 -0.0448  1.8142
 9295SOL     OW39343   2.012   0.573  16.634 -0.3271 -0.0686  0.1294
 9295SOL    HW139344   2.079   0.637  16.657 -0.5910  0.3677 -0.3108
 9295SOL    HW239345   2.027   0.502  16.696  2.5463 -0.6202 -1.1927
 9296SOL     OW39346   3.723   4.528  16.867 -0.4700 -0.3563  0.0996
 9296SOL    HW139347   3.797   4.539  16.807 -0.0418  2.5110  1.1441
 9296SOL    HW239348   3.768   4.478  16.935  0.3931  1.5859  0.9695
 9297SOL     OW39349   2.871   4.218  10.896  0.6830  0.2883  0.0888
 9297SOL    HW139350   2.903   4.307  10.914 -0.1557  0.6245 -0.1109
 9297SOL    HW239351   2.885   4.179  10.982 -2.5292  0.1246  0.5069
 9298SOL     OW39352   1.009   3.522   1.457 -0.0085  0.2668 -0.2746
 9298SOL    HW139353   1.044   3.489   1.374 -0.1275 -0.8820  0.1270
 9298SOL    HW239354   0.938   3.581   1.433  0.4038  0.7323 -0.3526
 9299SOL     OW39355   3.067   3.889  17.421  0.8433  0.2299  0.0758
 9299SOL    HW139356   3.120   3.824  17.468  1.7509 -0.7807 -2.3050
 9299SOL    HW239357   3.004   3.913  17.489  1.7661  1.4768  0.4775
 9300SOL     OW39358   3.182   0.494  17.229 -0.4619  0.1845  0.4178
 9300SOL    HW139359   3.138   0.574  17.258  1.9687  1.2750  1.1196
 9300SOL    HW239360   3.107   0.470  17.175 -0.1320 -0.8442  0.4112
 9301SOL     OW39361   0.650   3.104   3.823  0.0647  0.8335  0.1139
 9301SOL    HW139362   0.611   3.085   3.738  0.5171 -4.3161  1.0324
 9301SOL    HW239363   0.607   3.052   3.891 -0.5242  1.6131  0.3291
 9302SOL     OW39364   3.123   0.912   2.373  0.4836  0.6152 -0.1312
 9302SOL    HW139365   3.140   0.913   2.279  0.9891  0.9521 -0.0348
 9302SOL    HW239366   3.047   0.969   2.380 -0.5840 -0.8662  0.4978
 9303SOL     OW39367   3.859   3.877   4.042 -0.5739  0.4899  0.4101
 9303SOL    HW139368   3.911   3.890   4.122 -0.6199 -2.2495  0.8747
 9303SOL    HW239369   3.766   3.887   4.060 -0.2423 -0.9442  2.9528
 9304SOL     OW39370   4.116   4.620   7.722 -0.0971  0.0849  0.0667
 9304SOL    HW139371   4.177   4.574   7.664 -0.7141 -0.4056 -0.1821
 9304SOL    HW239372   4.173   4.634   7.798 -0.2854  0.6318  0.1083
 9305SOL     OW39373   0.545   4.443  11.598 -0.2081  0.6383 -0.0037
 9305SOL    HW139374   0.497   4.526  11.606 -0.2719  0.5596  0.4438
 9305SOL    HW239375   0.584   4.435  11.685 -0.4647 -0.0464  0.0488
 9306SOL     OW39376   0.237   1.564   8.211 -0.4505  0.2080  0.1054
 9306SOL    HW139377   0.308   1.614   8.170  0.7866 -2.8392 -1.5290
 9306SOL    HW239378   0.287   1.505   8.267 -0.3230 -0.1704 -0.3961
 9307SOL     OW39379   1.697   0.537  11.152 -0.3553  0.6178  0.0569
 9307SOL    HW139380   1.705   0.561  11.244  1.8964 -1.0286  0.2711
 9307SOL    HW239381   1.767   0.473  11.143  0.6489  1.2919  3.2796
 9308SOL     OW39382   1.955   1.194   6.512 -0.3526  0.0946  0.4932
 9308SOL    HW139383   2.019   1.191   6.583 -1.1217 -0.3684  1.1639
 9308SOL    HW239384   2.018   1.203   6.440 -1.7264 -0.8647 -0.8397
 9309SOL     OW39385   4.349   2.244   7.139  0.1811 -0.4115 -0.6297
 9309SOL    HW139386   4.385   2.311   7.197  0.5697 -0.5288 -0.7374
 9309SOL    HW239387   4.324   2.299   7.065  0.8389 -0.8183 -1.1507
 9310SOL     OW39388   0.306   0.693   3.545 -0.8739 -0.1153  0.4225
 9310SOL    HW139389   0.384   0.742   3.519 -0.2248 -0.7993  1.0607
 9310SOL    HW239390   0.320   0.603   3.515 -0.8610  0.2542 -0.6992
 9311SOL     OW39391   0.094   3.135   5.595  0.4098 -0.1245  0.1666
 9311SOL    HW139392   0.036   3.211   5.605 -0.6497 -0.8291 -0.5173
 9311SOL    HW239393   0.173   3.157   5.644 -0.3266 -1.8407  2.0978
 9312SOL     OW39394   3.123   0.141  13.177 -0.1464  0.6718 -0.2398
 9312SOL    HW139395   3.122   0.223  13.226  0.2692  0.8068 -0.4617
 9312SOL    HW239396   3.031   0.119  13.196 -0.7505  1.9113 -1.7166
 9313SOL     OW39397   0.620   4.509   3.681 -0.4100 -0.0066 -0.1146
 9313SOL    HW139398   0.701   4.550   3.712 -1.3323  0.9228  1.0599
 9313SOL    HW239399   0.668   4.435   3.643  0.6907  0.2264  0.8007
 9314SOL     OW39400   3.998   0.308   9.865  0.3868  0.2831  0.0011
 9314SOL    HW139401   3.925   0.361   9.833 -0.6953 -0.7072  0.8305
 9314SOL    HW239402   4.077   0.360   9.850  0.3331  0.9275  1.8421
 9315SOL     OW39403   0.826   1.276   2.843  0.0515 -0.6455 -0.4123
 9315SOL    HW139404   0.855   1.185   2.845  0.3209 -0.5632 -0.6127
 9315SOL    HW239405   0.749   1.257   2.896 -0.2999  1.1082 -0.2971
 9316SOL     OW39406   1.933   2.731   1.339  0.4710  0.0039  0.0580
 9316SOL    HW139407   1.995   2.661   1.360  0.3508  0.3904  1.6838
 9316SOL    HW239408   1.982   2.766   1.265  1.9471  0.1869  1.1331
 9317SOL     OW39409   4.574   2.563   7.804 -0.1534 -0.6151 -0.4228
 9317SOL    HW139410   4.656   2.560   7.853 -0.7183 -0.0614  0.5617
 9317SOL    HW239411   4.512   2.514   7.858 -1.6705  2.4994  0.6838
 9318SOL     OW39412   3.418   4.114   8.923 -0.0130 -0.4638  0.0742
 9318SOL    HW139413   3.473   4.068   8.859  0.2693  0.0283 -0.0367
 9318SOL    HW239414   3.436   4.053   8.995 -1.3704 -0.0969  0.7143
 9319SOL     OW39415   4.485   3.191   5.753 -0.2652  0.7551 -1.3341
 9319SOL    HW139416   4.395   3.214   5.729 -1.0284 -1.5329 -0.6361
 9319SOL    HW239417   4.518   3.152   5.672 -0.6549 -0.5064 -0.8752
 9320SOL     OW39418   4.109   2.703  15.884  0.2996  0.1685  0.3163
 9320SOL    HW139419   4.133   2.763  15.812 -1.0040 -2.1752 -2.0853
 9320SOL    HW239420   4.013   2.703  15.890  0.3090  1.5543  0.4835
 9321SOL     OW39421   2.402   4.681  14.288  0.8665  0.0129 -0.0009
 9321SOL    HW139422   2.307   4.685  14.277  1.0960 -1.1374 -2.3165
 9321SOL    HW239423   2.423   0.027  14.228 -1.0196  0.4442 -0.1315
 9322SOL     OW39424   1.691   3.719   1.446  0.2776 -0.3804  0.5377
 9322SOL    HW139425   1.742   3.798   1.428  1.3985 -1.6564 -1.9325
 9322SOL    HW239426   1.618   3.728   1.385  0.1260 -2.8428  0.3234
 9323SOL     OW39427   0.982   0.255   3.298  0.1325 -0.0795  0.0776
 9323SOL    HW139428   1.078   0.262   3.299  0.3197 -2.7181  1.9615
 9323SOL    HW239429   0.968   0.258   3.392  0.2505  0.0925  0.0886
 9324SOL     OW39430   4.093   3.385   8.276 -0.0266 -0.1779  0.0316
 9324SOL    HW139431   4.058   3.450   8.216 -0.5312 -0.9927 -0.5563
 9324SOL    HW239432   4.180   3.385   8.235  1.9784 -1.1306  4.2631
 9325SOL     OW39433   2.266   3.054   1.563 -0.1622  0.1082 -0.5647
 9325SOL    HW139434   2.305   2.972   1.532 -1.6203  0.4191 -3.1751
 9325SOL    HW239435   2.174   3.042   1.543 -0.1911  0.9969 -0.9678
 9326SOL     OW39436   2.316   0.898   5.018 -0.0632  0.1152 -0.0555
 9326SOL    HW139437   2.335   0.977   4.966 -0.7853  1.4679  1.7449
 9326SOL    HW239438   2.288   0.838   4.949 -0.8060 -0.2027  0.5228
 9327SOL     OW39439   2.605   2.475   3.417 -0.0632  0.0927 -0.0062
 9327SOL    HW139440   2.557   2.448   3.339  0.3704 -2.4560  0.5907
 9327SOL    HW239441   2.535   2.509   3.473  0.3437 -2.4798  2.0790
 9328SOL     OW39442   4.137   2.586   7.274  0.0119  0.0535 -0.4148
 9328SOL    HW139443   4.146   2.521   7.344  2.0024 -1.6761 -2.2933
 9328SOL    HW239444   4.211   2.646   7.286 -0.3780  0.2099  1.2693
 9329SOL     OW39445   3.880   1.848   7.347  0.9253 -0.1890 -0.4303
 9329SOL    HW139446   3.881   1.943   7.336 -0.9941 -0.1133  0.0784
 9329SOL    HW239447   3.789   1.828   7.327  0.7206 -1.7158  2.0173
 9330SOL     OW39448   2.008   2.761   0.023  0.1192  0.0469  0.2355
 9330SOL    HW139449   1.975   2.847  17.698  0.1295  0.6016  1.9818
 9330SOL    HW239450   1.976   2.747   0.112  1.2307 -0.1067  0.6096
 9331SOL     OW39451   1.099   0.397  11.085 -0.4957 -0.1363 -1.0756
 9331SOL    HW139452   1.151   0.468  11.123 -0.0580 -1.1320  0.1812
 9331SOL    HW239453   1.052   0.440  11.014  0.9599  0.7430 -1.4986
 9332SOL     OW39454   3.398   4.649  15.206 -0.1511 -0.5107  0.2054
 9332SOL    HW139455   3.440   4.637  15.291  0.9593  0.6949 -0.1835
 9332SOL    HW239456   3.440   4.577  15.160 -2.1817 -1.2927 -0.4472
 9333SOL     OW39457   0.004   0.562   2.284 -0.2885  0.1857 -0.1748
 9333SOL    HW139458   0.080   0.616   2.305  0.6325 -1.4004  0.5230
 9333SOL    HW239459   4.666   0.585   2.353  0.2135  0.0869  0.3182
 9334SOL     OW39460   4.322   3.541  10.042  0.2486  0.6999  0.1800
 9334SOL    HW139461   4.240   3.556  10.089 -0.2532 -0.8066 -0.2172
 9334SOL    HW239462   4.314   3.454  10.003  0.7277  0.1315  1.3453
 9335SOL     OW39463   0.996   0.284   6.349 -0.4821  0.1796 -0.2998
 9335SOL    HW139464   0.960   0.328   6.271  0.6894  1.4312 -0.1456
 9335SOL    HW239465   0.924   0.229   6.380 -0.3735 -0.5418 -1.3291
 9336SOL     OW39466   2.925   4.478  10.948  0.3284  0.6240 -0.2871
 9336SOL    HW139467   2.946   4.502  11.038  0.8313 -2.1212  0.3376
 9336SOL    HW239468   2.915   4.564  10.907 -0.0053  0.3337 -0.8176
 9337SOL     OW39469   0.341   4.052   6.698  0.2165  0.3430  0.2823
 9337SOL    HW139470   0.340   4.081   6.789 -1.1825 -1.8320  0.9563
 9337SOL    HW239471   0.303   4.131   6.660  0.5896  0.5772  0.3861
 9338SOL     OW39472   4.618   3.783   7.099  0.0523  0.0957  0.3667
 9338SOL    HW139473   4.611   3.799   7.005  2.1066 -0.5265  0.1105
 9338SOL    HW239474   4.681   3.849   7.128  1.7319 -1.0516 -0.7473
 9339SOL     OW39475   4.370   1.739   4.181  0.2626 -0.0957  0.2851
 9339SOL    HW139476   4.394   1.683   4.254 -0.8169 -1.7373 -0.6008
 9339SOL    HW239477   4.403   1.684   4.110  0.6528  0.1781  0.2514
 9340SOL     OW39478   1.122   0.871   8.463 -0.2780 -0.3097 -0.1979
 9340SOL    HW139479   1.069   0.832   8.394 -0.4917 -0.6707  0.1743
 9340SOL    HW239480   1.055   0.907   8.522 -0.8293  2.4529 -2.5266
 9341SOL     OW39481   2.530   2.108   5.262 -0.3806 -0.1986 -0.2643
 9341SOL    HW139482   2.604   2.095   5.320 -1.8942 -2.2419  1.1892
 9341SOL    HW239483   2.494   2.190   5.297  1.2785  1.6230 -2.7813
 9342SOL     OW39484   4.544   1.117   2.918 -0.6950 -0.0737 -0.0177
 9342SOL    HW139485   4.619   1.176   2.911 -0.5000 -0.3265 -0.0648
 9342SOL    HW239486   4.538   1.071   2.835  1.9662 -0.5997  0.0512
 9343SOL     OW39487   1.582   0.486   2.428  0.1432  0.0272 -0.1684
 9343SOL    HW139488   1.533   0.404   2.439  1.6389 -0.7798  0.4835
 9343SOL    HW239489   1.650   0.473   2.362 -2.1123 -0.5315 -2.3795
 9344SOL     OW39490   0.719   3.694   3.932  0.2681 -0.0463  0.5283
 9344SOL    HW139491   0.624   3.701   3.927  0.4940  0.9433 -2.4066
 9344SOL    HW239492   0.734   3.622   3.994 -0.4504 -0.8389 -0.2246
 9345SOL     OW39493   3.858   3.863   3.043 -0.5019  0.3570 -0.2854
 9345SOL    HW139494   3.814   3.923   3.103  0.2808  0.2786  0.3708
 9345SOL    HW239495   3.913   3.821   3.110  2.0105  0.3698 -2.3151
 9346SOL     OW39496   0.920   3.539   6.005 -0.2696 -0.0581 -0.2116
 9346SOL    HW139497   0.838   3.553   5.958 -1.2140 -1.4962  0.9915
 9346SOL    HW239498   0.895   3.571   6.092 -0.4410 -4.3678  1.3240
 9347SOL     OW39499   1.281   2.837   0.872 -0.1604  0.3088  0.8568
 9347SOL    HW139500   1.269   2.751   0.831 -1.3237  0.0085  1.8249
 9347SOL    HW239501   1.241   2.827   0.958  0.4266 -1.5904  0.9068
 9348SOL     OW39502   1.940   3.086   4.559 -0.2925 -0.1280 -0.1436
 9348SOL    HW139503   1.896   3.001   4.566  0.1341 -0.2672  0.8312
 9348SOL    HW239504   2.030   3.059   4.539  0.7328  2.0652  1.5534
 9349SOL     OW39505   4.158   0.181   2.436  0.1221  0.2160 -0.1837
 9349SOL    HW139506   4.155   0.206   2.344  2.2032 -0.7584 -0.5043
 9349SOL    HW239507   4.068   0.163   2.464 -0.1264 -0.1642 -1.2545
 9350SOL     OW39508   4.571   1.405   9.323  0.2259  0.5169  0.4112
 9350SOL    HW139509   4.663   1.408   9.297  0.2206 -2.8313 -0.0439
 9350SOL    HW239510   4.561   1.483   9.377  0.6495  0.7579  0.1416
 9351SOL     OW39511   4.693   2.424   7.178 -0.0149  0.5684 -0.2064
 9351SOL    HW139512   4.704   2.518   7.195 -0.9683  1.2182 -3.2107
 9351SOL    HW239513   4.609   2.411   7.221  1.7732  0.7404  3.3367
 9352SOL     OW39514   1.233   1.542   1.868  0.2140 -0.4571 -0.4321
 9352SOL    HW139515   1.208   1.473   1.806 -1.2094 -0.5774  0.2826
 9352SOL    HW239516   1.313   1.501   1.899  0.2622 -1.7888 -2.3292
 9353SOL     OW39517   1.495   2.952   3.551 -0.0216  0.4259 -0.5335
 9353SOL    HW139518   1.465   2.875   3.598 -1.3854  1.7277  0.7381
 9353SOL    HW239519   1.422   2.959   3.490 -1.2808 -2.8813  0.6107
 9354SOL     OW39520   4.563   2.607   4.917 -0.3876 -0.0843  0.2816
 9354SOL    HW139521   4.570   2.600   5.012  0.0775 -1.2486  0.1576
 9354SOL    HW239522   4.642   2.655   4.889 -0.6203 -0.0580 -0.3343
 9355SOL     OW39523   3.182   0.904   5.669 -0.5747 -0.3559 -0.0472
 9355SOL    HW139524   3.177   0.891   5.575  0.7442 -1.9036  0.1093
 9355SOL    HW239525   3.114   0.845   5.703 -0.8732 -0.3548 -0.6410
 9356SOL     OW39526   4.178   4.355  10.238  0.4589  0.4131  0.1476
 9356SOL    HW139527   4.217   4.417  10.176 -1.8338  1.6018 -0.1200
 9356SOL    HW239528   4.232   4.380  10.313 -0.5798 -0.1365  1.0727
 9357SOL     OW39529   2.472   3.364   5.349  0.5078  0.3990  0.0863
 9357SOL    HW139530   2.420   3.371   5.429  1.6848  1.9328  0.6949
 9357SOL    HW239531   2.503   3.454   5.339 -0.7329  0.8759  0.4839
 9358SOL     OW39532   3.034   3.707   8.994 -0.2543 -0.1148  0.0137
 9358SOL    HW139533   2.993   3.776   9.047  1.2488  1.3858 -0.7609
 9358SOL    HW239534   3.098   3.671   9.056 -1.0243 -1.0339  0.2766
 9359SOL     OW39535   3.709   0.524   2.356  0.6470 -0.1668  0.3599
 9359SOL    HW139536   3.724   0.618   2.343 -2.3474  0.3944  0.9162
 9359SOL    HW239537   3.779   0.509   2.419 -0.0026  2.8368  1.8144
 9360SOL     OW39538   3.181   2.430  17.633 -0.2334 -0.1284 -0.2578
 9360SOL    HW139539   3.270   2.457  17.609 -0.5309  0.6134 -0.5493
 9360SOL    HW239540   3.189   2.409   0.024  0.5415  0.0070 -0.2938
 9361SOL     OW39541   3.979   0.436   7.264  0.3810  0.1807  0.1499
 9361SOL    HW139542   3.919   0.372   7.224 -0.5046 -0.6150  2.7447
 9361SOL    HW239543   3.993   0.386   7.344 -0.1788  0.1390  0.2275
 9362SOL     OW39544   4.231   4.322   0.565 -0.0186 -0.1976 -0.3047
 9362SOL    HW139545   4.157   4.365   0.522 -0.1311  1.1177  1.2407
 9362SOL    HW239546   4.199   4.232   0.576 -0.6449 -0.0816 -1.1787
 9363SOL     OW39547   2.106   0.557   2.333 -0.8010  0.1193 -0.0214
 9363SOL    HW139548   2.130   0.586   2.245 -1.4367  2.0894  0.4729
 9363SOL    HW239549   2.125   0.463   2.324 -1.3947  0.1392 -1.6047
 9364SOL     OW39550   3.785   1.158   6.026  0.5422  0.5577  0.2152
 9364SOL    HW139551   3.815   1.248   6.022  0.0267  0.6878 -0.9264
 9364SOL    HW239552   3.763   1.154   5.933 -0.7153  1.6876  0.4761
 9365SOL     OW39553   3.717   2.563   4.730  0.3638 -0.2094  0.2390
 9365SOL    HW139554   3.744   2.605   4.649 -0.8428 -0.3261 -0.2170
 9365SOL    HW239555   3.789   2.563   4.794  2.0799  1.2481 -1.6965
 9366SOL     OW39556   3.105   2.426   8.263  0.1081  0.1786 -0.1763
 9366SOL    HW139557   3.070   2.380   8.186 -0.7037  0.4485  0.0312
 9366SOL    HW239558   3.041   2.403   8.330 -0.3127 -0.9598 -0.9758
 9367SOL     OW39559   2.740   0.951   3.085 -0.2270  0.1102  0.4583
 9367SOL    HW139560   2.720   1.027   3.139 -2.4613 -0.3330  0.2690
 9367SOL    HW239561   2.748   1.002   3.005 -0.5696 -0.8145 -0.1653
 9368SOL     OW39562   3.985   3.909   7.124  0.2420 -0.4035 -0.8135
 9368SOL    HW139563   3.962   3.880   7.213  1.4003  2.1616  0.3371
 9368SOL    HW239564   4.066   3.862   7.104  0.7003  0.2624 -0.5055
 9369SOL     OW39565   1.464   1.740   2.220 -0.0458  0.1980 -0.4441
 9369SOL    HW139566   1.525   1.666   2.218  1.1257  1.1210  1.9464
 9369SOL    HW239567   1.521   1.806   2.182  0.2343  0.5206  0.5484
 9370SOL     OW39568   1.514   0.568  16.117  0.2097 -0.1786  0.4301
 9370SOL    HW139569   1.440   0.523  16.076 -0.1659 -1.3584  2.4030
 9370SOL    HW239570   1.475   0.655  16.124  0.5105 -0.0398  0.3825
 9371SOL     OW39571   3.069   2.210   3.166  0.3069  0.2786  0.5029
 9371SOL    HW139572   3.102   2.120   3.160 -2.8709 -0.7632 -1.2360
 9371SOL    HW239573   3.148   2.252   3.130  1.4226 -1.4577  0.9161
 9372SOL     OW39574   1.956   4.181   6.837  0.3438  0.4357  0.3507
 9372SOL    HW139575   1.924   4.137   6.759 -2.9400  0.6023  1.6350
 9372SOL    HW239576   1.874   4.205   6.880 -0.1305 -2.8214  1.2005
 9373SOL     OW39577   2.311   0.945  13.705  0.6237 -0.0856 -0.1186
 9373SOL    HW139578   2.315   0.949  13.801 -0.3842 -0.6798 -0.0452
 9373SOL    HW239579   2.283   1.031  13.675 -0.1015 -0.7494 -1.3770
 9374SOL     OW39580   2.110   0.282   0.224  0.0932 -0.1479  0.0260
 9374SOL    HW139581   2.129   0.373   0.247 -3.0127  0.1505  1.5133
 9374SOL    HW239582   2.055   0.263   0.300 -1.3760 -0.2419 -1.0438
 9375SOL     OW39583   2.544   4.661   6.200 -0.2265  0.1461 -0.0301
 9375SOL    HW139584   2.566   4.568   6.198 -2.0430 -0.2459 -1.5199
 9375SOL    HW239585   2.488   4.668   6.123 -0.1731  0.0409 -0.0787
 9376SOL     OW39586   2.297   4.340   5.467  0.2651  0.1628 -0.3421
 9376SOL    HW139587   2.280   4.407   5.533  1.0261  1.5501 -1.5498
 9376SOL    HW239588   2.391   4.335   5.485 -0.1572 -0.5819  1.6026
 9377SOL     OW39589   1.818   4.557  10.865  0.2696  0.1920  0.3521
 9377SOL    HW139590   1.854   4.642  10.839  1.2508  0.0682  1.3354
 9377SOL    HW239591   1.851   4.539  10.953 -1.0057 -0.1852  0.7538
 9378SOL     OW39592   1.640   2.874   2.173 -0.4053  0.1879 -0.1301
 9378SOL    HW139593   1.637   2.779   2.156  0.4880  0.3463 -1.2056
 9378SOL    HW239594   1.577   2.879   2.245  1.5357  0.2266  1.5657
 9379SOL     OW39595   4.466   4.093   8.266 -0.1559  0.7015  0.1393
 9379SOL    HW139596   4.416   4.028   8.315 -1.0505  1.1623 -0.1754
 9379SOL    HW239597   4.471   4.043   8.185  1.7652  0.9971  0.0826
 9380SOL     OW39598   1.096   3.777   5.634 -0.3475  0.4258  0.3718
 9380SOL    HW139599   1.106   3.708   5.700  1.0645  1.4326  1.1930
 9380SOL    HW239600   1.181   3.821   5.641  1.0911 -2.0144 -1.5622
 9381SOL     OW39601   0.118   3.284   8.391  0.0082  0.0247  0.0422
 9381SOL    HW139602   0.147   3.236   8.468 -0.6260  1.8905  1.4424
 9381SOL    HW239603   0.128   3.375   8.418 -0.1750 -0.0813  0.4735
 9382SOL     OW39604   3.308   0.985  17.166  0.5887  0.2890 -0.0702
 9382SOL    HW139605   3.326   0.952  17.254  1.8849  0.8953 -0.1057
 9382SOL    HW239606   3.214   0.999  17.169 -0.1559 -4.4918 -0.7300
 9383SOL     OW39607   4.563   2.646   1.253 -0.0435 -0.2605  0.3956
 9383SOL    HW139608   4.564   2.656   1.348  1.5758  0.4954  0.3015
 9383SOL    HW239609   4.594   2.728   1.217  1.1697 -0.4559  0.9881
 9384SOL     OW39610   4.041   2.747   2.708  0.1110  0.4139 -0.1371
 9384SOL    HW139611   4.114   2.693   2.680 -1.9124 -1.6509 -1.4530
 9384SOL    HW239612   4.028   2.811   2.638  1.3288 -2.3375 -2.8835
 9385SOL     OW39613   4.224   0.926   3.301 -0.5482 -0.1572 -0.3718
 9385SOL    HW139614   4.131   0.917   3.323 -0.1049 -0.8050  1.2483
 9385SOL    HW239615   4.226   0.971   3.217 -0.3272 -3.0864 -1.9237
 9386SOL     OW39616   0.176   4.539   9.286  0.1843 -0.1495  0.6446
 9386SOL    HW139617   0.205   4.495   9.366  1.8643 -0.3552 -0.0844
 9386SOL    HW239618   0.102   4.582   9.328 -0.0532 -0.1022  0.1755
 9387SOL     OW39619   2.807   3.887   4.127 -0.0056 -0.4315  0.2072
 9387SOL    HW139620   2.714   3.901   4.144  0.3460  0.3604  1.4882
 9387SOL    HW239621   2.828   3.974   4.094  3.4596 -1.1957  0.4698
 9388SOL     OW39622   0.375   3.468   4.926  0.0144 -0.4674 -0.2097
 9388SOL    HW139623   0.282   3.442   4.928 -0.8560  2.8589  2.1443
 9388SOL    HW239624   0.380   3.515   4.843  1.0076 -1.1174 -0.5200
 9389SOL     OW39625   1.230   3.752   8.801 -0.2859  0.7138 -0.1405
 9389SOL    HW139626   1.141   3.781   8.783 -1.0204 -1.6724 -0.3802
 9389SOL    HW239627   1.247   3.738   8.707 -0.6062  2.0400 -0.4003
 9390SOL     OW39628   3.904   4.647   4.628  0.7303  0.0771  0.4023
 9390SOL    HW139629   3.897   4.560   4.589  1.8653 -0.8560  2.2984
 9390SOL    HW239630   3.835   4.652   4.694  1.3223 -1.2583  1.1282
 9391SOL     OW39631   0.653   0.260  11.046  0.1780  0.8300 -0.3222
 9391SOL    HW139632   0.687   0.347  11.065  1.4511  0.6522 -1.7698
 9391SOL    HW239633   0.727   0.205  11.074  1.4161  2.5570 -0.2000
 9392SOL     OW39634   0.136   4.341   5.745 -0.5064 -0.0339  0.4496
 9392SOL    HW139635   0.123   4.269   5.808 -0.2594 -0.9061 -0.4974
 9392SOL    HW239636   0.230   4.355   5.750 -0.5538  1.0281 -1.5806
 9393SOL     OW39637   4.290   0.879  13.277 -0.2460  0.1955  0.6238
 9393SOL    HW139638   4.223   0.828  13.230  0.7842 -0.2134 -0.4110
 9393SOL    HW239639   4.323   0.938  13.209 -0.3947 -2.0788 -1.4340
 9394SOL     OW39640   2.502   1.312  14.854  0.8473  0.0213 -0.4529
 9394SOL    HW139641   2.540   1.338  14.770  1.4136 -0.9998 -0.5107
 9394SOL    HW239642   2.411   1.337  14.836  0.7596  1.3730  1.8295
 9395SOL     OW39643   3.027   3.764   2.831 -0.3408 -0.7237  0.3814
 9395SOL    HW139644   3.025   3.789   2.738  0.0975 -2.5474 -0.1205
 9395SOL    HW239645   3.072   3.838   2.871  0.5685  0.0808 -2.1058
 9396SOL     OW39646   1.727   3.708  13.896 -0.5158 -0.1083  0.2930
 9396SOL    HW139647   1.690   3.766  13.829  1.0987  1.0128  0.3662
 9396SOL    HW239648   1.647   3.667  13.929 -0.1593  0.0472  1.3754
 9397SOL     OW39649   3.260   4.583   6.936 -0.9434  0.0428 -0.4221
 9397SOL    HW139650   3.274   4.610   7.027 -1.7077  1.0025 -0.5878
 9397SOL    HW239651   3.340   4.533   6.923 -0.5922  0.6257 -0.4633
 9398SOL     OW39652   0.893   1.050   9.121 -0.3889 -0.4463 -0.1086
 9398SOL    HW139653   0.836   1.037   9.197 -1.4849 -4.2875 -1.5794
 9398SOL    HW239654   0.945   0.969   9.120 -2.5328 -1.8438 -0.2433
 9399SOL     OW39655   3.183   0.223   3.774  0.2118 -0.2539 -0.2526
 9399SOL    HW139656   3.204   0.229   3.867 -1.3849 -0.6317  0.1251
 9399SOL    HW239657   3.099   0.268   3.769  0.4097  0.1348 -0.0895
 9400SOL     OW39658   1.801   2.107   7.609  0.5312 -0.7807 -0.2449
 9400SOL    HW139659   1.828   2.148   7.692 -0.9932  1.5126 -0.8883
 9400SOL    HW239660   1.745   2.031   7.630 -1.5818  0.5701 -0.9936
 9401SOL     OW39661   4.190   3.673   4.713  0.4436 -0.3060  0.1071
 9401SOL    HW139662   4.157   3.585   4.734 -0.5208 -0.0295 -0.2413
 9401SOL    HW239663   4.270   3.650   4.667 -1.0892  1.3464 -3.4223
 9402SOL     OW39664   4.424   3.198  16.479 -0.3277 -0.5173 -0.5469
 9402SOL    HW139665   4.477   3.125  16.509 -0.9909 -0.5626  0.5110
 9402SOL    HW239666   4.433   3.180  16.385 -1.0855 -1.9881 -0.3349
 9403SOL     OW39667   2.744   3.723   8.959  0.1037  0.2150 -0.8037
 9403SOL    HW139668   2.794   3.677   8.892  1.6141 -0.5038  0.8104
 9403SOL    HW239669   2.685   3.775   8.905 -0.1195 -0.5703 -1.3116
 9404SOL     OW39670   1.938   0.523  13.921 -0.2869 -0.7045  0.5399
 9404SOL    HW139671   2.030   0.549  13.922 -0.5203  0.1078  0.2212
 9404SOL    HW239672   1.937   0.464  13.845 -1.4152  1.1079 -0.8584
 9405SOL     OW39673   2.770   0.597  15.877  0.4022 -0.3061  0.0056
 9405SOL    HW139674   2.781   0.536  15.804 -2.0010 -0.1192 -0.5147
 9405SOL    HW239675   2.790   0.679  15.833 -2.1665 -0.9969 -2.4456
 9406SOL     OW39676   3.128   1.195  11.998 -0.3548 -0.1439 -0.2592
 9406SOL    HW139677   3.047   1.191  11.948  0.4676  1.2716 -1.7085
 9406SOL    HW239678   3.121   1.273  12.053  1.6484 -0.0709 -0.1220
 9407SOL     OW39679   4.106   2.931   7.051  0.0117  0.2212  0.1961
 9407SOL    HW139680   4.165   2.969   7.116  1.4176 -2.0845  0.2676
 9407SOL    HW239681   4.132   2.984   6.976 -1.0409 -0.8549 -0.9252
 9408SOL     OW39682   1.920   0.802   7.849  0.1786 -0.0536  0.2392
 9408SOL    HW139683   1.920   0.896   7.865 -0.8302  0.6141 -3.7373
 9408SOL    HW239684   1.903   0.770   7.938  2.8061 -0.7098  0.5003
 9409SOL     OW39685   2.851   2.803   1.703  0.2973 -0.4186 -0.5451
 9409SOL    HW139686   2.877   2.721   1.661 -0.9427 -1.2474  0.2886
 9409SOL    HW239687   2.906   2.811   1.781  2.0396  0.2531 -1.8339
 9410SOL     OW39688   3.437   2.695   5.820  0.3000  0.1302 -0.0030
 9410SOL    HW139689   3.458   2.715   5.729 -1.0990  0.0029 -0.3430
 9410SOL    HW239690   3.510   2.734   5.868  0.1671  0.2881  0.0721
 9411SOL     OW39691   1.159   2.105  10.082 -0.3873  0.6441  0.0973
 9411SOL    HW139692   1.253   2.090  10.095 -0.3380  0.8875  0.0175
 9411SOL    HW239693   1.145   2.049  10.005 -0.8846 -2.0093  2.0938
 9412SOL     OW39694   0.925   1.590   3.173  0.4528  0.1010 -0.2621
 9412SOL    HW139695   0.881   1.675   3.175  0.1123 -0.1205  1.3920
 9412SOL    HW239696   0.868   1.526   3.130 -1.2757  0.1357  1.9604
 9413SOL     OW39697   3.207   3.899   7.727  0.0441  0.0866  0.6896
 9413SOL    HW139698   3.241   3.891   7.816  0.1058 -0.7981  0.5902
 9413SOL    HW239699   3.117   3.870   7.739  0.2904  1.0446  4.7381
 9414SOL     OW39700   3.870   0.921   7.268 -0.1986 -0.3999 -0.0365
 9414SOL    HW139701   3.794   0.977   7.285  0.8378  1.2111 -0.7320
 9414SOL    HW239702   3.924   0.937   7.345  1.5059 -0.1379 -1.2887
 9415SOL     OW39703   2.219   0.788   4.774  0.3871 -0.2212  0.6623
 9415SOL    HW139704   2.157   0.860   4.766  0.7941  0.1215  0.5355
 9415SOL    HW239705   2.194   0.717   4.714 -0.7360  0.6676  0.0860
 9416SOL     OW39706   1.606   1.816   6.830 -0.7147 -0.2985 -0.1308
 9416SOL    HW139707   1.698   1.803   6.808 -0.5493  2.7306 -1.2122
 9416SOL    HW239708   1.619   1.884   6.896  0.3727  1.1264 -1.8210
 9417SOL     OW39709   1.037   0.541  12.882 -0.3590  0.7283  0.0808
 9417SOL    HW139710   1.119   0.533  12.835 -1.3851  0.7384 -1.7176
 9417SOL    HW239711   0.980   0.561  12.807  1.0923 -1.8914 -1.6980
 9418SOL     OW39712   4.039   2.754   7.668  0.3471 -0.6653 -0.3200
 9418SOL    HW139713   4.049   2.797   7.583 -1.1444 -0.5822 -0.4649
 9418SOL    HW239714   3.994   2.823   7.717 -1.9080 -0.4782 -2.6258
 9419SOL     OW39715   3.325   0.657   6.071  0.4794  0.0056  0.8661
 9419SOL    HW139716   3.385   0.722   6.035  1.6131 -2.0473 -0.9904
 9419SOL    HW239717   3.277   0.692   6.146  1.6346 -0.2874  1.7340
 9420SOL     OW39718   3.125   2.668  12.255  0.5283 -0.0833 -0.3621
 9420SOL    HW139719   3.041   2.710  12.275  0.5507  0.9015 -2.3406
 9420SOL    HW239720   3.186   2.741  12.263 -0.3713  0.6567 -0.2451
 9421SOL     OW39721   3.429   0.122   9.926 -0.3085 -0.1844 -0.4907
 9421SOL    HW139722   3.410   0.140   9.834 -0.8986 -0.1985 -0.3742
 9421SOL    HW239723   3.410   0.210   9.959  0.0505 -0.8793  1.5634
 9422SOL     OW39724   4.676   1.524   1.235 -0.5231 -0.4202  0.1073
 9422SOL    HW139725   4.690   1.610   1.276 -2.2659 -0.2841  0.4128
 9422SOL    HW239726   0.031   1.483   1.265 -0.4477 -1.6986 -1.8581
 9423SOL     OW39727   2.152   4.216   9.307  0.1827  0.3197 -0.3113
 9423SOL    HW139728   2.199   4.210   9.223  0.3638  3.2247 -0.4188
 9423SOL    HW239729   2.061   4.222   9.277  0.1381  0.2328 -0.1923
 9424SOL     OW39730   0.833   4.601   1.731 -0.0680 -0.3247  0.4783
 9424SOL    HW139731   0.838   4.692   1.703  0.2014 -1.6948 -3.8894
 9424SOL    HW239732   0.758   4.606   1.790 -0.2263  1.4856  0.1406
 9425SOL     OW39733   3.071   0.655   6.226  0.3600  0.6559 -0.1065
 9425SOL    HW139734   3.099   0.634   6.315  0.9612 -0.1573 -0.4865
 9425SOL    HW239735   3.073   0.567   6.187 -1.8758 -0.0373  1.3126
 9426SOL     OW39736   2.035   2.137   3.374 -0.5423  0.2313 -0.4722
 9426SOL    HW139737   1.949   2.095   3.379 -0.6621  0.6547  1.0136
 9426SOL    HW239738   2.095   2.067   3.347  2.6912  2.4812  0.9092
 9427SOL     OW39739   4.286   0.901   7.469  0.2199  0.3797 -0.1607
 9427SOL    HW139740   4.286   0.882   7.375  0.6742  1.4501 -0.3798
 9427SOL    HW239741   4.350   0.972   7.482 -0.8691  1.5225 -1.0693
 9428SOL     OW39742   2.314   3.509   7.528 -0.0213  0.3446 -0.1940
 9428SOL    HW139743   2.380   3.497   7.596  0.4578 -0.0747 -0.7318
 9428SOL    HW239744   2.352   3.470   7.449  0.0808  0.0897 -0.0165
 9429SOL     OW39745   4.039   0.321   7.515 -0.2189 -0.0990 -0.1591
 9429SOL    HW139746   4.122   0.345   7.558  0.6822 -1.3563 -1.2263
 9429SOL    HW239747   4.002   0.251   7.568 -0.5296  2.2234  2.7005
 9430SOL     OW39748   0.450   0.125  11.213  0.2308 -0.5143  0.4534
 9430SOL    HW139749   0.430   0.180  11.289  0.2466  0.0340  0.0592
 9430SOL    HW239750   0.528   0.173  11.185 -1.3930  0.3116 -2.5615
 9431SOL     OW39751   3.481   0.823   6.715  0.4493 -0.3416 -0.2145
 9431SOL    HW139752   3.433   0.743   6.735  0.2583  0.4333  2.4639
 9431SOL    HW239753   3.535   0.830   6.794  0.3760 -1.7524 -0.0428
 9432SOL     OW39754   1.173   0.190  13.032 -0.7370 -0.1809  0.1992
 9432SOL    HW139755   1.120   0.203  12.953  0.3656 -0.3052 -0.5762
 9432SOL    HW239756   1.228   0.114  13.009 -0.2030  0.1106  0.5125
 9433SOL     OW39757   2.139   1.394  15.824 -0.0361 -0.0718 -0.7774
 9433SOL    HW139758   2.055   1.422  15.789 -0.0838  0.9193  0.1349
 9433SOL    HW239759   2.161   1.460  15.890 -0.2660 -0.8258  0.0544
 9434SOL     OW39760   0.361   4.534   3.079 -0.4554 -0.0312  0.3586
 9434SOL    HW139761   0.422   4.545   3.152 -1.3073  1.2741  0.8869
 9434SOL    HW239762   0.319   4.448   3.086 -1.3923  0.6544  3.2168
 9435SOL     OW39763   3.793   0.421   3.494 -0.0746  0.0450 -0.3074
 9435SOL    HW139764   3.866   0.475   3.463  0.7275  0.6120  2.6503
 9435SOL    HW239765   3.849   0.355   3.534  0.3143  0.6596  0.1701
 9436SOL     OW39766   1.211   4.146   3.153 -0.0402  0.5420  0.2138
 9436SOL    HW139767   1.133   4.200   3.140  1.2584  2.3365 -0.0975
 9436SOL    HW239768   1.179   4.064   3.191 -0.6856  0.0134 -1.4513
 9437SOL     OW39769   1.852   2.087  11.821 -0.7475 -0.5273 -0.3807
 9437SOL    HW139770   1.845   2.063  11.913 -2.3347 -2.0965 -0.9044
 9437SOL    HW239771   1.920   2.028  11.790 -1.3077 -0.2139 -2.2307
 9438SOL     OW39772   0.301   2.308  14.192  0.1540 -0.2699 -0.5987
 9438SOL    HW139773   0.303   2.296  14.097 -1.9589  0.7811 -0.7816
 9438SOL    HW239774   0.394   2.312  14.213 -0.2327 -0.0188  1.0777
 9439SOL     OW39775   2.113   4.408  10.070 -0.2694 -0.4334  0.0661
 9439SOL    HW139776   2.164   4.353  10.129 -2.5867 -2.2023  0.4239
 9439SOL    HW239777   2.149   4.395   9.983 -1.2084  4.3091 -1.0473
 9440SOL     OW39778   2.917   0.769   8.697 -0.7223 -0.4904 -0.5671
 9440SOL    HW139779   2.945   0.851   8.738 -2.2984 -0.4081  0.3439
 9440SOL    HW239780   2.855   0.740   8.765  0.1731 -2.1137 -0.4573
 9441SOL     OW39781   2.039   2.877   3.289 -0.1714 -0.0637 -0.2129
 9441SOL    HW139782   2.033   2.785   3.263 -0.4508  0.5455 -2.2896
 9441SOL    HW239783   2.057   2.917   3.204  0.7446 -1.1922 -0.5469
 9442SOL     OW39784   2.243   4.687   7.882  1.0156  0.0673 -0.0138
 9442SOL    HW139785   2.202   4.609   7.844  0.2720  0.4234  0.0582
 9442SOL    HW239786   2.334   4.682   7.851  0.0865 -0.3252 -2.6906
 9443SOL     OW39787   4.054   0.262  12.609  0.0689 -0.1444  0.6701
 9443SOL    HW139788   4.081   0.346  12.646 -0.8598  0.1910  0.5916
 9443SOL    HW239789   3.976   0.295  12.564 -0.4878 -0.5170  1.3648
 9444SOL     OW39790   1.905   1.053   7.034 -0.0210 -0.0293 -0.0121
 9444SOL    HW139791   1.850   1.088   7.104 -1.9943 -0.5559 -1.3150
 9444SOL    HW239792   1.946   1.133   6.999  1.3473 -0.7304 -0.0370
 9445SOL     OW39793   2.624   0.124  16.803  0.4717 -0.2675  0.3367
 9445SOL    HW139794   2.631   0.167  16.718 -0.7407 -0.6973  0.0274
 9445SOL    HW239795   2.529   0.120  16.809  0.5349  1.1449  2.1084
 9446SOL     OW39796   1.973   2.168   7.387  0.5140  0.4002 -0.6564
 9446SOL    HW139797   2.032   2.094   7.403 -0.7780 -0.1165  1.6283
 9446SOL    HW239798   1.925   2.167   7.470  1.4223  1.1580 -0.1201
 9447SOL     OW39799   0.188   2.149  10.360 -0.2633 -0.2183 -0.1694
 9447SOL    HW139800   0.168   2.228  10.309  0.6943  0.2125  0.1300
 9447SOL    HW239801   0.099   2.116  10.366 -0.1086 -1.0014 -1.9381
 9448SOL     OW39802   2.415   3.487  12.784  0.1865  0.2569 -0.2162
 9448SOL    HW139803   2.384   3.561  12.732 -0.9503  0.9521  1.4630
 9448SOL    HW239804   2.445   3.433  12.710  1.3997  1.6489 -0.7493
 9449SOL     OW39805   2.944   2.216   0.044 -0.2504 -0.0570 -0.1944
 9449SOL    HW139806   3.018   2.241   0.099 -0.4836  0.3760 -0.0787
 9449SOL    HW239807   2.868   2.247   0.093 -0.9822 -0.1269 -1.2979
 9450SOL     OW39808   4.494   4.016   9.042  0.3158  0.0484  0.4459
 9450SOL    HW139809   4.465   3.932   9.076 -0.9288 -0.4590 -1.8662
 9450SOL    HW239810   4.420   4.038   8.986  0.3498 -1.2128 -0.1007
 9451SOL     OW39811   0.047   4.548   1.610  0.6196 -0.0855 -0.6868
 9451SOL    HW139812   0.020   4.495   1.535 -1.7659  0.8750 -0.5087
 9451SOL    HW239813   0.055   4.470   1.665 -0.2413 -0.6342 -1.3378
 9452SOL     OW39814   4.616   3.359   4.557  0.7499  0.1110  0.1691
 9452SOL    HW139815   4.645   3.310   4.634  0.9438 -2.0385 -1.2784
 9452SOL    HW239816   4.658   3.310   4.486  0.2581 -2.4626  1.6608
 9453SOL     OW39817   3.500   0.431   6.067  0.4420  0.6134  0.8564
 9453SOL    HW139818   3.555   0.459   5.995 -2.9325 -0.2101 -2.0625
 9453SOL    HW239819   3.423   0.486   6.053  1.4553  1.4280 -1.4931
 9454SOL     OW39820   2.982   0.212   1.008 -0.3377  0.9040  0.6165
 9454SOL    HW139821   2.895   0.235   1.041 -1.1788  0.3178 -1.2124
 9454SOL    HW239822   3.028   0.273   1.065  0.7440  0.6053  0.0501
 9455SOL     OW39823   1.613   3.733   6.255  0.1642 -0.1550 -0.6803
 9455SOL    HW139824   1.522   3.725   6.286  0.5668  1.2983  0.8630
 9455SOL    HW239825   1.658   3.711   6.337  0.3898 -1.5531 -1.1720
 9456SOL     OW39826   0.421   2.849   0.810  0.5898  0.1784  0.8882
 9456SOL    HW139827   0.374   2.787   0.866  0.6732 -2.9094 -2.4712
 9456SOL    HW239828   0.389   2.826   0.723 -0.7743  1.9651  0.9336
 9457SOL     OW39829   1.550   3.852   2.528 -0.5172  0.0956  0.1294
 9457SOL    HW139830   1.546   3.831   2.435  2.5161 -2.1571  0.5430
 9457SOL    HW239831   1.459   3.843   2.558 -0.8960 -0.4986 -1.2144
 9458SOL     OW39832   0.417   3.299   5.457  0.0040 -0.0360 -0.3003
 9458SOL    HW139833   0.429   3.284   5.363  2.0088  1.2972 -0.2619
 9458SOL    HW239834   0.445   3.215   5.493 -2.0417 -1.5713 -2.2108
 9459SOL     OW39835   3.527   3.318  10.351  0.3551 -0.2945 -0.3583
 9459SOL    HW139836   3.550   3.269  10.430 -0.8212  0.6015  0.5351
 9459SOL    HW239837   3.582   3.268  10.290 -0.7687  0.0222 -1.6219
 9460SOL     OW39838   2.042   0.802   2.977 -0.1975  0.1880  0.3837
 9460SOL    HW139839   1.972   0.753   2.934  0.7429 -0.0525 -0.8488
 9460SOL    HW239840   2.073   0.864   2.911  1.1977  0.1123  0.9750
 9461SOL     OW39841   2.973   3.898   1.821  0.1057 -0.0324  0.1251
 9461SOL    HW139842   2.921   3.974   1.846  0.0595 -0.3626  1.0180
 9461SOL    HW239843   3.064   3.924   1.812  0.0960  0.0563  0.2813
 9462SOL     OW39844   0.783   0.545  15.816  0.6565 -0.1296  0.1728
 9462SOL    HW139845   0.828   0.609  15.872 -1.0969  0.6437  0.6867
 9462SOL    HW239846   0.788   0.468  15.873  1.7691  0.2095  0.5467
 9463SOL     OW39847   2.574   4.384   8.005 -0.7517 -1.0136  0.1468
 9463SOL    HW139848   2.603   4.463   8.050 -0.7782 -0.5654 -0.6303
 9463SOL    HW239849   2.636   4.318   8.036 -0.1625  1.1962  3.6124
 9464SOL     OW39850   1.574   0.955   4.170  0.0146 -0.1591  0.0261
 9464SOL    HW139851   1.505   0.911   4.219  0.7840 -0.0521  1.1975
 9464SOL    HW239852   1.647   0.945   4.231  1.9845 -3.0963 -2.8009
 9465SOL     OW39853   1.765   0.657   9.949  0.1435  0.2792  0.0047
 9465SOL    HW139854   1.841   0.716   9.948  0.7230 -0.4495  0.8637
 9465SOL    HW239855   1.721   0.678  10.032 -0.1277 -1.0063  0.1757
 9466SOL     OW39856   4.011   0.428   3.062  0.1610  0.3437  0.1240
 9466SOL    HW139857   3.940   0.489   3.086  0.0126  1.0618 -2.1477
 9466SOL    HW239858   4.066   0.431   3.140 -1.8329  0.2216  1.5362
 9467SOL     OW39859   0.189   1.678   3.117  0.3101  0.3599  0.2982
 9467SOL    HW139860   0.114   1.627   3.146  1.2640 -0.2766  1.6679
 9467SOL    HW239861   0.163   1.737   3.046 -1.2730  0.2882  0.8228
 9468SOL     OW39862   0.735   1.568   7.736 -0.2953 -0.3239 -0.0812
 9468SOL    HW139863   0.750   1.526   7.651  0.1123  2.0888 -1.1936
 9468SOL    HW239864   0.703   1.490   7.782  0.1407 -0.1065  0.5827
 9469SOL     OW39865   3.457   2.341  16.698  0.1470 -0.1220  0.2270
 9469SOL    HW139866   3.525   2.409  16.695  1.9399 -1.8243  2.1506
 9469SOL    HW239867   3.508   2.261  16.707  0.5330 -0.0183 -1.1364
 9470SOL     OW39868   1.636   3.743   4.469  0.1702 -0.1741 -0.2900
 9470SOL    HW139869   1.634   3.710   4.380  0.1490 -1.2568  0.1127
 9470SOL    HW239870   1.716   3.698   4.498 -0.6688 -2.5371 -1.6967
 9471SOL     OW39871   1.745   1.181  17.372  0.4572  0.2611 -1.1748
 9471SOL    HW139872   1.741   1.092  17.406 -0.6860  0.0878 -1.7569
 9471SOL    HW239873   1.652   1.192  17.352  0.3822  1.1808 -0.3304
 9472SOL     OW39874   0.668   1.743   3.511  0.1901  0.7034  0.1340
 9472SOL    HW139875   0.638   1.654   3.528  0.1667  0.8431  0.8251
 9472SOL    HW239876   0.753   1.706   3.489 -1.1976 -2.3327 -0.1789
 9473SOL     OW39877   2.871   0.260   2.949 -0.4948  0.4664  0.2361
 9473SOL    HW139878   2.797   0.201   2.962  0.5691 -0.9677 -0.2732
 9473SOL    HW239879   2.902   0.222   2.867 -1.2618  0.7042 -0.1668
 9474SOL     OW39880   2.807   2.110   1.798  0.4712 -0.2142 -0.8243
 9474SOL    HW139881   2.866   2.050   1.845 -1.1777 -0.2110  1.2516
 9474SOL    HW239882   2.839   2.107   1.708 -0.0849 -1.6914 -0.9782
 9475SOL     OW39883   2.791   1.459  11.391 -0.5772 -0.1701 -0.5242
 9475SOL    HW139884   2.864   1.446  11.330 -0.6477 -1.6639 -0.2880
 9475SOL    HW239885   2.811   1.552  11.393  0.2864 -0.3705  0.0977
 9476SOL     OW39886   3.629   0.412  17.690 -0.1710  0.7313 -0.1361
 9476SOL    HW139887   3.611   0.406   0.082  2.0382 -2.1882  0.0785
 9476SOL    HW239888   3.725   0.413  17.688 -0.1818  0.3415 -0.6247
 9477SOL     OW39889   0.247   4.430   9.545 -0.3930  0.3891  0.6140
 9477SOL    HW139890   0.339   4.456   9.552 -0.1214 -0.4344  0.0779
 9477SOL    HW239891   0.242   4.370   9.620  1.2641 -0.5604 -0.0393
 9478SOL     OW39892   1.778   0.936  17.487 -0.4833 -0.1434 -0.2900
 9478SOL    HW139893   1.845   0.890  17.437 -0.4408 -0.5191  0.1146
 9478SOL    HW239894   1.825   0.940  17.570 -0.5607 -1.4133 -0.1909
 9479SOL     OW39895   0.140   2.257  17.183 -0.3512  0.2487 -0.0258
 9479SOL    HW139896   0.126   2.165  17.161  1.5535  0.1587 -0.8542
 9479SOL    HW239897   0.202   2.271  17.111 -1.3335 -0.0786 -0.9223
 9480SOL     OW39898   0.487   0.153   9.516 -0.2591  0.4618 -0.0800
 9480SOL    HW139899   0.434   0.078   9.492 -2.0218  1.8465 -0.5319
 9480SOL    HW239900   0.465   0.223   9.454  0.9117 -0.1865 -1.2272
 9481SOL     OW39901   0.919   4.611   2.674 -0.1074  0.1750 -0.0049
 9481SOL    HW139902   0.967   4.553   2.734 -1.0025  1.5802  2.0260
 9481SOL    HW239903   0.972   4.691   2.679  1.4720 -0.6061 -4.1859
 9482SOL     OW39904   0.844   2.968   2.141 -0.3681  0.7012  0.0744
 9482SOL    HW139905   0.876   2.984   2.052  0.0658  0.9890  0.2796
 9482SOL    HW239906   0.876   2.883   2.172 -1.8086 -0.2925 -1.1660
 9483SOL     OW39907   3.982   4.328   8.162  0.9512 -0.0778 -0.2603
 9483SOL    HW139908   4.057   4.387   8.163  1.1960 -0.3974  0.2439
 9483SOL    HW239909   3.996   4.286   8.077 -1.9026 -2.5876  0.4851
 9484SOL     OW39910   0.765   4.196   9.057  0.3037 -0.4766 -0.3458
 9484SOL    HW139911   0.802   4.282   9.078 -2.8237  0.9216 -0.5240
 9484SOL    HW239912   0.789   4.199   8.965 -1.4238  1.2280 -0.7494
 9485SOL     OW39913   0.570   2.759   9.275 -0.0545 -0.6170  0.4187
 9485SOL    HW139914   0.555   2.691   9.210  0.5186  0.4279 -0.8163
 9485SOL    HW239915   0.498   2.819   9.255  0.3110 -0.8352 -1.5662
 9486SOL     OW39916   4.101   1.602  11.625 -0.1065 -0.0773  0.3431
 9486SOL    HW139917   4.174   1.543  11.607 -1.6047 -1.2746 -1.7314
 9486SOL    HW239918   4.095   1.643  11.539 -0.5331  1.9221  1.3282
 9487SOL     OW39919   1.019   3.779   1.931  0.4033  0.2176 -0.0832
 9487SOL    HW139920   1.035   3.756   1.839  1.4375 -0.4489  0.2595
 9487SOL    HW239921   0.950   3.844   1.918 -0.0626 -0.1469  0.5736
 9488SOL     OW39922   0.711   4.116   5.439  0.3108 -0.4784  0.0929
 9488SOL    HW139923   0.654   4.182   5.479 -1.0857 -1.3395 -0.4810
 9488SOL    HW239924   0.793   4.140   5.481  0.5016 -0.1199 -0.4838
 9489SOL     OW39925   3.855   0.635   6.182  0.1653  0.0398 -0.4250
 9489SOL    HW139926   3.884   0.618   6.272 -0.1970 -0.6902 -0.4485
 9489SOL    HW239927   3.930   0.684   6.147  0.1201 -0.0722 -0.6786
 9490SOL     OW39928   0.665   1.106   9.607 -0.0088  0.3428 -0.3063
 9490SOL    HW139929   0.747   1.123   9.654 -0.6778 -0.9317  1.3500
 9490SOL    HW239930   0.630   1.033   9.659  3.4627 -0.3839  1.0371
 9491SOL     OW39931   0.136   2.424   1.826  0.2288 -0.4399  0.2146
 9491SOL    HW139932   0.055   2.467   1.798  0.7251 -0.6743 -1.6067
 9491SOL    HW239933   0.107   2.337   1.796  0.0024 -0.8586  1.6195
 9492SOL     OW39934   1.219   4.655  16.571  0.2525 -0.0882  0.1629
 9492SOL    HW139935   1.222   4.584  16.635  0.3205  0.8713  1.2236
 9492SOL    HW239936   1.127   4.679  16.582  0.3400  0.5977 -0.5742
 9493SOL     OW39937   3.278   1.409   4.591 -0.2655  0.3690  0.3686
 9493SOL    HW139938   3.324   1.492   4.592  1.1935 -0.4246 -1.5904
 9493SOL    HW239939   3.330   1.347   4.642  1.0311  0.7422 -0.4989
 9494SOL     OW39940   1.422   0.651  14.618  0.4642 -0.8052  0.5750
 9494SOL    HW139941   1.510   0.629  14.586 -0.0906 -0.6056 -1.0833
 9494SOL    HW239942   1.441   0.678  14.708 -1.9330  0.3822  0.7034
 9495SOL     OW39943   2.310   3.379  13.151  0.2017  0.1237  0.0311
 9495SOL    HW139944   2.321   3.292  13.188 -3.7849 -1.3368 -2.2431
 9495SOL    HW239945   2.280   3.349  13.065 -1.3775  3.4936 -0.6013
 9496SOL     OW39946   2.476   0.198   8.179  0.2468 -0.2763  0.0293
 9496SOL    HW139947   2.449   0.106   8.181 -2.5550  0.5244 -0.4888
 9496SOL    HW239948   2.390   0.234   8.201 -0.7162 -2.6317  0.2049
 9497SOL     OW39949   4.716   0.218   5.256 -0.0354 -0.4222  0.1670
 9497SOL    HW139950   0.009   0.311   5.264  1.2149 -0.7208  0.7817
 9497SOL    HW239951   4.711   0.198   5.350  0.2822 -0.8280  0.0964
 9498SOL     OW39952   2.493   3.797   8.349 -0.1580  0.1888 -0.1364
 9498SOL    HW139953   2.482   3.882   8.391 -0.8137  0.4118 -0.7476
 9498SOL    HW239954   2.405   3.777   8.317 -0.4246 -0.2945  0.9008
 9499SOL     OW39955   1.954   0.793   7.005  0.6568  0.4321  0.0302
 9499SOL    HW139956   1.926   0.884   7.007 -1.9357 -0.3207 -1.1229
 9499SOL    HW239957   1.992   0.791   6.917 -0.2319 -1.4931 -0.3300
 9500SOL     OW39958   1.743   4.378   8.967 -0.0775 -0.4622 -0.6007
 9500SOL    HW139959   1.676   4.442   8.944 -0.5544 -0.0538  1.9219
 9500SOL    HW239960   1.753   4.317   8.893 -1.2589  0.6457 -1.6691
 9501SOL     OW39961   0.675   3.882  11.291 -0.1362 -0.0971 -0.2219
 9501SOL    HW139962   0.753   3.918  11.334 -1.0680  0.5996  0.8603
 9501SOL    HW239963   0.711   3.800  11.256  0.2909 -0.9694  2.2626
 9502SOL     OW39964   2.213   4.482   8.772 -0.3702 -0.0912 -0.0862
 9502SOL    HW139965   2.150   4.448   8.835 -0.5000  1.4375  0.5971
 9502SOL    HW239966   2.189   4.573   8.754 -0.9914  0.0560  1.5517
 9503SOL     OW39967   1.379   2.099  11.908  0.7216  0.2116 -0.3572
 9503SOL    HW139968   1.363   2.148  11.988  3.1542  0.0160  0.2653
 9503SOL    HW239969   1.354   2.173  11.852 -0.0024  0.8731  0.8434
 9504SOL     OW39970   1.008   1.374   0.572  0.0754  0.3383 -0.1612
 9504SOL    HW139971   1.021   1.397   0.480 -1.8182  1.8170 -0.0752
 9504SOL    HW239972   1.001   1.280   0.556 -1.4767  0.4451 -0.1517
 9505SOL     OW39973   2.074   1.677   5.396 -0.1014 -0.1422 -0.8581
 9505SOL    HW139974   2.168   1.658   5.400 -0.1057 -0.4102 -2.1601
 9505SOL    HW239975   2.071   1.741   5.467  2.9307  0.1357 -0.9677
 9506SOL     OW39976   4.304   4.714  12.070 -0.3939  0.2267  0.1781
 9506SOL    HW139977   4.388   0.016  12.108  0.2246 -0.7270 -0.5259
 9506SOL    HW239978   4.254   4.689  12.148 -0.5456 -1.7313 -0.5558
 9507SOL     OW39979   3.826   2.370  10.306  0.3835 -0.3615  0.0156
 9507SOL    HW139980   3.916   2.356  10.274  0.3828  0.5793 -0.4151
 9507SOL    HW239981   3.819   2.324  10.389  0.5097 -0.1073  0.1684
 9508SOL     OW39982   4.652   2.543   5.686  0.1179 -0.2895 -0.1302
 9508SOL    HW139983   4.694   2.605   5.746 -0.7358 -0.7824  0.9787
 9508SOL    HW239984   4.577   2.525   5.743  0.3423  0.0846  0.2887
 9509SOL     OW39985   4.511   0.064   7.171  0.0250  0.2939  0.5008
 9509SOL    HW139986   4.481   0.020   7.091  1.4127  1.1802 -0.5195
 9509SOL    HW239987   4.594   0.017   7.182 -0.2650 -0.0272  1.2818
 9510SOL     OW39988   4.206   3.694   4.173  0.0671  0.1129 -0.4646
 9510SOL    HW139989   4.284   3.718   4.125 -0.9268 -0.2639 -2.2655
 9510SOL    HW239990   4.165   3.635   4.110 -5.0246  0.9019  2.0559
 9511SOL     OW39991   1.800   1.247  10.936 -0.9287  0.0886 -0.2177
 9511SOL    HW139992   1.708   1.220  10.927 -1.5957  1.2856  2.8412
 9511SOL    HW239993   1.823   1.279  10.849  0.2716 -2.7716 -0.9178
 9512SOL     OW39994   2.014   3.949   0.635 -0.5031  0.1200  0.0995
 9512SOL    HW139995   1.962   3.869   0.620  0.8281 -0.6912 -0.2006
 9512SOL    HW239996   2.009   3.989   0.549  2.3656 -1.8867 -1.0004
 9513SOL     OW39997   0.084   4.566   3.984 -0.2739 -0.0413  0.2403
 9513SOL    HW139998   0.022   4.499   4.013  0.0848  0.7609  2.8979
 9513SOL    HW239999   0.053   4.638   4.039 -0.2796 -0.3976  0.7080
 9514SOL     OW40000   0.886   1.074  10.646 -0.0020  0.7532  0.4308
 9514SOL    HW140001   0.841   1.064  10.730  0.3704  1.0737  0.6662
 9514SOL    HW240002   0.978   1.058  10.666 -0.5694 -1.4488  1.3676
 9515SOL     OW40003   0.810   1.897   9.086 -0.0848 -0.2250 -0.0878
 9515SOL    HW140004   0.788   1.809   9.116 -1.2561 -0.3665 -1.3677
 9515SOL    HW240005   0.811   1.950   9.166 -0.8082 -1.8312  0.9742
 9516SOL     OW40006   2.648   3.875   4.494 -0.0557 -0.1121  0.0479
 9516SOL    HW140007   2.623   3.795   4.448 -1.8629  0.1631  0.5395
 9516SOL    HW240008   2.742   3.881   4.482 -0.2425 -0.3574 -1.5853
 9517SOL     OW40009   2.842   1.175  17.184  0.0634 -0.2008  0.5027
 9517SOL    HW140010   2.820   1.250  17.239 -1.1586 -0.1943  0.0017
 9517SOL    HW240011   2.826   1.210  17.097  0.8785  3.7440  1.9305
 9518SOL     OW40012   1.225   1.372   2.156  0.5800  0.1780 -0.3192
 9518SOL    HW140013   1.267   1.367   2.071 -0.6029 -0.7286 -0.8487
 9518SOL    HW240014   1.135   1.380   2.125  0.0914 -1.1002  0.7677
 9519SOL     OW40015   2.427   2.957   2.268  0.2469 -0.1817 -0.4266
 9519SOL    HW140016   2.383   3.042   2.267  1.7544  0.5377 -3.7772
 9519SOL    HW240017   2.498   2.978   2.329  0.0166  1.6364 -0.7839
 9520SOL     OW40018   2.305   2.300   8.409  0.3084 -0.2694 -1.2112
 9520SOL    HW140019   2.370   2.245   8.454  1.1212  1.6283 -0.0526
 9520SOL    HW240020   2.285   2.352   8.487  1.7594 -0.6762 -0.5580
 9521SOL     OW40021   0.320   1.763  14.663  0.4406 -0.0145  0.4265
 9521SOL    HW140022   0.378   1.699  14.705  0.8145  0.7337  1.0495
 9521SOL    HW240023   0.285   1.802  14.743  1.5294 -2.8731  2.3130
 9522SOL     OW40024   3.471   0.828   2.390  0.0773 -0.4065 -0.1397
 9522SOL    HW140025   3.449   0.784   2.472 -0.7556  0.7207  0.2482
 9522SOL    HW240026   3.566   0.818   2.389  0.3346  2.1473 -1.8048
 9523SOL     OW40027   2.704   3.377   3.642 -0.6558  0.4602  0.1779
 9523SOL    HW140028   2.669   3.294   3.611  1.2152  0.3531 -1.6771
 9523SOL    HW240029   2.779   3.385   3.583 -1.6128  1.5147 -0.8940
 9524SOL     OW40030   2.419   4.352   7.093 -0.1071  0.3013  0.5070
 9524SOL    HW140031   2.339   4.405   7.085 -0.2878 -0.2115 -1.1466
 9524SOL    HW240032   2.477   4.398   7.032 -0.6117 -1.4155 -1.2838
 9525SOL     OW40033   3.102   0.157   7.551  0.4939  0.1879  0.5055
 9525SOL    HW140034   3.037   0.132   7.485 -0.5319 -1.3444  2.0803
 9525SOL    HW240035   3.141   0.079   7.589  0.2590  0.5180  1.4279
 9526SOL     OW40036   1.164   4.165   3.924  0.3389 -0.1673 -0.3161
 9526SOL    HW140037   1.118   4.149   4.006 -1.7256  0.2246 -1.3944
 9526SOL    HW240038   1.240   4.212   3.958  1.6156 -1.8609 -0.8057
 9527SOL     OW40039   0.498   3.618   7.626  0.4614 -0.1729  0.2729
 9527SOL    HW140040   0.429   3.553   7.615  1.5889 -0.8912 -2.4172
 9527SOL    HW240041   0.527   3.620   7.535 -0.0549 -2.3321  0.0684
 9528SOL     OW40042   0.925   2.439  10.891  0.0527  0.0353  0.6246
 9528SOL    HW140043   0.838   2.459  10.927 -0.9917 -1.2269 -1.2262
 9528SOL    HW240044   0.908   2.351  10.857 -0.8901  0.1090  0.8952
 9529SOL     OW40045   0.362   2.797   5.015 -0.0232  0.2355  0.5583
 9529SOL    HW140046   0.284   2.836   5.055  0.2694  0.2577  1.1097
 9529SOL    HW240047   0.365   2.708   5.048  3.0920  0.5312  1.0800
 9530SOL     OW40048   3.301   3.858   9.726 -0.3871  0.2757 -0.5014
 9530SOL    HW140049   3.324   3.830   9.815 -0.2424  0.5540 -0.4478
 9530SOL    HW240050   3.243   3.932   9.743  0.9765  1.3495 -0.5254
 9531SOL     OW40051   0.232   1.232   4.307 -0.1072 -0.5844  0.4176
 9531SOL    HW140052   0.168   1.215   4.238 -0.4706  0.3803  0.5242
 9531SOL    HW240053   0.186   1.304   4.350 -0.7077 -1.6528  1.5685
 9532SOL     OW40054   0.713   0.891   5.320  0.2897  0.0471  0.1121
 9532SOL    HW140055   0.737   0.820   5.379  0.4757 -0.1927 -0.2535
 9532SOL    HW240056   0.727   0.837   5.242  1.1287  0.2155  0.1445
 9533SOL     OW40057   0.535   0.555   6.921 -0.9928  0.5839 -0.0980
 9533SOL    HW140058   0.516   0.498   6.847 -1.0470 -0.8331  1.0123
 9533SOL    HW240059   0.541   0.491   6.991  1.0180  0.4166 -0.4253
 9534SOL     OW40060   3.914   4.388   7.755 -0.1113  0.3251  0.0480
 9534SOL    HW140061   3.938   4.469   7.710  1.0430  0.5503  1.0628
 9534SOL    HW240062   3.992   4.371   7.808  1.0507  0.1269 -1.7196
 9535SOL     OW40063   0.447   4.690   5.822  0.0188 -0.2294 -0.1879
 9535SOL    HW140064   0.402   4.660   5.901  2.7392 -0.4217  1.3016
 9535SOL    HW240065   0.427   4.610   5.774  0.8668 -1.2908  1.2496
 9536SOL     OW40066   3.848   1.008   5.145  0.0273 -0.1093 -0.6987
 9536SOL    HW140067   3.847   1.077   5.211 -2.1861 -1.7378  0.9505
 9536SOL    HW240068   3.941   0.984   5.145 -0.7105 -2.9737 -1.0963
 9537SOL     OW40069   0.200   0.120   7.652 -0.3730 -0.2075  0.0601
 9537SOL    HW140070   0.186   0.154   7.740 -1.7151 -2.8879  0.8777
 9537SOL    HW240071   0.158   0.034   7.654 -0.9131  0.0650  0.3853
 9538SOL     OW40072   0.379   2.934   6.450  0.4320  0.1939  0.0173
 9538SOL    HW140073   0.393   2.896   6.363 -0.2902  0.9053 -0.4099
 9538SOL    HW240074   0.410   3.022   6.428  1.4077  0.0114  0.6790
 9539SOL     OW40075   1.721   4.260   7.004  0.0981 -0.1258 -0.1971
 9539SOL    HW140076   1.729   4.197   7.075  0.1291 -0.6151 -0.6395
 9539SOL    HW240077   1.672   4.334   7.041  2.0979  0.4071  1.3594
 9540SOL     OW40078   4.239   2.255   5.878  0.4850 -0.0140  0.0083
 9540SOL    HW140079   4.230   2.281   5.970  1.2579 -3.5844  1.0844
 9540SOL    HW240080   4.173   2.186   5.879 -1.7989  2.1587  0.5387
 9541SOL     OW40081   4.608   3.625  12.996 -0.0264  0.1426  0.7454
 9541SOL    HW140082   4.599   3.664  12.909 -1.7106  0.3857  1.0239
 9541SOL    HW240083   4.576   3.699  13.048 -1.5451 -1.4528  2.1017
 9542SOL     OW40084   1.042   3.049   4.639  0.0685 -0.0103 -0.1800
 9542SOL    HW140085   1.066   3.025   4.728  0.0921 -0.5499 -0.3361
 9542SOL    HW240086   1.122   3.031   4.590  0.9671  0.0313  1.2836
 9543SOL     OW40087   1.092   1.720   0.377  0.1713 -0.0220  0.1033
 9543SOL    HW140088   1.100   1.770   0.295 -2.3284 -0.0479 -0.1525
 9543SOL    HW240089   1.084   1.627   0.358  1.8943 -0.4902  1.7386
 9544SOL     OW40090   2.135   2.733  14.070  0.0857 -0.8131 -0.7096
 9544SOL    HW140091   2.212   2.679  14.088  0.3334  0.0170  0.7077
 9544SOL    HW240092   2.105   2.702  13.984  0.9559 -0.1757 -1.2530
 9545SOL     OW40093   0.989   4.116   3.455 -0.3605 -0.3400  0.4302
 9545SOL    HW140094   1.014   4.206   3.431 -0.8877  0.2301  2.0155
 9545SOL    HW240095   1.002   4.121   3.549 -0.1008  0.9370  0.3362
 9546SOL     OW40096   0.168   3.690   1.346 -0.1559  0.8687  0.4252
 9546SOL    HW140097   0.236   3.731   1.292  1.1143 -2.6116 -0.5768
 9546SOL    HW240098   0.168   3.597   1.324 -2.3356  0.5792  1.7440
 9547SOL     OW40099   2.988   1.128   5.134  0.1935 -0.4775  0.0007
 9547SOL    HW140100   3.027   1.133   5.047 -0.4696 -3.8767 -0.4772
 9547SOL    HW240101   2.893   1.140   5.126  0.4386  0.9282 -0.8963
 9548SOL     OW40102   1.496   4.224   0.683 -0.0642 -0.3776  0.0374
 9548SOL    HW140103   1.519   4.317   0.683  3.7109 -1.3282  1.1832
 9548SOL    HW240104   1.440   4.220   0.605 -1.2420 -0.1101  0.8652
 9549SOL     OW40105   3.841   1.381   2.210  0.2594 -0.1346  0.1442
 9549SOL    HW140106   3.922   1.354   2.168 -0.9926 -1.1267 -1.6371
 9549SOL    HW240107   3.770   1.331   2.170  2.1489 -1.9359 -0.9337
 9550SOL     OW40108   3.905   0.011  16.102 -0.2433  0.6243 -0.2702
 9550SOL    HW140109   3.901   0.106  16.110  0.1776  0.6384 -0.2595
 9550SOL    HW240110   3.842   4.708  16.168  0.0893 -0.6561 -0.5029
 9551SOL     OW40111   1.955   2.936   7.480  0.0589 -0.0630  0.3817
 9551SOL    HW140112   1.984   2.883   7.555 -1.3812 -2.2954 -0.6505
 9551SOL    HW240113   1.861   2.924   7.495  0.2471 -0.2568  1.4537
 9552SOL     OW40114   0.433   2.513  17.103 -0.1114  0.2124 -0.3006
 9552SOL    HW140115   0.401   2.463  17.028 -1.2496  1.6666 -0.7735
 9552SOL    HW240116   0.433   2.443  17.169 -2.0579  0.0567 -0.4771
 9553SOL     OW40117   1.531   0.213   8.461  0.1211 -0.6810  0.2141
 9553SOL    HW140118   1.479   0.140   8.426 -1.3263  0.5184 -0.1273
 9553SOL    HW240119   1.551   0.185   8.550 -0.2098  0.1900  0.5592
 9554SOL     OW40120   2.013   4.585   5.141 -0.3156  0.3657 -0.2622
 9554SOL    HW140121   2.046   4.509   5.189 -0.6619  0.2677 -0.1769
 9554SOL    HW240122   1.943   4.607   5.202 -1.5469  0.4968 -1.7114
 9555SOL     OW40123   3.183   3.573  13.721 -0.1002 -0.6753 -0.1801
 9555SOL    HW140124   3.172   3.640  13.654 -2.8882 -0.7749  0.1936
 9555SOL    HW240125   3.197   3.624  13.801  1.1441 -0.8181 -0.3023
 9556SOL     OW40126   3.324   0.029   1.357  0.1337 -0.3857 -0.6772
 9556SOL    HW140127   3.363   4.676   1.397  0.4812  0.0469 -0.1783
 9556SOL    HW240128   3.300   0.006   1.267 -0.2693 -1.2383 -0.3491
 9557SOL     OW40129   4.126   4.393  12.195  0.3148 -0.4222 -0.2746
 9557SOL    HW140130   4.126   4.475  12.244  1.2970 -0.6255  0.0604
 9557SOL    HW240131   4.030   4.397  12.193  0.3525 -0.1697 -1.6744
 9558SOL     OW40132   2.375   1.619   8.981 -0.4800  0.3643 -0.7050
 9558SOL    HW140133   2.320   1.609   9.058  0.7918  0.5521  0.2334
 9558SOL    HW240134   2.339   1.565   8.911  0.0378  0.5597 -1.1313
 9559SOL     OW40135   2.324   3.384  10.249 -0.0463 -0.4997  0.4894
 9559SOL    HW140136   2.261   3.377  10.321 -1.8122  2.0080 -0.8202
 9559SOL    HW240137   2.408   3.356  10.286 -0.1648 -1.7387 -0.1558
 9560SOL     OW40138   1.326   0.350   3.846  0.4586 -0.5640  0.6420
 9560SOL    HW140139   1.370   0.267   3.865  1.3456  0.2620  2.2707
 9560SOL    HW240140   1.385   0.377   3.776  0.8479 -1.2450  0.7090
 9561SOL     OW40141   2.906   3.916   7.648 -0.4417  0.2534  0.3558
 9561SOL    HW140142   2.893   3.830   7.689  0.4912 -0.7989 -1.5274
 9561SOL    HW240143   2.890   3.892   7.557 -1.3386  0.3324  0.4971
 9562SOL     OW40144   3.771   4.156   8.171 -0.6124 -0.5715  0.4057
 9562SOL    HW140145   3.803   4.066   8.173 -0.3453 -0.4883 -0.0660
 9562SOL    HW240146   3.847   4.209   8.145  0.7100 -1.6039  2.1814
 9563SOL     OW40147   3.067   2.766  12.629 -0.3087  0.5608  0.0895
 9563SOL    HW140148   2.995   2.732  12.681  0.8106 -1.1746  0.4940
 9563SOL    HW240149   3.132   2.697  12.623 -2.0442 -1.1607  1.1709
 9564SOL     OW40150   2.326   2.172   7.274  1.2506 -0.7250 -0.1090
 9564SOL    HW140151   2.322   2.261   7.239 -1.0207 -0.9973 -0.5246
 9564SOL    HW240152   2.326   2.196   7.367 -0.7502 -1.4365  0.0647
 9565SOL     OW40153   3.063   2.617   4.248 -0.0585 -0.4468  0.6478
 9565SOL    HW140154   2.994   2.631   4.313 -0.5093 -0.7322  0.2281
 9565SOL    HW240155   3.141   2.629   4.302 -2.3706 -0.1733  3.9326
   4.72519   4.72519  17.70213
