Membrane in water
40155
    1TCq1    O1    1   1.468   4.483  10.357  0.3343 -0.2460 -0.5441
    1TCq1    C1    2   1.509   4.365  10.385 -0.2114  0.2584  0.4661
    1TCq1    O2    3   1.599   4.335  10.463 -0.2234  0.2130 -0.4671
    1TCq1    C2    4   1.383   4.284  10.388 -1.0704  0.1480  0.2855
    1TCq1    C3    5   1.280   4.308  10.299 -0.3461  0.2393 -0.3775
    1TCq1    C4    6   1.160   4.258  10.324  0.6631  0.2037 -0.1582
    1TCq1    C5    7   1.137   4.183  10.435  0.3823  0.0483  0.0010
    1TCq1    C6    8   1.240   4.138  10.509 -0.3122 -0.3426  0.5775
    1TCq1    C7    9   1.369   4.192  10.490 -0.4796  0.4272 -0.0918
    1TCq1    C8   10   1.223   4.025  10.596  0.8482 -0.2058 -0.2529
    1TCq1    O4   11   1.109   3.999  10.633  0.1044  0.3522 -0.2678
    1TCq1    C9   12   1.050   4.307  10.242  0.1647 -0.9653 -0.1223
    1TCq1    O5   13   0.947   4.236  10.238 -0.0936 -0.6230  0.4924
    1TCq1    O6   14   1.066   4.411  10.172  0.2211  0.5018  0.0375
    1TCq1    H1   15   1.379   4.493  10.316 -0.2084  1.0315  0.9067
    1TCq1    H2   16   1.292   4.375  10.215  0.3111 -1.2316 -1.4407
    1TCq1    H3   17   1.040   4.136  10.436  0.8341 -0.8693  0.8399
    1TCq1    H4   18   1.462   4.157  10.532 -0.0098  0.3398 -1.1882
    2MPD2     C   19   1.379   3.671  10.916  0.1168 -0.4704  0.1879
    2MPD2    C1   20   1.271   3.759  10.933  0.0962 -0.3262 -0.4838
    2MPD2    C2   21   1.261   3.854  10.828 -0.0412 -0.3928 -0.2394
    2MPD2    C3   22   1.356   3.873  10.727  0.2797  0.5950 -0.0314
    2MPD2    C4   23   1.477   3.809  10.733  0.0533  0.9549  0.5781
    2MPD2    C5   24   1.478   3.701  10.821  0.1219 -0.5420  0.5457
    2MPD2     H   25   1.178   3.923  10.837  0.5611  0.0886  1.7403
    2MPD2    H1   26   1.568   3.821  10.676 -0.3887  2.0430  0.1108
    2MPD2    H2   27   1.400   3.591  10.987  2.9849 -1.0086 -1.2507
    2MPD2    H3   28   1.564   3.635  10.816 -0.6537 -1.3725 -1.9919
    2MPD2     N   29   1.339   3.970  10.634  0.5599 -0.5757 -0.2069
    2MPD2    H5   30   1.424   3.983  10.579 -1.0141  2.7382 -1.8604
    2MPD2    N1   31   1.178   3.745  11.041 -0.1283  0.6398 -0.0407
    2MPD2    H7   32   1.108   3.818  11.039 -1.3974 -0.5201  2.7752
    3TCq1    O1   33   4.684   4.573  10.521 -0.2505  0.1379 -0.0426
    3TCq1    C1   34   0.033   4.676  10.476 -0.0173  0.1804  0.0521
    3TCq1    O2   35   0.052   4.697  10.356 -0.0913  0.0340 -0.1388
    3TCq1    C2   36   0.074   0.040  10.581 -0.1691 -0.0825  0.3747
    3TCq1    C3   37   0.162   0.138  10.552  0.1382 -0.4850 -0.0961
    3TCq1    C4   38   0.218   0.212  10.653 -0.3687 -0.2089 -0.1480
    3TCq1    C5   39   0.200   0.184  10.782  0.2901  0.9613 -0.6937
    3TCq1    C6   40   0.109   0.088  10.805 -0.3997 -0.5418  0.0742
    3TCq1    C7   41   0.046   0.011  10.713  0.2226  0.6692  0.2544
    3TCq1    C8   42   0.049   0.083  10.942 -0.0134 -0.4502  0.1410
    3TCq1    O4   43   0.007   4.699  10.978  0.3353  0.1750  0.2837
    3TCq1    C9   44   0.319   0.311  10.623  0.4809 -0.7648  0.0272
    3TCq1    O5   45   0.335   0.399  10.708 -0.2082  0.1962  0.0521
    3TCq1    O6   46   0.362   0.322  10.501 -0.1595 -0.3353 -0.1020
    3TCq1    H1   47   4.696   4.562  10.618  0.8888 -0.6041 -0.2680
    3TCq1    H2   48   0.205   0.145  10.453 -3.6046  1.3671 -1.5952
    3TCq1    H3   49   0.264   0.224  10.860 -0.5892  1.2952 -0.1388
    3TCq1    H4   50   4.699   4.659  10.748  0.3568  0.5461  0.2555
    4MPD2     C   51   4.605   0.300  11.381 -0.4072 -1.0761  0.6852
    4MPD2    C1   52   4.668   0.390  11.306 -0.4441 -0.5972 -0.2978
    4MPD2    C2   53   4.720   0.359  11.180  0.5073  0.4453 -0.6720
    4MPD2    C3   54   4.720   0.232  11.133 -0.0850 -0.0046  0.1663
    4MPD2    C4   55   4.672   0.131  11.217 -1.1062 -0.8092 -0.6612
    4MPD2    C5   56   4.617   0.167  11.336  0.0662  0.1896 -0.7692
    4MPD2     H   57   0.043   0.438  11.123  0.4989  0.8962 -0.0614
    4MPD2    H1   58   4.673   0.026  11.190 -0.2048 -1.2420  1.0535
    4MPD2    H2   59   4.546   0.323  11.469 -1.3737  0.5440 -0.3803
    4MPD2    H3   60   4.564   0.096  11.398  0.3849 -1.4035 -2.2989
    4MPD2     N   61   0.055   0.209  11.003 -0.1145 -0.0343  0.6254
    4MPD2    H5   62   0.099   0.285  10.952 -0.1510  0.1630  0.8918
    4MPD2    N1   63   4.666   0.531  11.335  0.2679  0.1327 -0.3375
    4MPD2    H7   64   4.705   0.591  11.263  0.6122 -2.0922 -2.0021
    5TCq1    O1   65   0.153   2.128  10.082 -0.3940  0.2875  0.1137
    5TCq1    C1   66   0.229   2.025  10.125  0.0355  0.7595 -0.4422
    5TCq1    O2   67   0.197   1.908  10.138  0.4694 -0.1192 -0.2898
    5TCq1    C2   68   0.367   2.073  10.142 -0.9671 -0.0339  0.0851
    5TCq1    C3   69   0.428   2.144  10.044  0.0421  0.0582 -0.4205
    5TCq1    C4   70   0.558   2.137  10.033 -0.4285  0.2535  0.3038
    5TCq1    C5   71   0.643   2.075  10.122 -0.7432  0.3674  1.1988
    5TCq1    C6   72   0.581   1.999  10.215  0.1749  0.4255 -0.0565
    5TCq1    C7   73   0.445   1.996  10.230  0.5159  0.6575 -0.9219
    5TCq1    C8   74   0.658   1.908  10.302 -0.6897  0.2506  0.0351
    5TCq1    O4   75   0.598   1.829  10.374  0.2288  0.3373  0.1551
    5TCq1    C9   76   0.615   2.179   9.909  0.6000  0.5359 -0.0623
    5TCq1    O5   77   0.709   2.104   9.870 -0.1754  0.5092 -0.7250
    5TCq1    O6   78   0.542   2.248   9.833  0.3739 -0.0818  0.2286
    5TCq1    H1   79   0.200   2.214  10.081  0.3836 -0.1517 -1.1599
    5TCq1    H2   80   0.366   2.208   9.981  0.4891  0.8009 -0.1059
    5TCq1    H3   81   0.750   2.072  10.105 -1.1076 -0.5440 -0.9746
    5TCq1    H4   82   0.400   1.928  10.302  1.2789  0.4400 -0.6517
    6MPD2     C   83   0.980   1.990  10.452  0.0830  0.8843  0.0830
    6MPD2    C1   84   0.869   1.915  10.429  0.1468  0.3202 -0.7730
    6MPD2    C2   85   0.863   1.791  10.489 -0.2360 -0.2199 -0.4528
    6MPD2    C3   86   0.958   1.746  10.573  0.1343 -0.5598 -0.6439
    6MPD2    C4   87   1.065   1.828  10.607  0.1571  0.2720 -0.8356
    6MPD2    C5   88   1.075   1.940  10.539 -0.4701  0.1306  0.1120
    6MPD2     H   89   0.778   1.726  10.474 -0.5735  0.6086 -2.1006
    6MPD2    H1   90   1.133   1.798  10.685 -1.4046 -0.2995  0.3153
    6MPD2    H2   91   1.000   2.083  10.400  0.8108  1.0248  0.6072
    6MPD2    H3   92   1.162   2.003  10.552  0.1022 -0.5879 -0.2088
    6MPD2     N   93   0.928   1.617  10.625  0.1439  0.5388  0.3426
    6MPD2    H5   94   0.836   1.578  10.610  1.0323 -2.0232  1.6717
    6MPD2    N1   95   0.776   1.968  10.339  0.1716 -0.3031  0.0071
    6MPD2    H7   96   0.792   2.054  10.288  0.0289  0.0160  0.5008
    7TCq1    O1   97   2.480   1.411  13.066  0.4650 -0.1012  0.1229
    7TCq1    C1   98   2.509   1.281  13.080  0.3288 -0.1254 -0.2976
    7TCq1    O2   99   2.587   1.220  13.002 -0.4190  0.2076  0.2806
    7TCq1    C2  100   2.494   1.259  13.225  0.0243  0.3588  0.0047
    7TCq1    C3  101   2.372   1.249  13.276 -0.6686 -0.3350  0.6521
    7TCq1    C4  102   2.346   1.158  13.384 -0.5561 -0.0669  0.0913
    7TCq1    C5  103   2.452   1.087  13.422 -0.0323  0.4217 -0.8037
    7TCq1    C6  104   2.576   1.103  13.367 -0.6292  0.4864 -0.0727
    7TCq1    C7  105   2.607   1.191  13.271 -0.2300 -0.3104  0.3934
    7TCq1    C8  106   2.685   1.015  13.406  0.7743 -0.5620  0.0254
    7TCq1    O4  107   2.655   0.897  13.417 -0.1777 -0.3534 -0.4333
    7TCq1    C9  108   2.220   1.146  13.456  0.2632  0.7442 -0.6003
    7TCq1    O5  109   2.118   1.210  13.415  0.3148 -0.0797  0.1037
    7TCq1    O6  110   2.215   1.049  13.538 -0.0862  0.5313 -0.3108
    7TCq1    H1  111   2.474   1.458  13.152  3.0502  1.2367 -0.4183
    7TCq1    H2  112   2.301   1.322  13.239 -1.7550 -1.4578  0.4970
    7TCq1    H3  113   2.444   1.012  13.501 -1.1093  1.3251 -0.0428
    7TCq1    H4  114   2.698   1.187  13.212 -0.8886  3.7393 -0.8751
    8MPD2     C  115   3.172   0.878  13.295  0.2815 -1.1043 -0.5433
    8MPD2    C1  116   3.062   0.800  13.318 -0.5451  0.5323  0.4233
    8MPD2    C2  117   2.944   0.860  13.362  0.6731  0.4606 -0.2248
    8MPD2    C3  118   2.930   0.999  13.367  0.3726 -0.1137  0.0678
    8MPD2    C4  119   3.040   1.074  13.336  0.5142  0.4589  0.0662
    8MPD2    C5  120   3.160   1.016  13.303  0.7509 -0.6791  0.2619
    8MPD2     H  121   2.863   0.804  13.407 -1.4488  2.3576 -1.6791
    8MPD2    H1  122   3.032   1.182  13.331  1.2043  0.6233  2.4722
    8MPD2    H2  123   3.267   0.843  13.255 -0.0514 -0.6274 -1.7483
    8MPD2    H3  124   3.240   1.087  13.286 -0.5506 -0.0665 -3.4095
    8MPD2     N  125   2.808   1.069  13.387 -0.3504 -0.2532  0.0361
    8MPD2    H5  126   2.820   1.169  13.373  0.4183 -0.2945  0.4174
    8MPD2    N1  127   3.079   0.657  13.313 -0.7261  0.0666 -0.2585
    8MPD2    H7  128   3.176   0.634  13.291 -0.6586 -2.2323  2.4240
    9TCq1    O1  129   1.737   0.301  10.993 -0.0019  0.0929 -0.2129
    9TCq1    C1  130   1.641   0.312  10.895 -0.9234  0.2911 -0.9001
    9TCq1    O2  131   1.635   0.398  10.815 -0.0476 -0.3501 -0.3263
    9TCq1    C2  132   1.523   0.241  10.942 -0.0382 -0.7302  0.2847
    9TCq1    C3  133   1.543   0.111  10.978  0.0218 -0.2077  0.0425
    9TCq1    C4  134   1.431   0.030  10.992 -0.3992 -0.1033 -0.3702
    9TCq1    C5  135   1.307   0.087  10.999 -0.2107  0.1864  0.1870
    9TCq1    C6  136   1.293   0.217  10.966  0.4049  0.7779  0.2137
    9TCq1    C7  137   1.400   0.296  10.928  0.3866 -0.1816 -0.1264
    9TCq1    C8  138   1.167   0.284  10.989 -0.5747 -0.4875 -0.0795
    9TCq1    O4  139   1.162   0.397  10.956  0.4264  0.3893  0.3399
    9TCq1    C9  140   1.442   4.615  11.013 -0.3680 -0.5958  0.3801
    9TCq1    O5  141   1.554   4.566  11.006  0.2495 -0.0193  0.1418
    9TCq1    O6  142   1.335   4.562  11.053  0.3213 -0.0830  0.0866
    9TCq1    H1  143   1.709   0.247  11.070  1.5304  0.1105  0.3554
    9TCq1    H2  144   1.644   0.071  10.980 -0.3580 -1.1928 -0.5934
    9TCq1    H3  145   1.217   0.028  10.990 -0.5292  0.4682  1.5026
    9TCq1    H4  146   1.389   0.400  10.899  0.5196 -0.2538 -0.4320
   10MPD2     C  147   0.908   0.378  11.097 -0.7412 -0.1635  1.2497
   10MPD2    C1  148   0.972   0.260  11.135 -0.4424  0.2420 -0.1902
   10MPD2    C2  149   0.907   0.178  11.222 -0.3369 -0.3313 -0.5622
   10MPD2    C3  150   0.795   0.223  11.290 -0.0426 -0.1744 -0.1593
   10MPD2    C4  151   0.740   0.343  11.268  0.0687  0.4865  0.5927
   10MPD2    C5  152   0.794   0.418  11.167  0.3982 -0.5285 -0.1393
   10MPD2     H  153   0.947   0.081  11.249 -1.5628 -0.7384 -0.2056
   10MPD2    H1  154   0.659   0.380  11.328 -0.8860 -0.6286 -0.0076
   10MPD2    H2  155   0.946   0.449  11.025  0.9038 -0.7606  1.5298
   10MPD2    H3  156   0.745   0.514  11.152  0.7269 -0.7227 -2.3748
   10MPD2     N  157   0.737   0.134  11.390  0.2129  0.1443  0.1285
   10MPD2    H5  158   0.776   0.041  11.392  0.4256  0.2225 -0.4871
   10MPD2    N1  159   1.092   0.216  11.078  0.3809  0.2241  0.5486
   10MPD2    H7  160   1.122   0.124  11.107  0.2936  0.1593  0.4293
   11TCq1    O1  161   2.087   4.615  14.118 -0.0301 -0.4815 -0.6456
   11TCq1    C1  162   1.989   4.521  14.117  0.3065 -0.7151  0.3570
   11TCq1    O2  163   1.947   4.465  14.015 -0.0275  0.2862  0.1939
   11TCq1    C2  164   1.946   4.502  14.253 -0.3810 -0.1884  0.8121
   11TCq1    C3  165   2.021   4.557  14.356  0.0065 -0.3895  0.6510
   11TCq1    C4  166   1.969   4.552  14.483 -0.5870 -0.1693 -0.1183
   11TCq1    C5  167   1.850   4.486  14.507 -0.0881 -0.5551  0.0438
   11TCq1    C6  168   1.768   4.454  14.398 -0.1916  0.3746 -0.6353
   11TCq1    C7  169   1.814   4.466  14.267 -0.1117 -0.4240  0.3503
   11TCq1    C8  170   1.622   4.428  14.431  0.7202 -0.3062 -0.3572
   11TCq1    O4  171   1.592   4.387  14.543  0.9348 -0.2384  0.5333
   11TCq1    C9  172   2.051   4.586  14.598  0.2880 -0.4701  0.3651
   11TCq1    O5  173   2.155   4.655  14.566  0.1637  0.0101  0.2535
   11TCq1    O6  174   2.010   4.563  14.713 -0.5789  0.1774  0.6202
   11TCq1    H1  175   2.097   4.676  14.194  0.7137  0.6515 -1.6449
   11TCq1    H2  176   2.125   4.589  14.352 -0.2852  0.2066 -2.3589
   11TCq1    H3  177   1.809   4.481  14.607  2.4356 -3.2741  0.9247
   11TCq1    H4  178   1.767   4.433  14.176  0.3626  0.9961 -0.4037
   12MPD2     C  179   1.327   4.364  14.419  0.5314  0.0096 -0.2350
   12MPD2    C1  180   1.413   4.363  14.309  0.5366  0.3670  0.2859
   12MPD2    C2  181   1.361   4.306  14.192 -0.6680 -0.1488  0.0730
   12MPD2    C3  182   1.243   4.240  14.182  0.3316  0.0353  0.1942
   12MPD2    C4  183   1.154   4.255  14.290  0.7239  0.0663 -0.4100
   12MPD2    C5  184   1.195   4.317  14.406  0.2789 -0.1887 -0.4791
   12MPD2     H  185   1.442   4.293  14.120  0.1140  1.5945  0.6263
   12MPD2    H1  186   1.055   4.210  14.281  0.4185  0.7746 -0.6157
   12MPD2    H2  187   1.364   4.397  14.516 -1.3835  2.2404 -0.2487
   12MPD2    H3  188   1.124   4.322  14.488 -0.8437 -0.3101 -1.4457
   12MPD2     N  189   1.208   4.153  14.078  0.2362  0.7550 -0.0415
   12MPD2    H5  190   1.114   4.116  14.086  0.2126  0.6048 -0.9588
   12MPD2    N1  191   1.548   4.415  14.317 -0.6059 -0.0744  0.1158
   12MPD2    H7  192   1.592   4.428  14.227 -0.1381 -0.0392  0.3463
   13TCq1    O1  193   1.031   4.430  10.627  0.6546  0.9552 -0.3676
   13TCq1    C1  194   0.962   4.509  10.548 -0.2197 -0.1739 -0.1659
   13TCq1    O2  195   1.004   4.576  10.455 -0.0636  0.8481  0.0435
   13TCq1    C2  196   0.830   4.454  10.533 -0.6748 -0.0059  0.1600
   13TCq1    C3  197   0.782   4.438  10.410  0.1793  0.2885  0.3097
   13TCq1    C4  198   0.655   4.381  10.391 -0.8509 -0.3740 -0.5987
   13TCq1    C5  199   0.579   4.346  10.499  0.6738  0.0925 -0.0077
   13TCq1    C6  200   0.633   4.358  10.626  0.7642 -0.3134 -0.8878
   13TCq1    C7  201   0.756   4.417  10.646  0.6713 -0.0803  0.8385
   13TCq1    C8  202   0.556   4.315  10.749  0.1117 -0.7877  0.0379
   13TCq1    O4  203   0.599   4.359  10.857  0.5806  0.6368  0.1225
   13TCq1    C9  204   0.598   4.341  10.260 -0.1195 -1.0749  0.3453
   13TCq1    O5  205   0.530   4.238  10.272  0.0223  0.4324 -0.7578
   13TCq1    O6  206   0.672   4.366  10.162  0.2848 -0.3075  0.0125
   13TCq1    H1  207   0.973   4.391  10.696 -0.1863  0.2396 -1.4884
   13TCq1    H2  208   0.837   4.470  10.322  1.3465  0.2912  1.0431
   13TCq1    H3  209   0.485   4.299  10.476  0.0641 -0.5310  3.7741
   13TCq1    H4  210   0.789   4.442  10.746 -3.3023  2.3196  1.5462
   14MPD2     C  211   0.257   4.102  10.749 -0.2390  0.1436 -0.2760
   14MPD2    C1  212   0.356   4.179  10.806  0.0465  0.0819  0.4511
   14MPD2    C2  213   0.339   4.229  10.933 -0.3691  0.2711  0.3885
   14MPD2    C3  214   0.223   4.187  11.005 -0.2406 -0.1223  0.2770
   14MPD2    C4  215   0.133   4.102  10.948  0.2698 -0.3752 -0.1225
   14MPD2    C5  216   0.148   4.069  10.815 -0.9781  0.4187  0.3040
   14MPD2     H  217   0.404   4.307  10.971 -1.0994  1.0693 -0.0044
   14MPD2    H1  218   0.045   4.066  10.999  1.2475  0.4025  2.0993
   14MPD2    H2  219   0.266   4.069  10.647  3.3494 -0.8823  0.3903
   14MPD2    H3  220   0.070   4.010  10.767  1.0265 -0.2668 -2.0855
   14MPD2     N  221   0.200   4.245  11.132  0.6103 -0.0115  0.7260
   14MPD2    H5  222   0.260   4.321  11.160  1.4720 -0.1273 -0.8220
   14MPD2    N1  223   0.459   4.220  10.713  0.5529  0.2994 -0.0258
   14MPD2    H7  224   0.459   4.179  10.620 -1.6158 -0.9486  0.5153
   15TCq1    O1  225   2.915   3.058   2.567 -0.3445 -0.1531 -0.1292
   15TCq1    C1  226   2.799   3.107   2.616 -0.0709 -0.2145  0.3815
   15TCq1    O2  227   2.786   3.176   2.718  0.9978  0.3897 -0.3243
   15TCq1    C2  228   2.685   3.088   2.520  0.0755 -0.3711 -0.8275
   15TCq1    C3  229   2.560   3.123   2.560  0.0378 -0.8230 -0.1826
   15TCq1    C4  230   2.460   3.100   2.469 -0.0401  0.6064  0.3254
   15TCq1    C5  231   2.484   3.032   2.350  0.5275 -0.3960 -0.0308
   15TCq1    C6  232   2.612   2.998   2.319 -0.2471 -0.8377 -0.2327
   15TCq1    C7  233   2.713   3.025   2.404  0.4981  0.0294  0.1623
   15TCq1    C8  234   2.650   2.976   2.182 -0.1543 -0.8025 -0.3808
   15TCq1    O4  235   2.767   2.965   2.149 -0.4197 -0.6213  0.6077
   15TCq1    C9  236   2.327   3.124   2.512  0.1666 -0.5501 -0.1227
   15TCq1    O5  237   2.303   3.159   2.629  1.0696  0.7370 -0.4135
   15TCq1    O6  238   2.240   3.107   2.425  0.2929 -0.0692  0.3499
   15TCq1    H1  239   2.912   2.977   2.513  1.5170  0.4278 -1.1219
   15TCq1    H2  240   2.540   3.162   2.659  0.0263 -1.0563 -0.0907
   15TCq1    H3  241   2.403   2.993   2.289 -0.9965 -0.4663  2.0628
   15TCq1    H4  242   2.809   3.021   2.354  2.6291  0.8204  4.1358
   16MPD2     C  243   2.431   3.019   1.883 -1.0045 -0.4446 -0.3221
   16MPD2    C1  244   2.546   2.975   1.955  0.6832 -0.4034  0.6775
   16MPD2    C2  245   2.652   2.929   1.880  0.0818  0.3094 -0.0599
   16MPD2    C3  246   2.642   2.913   1.741 -0.7042  0.3248  0.6980
   16MPD2    C4  247   2.537   2.963   1.668 -0.0835 -0.4391  0.1014
   16MPD2    C5  248   2.428   3.011   1.745 -0.3076  0.1899 -0.4331
   16MPD2     H  249   2.743   2.888   1.923 -0.3448  0.1385  0.6875
   16MPD2    H1  250   2.533   2.977   1.561 -1.6233 -0.9068  0.0961
   16MPD2    H2  251   2.346   3.055   1.941 -0.9273 -0.1797 -0.3712
   16MPD2    H3  252   2.344   3.052   1.691 -0.5860  1.2073  0.7929
   16MPD2     N  253   2.760   2.857   1.677  0.5874  0.1731 -0.3313
   16MPD2    H5  254   2.835   2.835   1.742  0.4310 -1.5667 -0.7260
   16MPD2    N1  255   2.543   2.981   2.096  0.2442 -0.3462  0.0795
   16MPD2    H7  256   2.453   2.999   2.138  1.0683  1.2937  1.1356
   17TCq1    O1  257   0.136   3.758  11.219 -0.9724 -0.0667 -0.0324
   17TCq1    C1  258   0.210   3.858  11.272  0.5778  0.2311 -0.2494
   17TCq1    O2  259   0.196   3.906  11.385 -0.1505 -0.1499  0.0663
   17TCq1    C2  260   0.345   3.856  11.204  0.4446 -0.6987 -0.3748
   17TCq1    C3  261   0.416   3.973  11.189 -0.2966 -0.5286  0.3687
   17TCq1    C4  262   0.549   3.970  11.153 -0.4014  0.5373 -0.5304
   17TCq1    C5  263   0.612   3.857  11.120 -0.1738  0.0372  0.4571
   17TCq1    C6  264   0.541   3.740  11.133  0.1858  0.3222  0.7185
   17TCq1    C7  265   0.408   3.739  11.173 -0.1144 -0.2175  0.8905
   17TCq1    C8  266   0.584   3.614  11.095  0.4568  0.2487 -0.2101
   17TCq1    O4  267   0.531   3.509  11.136  0.2390  0.1304 -0.0473
   17TCq1    C9  268   0.614   4.095  11.123 -0.7801 -0.5669  0.4402
   17TCq1    O5  269   0.549   4.201  11.146 -0.3480  0.1110  0.0374
   17TCq1    O6  270   0.735   4.096  11.088 -0.3610  0.6361 -0.0736
   17TCq1    H1  271   0.158   3.740  11.125 -0.0555  0.4085  0.0930
   17TCq1    H2  272   0.375   4.068  11.221 -2.4098 -0.3570 -2.7835
   17TCq1    H3  273   0.716   3.865  11.093 -0.5529 -0.2919 -1.0756
   17TCq1    H4  274   0.358   3.645  11.193 -0.8153 -0.6079 -2.6401
   18MPD2     C  275   0.810   3.423  11.035 -0.0815 -0.6134  0.6753
   18MPD2    C1  276   0.785   3.539  10.963 -0.4839 -0.3421  0.1958
   18MPD2    C2  277   0.876   3.578  10.863 -0.1921 -0.4499 -0.1257
   18MPD2    C3  278   0.982   3.499  10.833 -0.1621 -0.5844 -0.5404
   18MPD2    C4  279   1.006   3.383  10.907  0.2161 -0.7031  0.9402
   18MPD2    C5  280   0.918   3.351  11.009  0.0179 -0.5499 -0.5757
   18MPD2     H  281   0.866   3.676  10.819 -0.1930  0.0590  1.0033
   18MPD2    H1  282   1.089   3.315  10.893  0.2081 -0.4060 -0.6162
   18MPD2    H2  283   0.753   3.396  11.123 -0.6606  1.1472  0.8468
   18MPD2    H3  284   0.940   3.256  11.056 -1.0099 -0.9433 -0.8929
   18MPD2     N  285   1.078   3.530  10.736 -0.2923 -0.1187  0.0702
   18MPD2    H5  286   1.171   3.490  10.741 -0.2238 -0.1343 -1.3160
   18MPD2    N1  287   0.680   3.629  11.001 -0.0654 -0.1094 -0.2657
   18MPD2    H7  288   0.686   3.719  10.955 -2.4849  0.9394  1.4733
   19TMC2    C1  289   2.712   4.285  13.639 -0.3142  0.5207  0.1336
   19TMC2    C2  290   2.812   4.295  13.551 -0.4080  0.1723 -0.3882
   19TMC2    C3  291   2.798   4.213  13.441 -0.8476 -0.2206 -0.0931
   19TMC2    C4  292   2.588   4.227  13.611 -0.8786 -0.1623  0.5998
   19TMC2    C5  293   2.574   4.160  13.496  0.0208  0.5675 -0.0471
   19TMC2    C6  294   2.679   4.143  13.410  0.0248 -0.0879 -0.0521
   19TMC2     C  295   2.717   4.366  13.758  0.2224 -0.0109  0.3566
   19TMC2     O  296   2.776   4.473  13.750 -0.3898  0.3533 -0.3575
   19TMC2     H  297   2.902   4.337  13.595 -0.6588  1.0049 -0.6523
   19TMC2    H1  298   2.501   4.228  13.675 -0.6922  2.2421  0.8438
   19TMC2    H2  299   2.677   4.092  13.315  0.0251 -2.2998  1.1349
   19TMC2    C7  300   2.453   4.099  13.442  0.2446 -0.2421  0.0886
   19TMC2    C8  301   2.900   4.159  13.355  0.3959  0.6375  0.4030
   19TMC2    O1  302   2.453   4.006  13.362  0.1014  0.0873 -0.0386
   19TMC2    O2  303   2.881   4.094  13.254 -0.4863 -0.5508 -0.2350
   19TMC2    O5  304   3.009   4.230  13.363  0.4865 -0.0710  0.2905
   19TMC2    H5  305   3.036   4.230  13.458 -1.3494  0.4678  0.8226
   20MPD2     C  306   2.658   4.473  14.053 -0.5131  0.3323 -0.0079
   20MPD2    C1  307   2.657   4.341  14.007  0.5792  0.9053 -0.5939
   20MPD2    C2  308   2.631   4.238  14.094  0.3629 -0.1633  0.3416
   20MPD2    C3  309   2.608   4.260  14.228 -0.0352 -0.4550 -0.0584
   20MPD2    C4  310   2.598   4.392  14.270  0.0233 -0.6286 -0.0586
   20MPD2    C5  311   2.628   4.495  14.185 -0.1085  0.8835 -0.0863
   20MPD2     H  312   2.632   4.137  14.053  1.4027 -0.3208  0.7499
   20MPD2    H1  313   2.571   4.402  14.375  1.6724 -1.5863  0.4560
   20MPD2    H2  314   2.679   4.553  13.983  1.1766 -0.7909 -0.7945
   20MPD2    H3  315   2.627   4.594  14.230 -0.0249  1.4173 -1.2667
   20MPD2     N  316   2.568   4.161  14.321 -0.3183 -0.1156  0.1573
   20MPD2    H5  317   2.534   4.200  14.408 -0.5052 -0.0864  0.0733
   20MPD2    N1  318   2.661   4.299  13.870  0.5511 -0.8976 -0.3465
   20MPD2    H7  319   2.619   4.210  13.848 -0.7606 -0.3295 -0.1725
   21MPD2     C  320   4.655   4.561  14.170 -0.9387  0.0008 -0.5839
   21MPD2    C1  321   4.718   4.450  14.205 -0.0302 -0.1675 -0.6671
   21MPD2    C2  322   4.657   4.368  14.302  0.3383 -0.8419 -0.0369
   21MPD2    C3  323   4.538   4.401  14.364 -0.5541  0.2969  0.0115
   21MPD2    C4  324   4.473   4.513  14.323 -0.3370 -0.2443  0.2136
   21MPD2    C5  325   4.529   4.590  14.227 -0.6434  0.8086  0.7711
   21MPD2     H  326   4.708   4.283  14.345  1.3584 -0.1523  0.1254
   21MPD2    H1  327   4.376   4.540  14.365  0.2848 -0.6742  1.9069
   21MPD2    H2  328   4.692   4.619  14.086  2.1466 -0.2868  0.5633
   21MPD2    H3  329   4.476   4.667  14.174 -1.5424  0.7826  1.6143
   21MPD2     N  330   4.476   4.321  14.468 -0.0121 -0.0204  0.0702
   21MPD2    H5  331   4.385   4.351  14.501  0.0531 -1.5147  1.6000
   21MPD2    N1  332   0.106   4.406  14.143 -0.7678  0.2684 -0.2130
   21MPD2    H7  333   0.132   4.308  14.146  1.3802  0.8631  0.7531
   22TCq2    C1  334   4.539   4.220  14.529  0.0180 -0.2471 -0.2808
   22TCq2    O2  335   4.619   4.139  14.483  0.0556 -0.1616 -0.1155
   22TCq2    C2  336   4.483   4.174  14.654  0.1698  0.3390  0.3718
   22TCq2    C3  337   4.533   4.057  14.716 -0.4875  0.3983 -0.3695
   22TCq2    C4  338   4.481   4.029  14.842 -0.1641 -0.1602  0.6987
   22TCq2    C5  339   4.381   4.109  14.901 -0.4301 -0.7225  0.0381
   22TCq2    C6  340   4.349   4.227  14.842  0.1199 -0.6010  0.0661
   22TCq2    C7  341   4.408   4.267  14.719  0.8180  0.0789  0.0716
   22TCq2    C8  342   4.257   4.320  14.918 -0.0952 -0.1952 -0.0688
   22TCq2    O4  343   4.219   4.281  15.030 -0.0296  0.1048 -0.0031
   22TCq2    C9  344   4.542   3.917  14.915  1.0374  0.5873  0.6818
   22TCq2    O5  345   4.651   3.875  14.873  0.5057 -0.1997 -0.7252
   22TCq2    O6  346   4.502   3.896  15.033  0.1953 -0.2006 -0.3220
   22TCq2    H2  347   4.613   3.997  14.673  0.1337  1.0997 -0.2004
   22TCq2    H3  348   4.360   4.093  15.006 -0.2628 -0.9495  0.0370
   22TCq2    H4  349   4.404   4.372  14.691  1.6184  0.2038  0.4460
   23MPD2     C  350   1.636   0.408  14.637  0.6031 -0.2082 -0.3941
   23MPD2    C1  351   1.514   0.374  14.678  0.4449  0.1405 -0.0089
   23MPD2    C2  352   1.424   0.338  14.579 -0.1898  0.3419  0.1274
   23MPD2    C3  353   1.449   0.361  14.441 -0.6396  0.0259  0.0385
   23MPD2    C4  354   1.569   0.403  14.404 -0.4659  0.5836 -0.4532
   23MPD2    C5  355   1.664   0.411  14.501 -0.4959 -0.7264 -0.0898
   23MPD2     H  356   1.324   0.305  14.606 -0.0329  1.3367  1.8986
   23MPD2    H1  357   1.588   0.413  14.298 -2.0552  0.7138 -0.7248
   23MPD2    H2  358   1.714   0.427  14.709  0.2061  0.1334 -0.0518
   23MPD2    H3  359   1.768   0.435  14.486  0.4760 -2.7700  3.2052
   23MPD2     N  360   1.360   0.345  14.335 -0.1717 -0.9020  0.0217
   23MPD2    H5  361   1.398   0.365  14.243  1.2266  0.4915  0.9123
   23MPD2    N1  362   1.476   0.383  14.817  0.5217  0.1186  0.2874
   23MPD2    H7  363   1.383   0.351  14.843  0.7276 -0.4314  0.3301
   24TCq2    C1  364   1.240   0.283  14.341 -0.6359  0.0741  0.3862
   24TCq2    O2  365   1.174   0.258  14.441 -0.3273 -0.0000 -0.1797
   24TCq2    C2  366   1.173   0.262  14.214  0.5827  0.0146 -0.0844
   24TCq2    C3  367   1.198   0.337  14.102  0.3312 -0.2020 -0.3083
   24TCq2    C4  368   1.098   0.351  14.006 -0.0671 -0.1820  0.0811
   24TCq2    C5  369   0.985   0.289  14.022 -0.3102  0.1018  0.4905
   24TCq2    C6  370   0.964   0.207  14.132 -0.7303 -0.5494 -0.2061
   24TCq2    C7  371   1.061   0.183  14.225 -1.2757  0.5240  0.2378
   24TCq2    C8  372   0.828   0.166  14.163 -0.3420 -0.4246 -0.3832
   24TCq2    O4  373   0.814   0.077  14.249 -0.0125 -0.2452  0.3076
   24TCq2    C9  374   1.105   0.440  13.895 -0.8821 -0.1382 -0.0349
   24TCq2    O5  375   1.194   0.528  13.912 -0.3598 -0.2266  0.4027
   24TCq2    O6  376   1.012   0.435  13.810 -0.2681 -0.2515 -0.2470
   24TCq2    H2  377   1.280   0.406  14.091  0.8382 -0.7638 -0.0313
   24TCq2    H3  378   0.904   0.312  13.954 -0.3666  1.7350  1.0986
   24TCq2    H4  379   1.031   0.119  14.307 -0.6401 -0.2943 -0.1671
   25TMC2    C1  380   0.421   3.244  11.383 -0.6294 -0.0805 -0.1085
   25TMC2    C2  381   0.503   3.351  11.382  0.3229  0.3332 -0.0502
   25TMC2    C3  382   0.484   3.450  11.473  0.2591 -0.4805  0.1836
   25TMC2    C4  383   0.321   3.231  11.475  0.5464  0.1055  0.0893
   25TMC2    C5  384   0.306   3.341  11.556  0.3575  0.1705  0.2933
   25TMC2    C6  385   0.378   3.458  11.558 -0.1778 -0.1619  0.6373
   25TMC2     C  386   0.454   3.142  11.290 -0.0059  0.7053  1.1156
   25TMC2     O  387   0.565   3.149  11.241  0.1075  0.4831 -0.0759
   25TMC2     H  388   0.591   3.355  11.320  1.6996  0.6222  1.9485
   25TMC2    H1  389   0.258   3.145  11.493  0.5919 -0.4564 -2.3419
   25TMC2    H2  390   0.354   3.526  11.639  0.6153 -0.4194  1.0853
   25TMC2    C7  391   0.228   3.311  11.676  0.5167  0.1360  0.1625
   25TMC2    C8  392   0.597   3.532  11.502  0.4008  0.2558  0.9237
   25TMC2    O1  393   0.246   3.203  11.725  0.0203  0.3235  0.5691
   25TMC2    O2  394   0.670   3.594  11.427 -0.2306 -0.9913 -0.0501
   25TMC2    O5  395   0.597   3.553  11.639 -0.4272 -0.4107  0.5366
   25TMC2    H5  396   0.541   3.486  11.685 -3.0430  0.8103 -0.8314
   26MPD2     C  397   0.381   2.706  11.031 -0.3913 -0.1479  0.7111
   26MPD2    C1  398   0.263   2.735  11.101 -0.3562 -0.2195  0.2109
   26MPD2    C2  399   0.260   2.851  11.174 -0.2851 -0.0607 -0.1115
   26MPD2    C3  400   0.373   2.933  11.194  0.1502  0.5567  0.0358
   26MPD2    C4  401   0.489   2.897  11.127 -0.5254 -0.4567 -0.0134
   26MPD2    C5  402   0.491   2.790  11.036  0.0833 -0.0487 -0.4306
   26MPD2     H  403   0.173   2.869  11.235 -0.9132  0.3835 -1.1361
   26MPD2    H1  404   0.583   2.950  11.139 -0.9302  0.2793 -0.0889
   26MPD2    H2  405   0.381   2.625  10.960  2.0864 -0.3557  0.9574
   26MPD2    H3  406   0.575   2.766  10.971  0.1508 -0.9591 -0.0014
   26MPD2     N  407   0.361   3.046  11.278 -0.2423  0.0874 -0.3115
   26MPD2    H5  408   0.278   3.063  11.335 -1.3849 -1.2376 -1.5838
   26MPD2    N1  409   0.159   2.644  11.076  0.1401 -0.4939 -0.0054
   26MPD2    H7  410   0.187   2.573  11.009  1.4494 -1.3965  1.5016
   27TMC2    C1  411   3.671   0.006  11.928 -0.4835  0.7182  0.4491
   27TMC2    C2  412   3.600   4.618  11.886 -0.5470  0.6435 -0.6686
   27TMC2    C3  413   3.470   4.654  11.863 -0.3494  0.4355  0.6079
   27TMC2    C4  414   3.620   0.132  11.924  0.4858  0.5205  0.6233
   27TMC2    C5  415   3.494   0.161  11.887  0.1740  0.2609 -0.0276
   27TMC2    C6  416   3.413   0.053  11.867 -0.3766  0.1805  0.0910
   27TMC2     C  417   3.725   4.704  12.062  0.5194 -0.3552 -0.1740
   27TMC2     O  418   3.785   4.599  12.068  0.1099  0.5377 -0.4473
   27TMC2     H  419   3.634   4.516  11.899 -1.5894 -0.0030 -3.0523
   27TMC2    H1  420   3.683   0.214  11.957  1.0403 -0.2317  1.4567
   27TMC2    H2  421   3.307   0.056  11.845 -0.0986 -0.8746 -1.3818
   27TMC2    C7  422   3.452   0.257  11.984 -0.1793 -0.1151 -0.1609
   27TMC2    C8  423   3.376   4.547  11.853 -0.8565 -0.2885 -0.2705
   27TMC2    O1  424   3.442   0.214  12.097 -0.1166 -0.5849 -0.6923
   27TMC2    O2  425   3.261   4.551  11.903  0.1002 -0.3595  0.6183
   27TMC2    O5  426   3.430   4.458  11.768  0.3210 -0.5828 -0.4486
   27TMC2    H5  427   3.515   4.477  11.724 -0.6728  1.1546 -1.6121
   28MPD2     C  428   3.634   4.701  12.561  1.0709  0.2988 -0.4123
   28MPD2    C1  429   3.565   0.080  12.507  0.5841 -0.7442 -0.2857
   28MPD2    C2  430   3.587   0.112  12.369 -0.2423  0.0312  0.7129
   28MPD2    C3  431   3.662   0.030  12.288  0.1158  0.6268  0.2629
   28MPD2    C4  432   3.728   4.647  12.340 -0.1977 -0.1461 -0.4823
   28MPD2    C5  433   3.713   4.621  12.474 -0.4076  0.1185 -0.5361
   28MPD2     H  434   3.529   0.191  12.322 -0.2326  0.7021  1.8349
   28MPD2    H1  435   3.809   4.591  12.295 -0.1642 -0.8030  0.3935
   28MPD2    H2  436   3.625   4.667  12.664  0.4426  1.1584 -0.1881
   28MPD2    H3  437   3.783   4.546  12.508  3.2286  2.4524 -2.8204
   28MPD2     N  438   3.675   0.068  12.158 -0.5332  0.4972  0.6384
   28MPD2    H5  439   3.616   0.146  12.132  1.0681  0.6364 -2.5358
   28MPD2    N1  440   3.475   0.148  12.596 -0.6088  0.1522  0.3889
   28MPD2    H7  441   3.458   0.107  12.687 -1.8802  2.7633  1.3071
   29MPD2     C  442   3.156   2.815  13.837 -0.0478  0.3732 -0.6021
   29MPD2    C1  443   3.287   2.814  13.886  0.1963  0.5581 -0.0911
   29MPD2    C2  444   3.344   2.934  13.916  0.6428  0.3236 -0.2487
   29MPD2    C3  445   3.276   3.057  13.905 -0.3497  0.0406 -0.6683
   29MPD2    C4  446   3.140   3.056  13.864 -0.3043  0.3392 -0.2672
   29MPD2    C5  447   3.087   2.938  13.827 -0.4503  0.7249 -0.6673
   29MPD2     H  448   3.446   2.928  13.952  0.4482  0.2777  0.2919
   29MPD2    H1  449   3.082   3.148  13.868 -0.8299  0.0451 -1.1325
   29MPD2    H2  450   3.107   2.723  13.806  0.1291  0.4942 -1.2510
   29MPD2    H3  451   2.987   2.943  13.785  0.4155  0.1490 -2.7835
   29MPD2     N  452   3.333   3.183  13.934 -0.0045  0.3711  0.0831
   29MPD2    H5  453   3.274   3.265  13.936 -1.0318 -0.3177 -1.1443
   29MPD2    N1  454   3.365   2.694  13.912 -0.0095 -0.0905  0.4131
   29MPD2    H7  455   3.459   2.699  13.950 -0.8565 -0.5482  2.5411
   30TCq2    C1  456   3.468   3.207  13.957 -0.6508 -0.1321 -0.0451
   30TCq2    O2  457   3.561   3.146  13.910 -0.3992  0.0059  0.3437
   30TCq2    C2  458   3.494   3.344  13.998  0.0064 -0.3887  0.3073
   30TCq2    C3  459   3.402   3.403  14.077  0.1621  0.0944 -0.3080
   30TCq2    C4  460   3.447   3.501  14.153  0.5308  0.3427 -0.2450
   30TCq2    C5  461   3.570   3.559  14.144  0.4191 -0.1951  0.4655
   30TCq2    C6  462   3.662   3.505  14.055  0.8064 -0.4389  0.5026
   30TCq2    C7  463   3.624   3.392  13.976 -0.6763  0.7433  0.1926
   30TCq2    C8  464   3.803   3.537  14.070 -0.0632  0.1713 -0.2163
   30TCq2    O4  465   3.824   3.645  14.123  0.1013 -0.2603  0.0682
   30TCq2    C9  466   3.352   3.579  14.222  0.7036  0.1772 -0.2867
   30TCq2    O5  467   3.250   3.605  14.152  0.5001  0.8119  0.0316
   30TCq2    O6  468   3.380   3.645  14.328 -0.1299  0.1115  0.0707
   30TCq2    H2  469   3.301   3.366  14.086  0.2730 -0.6300 -1.9193
   30TCq2    H3  470   3.581   3.655  14.193  0.5854 -0.2366  0.5084
   30TCq2    H4  471   3.679   3.355  13.891 -3.1685 -1.9209 -0.2658
   31MPD2     C  472   1.267   1.810  14.747 -0.0331 -0.0227  0.8347
   31MPD2    C1  473   1.146   1.846  14.691 -0.1861  0.6273  0.3486
   31MPD2    C2  474   1.039   1.810  14.769  0.5611 -0.5155 -0.4238
   31MPD2    C3  475   1.052   1.743  14.888 -0.2190 -0.7802  0.0977
   31MPD2    C4  476   1.174   1.704  14.940  0.2287 -0.3659  0.4590
   31MPD2    C5  477   1.277   1.754  14.873 -0.0248  0.3718  0.1860
   31MPD2     H  478   0.949   1.852  14.726  1.4495  2.9597  1.1227
   31MPD2    H1  479   1.188   1.660  15.038 -0.0279  0.8053  1.0237
   31MPD2    H2  480   1.361   1.843  14.705  0.0385  2.3913  2.9220
   31MPD2    H3  481   1.377   1.741  14.911  0.1697 -0.0070 -0.4615
   31MPD2     N  482   0.936   1.710  14.967 -0.7696  0.0138 -0.0230
   31MPD2    H5  483   0.967   1.660  15.050  2.3956 -0.0302 -1.2293
   31MPD2    N1  484   1.141   1.911  14.565 -0.3235 -0.1162  0.0972
   31MPD2    H7  485   1.230   1.925  14.518 -0.0453  0.1169  0.6921
   32TCq2    C1  486   0.805   1.705  14.923  0.0064 -0.0629 -0.3934
   32TCq2    O2  487   0.761   1.735  14.815 -0.3969 -0.1350  0.1769
   32TCq2    C2  488   0.718   1.652  15.027  0.1837  0.0588 -0.1031
   32TCq2    C3  489   0.594   1.697  15.017 -0.0860  0.5394  0.1111
   32TCq2    C4  490   0.505   1.639  15.101 -0.3579  0.3459 -0.1168
   32TCq2    C5  491   0.532   1.548  15.202 -0.2343 -0.7363 -0.2682
   32TCq2    C6  492   0.669   1.520  15.217  0.2083 -0.5590  0.2589
   32TCq2    C7  493   0.760   1.567  15.130  0.2397 -0.2223 -0.3696
   32TCq2    C8  494   0.712   1.432  15.318  0.7678 -0.4615 -0.2215
   32TCq2    O4  495   0.824   1.383  15.308  0.5533  0.1727 -0.4734
   32TCq2    C9  496   0.364   1.678  15.071  0.2328 -0.3683  0.1895
   32TCq2    O5  497   0.350   1.758  14.974  0.1077  0.5937 -0.3938
   32TCq2    O6  498   0.267   1.637  15.146  0.3013  0.5745  0.2598
   32TCq2    H2  499   0.567   1.774  14.946 -0.0042  1.7437  1.3755
   32TCq2    H3  500   0.447   1.511  15.259 -0.6726  1.6814  0.6459
   32TCq2    H4  501   0.864   1.538  15.120 -0.0455 -1.4271  0.0911
   33MPD2     C  502   1.629   4.017  10.202  0.3128  0.0802  0.8829
   33MPD2    C1  503   1.493   3.987  10.190 -0.0756  0.4430  0.4137
   33MPD2    C2  504   1.412   4.061  10.104 -0.2200 -0.1864 -0.8975
   33MPD2    C3  505   1.471   4.178  10.039 -0.0328 -0.5782  0.8612
   33MPD2    C4  506   1.601   4.211  10.063  0.3702 -0.2534 -0.6267
   33MPD2    C5  507   1.676   4.131  10.149 -0.2224  0.0382  0.2436
   33MPD2     H  508   1.314   4.023  10.078 -0.0234 -2.1346  1.1878
   33MPD2    H1  509   1.647   4.303  10.030  1.1821 -0.6125 -0.4987
   33MPD2    H2  510   1.695   3.965  10.270  0.7872  1.4178  1.4364
   33MPD2    H3  511   1.782   4.153  10.145 -0.3295  0.6046  0.4922
   33MPD2     N  512   1.397   4.257   9.953 -0.0941  0.7941 -0.6587
   33MPD2    H5  513   1.448   4.331   9.907  2.3576 -0.5688 -0.1045
   33MPD2    N1  514   1.441   3.879  10.264  0.4747  0.5672 -0.6601
   33MPD2    H7  515   1.509   3.829  10.321 -2.2978 -2.6905 -0.1579
   34TCq2    C1  516   1.274   4.230   9.902  0.2471  0.1304  0.2898
   34TCq2    O2  517   1.187   4.147   9.941 -0.2212 -0.1864 -0.1892
   34TCq2    C2  518   1.247   4.303   9.782  0.7910  0.0440  0.3289
   34TCq2    C3  519   1.134   4.270   9.714  0.2944  0.5618 -0.4460
   34TCq2    C4  520   1.088   4.354   9.615  0.4633 -0.9341  0.0817
   34TCq2    C5  521   1.169   4.457   9.577 -0.4038 -0.1648  0.0749
   34TCq2    C6  522   1.293   4.474   9.635 -0.0011  0.2620 -0.0502
   34TCq2    C7  523   1.328   4.408   9.744  1.0249 -0.2421  0.4085
   34TCq2    C8  524   1.365   4.599   9.620 -0.2509  0.0831  0.3305
   34TCq2    O4  525   1.469   4.614   9.685  0.3163 -0.4232  0.0968
   34TCq2    C9  526   0.962   4.334   9.555  0.1693  0.1549  0.0709
   34TCq2    O5  527   0.923   4.398   9.450  0.7592 -0.4256  0.0170
   34TCq2    O6  528   0.892   4.246   9.610  0.3181 -0.0048 -0.5560
   34TCq2    H2  529   1.075   4.184   9.743  1.5553 -0.2622 -0.3649
   34TCq2    H3  530   1.129   4.515   9.495 -1.6255 -1.8507 -0.5169
   34TCq2    H4  531   1.431   4.409   9.777  1.0387  1.8997  0.2756
   35MPD2     C  532   3.188   0.935  11.874  0.0516 -0.2477 -0.1225
   35MPD2    C1  533   3.134   0.811  11.898  0.5363  0.0899  0.3972
   35MPD2    C2  534   3.036   0.755  11.810  0.6259 -0.0437  0.0461
   35MPD2    C3  535   2.982   0.833  11.709  0.0991  0.5844  1.1369
   35MPD2    C4  536   3.046   0.956  11.683  0.4670 -0.0539  1.0717
   35MPD2    C5  537   3.150   1.003  11.764  0.0683 -0.6425 -0.4354
   35MPD2     H  538   2.999   0.655  11.827  1.0717 -0.1768  0.2332
   35MPD2    H1  539   3.020   1.030  11.609  0.0869  0.1157  1.3704
   35MPD2    H2  540   3.268   0.969  11.938 -0.5238  1.0377 -0.0852
   35MPD2    H3  541   3.193   1.099  11.737 -0.6937 -0.3509 -0.6307
   35MPD2     N  542   2.862   0.794  11.639 -0.0117 -0.0012 -0.3139
   35MPD2    H5  543   2.837   0.696  11.646  0.8893 -0.0044  3.0842
   35MPD2    N1  544   3.185   0.745  12.013  0.2794  0.1784 -0.2970
   35MPD2    H7  545   3.254   0.779  12.080  0.8158  0.0880 -0.8012
   36TCq2    C1  546   2.793   0.872  11.550  0.4422 -0.7792  1.1836
   36TCq2    O2  547   2.820   0.980  11.498 -0.1813 -0.2003  0.4618
   36TCq2    C2  548   2.669   0.805  11.506 -0.5548  1.0651  0.3530
   36TCq2    C3  549   2.620   0.846  11.383 -0.0247  0.4200 -0.3566
   36TCq2    C4  550   2.532   0.767  11.316  0.7355  0.7498 -0.2601
   36TCq2    C5  551   2.488   0.652  11.370 -0.1153  0.1563  0.4069
   36TCq2    C6  552   2.526   0.621  11.500 -0.1116  0.6103  0.5472
   36TCq2    C7  553   2.617   0.698  11.570  0.0732  0.3812 -0.0494
   36TCq2    C8  554   2.487   0.497  11.558  0.5968 -0.4881 -0.8710
   36TCq2    O4  555   2.461   0.401  11.485  0.0154  0.5647 -0.0790
   36TCq2    C9  556   2.504   0.800  11.180  0.0931  0.5976 -0.4542
   36TCq2    O5  557   2.582   0.887  11.137  0.3477  0.3579 -0.1461
   36TCq2    O6  558   2.416   0.729  11.127 -0.3368 -0.0943 -0.0293
   36TCq2    H2  559   2.663   0.936  11.340  2.1837 -0.5584 -0.2092
   36TCq2    H3  560   2.434   0.578  11.312  1.9417 -0.3588 -0.8596
   36TCq2    H4  561   2.649   0.678  11.672 -2.0313 -2.0872  0.1438
   37TMC2    C1  562   0.255   1.048  11.555 -0.5124  0.4740 -0.3532
   37TMC2    C2  563   0.234   1.144  11.451  0.1982 -0.9719  0.1880
   37TMC2    C3  564   0.345   1.185  11.386 -0.3296  0.4167 -0.1643
   37TMC2    C4  565   0.382   0.999  11.592 -0.4873  0.0203 -0.1746
   37TMC2    C5  566   0.490   1.054  11.519 -0.2758 -0.5484  0.0295
   37TMC2    C6  567   0.475   1.144  11.417 -1.1811 -0.5165 -0.0684
   37TMC2     C  568   0.146   1.014  11.645 -0.3358 -0.1414 -0.3360
   37TMC2     O  569   0.032   1.046  11.618 -0.0556  0.3374  0.4779
   37TMC2     H  570   0.138   1.193  11.438 -0.7633 -2.7737  0.4940
   37TMC2    H1  571   0.400   0.911  11.654 -2.4011 -0.4340 -0.2511
   37TMC2    H2  572   0.553   1.196  11.361 -1.9752  1.2932  0.5119
   37TMC2    C7  573   0.618   1.027  11.579  1.3033  0.7754 -0.5555
   37TMC2    C8  574   0.343   1.286  11.288 -0.4378 -0.3006 -0.2015
   37TMC2    O1  575   0.609   0.969  11.686  0.1960 -0.3663  0.3027
   37TMC2    O2  576   0.437   1.357  11.261 -0.3338 -0.7041 -0.5678
   37TMC2    O5  577   0.226   1.298  11.234 -0.1888 -0.0007  0.0695
   37TMC2    H5  578   0.170   1.218  11.233  2.3310 -1.7329 -0.2835
   38MPD2     C  579   4.723   0.811  12.097 -0.1563  0.6047 -0.3713
   38MPD2    C1  580   0.135   0.837  12.096 -0.5312  0.5817  0.4074
   38MPD2    C2  581   0.200   0.893  11.983  0.1585 -0.6091  0.4845
   38MPD2    C3  582   0.129   0.923  11.874 -0.2820  0.4843 -0.5077
   38MPD2    C4  583   4.714   0.917  11.882  0.1931 -0.5394 -1.1410
   38MPD2    C5  584   4.645   0.854  11.990  0.6307  0.5900 -0.0494
   38MPD2     H  585   0.308   0.892  11.985  0.2148  0.6220 -2.9046
   38MPD2    H1  586   4.661   0.950  11.793 -0.7065  1.2337  0.0583
   38MPD2    H2  587   4.670   0.754  12.172 -1.5873  0.3468 -1.5804
   38MPD2    H3  588   4.539   0.835  11.979  0.8633  0.1469 -1.5027
   38MPD2     N  589   0.195   0.967  11.762  0.2117  0.5651  0.3645
   38MPD2    H5  590   0.295   0.958  11.773  0.3026  0.2307 -0.7158
   38MPD2    N1  591   0.220   0.794  12.201  0.2707 -0.4321  0.2383
   38MPD2    H7  592   0.320   0.807  12.186  0.1585 -1.0299 -0.9820
   39MPD2     C  593   3.553   2.298   1.475  0.2259 -0.7075 -0.3942
   39MPD2    C1  594   3.500   2.375   1.575  0.7409  0.5164  0.1249
   39MPD2    C2  595   3.364   2.380   1.599 -0.3455 -0.1782 -0.0791
   39MPD2    C3  596   3.285   2.294   1.526 -0.2930 -0.4695 -0.1609
   39MPD2    C4  597   3.346   2.203   1.441 -0.0571 -0.6949 -0.0374
   39MPD2    C5  598   3.473   2.220   1.398 -0.2015 -0.1615 -0.3221
   39MPD2     H  599   3.316   2.447   1.670 -0.5744  0.3563 -0.7409
   39MPD2    H1  600   3.287   2.137   1.378 -0.9303 -0.9893  1.0743
   39MPD2    H2  601   3.661   2.301   1.464  0.2913  1.3533  0.7886
   39MPD2    H3  602   3.511   2.162   1.315  0.2111 -1.0975  0.5165
   39MPD2     N  603   3.141   2.291   1.532  0.3415 -0.3691 -0.1223
   39MPD2    H5  604   3.101   2.216   1.477  1.1881 -2.2666  1.8308
   39MPD2    N1  605   3.586   2.454   1.656  0.0862 -0.2397  0.6416
   39MPD2    H7  606   3.685   2.433   1.646  0.1471  0.3780 -0.0393
   40TCq2    C1  607   3.549   2.541   1.762 -0.7209  0.1119  0.0025
   40TCq2    O2  608   3.443   2.557   1.820 -0.1290 -0.3068 -0.0344
   40TCq2    C2  609   3.676   2.591   1.823  0.5222  0.2178 -0.0278
   40TCq2    C3  610   3.676   2.625   1.956  0.7539 -0.4515  0.5481
   40TCq2    C4  611   3.783   2.694   2.005 -0.6356 -0.0490  0.5410
   40TCq2    C5  612   3.891   2.710   1.927  0.8709 -0.1254  0.3492
   40TCq2    C6  613   3.893   2.662   1.796  0.2279  0.3549  0.3046
   40TCq2    C7  614   3.777   2.618   1.744 -0.3279 -0.0043  0.0917
   40TCq2    C8  615   4.009   2.689   1.710 -0.0398  0.0902 -0.6857
   40TCq2    O4  616   4.012   2.636   1.600  0.7491 -0.2304  0.3594
   40TCq2    C9  617   3.782   2.757   2.138 -0.1702 -0.1681 -1.1166
   40TCq2    O5  618   3.888   2.816   2.175 -0.3004  0.2823 -0.2591
   40TCq2    O6  619   3.668   2.766   2.192 -0.2938 -0.1669  0.0100
   40TCq2    H2  620   3.587   2.598   2.012 -0.0672 -0.6298 -0.8226
   40TCq2    H3  621   3.982   2.746   1.975  0.9971  1.1937 -0.8809
   40TCq2    H4  622   3.766   2.617   1.636  1.2604 -3.5320 -0.0401
   41TMC2    C1  623   1.997   0.545  13.944  0.0335 -0.2573  0.0090
   41TMC2    C2  624   2.081   0.459  13.996 -0.5995  0.0297  0.0104
   41TMC2    C3  625   2.162   0.380  13.925 -0.0566  0.3792  0.4507
   41TMC2    C4  626   2.002   0.564  13.808  0.2360 -0.7266  0.0368
   41TMC2    C5  627   2.081   0.485  13.730 -0.1051  0.0452  0.2895
   41TMC2    C6  628   2.164   0.390  13.785 -0.3386  0.6954  0.6026
   41TMC2     C  629   1.901   0.604  14.034  0.3536  0.6430 -0.2788
   41TMC2     O  630   1.873   0.545  14.139  0.0459 -0.2371  0.0240
   41TMC2     H  631   2.086   0.449  14.104  0.1409  1.3176  0.0954
   41TMC2    H1  632   1.919   0.622  13.770 -0.1323  0.8279  3.2177
   41TMC2    H2  633   2.230   0.342  13.713  0.5148  0.6383  1.4337
   41TMC2    C7  634   2.043   0.455  13.594 -0.5697 -0.5262  0.0900
   41TMC2    C8  635   2.263   0.309  13.999  0.2856 -0.2371 -0.2403
   41TMC2    O1  636   2.063   0.347  13.548 -0.1996  0.1000  0.2014
   41TMC2    O2  637   2.277   0.318  14.119 -0.2189 -0.0227  0.0283
   41TMC2    O5  638   2.305   0.208  13.919  0.2966  0.5991 -0.2355
   41TMC2    H5  639   2.263   0.186  13.834 -3.2044 -1.7925  2.1137
   42MPD2     C  640   1.692   0.771  14.172 -0.6574 -0.1073 -0.7039
   42MPD2    C1  641   1.788   0.817  14.086 -0.0856 -0.0860 -0.3013
   42MPD2    C2  642   1.805   0.955  14.072 -0.1276 -0.3844 -0.3071
   42MPD2    C3  643   1.719   1.040  14.141 -0.0684  1.4110  0.8806
   42MPD2    C4  644   1.633   0.987  14.231 -0.5047  0.4489 -0.3027
   42MPD2    C5  645   1.613   0.856  14.244  0.2655  0.6823  0.1105
   42MPD2     H  646   1.880   0.989  14.001 -1.7900  2.0088 -0.9222
   42MPD2    H1  647   1.557   1.045  14.284 -0.3055 -0.0829  0.5635
   42MPD2    H2  648   1.680   0.664  14.184 -0.8560 -0.3990 -3.5673
   42MPD2    H3  649   1.538   0.811  14.308  0.0608 -0.3534 -0.8587
   42MPD2     N  650   1.731   1.177  14.126 -0.3074 -0.1104 -0.3055
   42MPD2    H5  651   1.682   1.236  14.193 -1.3651  0.7227 -1.8228
   42MPD2    N1  652   1.869   0.733  14.000 -0.2365  0.1172  0.3390
   42MPD2    H7  653   1.921   0.783  13.928 -2.3509 -0.4326 -1.6118
   43MPD2     C  654   3.387   3.722   0.763  0.4124 -0.0450  0.1726
   43MPD2    C1  655   3.481   3.663   0.843  0.2255 -0.5525  0.0195
   43MPD2    C2  656   3.452   3.617   0.963  0.2113  0.4029 -0.3120
   43MPD2    C3  657   3.325   3.626   1.026  0.8104  0.0545 -0.5261
   43MPD2    C4  658   3.232   3.691   0.945 -0.5185  0.4870 -0.7568
   43MPD2    C5  659   3.261   3.739   0.817  0.2970  1.0756  0.0151
   43MPD2     H  660   3.538   3.571   1.012 -0.1176  0.4379  0.3046
   43MPD2    H1  661   3.129   3.710   0.972 -0.2468  0.7952  0.0725
   43MPD2    H2  662   3.414   3.762   0.665 -0.3793 -0.0605 -0.0555
   43MPD2    H3  663   3.180   3.777   0.756  1.6663 -0.0155 -2.4443
   43MPD2     N  664   3.294   3.572   1.154  0.3496 -0.3698 -0.7837
   43MPD2    H5  665   3.198   3.591   1.183  0.1181 -0.7338 -1.3178
   43MPD2    N1  666   3.624   3.660   0.804 -0.4156 -0.3298 -0.5935
   43MPD2    H7  667   3.686   3.640   0.881  0.7094  1.2863 -1.0692
   44TCq2    C1  668   3.499   3.384   1.687  0.0651  0.4442  0.0569
   44TCq2    O2  669   3.610   3.349   1.643  0.2215  0.2175 -0.3665
   44TCq2    C2  670   3.396   3.431   1.599  0.3823 -0.9145  0.8894
   44TCq2    C3  671   3.255   3.431   1.631  0.3008  0.2632  0.6940
   44TCq2    C4  672   3.163   3.480   1.540 -1.0708 -0.0142 -0.2448
   44TCq2    C5  673   3.202   3.511   1.411  0.3358  0.0598  0.5760
   44TCq2    C6  674   3.334   3.492   1.378 -0.2260  0.2538  0.1811
   44TCq2    C7  675   3.431   3.464   1.471 -1.0741  0.4151 -0.0490
   44TCq2    C8  676   3.383   3.510   1.241 -0.6770 -0.3354  0.7015
   44TCq2    O4  677   3.490   3.458   1.210  0.2528  0.1705 -0.3302
   44TCq2    C9  678   3.027   3.489   1.580  0.0426 -0.2628 -0.1292
   44TCq2    O5  679   2.981   3.415   1.666 -0.4047 -0.1861  0.2948
   44TCq2    O6  680   2.958   3.582   1.536 -0.2491  0.0219 -0.8907
   44TCq2    H2  681   3.216   3.411   1.731 -1.7949  2.6975  0.3610
   44TCq2    H3  682   3.123   3.531   1.340  0.6896 -1.3772 -0.2312
   44TCq2    H4  683   3.536   3.457   1.446 -0.9769  2.6023 -0.2831
   45TMC2    C1  684   3.644   1.353   9.247 -0.4254 -0.8433  0.6021
   45TMC2    C2  685   3.567   1.373   9.134  0.0622  0.1376 -0.3960
   45TMC2    C3  686   3.491   1.485   9.145  0.6517  0.7924 -0.2849
   45TMC2    C4  687   3.662   1.444   9.349 -0.9646 -0.1196 -0.8328
   45TMC2    C5  688   3.580   1.551   9.353  0.5992 -0.1907  0.0982
   45TMC2    C6  689   3.496   1.574   9.250 -0.4408  0.5433  0.4406
   45TMC2     C  690   3.732   1.236   9.242  0.4930 -0.3401 -0.7167
   45TMC2     O  691   3.839   1.235   9.308 -0.5368  0.1004 -0.1592
   45TMC2     H  692   3.576   1.326   9.037  1.6290  2.7866 -1.5567
   45TMC2    H1  693   3.723   1.414   9.434 -1.6270  1.3000  0.1415
   45TMC2    H2  694   3.421   1.651   9.263 -1.8769 -0.9413  0.9664
   45TMC2    C7  695   3.582   1.640   9.463  0.1696  0.1218  0.0820
   45TMC2    C8  696   3.373   1.490   9.063 -0.0843  0.6153  0.7387
   45TMC2    O1  697   3.493   1.724   9.453  0.1197 -0.5981  0.2475
   45TMC2    O2  698   3.305   1.589   9.050 -0.2112  0.3383 -0.1400
   45TMC2    O5  699   3.325   1.362   9.069  0.0763  0.2252  0.0108
   45TMC2    H5  700   3.397   1.295   9.077  0.5889  0.4861 -2.4284
   46MPD2     C  701   3.864   1.013   9.106 -0.2339  0.1923  0.3110
   46MPD2    C1  702   3.729   1.018   9.119  0.1482  0.7567  0.0627
   46MPD2    C2  703   3.659   0.912   9.068  0.2787  0.0095  0.4516
   46MPD2    C3  704   3.723   0.792   9.042 -0.2390 -0.2936  0.2274
   46MPD2    C4  705   3.863   0.784   9.037  0.7158  0.3825  0.0031
   46MPD2    C5  706   3.928   0.898   9.074  0.0743 -0.1129  0.1678
   46MPD2     H  707   3.552   0.925   9.065  0.5396  2.1100 -0.2690
   46MPD2    H1  708   3.925   0.699   9.010  1.5139  1.3534 -1.1869
   46MPD2    H2  709   3.931   1.092   9.137 -0.4737  0.4914  0.0634
   46MPD2    H3  710   4.036   0.896   9.074  0.0674 -0.7778  1.9527
   46MPD2     N  711   3.638   0.684   9.011 -0.4722  0.6940  0.7051
   46MPD2    H5  712   3.539   0.702   9.018 -0.8799 -2.0626  1.7626
   46MPD2    N1  713   3.667   1.132   9.174  0.1697  0.1576  0.6293
   46MPD2    H7  714   3.572   1.154   9.147 -0.1040 -2.0898 -0.1539
   47TMC2    C1  715   2.040   2.000   9.287 -1.0074 -0.6290  0.9386
   47TMC2    C2  716   1.944   1.907   9.329 -0.3773  0.0355  0.2479
   47TMC2    C3  717   1.821   1.919   9.271 -0.5459  1.1968  0.0157
   47TMC2    C4  718   2.022   2.086   9.177  0.2282 -0.5647  0.6098
   47TMC2    C5  719   1.891   2.095   9.127 -0.2678  0.5995  0.6313
   47TMC2    C6  720   1.792   2.017   9.173 -0.2171  0.3933  0.2624
   47TMC2     C  721   2.162   2.011   9.366 -0.2703  0.5314 -0.0925
   47TMC2     O  722   2.220   2.118   9.352 -0.4270  0.7999 -0.0195
   47TMC2     H  723   1.949   1.866   9.429  0.7240 -0.8620 -0.1769
   47TMC2    H1  724   2.095   2.159   9.145 -0.8756  1.0343  1.7104
   47TMC2    H2  725   1.692   2.021   9.131 -0.1342 -1.3667 -0.1293
   47TMC2    C7  726   1.860   2.213   9.056 -0.7265 -0.0786  0.0350
   47TMC2    C8  727   1.702   1.859   9.333  0.3742 -0.0970  0.8615
   47TMC2    O1  728   1.956   2.266   9.006 -0.4007 -0.3922 -0.1608
   47TMC2    O2  729   1.587   1.902   9.328 -0.3784  0.0835  0.1590
   47TMC2    O5  730   1.738   1.738   9.380  0.1304 -0.3860  0.7999
   47TMC2    H5  731   1.833   1.723   9.357  0.1916  0.1964  0.6711
   48MPD2     C  732   2.387   1.999   9.573  0.7277 -1.0416  0.1749
   48MPD2    C1  733   2.313   1.892   9.524  0.5261  0.2192 -0.2487
   48MPD2    C2  734   2.360   1.764   9.554  0.5668  0.1276 -0.0644
   48MPD2    C3  735   2.475   1.738   9.618  0.0996  0.4668 -0.6094
   48MPD2    C4  736   2.548   1.845   9.664 -0.1652  0.2218  0.5520
   48MPD2    C5  737   2.498   1.971   9.643 -0.1829 -0.4092 -0.6693
   48MPD2     H  738   2.305   1.680   9.512  1.2524  0.4433 -1.5932
   48MPD2    H1  739   2.646   1.834   9.710 -0.0471 -0.7700  0.0721
   48MPD2    H2  740   2.349   2.096   9.544  0.3649 -0.7678  1.5740
   48MPD2    H3  741   2.548   2.058   9.683 -0.5549  0.5063 -2.1839
   48MPD2     N  742   2.521   1.601   9.634  0.1135 -0.6636  0.1840
   48MPD2    H5  743   2.474   1.529   9.580 -0.3207  0.7751 -1.3619
   48MPD2    N1  744   2.196   1.899   9.442  0.2148 -0.4178 -0.3610
   48MPD2    H7  745   2.146   1.812   9.425 -1.4191  0.3282  0.5935
   49MPD2     C  746   0.197   3.553   9.968 -0.9626  0.4863 -0.8763
   49MPD2    C1  747   0.161   3.448  10.048 -0.2585 -0.5761  0.1219
   49MPD2    C2  748   0.210   3.453  10.177 -0.7295  0.2183  0.1111
   49MPD2    C3  749   0.303   3.543  10.223  0.8578 -1.2737 -0.5023
   49MPD2    C4  750   0.347   3.637  10.143 -0.7346  0.1822 -0.1295
   49MPD2    C5  751   0.296   3.637  10.010 -0.7245 -0.6245  0.1107
   49MPD2     H  752   0.199   3.360  10.232 -0.4124 -0.1742 -0.5020
   49MPD2    H1  753   0.421   3.713  10.166 -0.5903  0.1995 -0.6645
   49MPD2    H2  754   0.167   3.558   9.864  0.3979  2.4662 -1.1785
   49MPD2    H3  755   0.340   3.707   9.940 -1.3179 -1.7220 -1.3598
   49MPD2     N  756   0.341   3.553  10.359  0.1574 -0.1603 -0.1724
   49MPD2    H5  757   0.406   3.629  10.374  0.1230 -0.0144 -0.7531
   49MPD2    N1  758   0.089   3.334  10.003 -0.4463  0.1798  0.1850
   49MPD2    H7  759   0.090   3.258  10.070  0.6607  0.1992  0.1944
   50TCq2    C1  760   0.019   3.331   9.884  0.0324  0.7262  0.8015
   50TCq2    O2  761   0.008   3.409   9.793 -0.4251 -0.2373 -0.4047
   50TCq2    C2  762   4.680   3.203   9.870  0.2370 -0.0054 -0.6564
   50TCq2    C3  763   4.657   3.159   9.747 -0.4147 -0.5161 -0.7436
   50TCq2    C4  764   4.626   3.026   9.724  0.5610 -0.3079  0.0471
   50TCq2    C5  765   4.599   2.946   9.835  0.1842 -0.1991 -0.2776
   50TCq2    C6  766   4.613   2.997   9.965 -0.4173 -0.0254 -0.2677
   50TCq2    C7  767   4.660   3.125   9.982 -0.0009 -0.0567 -0.1455
   50TCq2    C8  768   4.581   2.924  10.084  0.2766 -0.2922  0.2085
   50TCq2    O4  769   4.611   2.971  10.194 -0.5058 -0.1605 -0.4448
   50TCq2    C9  770   4.625   2.967   9.594 -0.1261  0.2847  0.6045
   50TCq2    O5  771   4.625   3.042   9.497 -0.3293  0.8852 -0.3058
   50TCq2    O6  772   4.601   2.843   9.593 -0.4714  0.0743 -0.2186
   50TCq2    H2  773   4.693   3.213   9.660  0.1073 -0.5974 -0.5757
   50TCq2    H3  774   4.570   2.845   9.810  1.3369 -0.5079 -0.3719
   50TCq2    H4  775   4.683   3.153  10.084 -0.5001 -0.7734  0.1649
   51MPD2     C  776   0.224   2.478   0.694 -0.0719  0.6202 -0.1830
   51MPD2    C1  777   0.304   2.377   0.743  0.2604 -0.1118 -1.2658
   51MPD2    C2  778   0.408   2.398   0.828 -0.2141  0.6828 -0.0956
   51MPD2    C3  779   0.448   2.525   0.866 -0.2966 -0.1709 -0.1815
   51MPD2    C4  780   0.374   2.631   0.817 -0.4310  0.3196  0.3672
   51MPD2    C5  781   0.261   2.603   0.740 -0.0465  0.2643 -0.1553
   51MPD2     H  782   0.460   2.309   0.862  1.0995  1.9382  1.1767
   51MPD2    H1  783   0.410   2.732   0.827  2.2568 -0.6507  0.5463
   51MPD2    H2  784   0.131   2.465   0.640 -0.6714 -0.6037  1.1493
   51MPD2    H3  785   0.202   2.679   0.689  0.1721  0.6724  0.1950
   51MPD2     N  786   0.552   2.550   0.961 -0.2607 -0.4322 -0.7885
   51MPD2    H5  787   0.569   2.649   0.979  3.1755 -0.9588 -1.2916
   51MPD2    N1  788   0.295   2.246   0.693 -0.2234  0.1154  0.2021
   51MPD2    H7  789   0.362   2.185   0.740  2.0534  1.6330 -1.0851
   52TCq2    C1  790   0.617   2.455   1.040 -0.5485  0.0844  0.6079
   52TCq2    O2  791   0.618   2.333   1.041 -0.4329 -0.2109 -0.0370
   52TCq2    C2  792   0.710   2.508   1.139  0.9466 -0.2815  0.5434
   52TCq2    C3  793   0.809   2.418   1.183  0.3009  0.1725 -0.1276
   52TCq2    C4  794   0.894   2.459   1.280  0.6329 -0.5746 -0.6215
   52TCq2    C5  795   0.884   2.587   1.325 -0.0382  0.3345  0.6076
   52TCq2    C6  796   0.777   2.669   1.297  0.7452 -0.1098 -0.4059
   52TCq2    C7  797   0.693   2.633   1.192  0.3598  0.4776  0.5133
   52TCq2    C8  798   0.797   2.812   1.330  1.0196 -0.2591  0.5091
   52TCq2    O4  799   0.862   2.833   1.432 -0.4773  0.1104  0.6185
   52TCq2    C9  800   0.997   2.377   1.332  0.1711  0.1097 -0.1619
   52TCq2    O5  801   0.960   2.259   1.348  0.4071 -0.3353  0.0477
   52TCq2    O6  802   1.098   2.429   1.385  0.6082  0.0828  0.3443
   52TCq2    H2  803   0.821   2.321   1.136  2.6403  1.0450 -1.3549
   52TCq2    H3  804   0.960   2.617   1.396  0.2753  0.4267  0.2318
   52TCq2    H4  805   0.597   2.683   1.188 -0.0762 -0.4578 -0.5526
   53TMC2    C1  806   1.135   0.909  12.040  0.1880  0.0601 -0.0155
   53TMC2    C2  807   1.246   0.850  12.099 -0.4925  0.1683  0.2780
   53TMC2    C3  808   1.226   0.800  12.228 -0.0658 -0.2224  0.2907
   53TMC2    C4  809   1.017   0.931  12.104  0.0705 -0.4637 -0.5768
   53TMC2    C5  810   1.005   0.874  12.232  0.8137 -0.0765  0.0097
   53TMC2    C6  811   1.112   0.807  12.289  0.3593 -0.1989 -0.6709
   53TMC2     C  812   1.157   0.950  11.902 -0.1919 -0.3627  0.1471
   53TMC2     O  813   1.270   0.935  11.855  0.4901 -0.1699 -0.3885
   53TMC2     H  814   1.344   0.860  12.053 -1.6210  1.2763 -1.8676
   53TMC2    H1  815   0.929   0.981  12.065  0.8689  1.5437  0.1388
   53TMC2    H2  816   1.095   0.765  12.387  0.9432 -0.3095 -0.6188
   53TMC2    C7  817   0.886   0.909  12.305  0.4019 -0.7573  0.3401
   53TMC2    C8  818   1.343   0.781  12.309  0.2621  0.2518 -0.3042
   53TMC2    O1  819   0.812   0.991  12.249  1.1706 -0.0041  0.7982
   53TMC2    O2  820   1.357   0.787  12.431  0.4688  0.6677  0.5926
   53TMC2    O5  821   1.441   0.735  12.235 -0.0343 -0.6583  0.0413
   53TMC2    H5  822   1.423   0.711  12.141 -0.5104  2.2872 -0.6244
   54MPD2     C  823   1.125   0.999  11.610  0.4528 -0.6008 -0.9473
   54MPD2    C1  824   1.022   1.009  11.708  0.4682  0.6719 -0.1158
   54MPD2    C2  825   0.891   1.039  11.675 -0.0376 -0.9969  0.7408
   54MPD2    C3  826   0.858   1.046  11.544 -0.0091  0.1993 -0.1609
   54MPD2    C4  827   0.955   1.027  11.448 -0.2055  0.6154 -0.3532
   54MPD2    C5  828   1.081   0.985  11.485  0.2784  0.5039 -0.8804
   54MPD2     H  829   0.815   1.032  11.752 -0.4230 -4.1802  0.0758
   54MPD2    H1  830   0.926   1.040  11.344  2.8068  0.0673 -1.2504
   54MPD2    H2  831   1.227   0.977  11.637  0.0092 -2.0169 -0.4429
   54MPD2    H3  832   1.157   0.969  11.410 -0.1650  0.6290 -1.3528
   54MPD2     N  833   0.725   1.050  11.496  0.2044 -0.5201 -0.1474
   54MPD2    H5  834   0.704   1.075  11.400 -1.8925  1.6199  0.8843
   54MPD2    N1  835   1.039   0.989  11.845  0.6927  0.1064 -0.2222
   54MPD2    H7  836   0.954   0.984  11.900  2.2403  1.3822  2.2502
   55MPD2     C  837   1.180   3.448   0.027 -0.2168  0.2467 -0.2198
   55MPD2    C1  838   1.168   3.354   0.122  1.0513  0.2445 -0.4484
   55MPD2    C2  839   1.093   3.366   0.238 -0.4087 -0.3058 -0.4018
   55MPD2    C3  840   1.028   3.490   0.255  0.0600  0.6684 -0.1381
   55MPD2    C4  841   1.048   3.588   0.159  0.3356  0.6441  0.5525
   55MPD2    C5  842   1.128   3.566   0.051 -0.1958 -0.5378 -0.1015
   55MPD2     H  843   1.092   3.283   0.307 -1.8776  0.8418  0.9543
   55MPD2    H1  844   1.005   3.687   0.169 -0.1430  0.5149 -0.2054
   55MPD2    H2  845   1.238   3.427  17.633  1.1995 -0.2188  0.8305
   55MPD2    H3  846   1.135   3.647  17.673  1.6362  2.1228  3.0368
   55MPD2     N  847   0.936   3.492   0.359 -0.1863 -0.3485 -0.5532
   55MPD2    H5  848   0.944   3.407   0.416  0.9418  0.3560  0.3588
   55MPD2    N1  849   1.245   3.233   0.094  0.1550 -0.2512  0.1019
   55MPD2    H7  850   1.316   3.233   0.022  1.0493 -0.8982  1.0023
   56TCq2    C1  851   1.247   3.122   0.169  0.0375  0.0043 -0.8483
   56TCq2    O2  852   1.179   3.072   0.256 -0.0023 -0.3002  0.0826
   56TCq2    C2  853   1.361   3.033   0.129  0.4174 -0.0864  0.1353
   56TCq2    C3  854   1.451   3.087   0.036 -0.1427  0.0707 -0.7815
   56TCq2    C4  855   1.527   2.997  17.656 -0.3485 -0.0613  0.1987
   56TCq2    C5  856   1.513   2.861  17.664  0.6506  0.9038  0.3215
   56TCq2    C6  857   1.420   2.811   0.060 -0.0259 -0.2742 -0.0670
   56TCq2    C7  858   1.338   2.897   0.143 -0.1314  0.9407  0.1520
   56TCq2    C8  859   1.398   2.668   0.065 -0.3382  0.0620  0.4518
   56TCq2    O4  860   1.411   2.603  17.660 -0.3606  0.0575  0.3509
   56TCq2    C9  861   1.620   3.036  17.554  0.6306 -0.6287 -0.2772
   56TCq2    O5  862   1.655   3.155  17.539  0.0757 -0.1277  0.2156
   56TCq2    O6  863   1.624   2.949  17.461 -0.9269  0.0916 -0.5598
   56TCq2    H2  864   1.472   3.192   0.023 -1.6126  0.3527 -0.8773
   56TCq2    H3  865   1.577   2.792  17.612  0.6286  1.2002 -0.1012
   56TCq2    H4  866   1.266   2.858   0.214 -0.0525  0.0315 -0.2668
   57TMC2    C1  867   0.875   4.467  13.575  0.6524 -0.1108  1.1316
   57TMC2    C2  868   0.974   4.454  13.666 -0.2985 -1.4423  0.1146
   57TMC2    C3  869   1.097   4.490  13.624 -0.5038 -0.1075 -0.2280
   57TMC2    C4  870   0.895   4.527  13.447  0.0702  0.2132  0.2085
   57TMC2    C5  871   1.027   4.549  13.409  0.3916  0.7469 -0.2788
   57TMC2    C6  872   1.127   4.538  13.496 -0.2301 -0.7279 -0.5811
   57TMC2     C  873   0.731   4.454  13.610 -0.1266 -0.5722 -0.2066
   57TMC2     O  874   0.664   4.527  13.542 -0.7513  0.4883 -0.3326
   57TMC2     H  875   0.950   4.425  13.768 -1.7588  1.1558  0.4975
   57TMC2    H1  876   0.815   4.525  13.375  0.0281  0.4829  0.2488
   57TMC2    H2  877   1.229   4.556  13.464  0.5361 -3.3975  0.3135
   57TMC2    C7  878   1.059   4.499  13.270 -1.0019  1.1082 -0.9375
   57TMC2    C8  879   1.196   4.399  13.687 -0.5178  0.3379 -0.2153
   57TMC2    O1  880   1.166   4.443  13.263  0.0962 -0.0175  0.4557
   57TMC2    O2  881   1.271   4.420  13.781 -0.2033  0.1684 -0.7063
   57TMC2    O5  882   1.191   4.276  13.631  0.7664 -0.2936 -0.0811
   57TMC2    H5  883   1.122   4.279  13.561 -0.3175 -2.3993  0.9139
   58MPD2     C  884   0.319   4.206  13.771  0.5909  0.0819  0.9790
   58MPD2    C1  885   0.329   4.334  13.726 -0.0569 -0.3715 -0.0207
   58MPD2    C2  886   0.460   4.387  13.700 -0.5292 -0.0362 -0.0650
   58MPD2    C3  887   0.567   4.306  13.725 -0.0726  0.0810  0.0682
   58MPD2    C4  888   0.549   4.181  13.770 -0.0676 -0.1603 -0.8565
   58MPD2    C5  889   0.428   4.134  13.801 -0.2881 -0.4751  1.1023
   58MPD2     H  890   0.464   4.483  13.648  0.6546 -1.0039 -1.7659
   58MPD2    H1  891   0.625   4.105  13.779 -0.4503 -0.5858 -1.2205
   58MPD2    H2  892   0.224   4.155  13.779  1.1299 -1.0222  0.4022
   58MPD2    H3  893   0.414   4.036  13.845  1.7866 -1.5255 -0.5929
   58MPD2     N  894   0.703   4.344  13.691  0.6770  0.4364 -0.0149
   58MPD2    H5  895   0.783   4.289  13.723  2.3014  2.8598  0.0606
   58MPD2    N1  896   0.215   4.421  13.716 -0.0277 -0.4218  0.0573
   58MPD2    H7  897   0.245   4.517  13.703 -0.4034 -0.2826  0.2308
   59MPD2     C  898   3.019   4.567  13.429 -0.1175  0.3595  0.2987
   59MPD2    C1  899   3.097   4.587  13.316 -0.0747 -0.8575  0.2942
   59MPD2    C2  900   3.199   4.678  13.334  0.4145  0.0202 -0.3974
   59MPD2    C3  901   3.224   0.017  13.456 -0.1493 -0.2077 -0.1897
   59MPD2    C4  902   3.143   4.708  13.565  0.4394 -0.0782 -0.6536
   59MPD2    C5  903   3.037   4.624  13.555 -0.3163 -0.0006 -0.0206
   59MPD2     H  904   3.263   4.705  13.251 -1.5604  0.4446 -1.8052
   59MPD2    H1  905   3.164   0.020  13.665 -0.2324 -4.7713  1.1549
   59MPD2    H2  906   2.928   4.511  13.414  0.8292 -0.6867 -1.4907
   59MPD2    H3  907   2.965   4.610  13.635 -0.3938 -1.0846 -0.2736
   59MPD2     N  908   3.323   0.114  13.478 -0.5113  0.5559 -0.3328
   59MPD2    H5  909   3.328   0.154  13.572  0.5056 -1.8222  0.6405
   59MPD2    N1  910   3.065   4.519  13.197  0.5137 -0.5001  0.9386
   59MPD2    H7  911   2.991   4.449  13.202  0.1818 -0.2178 -0.0471
   60TCq2    C1  912   3.146   4.532  13.086 -0.5299  1.2273  0.4839
   60TCq2    O2  913   3.233   4.615  13.061  0.0078  0.1888 -0.0180
   60TCq2    C2  914   3.114   4.441  12.982 -0.3051  0.5965 -0.5234
   60TCq2    C3  915   3.025   4.338  12.999 -0.3038 -0.2461 -0.3157
   60TCq2    C4  916   2.990   4.265  12.889  0.6062  0.6335  0.4135
   60TCq2    C5  917   3.049   4.288  12.770  0.4969 -1.3035  0.8163
   60TCq2    C6  918   3.139   4.385  12.755  0.0575  0.5370 -0.0807
   60TCq2    C7  919   3.165   4.475  12.858  0.0482  0.4385 -0.0927
   60TCq2    C8  920   3.201   4.399  12.627  0.0115  0.5285 -0.9541
   60TCq2    O4  921   3.220   4.296  12.557  0.3950 -0.5604 -0.4028
   60TCq2    C9  922   2.902   4.150  12.899 -0.8294 -0.4518 -0.0575
   60TCq2    O5  923   2.905   4.065  12.807 -0.7896  0.7275 -0.0274
   60TCq2    O6  924   2.812   4.154  12.987 -0.7750  0.3815  0.7278
   60TCq2    H2  925   2.973   4.319  13.093 -1.1605 -3.2159 -1.3806
   60TCq2    H3  926   3.022   4.222  12.688 -0.7614 -0.1769  0.3308
   60TCq2    H4  927   3.248   4.543  12.846  0.3828 -0.2995 -1.8254
   61MPD2     C  928   2.568   0.880  14.663  0.4444 -0.0601  0.1906
   61MPD2    C1  929   2.517   1.004  14.625  0.0852  0.4785 -0.6846
   61MPD2    C2  930   2.573   1.064  14.513  0.3351  0.5409 -0.0337
   61MPD2    C3  931   2.665   0.995  14.434 -0.2254 -0.1977  0.2382
   61MPD2    C4  932   2.716   0.874  14.471 -0.5730  0.5874  0.4734
   61MPD2    C5  933   2.665   0.820  14.586 -0.8432  0.4996  0.3451
   61MPD2     H  934   2.545   1.165  14.484 -1.1895 -0.1211 -0.9164
   61MPD2    H1  935   2.791   0.817  14.418  2.2251  2.4728  2.4026
   61MPD2    H2  936   2.518   0.823  14.740  0.0017 -1.4410 -1.1141
   61MPD2    H3  937   2.696   0.721  14.618  0.0744  0.0117 -2.0885
   61MPD2     N  938   2.731   1.071  14.328  0.8646 -0.4182  0.1233
   61MPD2    H5  939   2.802   1.017  14.280  0.2094 -2.3212  1.3013
   61MPD2    N1  940   2.411   1.075  14.698  0.3696  0.0259  0.2703
   61MPD2    H7  941   2.368   1.154  14.650 -0.8224 -1.2827 -0.7808
   62TCq2    C1  942   2.362   1.034  14.822  0.0550  0.9388  0.5814
   62TCq2    O2  943   2.401   0.941  14.893 -0.0420  0.0348 -0.0317
   62TCq2    C2  944   2.291   1.139  14.886 -0.0889 -0.4405  1.1560
   62TCq2    C3  945   2.196   1.095  14.976 -0.1676 -0.0475 -0.5441
   62TCq2    C4  946   2.117   1.187  15.035  0.3738 -0.6219  0.2471
   62TCq2    C5  947   2.120   1.317  14.995  0.6383 -0.1979 -0.5822
   62TCq2    C6  948   2.217   1.356  14.902  0.4948 -0.6577  0.3480
   62TCq2    C7  949   2.314   1.269  14.860 -0.2497 -0.6169  0.1577
   62TCq2    C8  950   2.245   1.498  14.878  0.4045 -0.1850 -0.0711
   62TCq2    O4  951   2.360   1.523  14.849 -0.0822 -0.0091  0.4244
   62TCq2    C9  952   2.015   1.157  15.134  0.5264 -0.0521 -0.1220
   62TCq2    O5  953   1.932   1.248  15.158  0.4197  0.0758  0.3474
   62TCq2    O6  954   2.005   1.040  15.183 -0.4020  0.3586 -0.1901
   62TCq2    H2  955   2.169   0.990  14.977  2.2972 -0.6652  0.6474
   62TCq2    H3  956   2.067   1.395  15.048  2.8554  1.1887 -0.4024
   62TCq2    H4  957   2.406   1.296  14.809  0.6411  1.0617  2.6997
   63TMC2    C1  958   1.900   1.217  11.034  0.5189 -0.6528 -0.1589
   63TMC2    C2  959   1.952   1.248  11.156  0.3267  0.4710  0.4041
   63TMC2    C3  960   2.059   1.330  11.151 -0.1482  0.6152 -0.6998
   63TMC2    C4  961   1.937   1.286  10.917  0.0016 -0.2916 -0.1450
   63TMC2    C5  962   2.041   1.377  10.928 -0.4231 -0.6406 -0.5411
   63TMC2    C6  963   2.112   1.388  11.039 -0.5635  0.4112 -0.5008
   63TMC2     C  964   1.791   1.127  11.032 -0.2358 -0.7095  0.1569
   63TMC2     O  965   1.730   1.109  11.135  0.0957  0.1332  0.7887
   63TMC2     H  966   1.924   1.217  11.256  0.6362  1.2474  0.7269
   63TMC2    H1  967   1.882   1.260  10.827 -1.4184  2.6932 -0.1321
   63TMC2    H2  968   2.200   1.450  11.053 -0.3349  0.1164 -0.6324
   63TMC2    C7  969   2.085   1.432  10.802  0.0601  0.7806  0.1816
   63TMC2    C8  970   2.114   1.379  11.278  0.3324 -0.2051 -0.8158
   63TMC2    O1  971   2.037   1.377  10.705 -0.1604 -0.3151  0.7561
   63TMC2    O2  972   2.095   1.312  11.379 -0.1042  0.8413 -0.1662
   63TMC2    O5  973   2.142   1.512  11.273  0.5895  0.1642 -0.0215
   63TMC2    H5  974   2.138   1.557  11.186 -2.8329  1.3523  0.7657
   64MPD2     C  975   1.559   0.710  10.849 -0.4033  0.4204 -0.6979
   64MPD2    C1  976   1.666   0.741  10.762  1.6354  0.3508  0.0343
   64MPD2    C2  977   1.732   0.863  10.786  0.5721  0.1926 -0.0388
   64MPD2    C3  978   1.693   0.948  10.889 -0.3630  0.6380 -0.3975
   64MPD2    C4  979   1.595   0.910  10.978 -0.4984 -0.5547  0.0847
   64MPD2    C5  980   1.529   0.788  10.958 -0.2409  0.7881 -0.5025
   64MPD2     H  981   1.826   0.892  10.739  0.6624  2.1902  1.3318
   64MPD2    H1  982   1.563   0.973  11.060 -0.6551  0.3683 -0.6888
   64MPD2    H2  983   1.515   0.613  10.829 -0.4639  0.2206  0.4140
   64MPD2    H3  984   1.454   0.755  11.029  2.4769 -0.2017  1.8809
   64MPD2     N  985   1.780   1.059  10.910 -0.2145 -0.0091 -0.1811
   64MPD2    H5  986   1.839   1.087  10.832 -1.3633 -0.5846 -1.2633
   64MPD2    N1  987   1.691   0.646  10.669  0.1376  0.2468  0.1300
   64MPD2    H7  988   1.642   0.559  10.687  2.2015 -0.8740  0.4242
   65MPD2     C  989   2.914   0.703  15.899  0.4946 -0.5262 -0.3191
   65MPD2    C1  990   2.925   0.678  15.757  0.1638 -0.4306 -0.5574
   65MPD2    C2  991   2.965   0.547  15.729  0.2405 -0.0566 -0.2175
   65MPD2    C3  992   2.999   0.454  15.828  0.2117  0.3120  0.6761
   65MPD2    C4  993   2.999   0.487  15.962 -0.4571  0.0093  0.4033
   65MPD2    C5  994   2.948   0.612  15.993  0.5206 -0.7401  0.2465
   65MPD2     H  995   2.981   0.519  15.626  4.8906 -2.5665  1.1997
   65MPD2    H1  996   3.029   0.415  16.038 -1.2732 -1.8296 -1.0110
   65MPD2    H2  997   2.879   0.802  15.926 -0.6474 -0.4139 -2.1719
   65MPD2    H3  998   2.938   0.659  16.090 -0.9258 -0.9449  0.1954
   65MPD2     N  999   3.053   0.330  15.796  0.1912  0.4142 -0.2357
   65MPD2    H5 1000   3.064   0.261  15.870 -0.1866  1.2463  0.5902
   65MPD2    N1 1001   2.907   0.766  15.650 -0.8316  0.0896 -0.4724
   65MPD2    H7 1002   2.935   0.741  15.556 -0.6493  0.3361 -0.4838
   66TCq2    C1 1003   2.881   0.900  15.663  0.5316 -0.5524  0.0981
   66TCq2    O2 1004   2.852   0.971  15.764 -0.2071  0.0749  0.2313
   66TCq2    C2 1005   2.906   0.962  15.538 -0.5260  0.1722  0.0091
   66TCq2    C3 1006   2.948   0.894  15.421  0.2111  0.3878 -1.1560
   66TCq2    C4 1007   2.949   0.955  15.295  0.6693  0.5408  1.2311
   66TCq2    C5 1008   2.883   1.075  15.284  0.2177  0.6561  0.8093
   66TCq2    C6 1009   2.836   1.141  15.394 -0.1456 -0.0298 -0.2114
   66TCq2    C7 1010   2.856   1.091  15.521 -0.2927 -0.1062  0.2302
   66TCq2    C8 1011   2.749   1.255  15.384 -0.2179  0.6510 -0.0819
   66TCq2    O4 1012   2.688   1.274  15.280 -0.6178  0.1350 -0.5946
   66TCq2    C9 1013   3.022   0.897  15.185  0.0436 -0.0135  0.5120
   66TCq2    O5 1014   3.062   0.778  15.190  0.1248 -0.5128 -0.2515
   66TCq2    O6 1015   3.006   0.951  15.072  0.0195 -0.3208  0.4490
   66TCq2    H2 1016   2.996   0.797  15.414 -1.9315 -0.8220  1.0218
   66TCq2    H3 1017   2.884   1.120  15.186 -1.3881  2.2061  1.5151
   66TCq2    H4 1018   2.819   1.142  15.610 -0.6086  1.0667 -0.5716
   67MPD2     C 1019   3.010   0.036  14.003  0.0001 -0.7821 -0.4693
   67MPD2    C1 1020   3.023   0.170  14.023  0.4215  0.6918 -0.6292
   67MPD2    C2 1021   2.939   0.257  13.967  0.2645 -0.2358 -0.2067
   67MPD2    C3 1022   2.836   0.212  13.881  0.1045  0.9172  0.0572
   67MPD2    C4 1023   2.829   0.079  13.856  0.0046 -0.7678 -0.3268
   67MPD2    C5 1024   2.916   4.716  13.919 -0.3888  0.2409  0.6723
   67MPD2     H 1025   2.954   0.362  13.991  1.0859 -0.6925  1.2301
   67MPD2    H1 1026   2.751   0.032  13.798  0.0681 -0.9425 -0.2699
   67MPD2    H2 1027   3.078   4.681  14.036  0.0414 -0.5727 -0.0551
   67MPD2    H3 1028   2.898   4.610  13.907 -0.5675  0.0079  2.9142
   67MPD2     N 1029   2.750   0.294  13.806 -0.5125  0.0882 -0.5357
   67MPD2    H5 1030   2.700   0.255  13.726  3.7256 -2.9102 -1.7218
   67MPD2    N1 1031   3.119   0.225  14.114  0.2119  0.0085 -0.3795
   67MPD2    H7 1032   3.095   0.321  14.137 -0.2007 -0.6225  1.7841
   68TCq2    C1 1033   3.225   0.160  14.172  0.1087  0.3731 -0.0996
   68TCq2    O2 1034   3.278   0.056  14.140  0.0806  0.4807  0.5368
   68TCq2    C2 1035   3.285   0.234  14.283 -0.4613  0.1021  0.0183
   68TCq2    C3 1036   3.228   0.347  14.335 -0.1641 -0.0580 -0.4699
   68TCq2    C4 1037   3.278   0.392  14.453 -0.1825 -0.3933  0.7198
   68TCq2    C5 1038   3.374   0.326  14.523 -0.4111  0.8949  0.2080
   68TCq2    C6 1039   3.443   0.227  14.458  0.2474  0.4502  0.4038
   68TCq2    C7 1040   3.393   0.174  14.347 -0.7123 -0.1279  0.4517
   68TCq2    C8 1041   3.504   0.134  14.546 -0.3438  0.2978 -0.3627
   68TCq2    O4 1042   3.561   0.036  14.500 -0.1714 -0.2340  0.2226
   68TCq2    C9 1043   3.220   0.506  14.518 -0.2786  0.3141  0.0414
   68TCq2    O5 1044   3.234   0.515  14.642 -0.2445 -0.3127  0.7335
   68TCq2    O6 1045   3.150   0.586  14.452 -0.4585 -0.0747 -0.9156
   68TCq2    H2 1046   3.145   0.392  14.282 -0.2922  0.6322  0.2970
   68TCq2    H3 1047   3.410   0.379  14.611  1.2030  0.0072  0.0792
   68TCq2    H4 1048   3.425   0.077  14.311  1.2642  0.0072  1.8590
   69TMC2    C1 1049   0.044   1.477  12.300 -0.1348  0.0885 -0.1785
   69TMC2    C2 1050   4.643   1.489  12.252 -0.0397  0.0024 -0.4728
   69TMC2    C3 1051   4.627   1.537  12.127 -0.3124 -0.0074  0.0539
   69TMC2    C4 1052   0.160   1.505  12.231 -0.0039  0.2137  0.2272
   69TMC2    C5 1053   0.135   1.551  12.102 -0.7851 -0.2344 -0.0951
   69TMC2    C6 1054   0.013   1.575  12.046 -0.5948 -0.0258 -0.6405
   69TMC2     C 1055   0.060   1.434  12.434  0.0783  0.3147 -0.1809
   69TMC2     O 1056   4.683   1.397  12.493 -0.4446  0.5951  0.2959
   69TMC2     H 1057   4.559   1.467  12.316  0.5623  1.0759  0.6847
   69TMC2    H1 1058   0.262   1.487  12.263  0.3232  0.4184 -0.6954
   69TMC2    H2 1059   4.723   1.600  11.942 -1.3842  2.1653 -0.0216
   69TMC2    C7 1060   0.265   1.594  12.038  0.6604 -0.1499  0.6137
   69TMC2    C8 1061   4.494   1.536  12.071 -0.8442 -0.1879 -0.9734
   69TMC2    O1 1062   0.368   1.551  12.090  0.0602  0.0855 -0.7389
   69TMC2    O2 1063   4.395   1.554  12.145  0.6121 -0.0329  0.1191
   69TMC2    O5 1064   4.495   1.466  11.953 -0.1907  0.2316  0.0638
   69TMC2    H5 1065   4.583   1.440  11.917  0.3917  2.2247  0.0198
   70MPD2     C 1066   0.384   1.436  12.615 -0.1281 -0.6693 -0.0517
   70MPD2    C1 1067   0.258   1.402  12.591  0.4678  0.9114  0.9567
   70MPD2    C2 1068   0.191   1.312  12.679  0.3569 -0.4290 -0.4080
   70MPD2    C3 1069   0.260   1.254  12.779  0.0125  0.3516  0.1404
   70MPD2    C4 1070   0.390   1.281  12.800  0.7612 -0.5051 -0.7580
   70MPD2    C5 1071   0.449   1.386  12.725 -0.3426 -0.2454 -0.4316
   70MPD2     H 1072   0.085   1.289  12.680  0.0549  1.0524  2.3491
   70MPD2    H1 1073   0.451   1.229  12.873  1.6775  0.5390 -0.7783
   70MPD2    H2 1074   0.439   1.509  12.558 -0.7274  0.5723  0.9442
   70MPD2    H3 1075   0.556   1.402  12.729 -0.5551  1.2993 -0.8258
   70MPD2     N 1076   0.208   1.155  12.870 -0.3764  0.1246 -0.5361
   70MPD2    H5 1077   0.273   1.124  12.942  0.5943  0.6121 -1.1984
   70MPD2    N1 1078   0.190   1.452  12.476 -0.3480 -0.2659 -0.2819
   70MPD2    H7 1079   0.243   1.516  12.418  0.8745 -0.0663  1.0542
   71TMC2    C1 1080   2.734   2.092   1.955  0.1839  0.1961 -0.2362
   71TMC2    C2 1081   2.846   2.164   1.990  0.0116  0.1979 -0.5657
   71TMC2    C3 1082   2.839   2.232   2.107 -0.0189  0.3334 -0.2458
   71TMC2    C4 1083   2.624   2.074   2.047 -0.2267 -0.2603  0.0278
   71TMC2    C5 1084   2.622   2.164   2.150 -0.1686 -0.2196  0.2906
   71TMC2    C6 1085   2.733   2.226   2.196  0.6047  0.5299  0.2161
   71TMC2     C 1086   2.738   2.015   1.826 -0.8149  0.1255  0.1105
   71TMC2     O 1087   2.826   2.051   1.748  0.2237  0.3684 -0.0247
   71TMC2     H 1088   2.934   2.170   1.926 -0.0074 -1.2122 -0.7258
   71TMC2    H1 1089   2.532   2.021   2.024  0.1665 -1.9860  2.5013
   71TMC2    H2 1090   2.720   2.282   2.289 -0.4470 -0.4120  0.6341
   71TMC2    C7 1091   2.490   2.199   2.204  0.1547  0.7132 -0.9087
   71TMC2    C8 1092   2.949   2.323   2.130  0.6866 -0.7327 -0.3867
   71TMC2    O1 1093   2.490   2.215   2.324  0.4896  0.2005 -0.3293
   71TMC2    O2 1094   2.989   2.408   2.048 -0.6997  0.1021  0.0746
   71TMC2    O5 1095   2.957   2.333   2.268  0.2715  0.3211 -0.3689
   71TMC2    H5 1096   2.917   2.253   2.309 -1.7742  1.5695  0.0878
   72MPD2     C 1097   2.516   1.706   1.486  0.2553  0.1033  0.5071
   72MPD2    C1 1098   2.625   1.787   1.479  0.1567 -0.2112  0.0601
   72MPD2    C2 1099   2.667   1.857   1.589 -0.3807  0.0384  0.1083
   72MPD2    C3 1100   2.607   1.840   1.714 -0.5535  0.6490  1.5198
   72MPD2    C4 1101   2.498   1.760   1.721 -0.3643 -0.0298  0.0660
   72MPD2    C5 1102   2.454   1.691   1.608 -0.3124  0.2054  0.1944
   72MPD2     H 1103   2.756   1.917   1.578 -2.0031  2.3507 -0.4015
   72MPD2    H1 1104   2.444   1.746   1.813 -0.1398  0.0199  0.2062
   72MPD2    H2 1105   2.485   1.637   1.409 -0.7459 -0.0643  1.0636
   72MPD2    H3 1106   2.370   1.622   1.609  0.8316 -1.1507  1.6202
   72MPD2     N 1107   2.647   1.918   1.822  0.5906 -0.1290  0.2163
   72MPD2    H5 1108   2.617   1.898   1.917 -1.3786 -1.8111 -0.7754
   72MPD2    N1 1109   2.699   1.809   1.367 -0.1584 -0.9444  0.5540
   72MPD2    H7 1110   2.786   1.861   1.374 -1.8191  2.0145 -0.4133
   73TMC2    C1 1111   2.311   3.669  13.646  0.1998  0.3386 -0.1651
   73TMC2    C2 1112   2.265   3.625  13.774 -0.3525 -0.2608  0.3851
   73TMC2    C3 1113   2.303   3.701  13.877  0.3209  0.5046  0.1972
   73TMC2    C4 1114   2.374   3.790  13.636 -1.0375 -0.1129 -0.4059
   73TMC2    C5 1115   2.418   3.853  13.747  0.6582  0.1806  0.2992
   73TMC2    C6 1116   2.390   3.812  13.873  0.2451  0.0933  0.3537
   73TMC2     C 1117   2.383   3.577  13.560 -0.0516 -0.0579  0.4050
   73TMC2     O 1118   2.465   3.629  13.482  0.4737  0.4433 -0.5913
   73TMC2     H 1119   2.194   3.544  13.783 -0.8221  0.2737  1.4525
   73TMC2    H1 1120   2.382   3.843  13.541 -1.5676  0.5065 -0.1063
   73TMC2    H2 1121   2.428   3.864  13.960  2.6954 -1.0995  0.0178
   73TMC2    C7 1122   2.543   3.921  13.736  0.0435 -0.3474  0.3848
   73TMC2    C8 1123   2.241   3.681  14.002  0.2882 -0.1619  0.1328
   73TMC2    O1 1124   2.579   4.001  13.821  0.0047  0.3450  0.0100
   73TMC2    O2 1125   2.149   3.751  14.043 -0.4593  0.0059 -0.5300
   73TMC2    O5 1126   2.231   3.550  14.004  0.6756  0.0438  0.2036
   73TMC2    H5 1127   2.296   3.495  13.955 -1.9983 -3.6108  0.7445
   74MPD2     C 1128   2.527   3.120  13.390  0.2559  0.6250  0.0863
   74MPD2    C1 1129   2.594   3.237  13.395 -0.1319 -0.0122  0.0981
   74MPD2    C2 1130   2.544   3.345  13.465  0.1151  0.0239  0.1500
   74MPD2    C3 1131   2.422   3.337  13.528  0.5009  0.1791 -0.3524
   74MPD2    C4 1132   2.349   3.223  13.515  0.5194  0.0516 -0.1833
   74MPD2    C5 1133   2.408   3.110  13.456  0.1490 -0.2150 -0.3926
   74MPD2     H 1134   2.603   3.434  13.484  0.7783 -0.3599 -0.0966
   74MPD2    H1 1135   2.251   3.215  13.561  0.6009 -0.2793 -0.0629
   74MPD2    H2 1136   2.562   3.026  13.348  0.0042  0.9315 -0.7990
   74MPD2    H3 1137   2.355   3.016  13.449  2.7373 -1.8095  1.4994
   74MPD2     N 1138   2.355   3.445  13.585 -0.3322  0.6334  0.1921
   74MPD2    H5 1139   2.266   3.433  13.632  0.2079 -2.2508  0.4646
   74MPD2    N1 1140   2.709   3.252  13.316 -0.0331  0.0493  0.6129
   74MPD2    H7 1141   2.748   3.165  13.281  0.6228  0.0347  1.3838
   75TCq2    C1 1142   2.739   0.432  13.834 -0.2860  0.1702  0.4042
   75TCq2    O2 1143   2.794   0.500  13.916  0.2229  0.1935 -0.4565
   75TCq2    C2 1144   2.633   0.498  13.758  0.0540  0.2901 -0.4520
   75TCq2    C3 1145   2.572   0.601  13.828  0.6593  0.1452  0.5952
   75TCq2    C4 1146   2.512   0.697  13.761  0.8496 -0.6888  0.2166
   75TCq2    C5 1147   2.512   0.695  13.626  0.1230 -0.2743 -0.3181
   75TCq2    C6 1148   2.568   0.586  13.557  0.4092 -0.1505 -0.2068
   75TCq2    C7 1149   2.626   0.483  13.623 -0.1197  0.3019  0.2896
   75TCq2    C8 1150   2.536   0.566  13.413 -0.2284  0.0058  0.0722
   75TCq2    O4 1151   2.547   0.448  13.368 -0.0045 -0.0763 -0.4117
   75TCq2    C9 1152   2.442   0.805  13.835  0.9702  0.3350 -0.1840
   75TCq2    O5 1153   2.348   0.856  13.771 -0.0020 -0.2362 -0.0880
   75TCq2    O6 1154   2.451   0.815  13.957  0.6050 -0.0080  0.6915
   75TCq2    H2 1155   2.585   0.610  13.936  0.0719  3.4325  0.4010
   75TCq2    H3 1156   2.456   0.774  13.577  2.1897  1.4079  0.0659
   75TCq2    H4 1157   2.640   0.389  13.569 -0.6485 -0.2212  1.0640
   76MPD2     C 1158   1.267   1.220  12.205 -0.0259  0.0133 -1.1471
   76MPD2    C1 1159   1.293   1.209  12.068  0.0032 -0.0370 -0.7104
   76MPD2    C2 1160   1.402   1.134  12.038 -0.4159  0.3781 -0.0200
   76MPD2    C3 1161   1.479   1.071  12.134  0.3150  0.2003  0.7232
   76MPD2    C4 1162   1.451   1.086  12.265 -0.0900 -0.2104 -0.5688
   76MPD2    C5 1163   1.341   1.152  12.300  0.0920 -0.2777 -0.7405
   76MPD2     H 1164   1.418   1.132  11.931 -0.4882  0.8884 -0.0412
   76MPD2    H1 1165   1.520   1.048  12.339  0.4549  0.2493 -0.8472
   76MPD2    H2 1166   1.192   1.286  12.246  1.0705  1.7257 -1.9371
   76MPD2    H3 1167   1.311   1.167  12.403 -1.0351 -2.3567 -0.7617
   76MPD2     N 1168   1.594   0.994  12.099 -0.1894  0.2093 -0.0455
   76MPD2    H5 1169   1.664   0.987  12.173  0.4611 -1.2662 -0.8018
   76MPD2    N1 1170   1.214   1.273  11.971  0.5472 -0.0765 -0.3910
   76MPD2    H7 1171   1.251   1.274  11.877  1.0585  2.1683 -0.1602
   77TCq2    C1 1172   1.629   0.963  11.974 -0.3031 -0.2228 -0.3654
   77TCq2    O2 1173   1.560   0.946  11.873 -0.3766  0.3907  0.4653
   77TCq2    C2 1174   1.760   0.894  11.961 -0.3656 -0.3879  0.1431
   77TCq2    C3 1175   1.773   0.810  11.854 -0.2377  1.4780  0.1552
   77TCq2    C4 1176   1.867   0.715  11.861 -0.6695  0.1031 -0.0434
   77TCq2    C5 1177   1.951   0.701  11.969 -0.2327 -0.0560 -0.6743
   77TCq2    C6 1178   1.935   0.789  12.072  0.1475  0.3424  0.0391
   77TCq2    C7 1179   1.841   0.888  12.072 -0.1319 -0.0565  0.5876
   77TCq2    C8 1180   2.050   0.808  12.158  0.2867 -0.5111  0.2539
   77TCq2    O4 1181   2.155   0.799  12.097  0.4194  0.0951 -0.3195
   77TCq2    C9 1182   1.883   0.617  11.754  0.5409  0.1270  0.2856
   77TCq2    O5 1183   1.791   0.623  11.675 -0.1115 -0.2706  0.1716
   77TCq2    O6 1184   1.991   0.553  11.748  0.3025  0.3948  0.1248
   77TCq2    H2 1185   1.712   0.827  11.766 -0.7555 -0.7362  0.0851
   77TCq2    H3 1186   2.014   0.613  11.967  0.2192  0.2598 -0.2830
   77TCq2    H4 1187   1.838   0.964  12.149 -0.3466 -1.9277  2.4228
   78MPD1     C 1188   2.328   4.504   1.385  0.0680  0.0675 -0.5048
   78MPD1    C1 1189   2.397   4.612   1.338 -0.0671  0.4057  0.3976
   78MPD1    C2 1190   2.401   0.001   1.420 -0.0009 -0.9343 -0.3225
   78MPD1    C3 1191   2.332   0.010   1.540  0.2219 -0.5233  0.7595
   78MPD1    C4 1192   2.260   4.617   1.579  0.5196  0.0141  0.4631
   78MPD1    C5 1193   2.259   4.504   1.506  0.1570 -0.2353 -0.0094
   78MPD1     H 1194   2.466   0.084   1.392  1.0892 -1.2934  1.1444
   78MPD1    H1 1195   2.215   4.617   1.677  0.6690 -0.4161  0.5324
   78MPD1    H2 1196   2.325   4.415   1.323 -2.1020 -0.5752  0.5369
   78MPD1    H3 1197   2.199   4.417   1.525  0.1362  0.4202  2.8953
   78MPD1     N 1198   2.337   0.116   1.629  0.7068  0.1572 -1.0196
   78MPD1    H5 1199   2.289   0.114   1.718  0.8697 -0.4681 -0.9474
   78MPD1    N1 1200   2.487   4.601   1.230  0.3563  0.0069 -0.1735
   78MPD1    H6 1201   2.462   4.546   1.148  1.9015  0.6570 -1.0789
   78MPD1    H7 1202   2.520   4.694   1.205  1.4589  0.4068  2.7373
   79TCq2    C1 1203   2.413   0.233   1.606 -0.0101 -0.0186 -0.2439
   79TCq2    O2 1204   2.493   0.258   1.517  0.5316 -0.3109 -0.1298
   79TCq2    C2 1205   2.388   0.339   1.697 -0.6635 -0.3232 -0.3362
   79TCq2    C3 1206   2.291   0.334   1.789  0.0609  0.7558 -0.3041
   79TCq2    C4 1207   2.271   0.445   1.870 -0.1091  1.1343 -0.5334
   79TCq2    C5 1208   2.362   0.544   1.867  0.4719 -0.0583 -0.0124
   79TCq2    C6 1209   2.481   0.529   1.794 -0.0138  0.7639 -0.2679
   79TCq2    C7 1210   2.481   0.431   1.698  0.0009 -0.5007  0.3189
   79TCq2    C8 1211   2.553   0.652   1.766  0.2603  0.0202 -0.2714
   79TCq2    O4 1212   2.659   0.645   1.706 -0.4314 -0.0515  0.0968
   79TCq2    C9 1213   2.151   0.451   1.950  0.5686  0.7175  0.2240
   79TCq2    O5 1214   2.083   0.346   1.954  0.3537  0.1815 -0.1160
   79TCq2    O6 1215   2.138   0.552   2.028 -0.1888  0.5348 -0.0189
   79TCq2    H2 1216   2.217   0.255   1.785 -1.0731  1.7796  0.4734
   79TCq2    H3 1217   2.358   0.628   1.935 -4.3962  0.1048 -0.5104
   79TCq2    H4 1218   2.565   0.425   1.630  0.8967  1.7565  1.2312
   80MPD2     C 1219   1.025   0.493  12.017 -0.6999 -0.5075  0.3308
   80MPD2    C1 1220   0.916   0.572  11.986 -0.4316 -0.7634 -0.7911
   80MPD2    C2 1221   0.817   0.594  12.085 -0.0449  0.4199  0.1898
   80MPD2    C3 1222   0.816   0.526  12.204  0.7848  0.2091  0.4922
   80MPD2    C4 1223   0.919   0.430  12.225  0.3178 -0.2152 -0.1406
   80MPD2    C5 1224   1.024   0.420  12.137  0.1305  0.0303  0.4072
   80MPD2     H 1225   0.738   0.666  12.063  0.2791  0.4928 -0.7187
   80MPD2    H1 1226   0.922   0.367  12.313  3.1601  1.0469  0.6896
   80MPD2    H2 1227   1.107   0.484  11.947 -0.9862  1.4137 -0.2697
   80MPD2    H3 1228   1.113   0.361  12.153  0.3075 -0.3693 -2.0465
   80MPD2     N 1229   0.710   0.536  12.299 -0.0434  0.5332 -0.0418
   80MPD2    H5 1230   0.722   0.487  12.387  1.6863  0.5258 -0.2850
   80MPD2    N1 1231   0.888   0.619  11.866 -0.6940  0.1888 -0.2221
   80MPD2    H7 1232   0.806   0.679  11.860 -1.1091 -0.3034  0.5574
   81TCq2    C1 1233   0.942   0.580  11.747  0.2702  0.1429 -0.2509
   81TCq2    O2 1234   1.052   0.522  11.729 -0.2386  0.2257 -0.4135
   81TCq2    C2 1235   0.859   0.620  11.625  0.4175  0.4259 -0.4535
   81TCq2    C3 1236   0.931   0.654  11.510 -0.5487  0.5887  0.1225
   81TCq2    C4 1237   0.860   0.683  11.397 -0.5547 -0.1700  0.4032
   81TCq2    C5 1238   0.721   0.686  11.403 -0.1386  0.4071  0.3223
   81TCq2    C6 1239   0.655   0.646  11.518  0.3673 -0.2695 -0.1326
   81TCq2    C7 1240   0.725   0.615  11.635  0.3957 -0.4711 -0.2505
   81TCq2    C8 1241   0.513   0.635  11.525 -0.2943 -0.3928  0.3499
   81TCq2    O4 1242   0.444   0.711  11.464  0.1601  0.3822 -0.7367
   81TCq2    C9 1243   0.936   0.732  11.283 -0.2999 -0.1509 -0.4672
   81TCq2    O5 1244   0.875   0.787  11.190 -0.2163  0.3055 -0.7072
   81TCq2    O6 1245   1.066   0.726  11.277  0.0418  0.1514 -0.5968
   81TCq2    H2 1246   1.039   0.647  11.507 -0.4615  2.0456 -0.2928
   81TCq2    H3 1247   0.663   0.718  11.317 -1.9819  0.0002  1.4060
   81TCq2    H4 1248   0.672   0.598  11.728  0.0881  0.1829 -0.3047
   82MPD2     C 1249   3.839   0.197  10.467 -0.2248  0.4533  0.4939
   82MPD2    C1 1250   3.791   0.073  10.466 -0.3787 -0.7018  0.2610
   82MPD2    C2 1251   3.830   4.707  10.560 -0.4869 -0.1416  0.8412
   82MPD2    C3 1252   3.894   0.026  10.672  0.1039 -0.8814  0.2866
   82MPD2    C4 1253   3.933   0.161  10.681  0.8250 -0.0193 -0.2650
   82MPD2    C5 1254   3.909   0.248  10.573 -0.7308 -0.2309  0.3013
   82MPD2     H 1255   3.789   4.607  10.558 -2.8936  0.9171 -2.5914
   82MPD2    H1 1256   3.970   0.202  10.774 -0.8447 -0.2487  0.4889
   82MPD2    H2 1257   3.810   0.261  10.385  2.7487  0.0431 -0.8622
   82MPD2    H3 1258   3.923   0.354  10.585  1.2178 -0.5143  0.5477
   82MPD2     N 1259   3.944   4.666  10.775  0.2522 -0.3785 -0.3900
   82MPD2    H5 1260   3.972   4.718  10.858  0.5824  2.7210 -2.4153
   82MPD2    N1 1261   3.702   0.044  10.355 -0.2004  1.1382 -0.1994
   82MPD2    H7 1262   3.668   0.121  10.297  2.6557 -0.1918 -3.6214
   83TCq2    C1 1263   3.939   4.527  10.770 -0.2256 -0.6173 -0.3059
   83TCq2    O2 1264   3.934   4.454  10.669  0.1994 -0.0619  0.3413
   83TCq2    C2 1265   3.989   4.464  10.897 -0.4116 -0.5334 -0.6826
   83TCq2    C3 1266   4.052   4.538  10.997  1.1121 -0.3553  0.1895
   83TCq2    C4 1267   4.060   4.476  11.120  1.6005 -0.1407 -0.2664
   83TCq2    C5 1268   4.004   4.356  11.146 -0.8370  0.8425 -0.1578
   83TCq2    C6 1269   3.937   4.293  11.046  0.8316 -1.1021  0.0751
   83TCq2    C7 1270   3.936   4.347  10.916  0.3469 -0.3563  0.2085
   83TCq2    C8 1271   3.874   4.165  11.069 -0.1422  0.0733  1.0820
   83TCq2    O4 1272   3.889   4.130  11.184 -0.3460 -0.4058  0.6056
   83TCq2    C9 1273   4.104   4.551  11.226  0.5117 -0.6478  0.4225
   83TCq2    O5 1274   4.224   4.581  11.227  0.0354 -0.3907  0.2730
   83TCq2    O6 1275   4.022   4.564  11.319 -0.3855  0.8446 -0.8955
   83TCq2    H2 1276   4.086   4.640  10.987  1.7335 -0.6199 -0.3915
   83TCq2    H3 1277   4.020   4.313  11.244  0.2729 -1.3712 -1.2945
   83TCq2    H4 1278   3.893   4.286  10.837 -0.5480  1.9120 -1.0698
   84TCq2    C1 1279   0.268   3.505  10.462  0.3445 -0.0397 -1.0447
   84TCq2    O2 1280   0.174   3.423  10.479 -0.2059 -0.5562  0.6745
   84TCq2    C2 1281   0.319   3.554  10.583  0.2846 -0.9659  0.3778
   84TCq2    C3 1282   0.424   3.640  10.580 -0.0584  0.0580  0.3353
   84TCq2    C4 1283   0.452   3.710  10.692 -0.8220 -0.0738  0.2947
   84TCq2    C5 1284   0.364   3.718  10.798 -0.7007  0.1681  0.6675
   84TCq2    C6 1285   0.257   3.632  10.797  0.0161  0.4519  0.3130
   84TCq2    C7 1286   0.231   3.550  10.687 -0.3882 -0.0350  0.4886
   84TCq2    C8 1287   0.148   3.664  10.885  0.2260  0.0207  0.1655
   84TCq2    O4 1288   0.172   3.755  10.966  0.2658  0.0839  0.3839
   84TCq2    C9 1289   0.576   3.790  10.694 -0.2575  0.8030  0.4769
   84TCq2    O5 1290   0.614   3.841  10.799  0.3293  0.0962 -0.5505
   84TCq2    O6 1291   0.638   3.799  10.585 -0.1850 -0.0812 -0.1694
   84TCq2    H2 1292   0.509   3.633  10.514  0.8400 -1.7344  1.6851
   84TCq2    H3 1293   0.392   3.780  10.882  1.9957 -1.7461  1.1931
   84TCq2    H4 1294   0.139   3.493  10.684 -0.0177 -0.6692  1.2386
   85MPD2     C 1295   0.648   1.364  16.267 -0.3097 -0.2270 -0.9612
   85MPD2    C1 1296   0.547   1.406  16.183 -0.0636 -0.9178 -0.5686
   85MPD2    C2 1297   0.540   1.546  16.143  0.2781  0.4637  0.3434
   85MPD2    C3 1298   0.636   1.633  16.192  0.0965  0.2460  0.2533
   85MPD2    C4 1299   0.739   1.589  16.274 -0.2782  0.8116  0.1508
   85MPD2    C5 1300   0.747   1.453  16.308 -0.2686 -0.1870  0.2648
   85MPD2     H 1301   0.465   1.571  16.068  0.1049  0.5347  0.5379
   85MPD2    H1 1302   0.827   1.647  16.296  0.4096  0.2123 -0.9939
   85MPD2    H2 1303   0.650   1.263  16.304  1.2679  0.0986 -0.1711
   85MPD2    H3 1304   0.826   1.414  16.371  0.7455  0.4839 -0.5971
   85MPD2     N 1305   0.629   1.765  16.136  0.5074  0.3760 -0.0485
   85MPD2    H5 1306   0.549   1.787  16.078  1.4333  0.2727 -1.3516
   85MPD2    N1 1307   0.460   1.316  16.127 -0.0730  0.2096 -0.1090
   85MPD2    H7 1308   0.483   1.218  16.136 -4.8522 -0.9018 -0.1155
   86TCq2    C1 1309   0.698   1.872  16.181  0.2439 -0.2989  0.5193
   86TCq2    O2 1310   0.769   1.891  16.279  0.3276  0.2350  0.4923
   86TCq2    C2 1311   0.673   1.994  16.099 -0.2554 -0.5236  0.8820
   86TCq2    C3 1312   0.676   2.112  16.164  0.7878 -0.2715  0.4313
   86TCq2    C4 1313   0.696   2.230  16.084 -0.5458  1.4243 -0.2269
   86TCq2    C5 1314   0.723   2.227  15.954 -0.7541  0.3708 -0.2080
   86TCq2    C6 1315   0.750   2.103  15.900  0.0645  0.3584 -0.3625
   86TCq2    C7 1316   0.720   1.989  15.971  0.3921 -0.2364 -0.4417
   86TCq2    C8 1317   0.827   2.084  15.779  0.2274 -0.2793  1.0455
   86TCq2    O4 1318   0.871   1.971  15.766  0.3461 -0.3471  0.5117
   86TCq2    C9 1319   0.697   2.355  16.151  0.3114 -1.0223  0.2534
   86TCq2    O5 1320   0.666   2.368  16.275  0.4582  0.2737  0.0228
   86TCq2    O6 1321   0.769   2.444  16.099 -0.3488 -0.4431  0.0692
   86TCq2    H2 1322   0.666   2.116  16.272 -1.9579 -0.4389  0.1910
   86TCq2    H3 1323   0.757   2.315  15.899 -3.4665  0.6076 -1.4771
   86TCq2    H4 1324   0.751   1.892  15.932  3.6166  0.4860  0.3988
   87MPD2     C 1325   3.324   0.287   1.235 -0.5639 -0.6407  0.2172
   87MPD2    C1 1326   3.222   0.235   1.308  0.6151  0.3457  0.3149
   87MPD2    C2 1327   3.109   0.317   1.327  0.3853 -0.4628 -0.2932
   87MPD2    C3 1328   3.097   0.446   1.283  0.2459 -0.5676 -0.4050
   87MPD2    C4 1329   3.205   0.495   1.211  0.0875 -0.1239 -0.0497
   87MPD2    C5 1330   3.314   0.412   1.186  0.4448  0.5416 -0.3305
   87MPD2     H 1331   3.021   0.276   1.376  0.1862  1.9373  1.3993
   87MPD2    H1 1332   3.210   0.595   1.169  1.5969 -0.2515 -0.1976
   87MPD2    H2 1333   3.409   0.229   1.202  0.2702  0.7160 -0.0102
   87MPD2    H3 1334   3.392   0.445   1.118  0.9225 -0.6718 -0.3717
   87MPD2     N 1335   2.980   0.519   1.290 -0.0770 -0.1672  0.4542
   87MPD2    H5 1336   2.981   0.610   1.245 -0.1944 -0.2143  0.3554
   87MPD2    N1 1337   3.223   0.095   1.344 -0.2280 -0.3549  0.0241
   87MPD2    H7 1338   3.300   0.036   1.312 -0.5942 -0.3394 -0.9011
   88TCq2    C1 1339   3.127   0.035   1.415  0.1297  0.5499 -0.0549
   88TCq2    O2 1340   3.043   0.071   1.500  0.1021 -0.2690  0.0651
   88TCq2    C2 1341   3.143   4.607   1.406 -0.3523  1.0656  0.1509
   88TCq2    C3 1342   3.116   4.532   1.513 -0.2527 -0.3799  0.5380
   88TCq2    C4 1343   3.092   4.399   1.501 -0.1147  0.2295  0.5364
   88TCq2    C5 1344   3.066   4.352   1.376 -0.1298  0.2519  0.2416
   88TCq2    C6 1345   3.092   4.432   1.270 -0.3785 -0.6058  0.6637
   88TCq2    C7 1346   3.133   4.558   1.279 -0.1143  0.1385  0.3757
   88TCq2    C8 1347   3.056   4.383   1.135 -0.6944  0.6128 -0.1871
   88TCq2    O4 1348   3.108   4.435   1.038 -0.5553  0.1584  0.0842
   88TCq2    C9 1349   3.061   4.315   1.613 -0.6307 -0.2492  0.1270
   88TCq2    O5 1350   3.064   4.362   1.729 -0.2501  0.2823  0.1359
   88TCq2    O6 1351   3.081   4.192   1.598 -0.0323  0.1115 -0.0947
   88TCq2    H2 1352   3.129   4.573   1.612  0.3105 -1.6393  0.9799
   88TCq2    H3 1353   3.041   4.247   1.371  1.2091 -0.0184 -0.7008
   88TCq2    H4 1354   3.146   4.625   1.195  0.0751  0.8816  0.9912
   89MPD2     C 1355   4.279   2.764   1.619  0.2516 -0.1612 -0.7035
   89MPD2    C1 1356   4.205   2.834   1.711  0.4666  0.4622 -0.4391
   89MPD2    C2 1357   4.263   2.952   1.754  0.3475 -0.3393  0.3727
   89MPD2    C3 1358   4.388   3.000   1.711 -0.0597 -0.0755 -0.0112
   89MPD2    C4 1359   4.458   2.924   1.620 -0.4153 -0.0060  0.7325
   89MPD2    C5 1360   4.408   2.804   1.582  0.2499  0.7459 -0.1272
   89MPD2     H 1361   4.207   3.013   1.824 -0.1118  0.2452 -0.4931
   89MPD2    H1 1362   4.554   2.956   1.581 -1.9814  2.7091 -0.8944
   89MPD2    H2 1363   4.251   2.661   1.597 -0.4178 -0.2410  0.5035
   89MPD2    H3 1364   4.479   2.745   1.524 -1.0803 -0.3859 -0.6114
   89MPD2     N 1365   4.429   3.116   1.774 -0.7021  0.0160  0.1589
   89MPD2    H5 1366   4.371   3.156   1.847 -0.6829  0.4506 -0.0685
   89MPD2    N1 1367   4.080   2.793   1.760 -0.2439 -0.0461 -0.9632
   89MPD2    H7 1368   4.037   2.854   1.828  0.5533  0.1316 -0.6255
   90TCq2    C1 1369   4.552   3.169   1.758  0.4569  0.0095 -0.0514
   90TCq2    O2 1370   4.656   3.117   1.720  0.1607  0.0765 -0.2591
   90TCq2    C2 1371   4.571   3.276   1.848 -0.6976 -0.6955  0.4998
   90TCq2    C3 1372   4.664   3.259   1.943 -0.0767  0.7135 -0.3242
   90TCq2    C4 1373   4.670   3.352   2.039 -0.0626 -0.1851  0.3654
   90TCq2    C5 1374   4.590   3.460   2.041  0.3208  0.4384  0.3714
   90TCq2    C6 1375   4.504   3.478   1.935 -0.0159  0.6059 -0.5921
   90TCq2    C7 1376   4.483   3.383   1.840  0.2559  0.2370  0.8378
   90TCq2    C8 1377   4.456   3.612   1.905  0.4308 -0.2820 -0.1228
   90TCq2    O4 1378   4.455   3.688   2.001 -0.1890 -0.1354 -0.3284
   90TCq2    C9 1379   0.049   3.336   2.136  0.0890  0.3523  0.4967
   90TCq2    O5 1380   0.058   3.416   2.234 -0.3022 -0.0007 -0.1878
   90TCq2    O6 1381   0.136   3.249   2.111 -0.2968 -0.2991  0.1543
   90TCq2    H2 1382   0.002   3.169   1.941 -1.3967 -0.2108  1.8216
   90TCq2    H3 1383   4.595   3.543   2.111 -1.4385 -1.1623  2.3903
   90TCq2    H4 1384   4.425   3.408   1.752  1.3138 -2.0877 -0.4913
   91TMC2    C1 1385   0.153   2.783  15.961  0.5443 -0.4242 -0.0891
   91TMC2    C2 1386   0.227   2.798  16.075 -0.3630  0.9235  0.5532
   91TMC2    C3 1387   0.197   2.732  16.188 -0.8021  0.2360 -0.1254
   91TMC2    C4 1388   0.059   2.680  15.954  0.6783 -0.2582 -0.0580
   91TMC2    C5 1389   0.022   2.622  16.074  0.5075 -0.2057  0.5584
   91TMC2    C6 1390   0.096   2.639  16.188 -0.1986 -0.4949  0.1446
   91TMC2     C 1391   0.218   2.822  15.837  0.3772  0.2861  0.3931
   91TMC2     O 1392   0.142   2.811  15.742 -0.6751 -0.1893 -0.8747
   91TMC2     H 1393   0.303   2.875  16.075  0.4850  0.0947  2.8154
   91TMC2    H1 1394   4.722   2.682  15.864  1.3137 -0.8787 -0.5059
   91TMC2    H2 1395   0.070   2.588  16.280  0.3697  0.3179  0.7555
   91TMC2    C7 1396   4.658   2.500  16.073 -0.5485  0.0672 -0.0724
   91TMC2    C8 1397   0.270   2.753  16.316 -0.1522  0.1473  0.0685
   91TMC2    O1 1398   4.673   2.428  16.170 -0.1079 -0.5855  0.3834
   91TMC2    O2 1399   0.239   2.686  16.411  0.0763 -0.3001  0.0997
   91TMC2    O5 1400   0.310   2.886  16.310 -0.3815  0.0524 -0.2690
   91TMC2    H5 1401   0.327   2.919  16.220  1.2745 -0.3239 -0.0921
   92MPD2     C 1402   0.398   2.893  15.604  0.4559 -0.0204 -0.1447
   92MPD2    C1 1403   0.440   2.854  15.727 -0.4049 -0.0212  0.6613
   92MPD2    C2 1404   0.574   2.858  15.756  0.4295  0.3009  0.7103
   92MPD2    C3 1405   0.666   2.871  15.655 -0.2440 -0.2577 -0.2663
   92MPD2    C4 1406   0.626   2.905  15.524  0.6223  0.5103  0.0393
   92MPD2    C5 1407   0.492   2.922  15.507  0.5305 -0.3671  0.3126
   92MPD2     H 1408   0.611   2.825  15.853  2.0851 -0.6093 -0.2311
   92MPD2    H1 1409   0.689   2.892  15.436 -1.0189 -1.0186 -0.9011
   92MPD2    H2 1410   0.292   2.898  15.581  0.7378 -1.1014 -1.7057
   92MPD2    H3 1411   0.451   2.940  15.408  2.0222  0.0380 -0.2302
   92MPD2     N 1412   0.801   2.842  15.689  0.7211  0.7039 -0.5728
   92MPD2    H5 1413   0.822   2.828  15.788  0.5066  2.2851 -0.3091
   92MPD2    N1 1414   0.354   2.831  15.837 -0.6504  0.3320  0.2717
   92MPD2    H7 1415   0.401   2.816  15.925 -3.4925 -2.8809  1.2401
   93MPD2     C 1416   2.296   2.748  13.446  0.0118 -0.0444  0.5049
   93MPD2    C1 1417   2.246   2.784  13.575  0.3016 -0.0411 -0.1932
   93MPD2    C2 1418   2.109   2.775  13.594  0.8604  0.8119 -0.0379
   93MPD2    C3 1419   2.037   2.712  13.502  0.2194 -0.2100 -0.0793
   93MPD2    C4 1420   2.088   2.677  13.380 -0.3033 -0.4272  0.1455
   93MPD2    C5 1421   2.216   2.696  13.355 -0.1565 -0.1161  0.2575
   93MPD2     H 1422   2.061   2.808  13.685  1.6739  1.8147  0.0273
   93MPD2    H1 1423   2.032   2.623  13.304  1.9528 -1.4966 -0.7617
   93MPD2    H2 1424   2.405   2.746  13.443  0.0194 -0.4983  1.2187
   93MPD2    H3 1425   2.252   2.666  13.258  1.4326  1.7420  0.2863
   93MPD2     N 1426   1.902   2.675  13.519  0.2948 -0.1062  0.6920
   93MPD2    H5 1427   1.853   2.632  13.442 -2.7398  0.4815  2.3011
   93MPD2    N1 1428   2.316   2.842  13.685 -0.8485  0.0829  0.4262
   93MPD2    H7 1429   2.255   2.880  13.756 -1.8810 -0.6653 -0.0444
   94TCq2    C1 1430   2.456   2.834  13.699 -0.8669  0.0330 -0.5403
   94TCq2    O2 1431   2.534   2.754  13.643 -0.4499  0.2322  0.7312
   94TCq2    C2 1432   2.510   2.954  13.768 -0.0582  0.2945  0.1022
   94TCq2    C3 1433   2.422   3.048  13.818 -0.4148 -0.5725 -0.6986
   94TCq2    C4 1434   2.460   3.177  13.830 -0.0313 -0.6452  0.4489
   94TCq2    C5 1435   2.583   3.214  13.791  0.7045  0.2388 -0.1563
   94TCq2    C6 1436   2.663   3.121  13.730 -0.1759 -0.1660  0.2506
   94TCq2    C7 1437   2.630   2.991  13.715 -0.3687  0.3357  0.7017
   94TCq2    C8 1438   2.787   3.155  13.661  0.3522  0.2129  0.2059
   94TCq2    O4 1439   2.857   3.068  13.612 -0.0498  0.2707  0.0057
   94TCq2    C9 1440   2.361   3.274  13.878  0.3201  0.3600  0.4775
   94TCq2    O5 1441   2.401   3.386  13.906 -0.3595  0.6411  0.4991
   94TCq2    O6 1442   2.243   3.232  13.896  0.0783  0.7939 -0.4274
   94TCq2    H2 1443   2.332   3.014  13.868  0.1414 -1.5676 -0.3724
   94TCq2    H3 1444   2.606   3.318  13.813 -0.4428  0.5608 -0.4762
   94TCq2    H4 1445   2.688   2.922  13.655  1.4636  0.2443  2.5613
   95TMC2    C1 1446   2.264   0.015  16.077  0.0777  0.4541 -0.3118
   95TMC2    C2 1447   2.259   4.667  16.193  0.5196 -0.2478 -0.1269
   95TMC2    C3 1448   2.216   0.017  16.298 -0.2392 -0.5574  0.2788
   95TMC2    C4 1449   2.235   0.147  16.071 -0.1029  0.0274 -0.0422
   95TMC2    C5 1450   2.194   0.210  16.185 -0.2942  0.0572  0.8934
   95TMC2    C6 1451   2.190   0.150  16.307 -0.2942 -0.8283  0.0450
   95TMC2     C 1452   2.354   4.688  15.973  0.5788 -0.1744 -0.3003
   95TMC2     O 1453   2.381   0.043  15.883 -0.6981 -0.1410  0.3278
   95TMC2     H 1454   2.270   4.560  16.208  1.2676 -0.0915  0.4548
   95TMC2    H1 1455   2.267   0.200  15.982 -1.5582  0.9869  0.0081
   95TMC2    H2 1456   2.171   0.184  16.408 -2.2528 -0.1737 -0.5609
   95TMC2    C7 1457   2.218   0.353  16.194  0.1796 -0.7043  0.7678
   95TMC2    C8 1458   2.221   4.674  16.421 -0.2737 -0.6459 -0.6798
   95TMC2    O1 1459   2.278   0.402  16.100 -0.2764 -0.3011 -0.8239
   95TMC2    O2 1460   2.160   4.710  16.520  0.1277 -0.3107 -0.4317
   95TMC2    O5 1461   2.336   4.601  16.424 -0.2705  1.1773 -0.4997
   95TMC2    H5 1462   2.392   4.634  16.351  0.2156  2.3759  0.4207
   96MPD2     C 1463   2.648   4.326  15.792  0.0284 -0.9646  0.3073
   96MPD2    C1 1464   2.663   4.465  15.787  0.5224 -0.5838 -0.0079
   96MPD2    C2 1465   2.561   4.537  15.849 -0.0084  0.2010  0.8292
   96MPD2    C3 1466   2.457   4.478  15.919 -0.1581  0.2910  0.4199
   96MPD2    C4 1467   2.443   4.342  15.918 -0.3032  0.2873 -0.5164
   96MPD2    C5 1468   2.534   4.268  15.853 -0.4523  0.3152 -0.7705
   96MPD2     H 1469   2.559   4.644  15.836 -1.7178 -0.0008 -0.5275
   96MPD2    H1 1470   2.363   4.287  15.967 -0.8211  0.5140 -1.1055
   96MPD2    H2 1471   2.731   4.265  15.760  1.1326  0.9035 -0.3550
   96MPD2    H3 1472   2.528   4.159  15.853  0.4449  0.2718  0.3221
   96MPD2     N 1473   2.361   4.554  15.982  0.3199 -0.0217 -0.5140
   96MPD2    H5 1474   2.302   4.494  16.040  1.0606  0.1452  0.4204
   96MPD2    N1 1475   2.788   4.520  15.742 -0.1331 -0.7799  0.3716
   96MPD2    H7 1476   2.850   4.458  15.692 -0.9187 -0.6814 -0.7423
   97MPD2     C 1477   3.912   1.802   0.649  0.3688  0.9256  0.1062
   97MPD2    C1 1478   4.037   1.858   0.631 -0.4202  0.1457 -0.2155
   97MPD2    C2 1479   4.063   1.922   0.510 -0.3729 -0.3375  0.0769
   97MPD2    C3 1480   3.974   1.918   0.405  0.5673  0.0534 -0.2236
   97MPD2    C4 1481   3.850   1.860   0.424 -1.1361 -0.2681 -0.1575
   97MPD2    C5 1482   3.826   1.803   0.544 -0.3241  0.2908 -0.2100
   97MPD2     H 1483   4.159   1.968   0.487 -0.5921 -0.9992 -2.1935
   97MPD2    H1 1484   3.779   1.841   0.344 -0.7902 -0.3040 -0.4605
   97MPD2    H2 1485   3.885   1.754   0.743 -0.6311  0.8524 -0.2135
   97MPD2    H3 1486   3.729   1.756   0.558  0.6834 -1.7944 -0.2735
   97MPD2     N 1487   3.992   1.957   0.276 -0.5282 -0.5456 -0.2946
   97MPD2    H5 1488   3.919   1.928   0.211  0.0797  0.8362 -1.6081
   97MPD2    N1 1489   4.118   1.862   0.747  0.5626  0.5482  0.2816
   97MPD2    H7 1490   4.084   1.831   0.838  0.6737 -0.5293 -0.0497
   98TCq2    C1 1491   4.095   2.028   0.227  0.6100  0.2639  0.3929
   98TCq2    O2 1492   4.185   2.077   0.290 -0.0132  0.6330 -0.1782
   98TCq2    C2 1493   4.096   2.046   0.082  0.0309 -0.3227  0.4932
   98TCq2    C3 1494   4.036   1.952   0.005  0.9908 -0.0974  0.1174
   98TCq2    C4 1495   4.047   1.962  17.564  0.7147  0.4243  0.0941
   98TCq2    C5 1496   4.130   2.060  17.515  0.1607  0.3788 -0.1097
   98TCq2    C6 1497   4.193   2.153  17.594  0.0555 -0.5587  0.1252
   98TCq2    C7 1498   4.186   2.139   0.034  0.3200 -0.1718  0.1131
   98TCq2    C8 1499   4.321   2.209  17.551  0.9314  0.1087 -0.5934
   98TCq2    O4 1500   4.378   2.289  17.628 -0.1278  0.1284  0.3816
   98TCq2    C9 1501   3.985   1.861  17.484  0.1571 -0.0494 -0.0522
   98TCq2    O5 1502   4.025   1.846  17.362  0.2055 -0.1615  0.1669
   98TCq2    O6 1503   3.883   1.796  17.529 -0.0747  0.3373  0.1027
   98TCq2    H2 1504   3.975   1.873   0.046 -1.3079  1.1984 -0.7843
   98TCq2    H3 1505   4.148   2.061  17.408 -0.4491 -0.6623 -0.2281
   98TCq2    H4 1506   4.224   2.215   0.102  0.4232  0.9817 -1.2394
   99MPD2     C 1507   3.619   3.261   2.170  0.6587  0.0386  0.2308
   99MPD2    C1 1508   3.491   3.314   2.172 -0.1595 -0.3747 -0.3619
   99MPD2    C2 1509   3.441   3.353   2.046 -0.1557 -0.5139  0.3534
   99MPD2    C3 1510   3.510   3.339   1.930  1.0906 -1.0262  0.5900
   99MPD2    C4 1511   3.629   3.274   1.930 -0.2556 -0.7130 -0.2259
   99MPD2    C5 1512   3.681   3.229   2.050  0.6315 -0.2620 -0.0718
   99MPD2     H 1513   3.347   3.406   2.037  0.5134  0.8471  1.3676
   99MPD2    H1 1514   3.684   3.268   1.837  2.9728 -0.7978  1.6717
   99MPD2    H2 1515   3.670   3.240   2.264  0.9915  0.4031  0.1339
   99MPD2    H3 1516   3.778   3.180   2.049  1.4280  1.3225  0.6073
   99MPD2     N 1517   3.450   3.389   1.817  0.4374  0.0113  0.2321
   99MPD2    H5 1518   3.365   3.443   1.828 -1.0851 -2.1562 -0.7224
   99MPD2    N1 1519   3.407   3.335   2.282  0.4665 -0.7171  0.0235
   99MPD2    H7 1520   3.314   3.372   2.267  1.1995  0.4480 -1.5874
  100TCq2    C1 1521   3.461   3.334   2.409 -0.5662 -0.0582  0.2391
  100TCq2    O2 1522   3.572   3.302   2.447  0.3096 -0.9967  0.1240
  100TCq2    C2 1523   3.365   3.394   2.502 -0.3128 -0.4536 -0.0190
  100TCq2    C3 1524   3.418   3.500   2.586  0.5470  0.4999  0.3574
  100TCq2    C4 1525   3.326   3.584   2.645 -0.0009  0.1676 -0.1500
  100TCq2    C5 1526   3.188   3.567   2.622 -0.0962  0.6051  0.5673
  100TCq2    C6 1527   3.140   3.466   2.543  0.3448 -0.4105 -0.5791
  100TCq2    C7 1528   3.228   3.376   2.477  0.4433 -0.2037  0.6064
  100TCq2    C8 1529   2.993   3.440   2.543  0.5128 -0.7228 -0.3190
  100TCq2    O4 1530   2.942   3.484   2.645  0.3106 -1.1180  0.0011
  100TCq2    C9 1531   3.372   3.680   2.740 -1.1217  0.1722 -0.5539
  100TCq2    O5 1532   3.301   3.786   2.754 -0.8127 -0.1596  0.7386
  100TCq2    O6 1533   3.487   3.656   2.776 -0.4771 -0.1505 -0.6008
  100TCq2    H2 1534   3.525   3.517   2.596  0.7997 -0.1426 -1.2785
  100TCq2    H3 1535   3.122   3.641   2.668 -1.6383 -1.4748  1.7034
  100TCq2    H4 1536   3.195   3.297   2.411  4.2859  0.2894 -1.8356
  101MPD2     C 1537   4.044   0.452  12.872  0.6679  0.9193 -0.2467
  101MPD2    C1 1538   3.965   0.548  12.920  0.0473  0.4220 -0.1254
  101MPD2    C2 1539   3.886   0.519  13.031  0.3564 -0.2300  0.5374
  101MPD2    C3 1540   3.903   0.401  13.107  0.7413  0.1561  1.5651
  101MPD2    C4 1541   3.992   0.310  13.063 -0.4014 -0.3651 -0.2589
  101MPD2    C5 1542   4.063   0.339  12.946  1.1658 -0.1274  0.0980
  101MPD2     H 1543   3.808   0.585  13.070 -0.9342 -0.7016 -1.2588
  101MPD2    H1 1544   4.013   0.219  13.118  0.3514  0.4613  0.8080
  101MPD2    H2 1545   4.092   0.457  12.775 -0.2907  0.1983 -0.7651
  101MPD2    H3 1546   4.113   0.255  12.899 -0.6044 -0.1086 -1.8496
  101MPD2     N 1547   3.822   0.381  13.221  0.1325 -0.0238 -1.1514
  101MPD2    H5 1548   3.737   0.438  13.219  0.8890  1.2358  1.3132
  101MPD2    N1 1549   3.954   0.663  12.851  0.1533  0.2775  0.4200
  101MPD2    H7 1550   4.018   0.676  12.773  0.7339 -2.4052  0.4572
  102TCq2    C1 1551   4.069   0.976  12.498 -0.0294 -0.2955  0.2605
  102TCq2    O2 1552   4.178   0.920  12.512 -0.5711  0.4326 -0.0878
  102TCq2    C2 1553   3.960   0.966  12.592  0.0384 -0.1441 -0.1832
  102TCq2    C3 1554   3.850   1.051  12.585 -0.1595  0.0224 -0.8135
  102TCq2    C4 1555   3.757   1.047  12.681  0.0568 -0.8480 -0.2738
  102TCq2    C5 1556   3.768   0.956  12.784  0.1282  0.0660 -0.3371
  102TCq2    C6 1557   3.885   0.883  12.793 -0.4635 -0.9202 -0.1751
  102TCq2    C7 1558   3.980   0.881  12.699  0.2733 -0.3937 -0.2704
  102TCq2    C8 1559   3.878   0.776  12.886 -0.4881 -0.0235 -0.2665
  102TCq2    O4 1560   3.799   0.789  12.983  0.0799  0.4962 -0.0581
  102TCq2    C9 1561   3.641   1.139  12.671 -0.1643  0.9338  0.5757
  102TCq2    O5 1562   3.649   1.229  12.585  0.3830  0.0897  0.5807
  102TCq2    O6 1563   3.537   1.098  12.730 -0.6748 -0.3000  0.0466
  102TCq2    H2 1564   3.833   1.116  12.500 -0.9976  2.0503  0.9298
  102TCq2    H3 1565   3.693   0.946  12.861 -0.2408 -1.5267 -0.9032
  102TCq2    H4 1566   4.064   0.813  12.710  0.6892 -0.2116 -2.2705
  103TMC2    C1 1567   2.120   1.133  12.915  0.2077 -0.9227  0.0667
  103TMC2    C2 1568   2.142   1.254  12.969  0.0533  0.1947  0.4949
  103TMC2    C3 1569   2.073   1.276  13.077  0.6516 -0.4819 -0.7429
  103TMC2    C4 1570   2.040   1.039  12.969  0.1828  0.0958 -0.9032
  103TMC2    C5 1571   1.979   1.067  13.085  1.0101 -0.4905 -0.3296
  103TMC2    C6 1572   2.003   1.186  13.151 -0.6577 -0.6010 -0.4452
  103TMC2     C 1573   2.190   1.099  12.799  0.3920  0.4229  0.4896
  103TMC2     O 1574   2.310   1.132  12.791  0.0772  0.2812 -0.4241
  103TMC2     H 1575   2.208   1.329  12.926 -1.5834  0.5676 -1.3788
  103TMC2    H1 1576   2.036   0.941  12.922  1.8018  0.8497 -2.6464
  103TMC2    H2 1577   1.940   1.210  13.236 -1.2276 -0.9640 -0.7630
  103TMC2    C7 1578   1.966   0.957  13.178 -0.3906  0.3426 -0.1661
  103TMC2    C8 1579   2.077   1.408  13.117 -0.5614  0.2888  0.8512
  103TMC2    O1 1580   1.956   0.995  13.296  0.0936  0.2191  0.0853
  103TMC2    O2 1581   2.118   1.507  13.060 -0.1637  0.3867  0.2960
  103TMC2    O5 1582   2.064   1.409  13.254  0.0934  0.4219 -0.2699
  103TMC2    H5 1583   2.076   1.319  13.292  0.1531  0.0854 -1.0869
  104MPD2     C 1584   2.303   0.933  12.579  0.6448  0.1158 -0.0168
  104MPD2    C1 1585   2.162   0.962  12.600  0.2466  0.0317 -0.3600
  104MPD2    C2 1586   2.071   0.918  12.500 -0.2062  0.7826  0.1815
  104MPD2    C3 1587   2.120   0.855  12.387  0.3360 -0.0189  0.0882
  104MPD2    C4 1588   2.256   0.827  12.372 -0.3174 -0.2790 -0.1586
  104MPD2    C5 1589   2.344   0.857  12.471  0.3028 -0.4237  0.1668
  104MPD2     H 1590   1.967   0.951  12.501 -0.6270 -0.5899  1.0518
  104MPD2    H1 1591   2.299   0.767  12.292  1.8123  0.3542  0.5161
  104MPD2    H2 1592   2.383   0.951  12.650 -0.1993  3.8257  0.0011
  104MPD2    H3 1593   2.450   0.842  12.455  0.1013  0.8507 -2.4789
  104MPD2     N 1594   2.022   0.826  12.295  0.0487  0.0322  0.2662
  104MPD2    H5 1595   1.922   0.833  12.312  0.1622  0.2072  0.8528
  104MPD2    N1 1596   2.113   1.033  12.710  0.2924  0.4285  0.3073
  104MPD2    H7 1597   2.012   1.048  12.716 -0.0178 -1.5757  0.1838
  105MPD2     C 1598   3.274   3.922  17.420  0.2397 -0.1129  0.0289
  105MPD2    C1 1599   3.281   4.064  17.439 -0.1837 -0.4563 -0.5986
  105MPD2    C2 1600   3.211   4.116  17.541  0.2627  0.5252 -0.3226
  105MPD2    C3 1601   3.147   4.041  17.635 -0.4960  0.4573 -0.0323
  105MPD2    C4 1602   3.145   3.907  17.624  0.3890  0.8677 -0.3282
  105MPD2    C5 1603   3.215   3.850  17.526  0.5916 -0.2759 -0.4094
  105MPD2     H 1604   3.222   4.223  17.549 -0.3513  0.3413  3.2862
  105MPD2    H1 1605   3.081   3.843  17.684  0.7404  0.4049 -0.4469
  105MPD2    H2 1606   3.319   3.871  17.336  0.9087 -1.2000  1.0493
  105MPD2    H3 1607   3.204   3.743  17.523 -0.7943 -0.1521  0.1837
  105MPD2     N 1608   3.070   4.112   0.035  0.0782  0.4186  0.4839
  105MPD2    H5 1609   3.079   4.213   0.034 -0.2921  0.4345 -0.9189
  105MPD2    N1 1610   3.347   4.153  17.339  0.7103 -0.1329  0.3718
  105MPD2    H7 1611   3.332   4.252  17.355 -0.4027  0.0017 -1.5105
  106TCq2    C1 1612   2.993   4.060   0.139 -0.3080 -1.2114  0.2627
  106TCq2    O2 1613   2.975   3.942   0.170 -0.3119 -0.5485 -0.1406
  106TCq2    C2 1614   2.935   4.156   0.234 -1.1719  0.1226  0.5227
  106TCq2    C3 1615   2.934   4.292   0.206 -0.6136 -0.4601 -0.3196
  106TCq2    C4 1616   2.879   4.372   0.301 -0.1386  0.2754 -0.4076
  106TCq2    C5 1617   2.839   4.320   0.422 -0.0138 -0.4408  0.1483
  106TCq2    C6 1618   2.854   4.190   0.446 -0.4270 -0.5262 -0.1583
  106TCq2    C7 1619   2.890   4.105   0.349 -0.4052  0.2016  0.4594
  106TCq2    C8 1620   2.816   4.146   0.578  0.4987 -0.0355  0.3226
  106TCq2    O4 1621   2.774   4.036   0.595 -0.0701  0.5153  0.0284
  106TCq2    C9 1622   2.875   4.512   0.270  0.4668  0.4605  0.2738
  106TCq2    O5 1623   2.778   4.577   0.320  0.0692  0.1826 -0.1135
  106TCq2    O6 1624   2.956   4.553   0.178  0.4536 -0.2900  0.1572
  106TCq2    H2 1625   2.963   4.336   0.111  2.2258 -2.3825 -0.3265
  106TCq2    H3 1626   2.788   4.379   0.498  0.6492  0.1567  0.1329
  106TCq2    H4 1627   2.905   4.002   0.379 -0.8153  0.1289  0.4166
  107TMC2    C1 1628   4.354   4.262  11.393  0.2139  0.3166 -0.1122
  107TMC2    C2 1629   4.419   4.357  11.325  0.2100  0.1473  0.9859
  107TMC2    C3 1630   4.452   4.315  11.199 -0.8436  0.0282 -0.1600
  107TMC2    C4 1631   4.332   4.129  11.355  0.0853 -0.0041 -0.4757
  107TMC2    C5 1632   4.391   4.092  11.233  0.1829 -1.0292  0.0138
  107TMC2    C6 1633   4.452   4.189  11.158 -0.1696 -0.2110 -0.4869
  107TMC2     C 1634   4.289   4.301  11.518  0.4002  0.6138  0.1326
  107TMC2     O 1635   4.256   4.215  11.594  0.1587 -0.6413  0.0207
  107TMC2     H 1636   4.434   4.457  11.364 -1.8791  1.2369 -1.0725
  107TMC2    H1 1637   4.262   4.070  11.413 -0.5514 -1.1830 -2.4295
  107TMC2    H2 1638   4.502   4.164  11.066 -0.0958 -0.0519 -0.4904
  107TMC2    C7 1639   4.364   3.961  11.176  0.6264  0.8057 -0.0462
  107TMC2    C8 1640   4.507   4.415  11.105 -0.6303 -0.2095  0.1907
  107TMC2    O1 1641   4.264   3.908  11.221  0.2973  0.4120  0.5885
  107TMC2    O2 1642   4.601   4.387  11.033 -0.1628  0.0882  0.2265
  107TMC2    O5 1643   4.440   4.531  11.111 -0.5555 -0.4810  0.4931
  107TMC2    H5 1644   4.357   4.533  11.163 -0.5847 -0.4681  0.4456
  108MPD2     C 1645   4.109   4.620  11.595 -0.8422  0.1543 -0.2996
  108MPD2    C1 1646   4.175   4.498  11.620 -0.6144  0.1835 -0.0850
  108MPD2    C2 1647   4.163   4.440  11.748  0.3383  0.0167 -0.2819
  108MPD2    C3 1648   4.070   4.496  11.833 -0.4549 -0.0277 -0.7621
  108MPD2    C4 1649   3.994   4.601  11.794  0.9209 -0.0538 -1.1569
  108MPD2    C5 1650   4.020   4.672  11.682 -0.1495  0.5173 -0.4565
  108MPD2     H 1651   4.218   4.349  11.771 -0.7482 -0.3883  0.6895
  108MPD2    H1 1652   3.919   4.636  11.864  1.5152 -1.6220  0.2734
  108MPD2    H2 1653   4.120   4.667  11.498 -0.9919 -0.2547 -0.5154
  108MPD2    H3 1654   3.953   0.031  11.663 -0.5257  0.3263  0.0235
  108MPD2     N 1655   4.029   4.434  11.952  0.5364 -0.1387  0.1430
  108MPD2    H5 1656   3.951   4.468  12.007  0.4451 -1.5791  0.8770
  108MPD2    N1 1657   4.246   4.433  11.516 -0.0722 -0.2371  0.2188
  108MPD2    H7 1658   4.256   4.484  11.429 -1.0341  0.3735  0.4694
  109MPD2     C 1659   3.556   0.812   1.870 -0.2004  0.5239 -0.0281
  109MPD2    C1 1660   3.545   0.930   1.802  0.1373  0.1407  0.1040
  109MPD2    C2 1661   3.666   0.995   1.776  0.0557 -0.7504  0.3896
  109MPD2    C3 1662   3.793   0.942   1.801 -0.4214 -0.1466  0.0854
  109MPD2    C4 1663   3.793   0.816   1.859 -0.5031  0.0199  0.5541
  109MPD2    C5 1664   3.675   0.752   1.900  0.3560 -0.1001 -0.0562
  109MPD2     H 1665   3.668   1.090   1.724 -1.4750  0.2240  2.1094
  109MPD2    H1 1666   3.883   0.769   1.897 -1.1223 -0.3293  1.5891
  109MPD2    H2 1667   3.476   0.740   1.883 -1.7558  1.8468 -2.2769
  109MPD2    H3 1668   3.687   0.658   1.953  0.3789  1.2238  2.3123
  109MPD2     N 1669   3.909   1.018   1.770 -0.0846 -0.5124  0.5145
  109MPD2    H5 1670   3.887   1.110   1.732 -0.6339 -1.1707 -0.7636
  109MPD2    N1 1671   3.417   0.979   1.769 -0.2895  0.3284 -0.3491
  109MPD2    H7 1672   3.335   0.921   1.786 -0.2310  0.7608  1.4351
  110TCq2    C1 1673   4.039   0.997   1.815  0.6819 -0.3504 -0.1245
  110TCq2    O2 1674   4.078   0.915   1.899 -0.2196 -0.0830 -0.4033
  110TCq2    C2 1675   4.146   1.077   1.768  0.6665 -0.4039 -0.0565
  110TCq2    C3 1676   4.260   1.070   1.834  0.1321  0.1055 -0.2944
  110TCq2    C4 1677   4.351   1.162   1.800 -0.0638 -0.0083  0.1319
  110TCq2    C5 1678   4.330   1.256   1.699  0.9013 -0.1184 -0.9045
  110TCq2    C6 1679   4.202   1.270   1.648 -0.4136 -0.0662 -0.3699
  110TCq2    C7 1680   4.112   1.178   1.683 -0.3992 -0.0645 -0.0009
  110TCq2    C8 1681   4.178   1.394   1.576  0.0837 -0.3694 -0.7033
  110TCq2    O4 1682   4.275   1.471   1.564  0.3827  0.1929 -0.3648
  110TCq2    C9 1683   4.482   1.147   1.857  1.0506 -0.4713  1.0135
  110TCq2    O5 1684   4.487   1.107   1.974  0.7955  0.2177 -0.3942
  110TCq2    O6 1685   4.575   1.197   1.789  0.1726 -0.0290 -0.0807
  110TCq2    H2 1686   4.299   0.990   1.896 -1.3929  0.5480  1.2452
  110TCq2    H3 1687   4.408   1.326   1.672 -0.8374  1.2749 -2.3300
  110TCq2    H4 1688   4.019   1.173   1.628 -1.2497  0.0368  1.4326
  111TMC2    C1 1689   0.153   1.593  11.327 -0.6307 -0.3558  0.0801
  111TMC2    C2 1690   0.243   1.682  11.268  0.2285  0.1078  0.2080
  111TMC2    C3 1691   0.367   1.673  11.321 -0.1062  0.5622  0.1752
  111TMC2    C4 1692   0.177   1.517  11.436 -0.4782 -0.5142  0.8583
  111TMC2    C5 1693   0.305   1.517  11.481  0.1364 -0.1114  0.4707
  111TMC2    C6 1694   0.404   1.588  11.422 -0.9928  0.1393 -0.6676
  111TMC2     C 1695   0.022   1.579  11.264 -0.8492 -0.6868 -0.5914
  111TMC2     O 1696   4.680   1.480  11.287 -0.3571 -0.1948 -0.3429
  111TMC2     H 1697   0.221   1.740  11.179 -0.9364 -3.5092 -1.8609
  111TMC2    H1 1698   0.104   1.463  11.496 -1.7404 -0.4329 -0.5942
  111TMC2    H2 1699   0.491   1.598  11.485 -0.4013  1.5900 -1.7093
  111TMC2    C7 1700   0.325   1.447  11.608  0.6408 -0.3995  0.8984
  111TMC2    C8 1701   0.473   1.733  11.244  0.0073 -0.3209  0.4865
  111TMC2    O1 1702   0.216   1.427  11.659  0.4083  0.0809 -0.4973
  111TMC2    O2 1703   0.472   1.843  11.193  0.2896  0.4038 -0.0092
  111TMC2    O5 1704   0.492   1.619  11.166 -0.1450  0.2649 -0.8138
  111TMC2    H5 1705   0.469   1.535  11.211  2.6855  0.0088  0.1479
  112MPD2     C 1706   4.314   1.829  11.119  0.4740  0.5210  0.3585
  112MPD2    C1 1707   4.334   1.690  11.129 -0.6698  0.1517 -0.6092
  112MPD2    C2 1708   4.467   1.653  11.151  0.2781  0.0767 -0.6575
  112MPD2    C3 1709   4.577   1.741  11.168  0.2075  0.7194  0.4557
  112MPD2    C4 1710   4.548   1.873  11.152 -0.4796  0.5374  0.1121
  112MPD2    C5 1711   4.420   1.914  11.132 -0.4762  0.5730 -0.4531
  112MPD2     H 1712   4.479   1.546  11.166  0.1888  0.0610 -0.7007
  112MPD2    H1 1713   4.630   1.944  11.156  0.4108 -0.4744 -0.0725
  112MPD2    H2 1714   4.213   1.863  11.100  0.4089 -1.2081 -2.3733
  112MPD2    H3 1715   4.390   2.018  11.124  1.1479  0.9179 -2.0760
  112MPD2     N 1716   4.705   1.701  11.213  0.8217 -0.1753 -0.7043
  112MPD2    H5 1717   0.044   1.780  11.225  2.1819 -1.7634  2.7859
  112MPD2    N1 1718   4.229   1.591  11.127  0.1616 -0.0508  0.5847
  112MPD2    H7 1719   4.245   1.491  11.120  1.5461  0.2649 -0.7845
  113MPD2     C 1720   2.412   3.427   0.881  0.6893 -0.1857 -0.4659
  113MPD2    C1 1721   2.343   3.519   0.955 -0.4464 -0.3325  0.8708
  113MPD2    C2 1722   2.209   3.496   0.994 -0.2505 -0.0506 -0.0137
  113MPD2    C3 1723   2.151   3.376   0.959  0.9318 -0.1286  0.4297
  113MPD2    C4 1724   2.230   3.283   0.896 -0.5219  0.1717  0.6670
  113MPD2    C5 1725   2.360   3.303   0.865  0.2651 -0.7469  0.2536
  113MPD2     H 1726   2.157   3.562   1.063 -1.4789  0.1915 -1.1668
  113MPD2    H1 1727   2.201   3.183   0.867  0.6473 -0.2991  1.1397
  113MPD2    H2 1728   2.516   3.446   0.857  1.2042 -1.6529  0.5940
  113MPD2    H3 1729   2.422   3.229   0.815  1.2743  1.2477 -1.4411
  113MPD2     N 1730   2.028   3.340   1.010 -0.4480  0.0754 -0.4525
  113MPD2    H5 1731   1.991   3.249   0.987 -1.3206  0.1121  0.7567
  113MPD2    N1 1732   2.410   3.627   1.019 -0.5054  0.2609 -0.4115
  113MPD2    H7 1733   2.357   3.693   1.075 -1.7176 -0.2387 -0.9766
  114TCq2    C1 1734   1.936   3.425   1.060 -0.5914 -0.4015  0.7588
  114TCq2    O2 1735   1.932   3.546   1.084  0.6317 -0.6184 -0.1750
  114TCq2    C2 1736   1.797   3.372   1.053  0.3069  0.2908  0.3485
  114TCq2    C3 1737   1.704   3.451   0.993 -0.0866  0.6032  0.5981
  114TCq2    C4 1738   1.577   3.406   0.988 -0.4107  0.0095  0.1533
  114TCq2    C5 1739   1.550   3.282   1.039 -0.3596  0.3321 -0.7484
  114TCq2    C6 1740   1.647   3.210   1.103  0.3826  0.3858 -0.7115
  114TCq2    C7 1741   1.776   3.253   1.115 -0.7787  0.1938 -0.4720
  114TCq2    C8 1742   1.629   3.076   1.146  0.1784  0.7196 -0.0302
  114TCq2    O4 1743   1.557   2.998   1.080  0.3215 -1.1664  0.2826
  114TCq2    C9 1744   1.477   3.485   0.918 -0.1893  0.1099  0.4217
  114TCq2    O5 1745   1.517   3.594   0.870 -0.3125 -0.3600  0.2630
  114TCq2    O6 1746   1.359   3.445   0.914  0.6141  0.3679 -0.3216
  114TCq2    H2 1747   1.726   3.548   0.949  1.7328 -0.6123 -1.1889
  114TCq2    H3 1748   1.449   3.247   1.026  0.6299 -2.5882 -0.6650
  114TCq2    H4 1749   1.857   3.202   1.166 -0.0142  1.1075 -0.7508
  115TMC2    C1 1750   2.959   2.138  17.361  0.7666 -0.1208 -0.0210
  115TMC2    C2 1751   2.922   2.218  17.258 -0.0105 -0.4164  0.2065
  115TMC2    C3 1752   2.940   2.354  17.273  0.0282 -0.3070 -0.4945
  115TMC2    C4 1753   3.016   2.188  17.478  0.7880  0.4701  0.0872
  115TMC2    C5 1754   3.043   2.324  17.482  0.3697 -0.1665  0.5684
  115TMC2    C6 1755   3.002   2.412  17.380  1.1177 -0.7368 -0.8745
  115TMC2     C 1756   2.928   1.992  17.350  0.0893  0.0692  0.3211
  115TMC2     O 1757   2.873   1.971  17.238 -0.0756 -0.3735 -0.2512
  115TMC2     H 1758   2.881   2.177  17.166 -1.7135 -1.4927  1.4626
  115TMC2    H1 1759   3.051   2.115  17.551 -0.5975  1.5722  1.8486
  115TMC2    H2 1760   3.027   2.518  17.375  0.0715 -0.5714 -2.6086
  115TMC2    C7 1761   3.161   2.356  17.558  0.3378 -0.2085 -0.0988
  115TMC2    C8 1762   2.958   2.436  17.151 -0.1739  0.5610 -0.2044
  115TMC2    O1 1763   3.192   2.289  17.654 -0.5100 -0.2481 -0.1599
  115TMC2    O2 1764   3.019   2.540  17.137 -0.3999 -0.5749  0.0896
  115TMC2    O5 1765   2.853   2.402  17.072  0.3061  0.2682  0.2755
  115TMC2    H5 1766   2.803   2.321  17.095  0.6890  0.7224  2.7113
  116MPD2     C 1767   2.789   1.550  17.551  0.0594 -0.3852  0.5237
  116MPD2    C1 1768   2.767   1.599  17.423  0.1604  0.1186 -0.6354
  116MPD2    C2 1769   2.818   1.722  17.388  0.7738 -0.1606 -0.6538
  116MPD2    C3 1770   2.875   1.803  17.488  0.1184 -0.3630 -0.2802
  116MPD2    C4 1771   2.877   1.766  17.619 -0.2152 -0.7209 -0.0313
  116MPD2    C5 1772   2.843   1.627  17.647 -0.2465 -0.2519  0.3230
  116MPD2     H 1773   2.808   1.754  17.284 -1.3208  0.6360 -0.2076
  116MPD2    H1 1774   2.927   1.816   0.006  2.7242 -0.9166 -1.7230
  116MPD2    H2 1775   2.754   1.450  17.575  2.4997 -1.2335  0.5532
  116MPD2    H3 1776   2.852   1.584   0.051 -0.4663  0.6097  0.7133
  116MPD2     N 1777   2.916   1.935  17.472 -0.4903 -0.4673 -0.1682
  116MPD2    H5 1778   2.950   1.972  17.560  0.4320  1.0231 -1.1614
  116MPD2    N1 1779   2.694   1.516  17.337 -0.3241  0.4563  0.7211
  116MPD2    H7 1780   2.671   1.423  17.372 -1.8657  0.4246 -0.3965
  117TMC2    C1 1781   1.882   3.400  13.338  0.3417 -0.0388  0.2095
  117TMC2    C2 1782   1.968   3.308  13.289  0.5087 -0.2258  0.0531
  117TMC2    C3 1783   2.099   3.339  13.259  0.0422  0.6064 -0.6613
  117TMC2    C4 1784   1.922   3.529  13.361 -0.1519 -0.6660 -0.5006
  117TMC2    C5 1785   2.052   3.563  13.325  0.3188 -0.1695 -0.4881
  117TMC2    C6 1786   2.139   3.472  13.264  0.3035  0.4481 -1.1083
  117TMC2     C 1787   1.745   3.359  13.362  0.2726  0.0462  0.1675
  117TMC2     O 1788   1.713   3.244  13.324  0.2776  0.3839  0.9836
  117TMC2     H 1789   1.940   3.205  13.268  0.8581 -0.6318  1.5124
  117TMC2    H1 1790   1.845   3.594  13.403  0.0351 -0.9915  0.3580
  117TMC2    H2 1791   2.241   3.488  13.231  0.6705 -0.7121 -0.5368
  117TMC2    C7 1792   2.104   3.693  13.360  0.5386 -0.1387 -0.3212
  117TMC2    C8 1793   2.168   3.262  13.153  0.1511  1.0374  0.0428
  117TMC2    O1 1794   2.222   3.706  13.323 -0.0154  0.0557  0.3127
  117TMC2    O2 1795   2.205   3.142  13.163 -0.2357 -0.2471  0.0008
  117TMC2    O5 1796   2.113   3.305  13.041  0.7308 -0.0912  0.1038
  117TMC2    H5 1797   2.070   3.393  13.050 -2.0268 -1.3055 -1.5703
  118MPD2     C 1798   1.946   4.002  13.493  0.1855 -0.4576 -0.3855
  118MPD2    C1 1799   2.044   3.923  13.424  0.1450  0.0850 -0.6546
  118MPD2    C2 1800   2.170   3.980  13.416 -0.6453 -0.5370  0.3935
  118MPD2    C3 1801   2.210   4.102  13.479  0.1417  0.2980 -0.5661
  118MPD2    C4 1802   2.104   4.175  13.539  0.5226  0.8375 -0.6097
  118MPD2    C5 1803   1.976   4.122  13.545 -0.0428  0.1218 -0.3176
  118MPD2     H 1804   2.250   3.927  13.366 -1.7389 -0.8656 -1.0147
  118MPD2    H1 1805   2.124   4.269  13.589  0.6557 -0.4007  1.7059
  118MPD2    H2 1806   1.847   3.959  13.505 -0.9165  2.4003  0.7982
  118MPD2    H3 1807   1.903   4.186  13.594 -1.8993 -1.6875 -0.7568
  118MPD2     N 1808   2.339   4.164  13.484  0.1418  0.0103  0.4108
  118MPD2    H5 1809   2.348   4.251  13.535 -0.0453  0.0025  0.4575
  118MPD2    N1 1810   2.009   3.793  13.392 -0.1128 -0.1919 -0.0976
  118MPD2    H7 1811   1.913   3.764  13.409  0.3286 -0.6914  1.5511
  119MPD2     C 1812   0.321   0.218  13.442 -0.2420 -0.6599  0.2285
  119MPD2    C1 1813   0.186   0.216  13.469 -0.2975  0.2408 -0.3235
  119MPD2    C2 1814   0.099   0.291  13.381 -0.1637  0.9341 -0.3127
  119MPD2    C3 1815   0.156   0.355  13.272 -0.3343  0.0473  0.5239
  119MPD2    C4 1816   0.292   0.356  13.253  0.2384 -0.3643 -0.3787
  119MPD2    C5 1817   0.373   0.282  13.335  0.7650 -0.2852 -0.4638
  119MPD2     H 1818   4.715   0.275  13.383  0.1736 -1.2553 -0.0135
  119MPD2    H1 1819   0.342   0.406  13.171 -0.5240  0.5487 -0.2914
  119MPD2    H2 1820   0.390   0.157  13.500  0.9784  0.3509 -0.1468
  119MPD2    H3 1821   0.475   0.269  13.302  1.2782 -2.3288  1.9914
  119MPD2     N 1822   0.075   0.409  13.165 -0.0038  0.2774 -0.3482
  119MPD2    H5 1823   0.119   0.408  13.074  0.9879  1.6658  0.1145
  119MPD2    N1 1824   0.131   0.130  13.567 -0.1094 -0.0358  0.4837
  119MPD2    H7 1825   0.199   0.073  13.614  1.1811 -0.9922 -2.5237
  120TCq2    C1 1826   4.663   0.424  13.171  0.0594  0.5712  0.8678
  120TCq2    O2 1827   4.589   0.425  13.268 -0.4988 -0.2615  0.9712
  120TCq2    C2 1828   4.601   0.425  13.036 -0.1142  0.0299  0.2399
  120TCq2    C3 1829   4.672   0.468  12.930  0.3252 -0.5770 -0.9740
  120TCq2    C4 1830   4.612   0.458  12.806  0.0228 -0.0952 -0.4317
  120TCq2    C5 1831   4.502   0.379  12.787 -0.2120  0.2123 -0.5412
  120TCq2    C6 1832   4.431   0.334  12.900 -0.1368 -0.5124  0.8868
  120TCq2    C7 1833   4.480   0.362  13.026 -0.4189  0.1347  0.1119
  120TCq2    C8 1834   4.362   0.203  12.884 -0.0132  0.4093  0.8701
  120TCq2    O4 1835   4.345   0.175  12.764 -0.2699  0.9392  0.6401
  120TCq2    C9 1836   4.680   0.509  12.693  0.2807  0.0861  0.2844
  120TCq2    O5 1837   4.621   0.503  12.580  0.3895  0.2906  0.2276
  120TCq2    O6 1838   0.074   0.553  12.716  0.1508  0.5546  1.0032
  120TCq2    H2 1839   0.044   0.518  12.946 -1.5852  1.8793  2.6343
  120TCq2    H3 1840   4.466   0.363  12.685  0.9387  3.3108 -1.4312
  120TCq2    H4 1841   4.424   0.348  13.118 -1.9352 -1.8728 -1.1067
  121TMC2    C1 1842   1.488   1.767  13.921 -0.4756 -0.2888 -0.3489
  121TMC2    C2 1843   1.427   1.782  14.045  0.1718 -0.3915  0.2169
  121TMC2    C3 1844   1.312   1.718  14.066  0.6609 -0.8418 -0.4036
  121TMC2    C4 1845   1.427   1.690  13.828  0.3146  0.5577  0.6801
  121TMC2    C5 1846   1.303   1.645  13.848  0.4588  0.4123  0.1285
  121TMC2    C6 1847   1.245   1.654  13.972  0.2645 -0.6079  0.3541
  121TMC2     C 1848   1.618   1.833  13.899 -0.1149  0.3694 -0.3737
  121TMC2     O 1849   1.675   1.858  14.005  0.1322  0.4460 -0.1163
  121TMC2     H 1850   1.475   1.836  14.126 -0.9423  1.1432 -0.1509
  121TMC2    H1 1851   1.471   1.694  13.729 -0.6945  2.9795  0.3277
  121TMC2    H2 1852   1.148   1.611  13.995 -0.0816  0.6206  1.1823
  121TMC2    C7 1853   1.225   1.622  13.735 -0.3246  0.2574 -0.0472
  121TMC2    C8 1854   1.230   1.742  14.178 -0.2684  0.1655 -0.0238
  121TMC2    O1 1855   1.270   1.641  13.623  0.1819  0.4786  0.1159
  121TMC2    O2 1856   1.119   1.792  14.175  0.1556  0.3631 -0.2234
  121TMC2    O5 1857   1.322   1.743  14.284 -0.4249 -0.3980  0.1644
  121TMC2    H5 1858   1.410   1.703  14.267  0.2518  1.0186  0.4013
  122MPD2     C 1859   1.882   1.897  13.794 -0.6775  0.0560 -0.6859
  122MPD2    C1 1860   1.766   1.894  13.717  0.3110 -0.1895 -0.4816
  122MPD2    C2 1861   1.780   1.927  13.586 -0.2355  0.4100 -0.3985
  122MPD2    C3 1862   1.897   1.983  13.538 -0.1075 -0.1060  0.0674
  122MPD2    C4 1863   2.014   1.964  13.606  0.0761  0.1209  0.2258
  122MPD2    C5 1864   2.007   1.928  13.739 -0.4198  0.1982 -0.6412
  122MPD2     H 1865   1.689   1.923  13.527  0.3390  1.0752 -1.3184
  122MPD2    H1 1866   2.108   2.001  13.566 -0.5985  2.1810  0.5403
  122MPD2    H2 1867   1.884   1.883  13.902  0.2483  0.7744 -0.6056
  122MPD2    H3 1868   2.098   1.906  13.794 -1.4584  1.6997  1.6973
  122MPD2     N 1869   1.904   2.053  13.410 -0.4735  0.2646  0.8953
  122MPD2    H5 1870   1.996   2.078  13.375 -1.9251  1.6437 -1.9890
  122MPD2    N1 1871   1.643   1.839  13.766 -0.1627 -0.5749  0.6942
  122MPD2    H7 1872   1.569   1.821  13.699 -1.6410 -0.1999  2.2077
  123MPD2     C 1873   0.483   4.669  10.516 -0.2303  0.2211 -0.4640
  123MPD2    C1 1874   0.429   4.638  10.392 -0.2647 -0.0497 -0.0564
  123MPD2    C2 1875   0.483   4.712  10.294  0.3322 -0.1132 -0.7560
  123MPD2    C3 1876   0.583   0.073  10.298 -0.2923  0.8173  0.0050
  123MPD2    C4 1877   0.649   0.099  10.422  0.5901 -0.1079  0.5384
  123MPD2    C5 1878   0.587   0.040  10.530 -0.2156  0.7833 -1.0422
  123MPD2     H 1879   0.440   4.710  10.194  1.3089  1.0255 -1.2018
  123MPD2    H1 1880   0.734   0.162  10.443 -0.9678  1.9896  0.5450
  123MPD2    H2 1881   0.443   4.614  10.601 -1.2304 -1.1794 -1.8486
  123MPD2    H3 1882   0.628   0.058  10.629 -0.8780 -0.8466 -0.4682
  123MPD2     N 1883   0.620   0.131  10.171  0.5296  0.5971 -0.1474
  123MPD2    H5 1884   0.556   0.118  10.093  0.5222  2.3952 -0.4293
  123MPD2    N1 1885   0.336   4.535  10.372  0.8176  0.0804  0.8604
  123MPD2    H7 1886   0.301   4.495  10.458  0.4081 -2.2277 -0.3769
  124TCq2    C1 1887   0.726   0.210  10.149  0.0526  0.3573 -0.4811
  124TCq2    O2 1888   0.806   0.253  10.233 -0.4270 -0.3601 -0.5907
  124TCq2    C2 1889   0.724   0.271  10.023  0.2525 -0.2197  0.2106
  124TCq2    C3 1890   0.787   0.395  10.008  1.2301  0.6091  0.6325
  124TCq2    C4 1891   0.784   0.443   9.884 -0.6340  0.3074 -0.2171
  124TCq2    C5 1892   0.733   0.377   9.779 -0.6017 -0.0610 -0.6286
  124TCq2    C6 1893   0.671   0.256   9.787  0.4997  0.2117 -0.4377
  124TCq2    C7 1894   0.665   0.200   9.914 -0.6083  0.2396  0.1210
  124TCq2    C8 1895   0.599   0.204   9.673  0.1513 -0.0371 -0.2904
  124TCq2    O4 1896   0.611   0.253   9.562  0.1687  0.3843  0.0199
  124TCq2    C9 1897   0.853   0.570   9.870  0.2412  0.0272 -0.2271
  124TCq2    O5 1898   0.890   0.591   9.755  0.2971 -0.0346  0.1257
  124TCq2    O6 1899   0.854   0.653   9.969  0.2363  0.1792  0.1115
  124TCq2    H2 1900   0.841   0.448  10.086 -0.1507  2.5365  0.2916
  124TCq2    H3 1901   0.737   0.420   9.680 -1.2681  0.5286 -0.4039
  124TCq2    H4 1902   0.638   0.095   9.919 -1.5418  0.4271 -0.9207
  125TMC2    C1 1903   2.136   2.890   8.700  0.9430 -0.2601 -0.0006
  125TMC2    C2 1904   2.114   2.986   8.600 -0.6377 -0.2285  0.2229
  125TMC2    C3 1905   1.990   3.007   8.553 -0.2974 -0.1641 -0.2279
  125TMC2    C4 1906   2.036   2.802   8.740 -0.4087 -0.0465  0.0413
  125TMC2    C5 1907   1.910   2.823   8.675  0.9166 -0.8021 -0.4876
  125TMC2    C6 1908   1.876   2.929   8.593  0.3174  0.1719  0.4006
  125TMC2     C 1909   2.269   2.856   8.745  0.0019  0.5212  0.6808
  125TMC2     O 1910   2.280   2.753   8.812 -0.0592 -0.2785  0.1634
  125TMC2     H 1911   2.187   3.060   8.570 -2.0567  1.1716  0.2958
  125TMC2    H1 1912   2.054   2.723   8.811 -1.2658 -0.3608 -0.0940
  125TMC2    H2 1913   1.782   2.964   8.553  0.1049 -3.1786 -1.9435
  125TMC2    C7 1914   1.788   2.758   8.715 -0.2074  0.3519 -0.6466
  125TMC2    C8 1915   1.975   3.125   8.467 -0.5464 -0.2570 -0.3100
  125TMC2    O1 1916   1.682   2.791   8.658  0.8199 -0.3004  0.1235
  125TMC2    O2 1917   2.043   3.225   8.478  0.4833  0.2515 -0.0647
  125TMC2    O5 1918   1.911   3.080   8.361 -0.1580  0.4215 -0.5787
  125TMC2    H5 1919   1.872   2.990   8.367  0.8959 -0.1281 -1.9543
  126MPD1     C 1920   2.773   2.926   8.795 -0.0331  0.0629  0.3831
  126MPD1    C1 1921   2.730   3.029   8.714 -0.8372 -0.1880  0.1397
  126MPD1    C2 1922   2.596   3.029   8.683  0.6721  0.5235  0.0651
  126MPD1    C3 1923   2.504   2.934   8.729 -0.3369  0.1871 -0.3223
  126MPD1    C4 1924   2.553   2.837   8.810 -0.1155  0.6130 -0.6199
  126MPD1    C5 1925   2.686   2.833   8.844  0.8177  0.5753  0.0441
  126MPD1     H 1926   2.559   3.115   8.627  0.0980  0.1613 -0.1161
  126MPD1    H1 1927   2.492   2.753   8.843 -0.8749  1.0140 -1.0149
  126MPD1    H2 1928   2.876   2.914   8.825  0.0222 -2.2258 -0.7400
  126MPD1    H3 1929   2.728   2.757   8.909 -0.8126 -1.3040 -1.1143
  126MPD1     N 1930   2.367   2.942   8.697 -0.2746  0.1730  0.3497
  126MPD1    H5 1931   2.341   3.018   8.636  2.7892  0.5206 -0.5011
  126MPD1    N1 1932   2.820   3.132   8.679  0.1432  0.5869  0.0194
  126MPD1    H6 1933   2.786   3.195   8.607 -3.2445 -0.8729  0.3193
  126MPD1    H7 1934   2.915   3.099   8.665  0.2132  0.9497 -0.3443
  127MPD2     C 1935   2.136   0.824   9.363 -0.1004  0.4464 -0.2576
  127MPD2    C1 1936   2.135   0.816   9.498 -0.1037 -0.4314  0.2624
  127MPD2    C2 1937   2.221   0.901   9.572 -1.2992 -0.4156 -0.5536
  127MPD2    C3 1938   2.315   0.985   9.507  0.2000  0.7814 -0.4215
  127MPD2    C4 1939   2.301   0.999   9.373  1.0240 -0.0458 -0.1489
  127MPD2    C5 1940   2.219   0.916   9.304  0.2171  0.3372 -0.0012
  127MPD2     H 1941   2.213   0.894   9.680 -1.2269 -3.2717 -0.7416
  127MPD2    H1 1942   2.364   1.070   9.320  1.9711 -0.5665  0.2863
  127MPD2    H2 1943   2.085   0.759   9.293  0.8339  0.6583 -1.1431
  127MPD2    H3 1944   2.212   0.927   9.196  1.9954  0.4134 -0.1067
  127MPD2     N 1945   2.409   1.048   9.589 -0.2171 -0.0678  0.4280
  127MPD2    H5 1946   2.408   1.016   9.685 -2.0347 -2.4794 -0.3711
  127MPD2    N1 1947   2.042   0.733   9.561  0.5605  0.2892  0.5656
  127MPD2    H7 1948   1.978   0.682   9.501  0.9744  0.3446  0.0828
  128TCq2    C1 1949   2.025   0.711   9.700  0.8121  0.3287 -0.3875
  128TCq2    O2 1950   2.095   0.745   9.789  0.3811 -0.3260 -0.0022
  128TCq2    C2 1951   1.921   0.607   9.730  0.5266  1.1535  0.2142
  128TCq2    C3 1952   1.927   0.529   9.844 -0.3299  0.0094 -0.1070
  128TCq2    C4 1953   1.832   0.428   9.870 -0.3847 -0.5071  1.0678
  128TCq2    C5 1954   1.741   0.392   9.774  0.3936 -0.1692  0.2424
  128TCq2    C6 1955   1.740   0.479   9.662 -0.9421 -0.3298 -0.5780
  128TCq2    C7 1956   1.821   0.583   9.641  0.7649  0.6037 -0.3565
  128TCq2    C8 1957   1.658   0.435   9.555 -0.1154 -0.2153 -0.0166
  128TCq2    O4 1958   1.671   0.477   9.439  0.6893 -0.2955 -0.4503
  128TCq2    C9 1959   1.838   0.346   9.988  0.1341 -0.6211  0.6287
  128TCq2    O5 1960   1.756   0.254  10.011  0.0832  0.0963 -0.0960
  128TCq2    O6 1961   1.946   0.335  10.055 -0.2107  0.8355  0.2648
  128TCq2    H2 1962   2.004   0.548   9.918  0.1987 -0.4818 -0.5389
  128TCq2    H3 1963   1.683   0.304   9.801 -0.3286 -1.0072 -3.9697
  128TCq2    H4 1964   1.821   0.643   9.551 -1.4571 -0.2519 -0.9315
  129MPD2     C 1965   4.324   1.525   0.738  0.6527  0.1612  0.0793
  129MPD2    C1 1966   4.394   1.577   0.846 -0.1992 -0.2805 -0.4031
  129MPD2    C2 1967   4.496   1.663   0.818 -0.0250  0.1434  0.2441
  129MPD2    C3 1968   4.535   1.686   0.684  0.9466  0.0094  0.8716
  129MPD2    C4 1969   4.450   1.640   0.581  0.0101 -0.4011 -0.9797
  129MPD2    C5 1970   4.346   1.561   0.613 -0.3422 -0.0608 -0.2434
  129MPD2     H 1971   4.542   1.713   0.902  2.6086 -0.7929 -0.6245
  129MPD2    H1 1972   4.464   1.667   0.477 -0.2371  1.0918 -0.6236
  129MPD2    H2 1973   4.240   1.457   0.755 -1.6604  2.4983 -2.0842
  129MPD2    H3 1974   4.282   1.532   0.530 -0.4452 -0.3720 -0.0562
  129MPD2     N 1975   4.649   1.765   0.663 -0.5813  0.6788  0.7359
  129MPD2    H5 1976   4.694   1.816   0.739  0.2312  0.8910  0.1127
  129MPD2    N1 1977   4.372   1.542   0.982 -0.0202 -0.3677 -0.1520
  129MPD2    H7 1978   4.439   1.563   1.056  1.8565 -3.4961 -0.9711
  130TCq2    C1 1979   4.256   1.476   1.029  0.0015 -0.1650 -0.1573
  130TCq2    O2 1980   4.153   1.464   0.968  0.0097 -0.1613  0.0469
  130TCq2    C2 1981   4.263   1.433   1.173 -0.3830  0.1941 -0.9289
  130TCq2    C3 1982   4.375   1.470   1.234 -0.7759  0.4136 -0.5755
  130TCq2    C4 1983   4.442   1.389   1.319 -0.3633  0.3984  0.1206
  130TCq2    C5 1984   4.392   1.262   1.337 -0.0686  0.7000 -0.2411
  130TCq2    C6 1985   4.273   1.226   1.280  0.0293  0.3886 -0.0910
  130TCq2    C7 1986   4.217   1.305   1.188  0.2528 -0.0986 -0.0443
  130TCq2    C8 1987   4.199   1.117   1.329 -0.2517  1.2477 -0.6626
  130TCq2    O4 1988   4.078   1.130   1.310 -0.3030 -0.0695  0.3064
  130TCq2    C9 1989   4.562   1.426   1.396  0.1016 -0.0774 -0.3669
  130TCq2    O5 1990   4.608   1.541   1.375 -0.7035 -0.1002 -0.0389
  130TCq2    O6 1991   4.630   1.330   1.442 -0.0642  0.1311  0.0051
  130TCq2    H2 1992   4.408   1.572   1.222 -1.5720  0.8319  0.7595
  130TCq2    H3 1993   4.440   1.201   1.412  1.1058  0.6011 -1.0807
  130TCq2    H4 1994   4.122   1.279   1.143 -0.0260 -0.7605  0.9183
  131MPD2     C 1995   4.623   0.001   9.668 -0.5426 -1.0925  0.7514
  131MPD2    C1 1996   0.005   0.024   9.756 -0.0013 -0.3095  0.5785
  131MPD2    C2 1997   0.048   4.650   9.847 -0.0239  0.1246  0.8554
  131MPD2    C3 1998   4.706   4.531   9.854  0.0819 -0.6575  0.2210
  131MPD2    C4 1999   4.599   4.508   9.771 -0.1165  0.2561 -0.1265
  131MPD2    C5 2000   4.559   4.605   9.685 -0.4127 -0.3706  0.0029
  131MPD2     H 2001   0.127   4.668   9.919  0.7689 -0.2082  0.0739
  131MPD2    H1 2002   4.535   4.421   9.770 -2.3332  1.9473 -2.4650
  131MPD2    H2 2003   4.588   0.071   9.593  0.5106 -1.6437 -0.2453
  131MPD2    H3 2004   4.471   4.589   9.624 -1.8891  0.4904  1.9097
  131MPD2     N 2005   0.031   4.450   9.952 -0.0068 -0.3546  0.0865
  131MPD2    H5 2006   0.110   4.488  10.004  0.3766 -0.2796 -0.5497
  131MPD2    N1 2007   0.068   0.148   9.733  0.1571 -0.1526  0.0202
  131MPD2    H7 2008   0.046   0.202   9.650  1.2106 -1.3341 -1.0176
  132TCq2    C1 2009   0.288   0.507   9.449  0.2615 -0.0733 -0.1023
  132TCq2    O2 2010   0.223   0.439   9.371  0.2284  0.7433  0.2103
  132TCq2    C2 2011   0.274   0.475   9.593  0.1514 -1.1125 -0.0893
  132TCq2    C3 2012   0.323   0.568   9.686  0.5643  0.8888 -0.1174
  132TCq2    C4 2013   0.346   0.526   9.815  0.5297 -0.1033 -1.2107
  132TCq2    C5 2014   0.287   0.405   9.857 -0.0454  0.4236  0.6794
  132TCq2    C6 2015   0.224   0.326   9.764  0.6925  0.1498  0.1549
  132TCq2    C7 2016   0.214   0.357   9.628  0.2875 -0.0296  0.1084
  132TCq2    C8 2017   0.168   0.199   9.810 -0.2223 -0.5446  1.0957
  132TCq2    O4 2018   0.211   0.155   9.916 -0.3240 -0.3179 -0.0971
  132TCq2    C9 2019   0.418   0.626   9.893  0.1601 -0.1902  0.3710
  132TCq2    O5 2020   0.409   0.612  10.012 -0.5251  0.0690  0.9552
  132TCq2    O6 2021   0.512   0.686   9.839  0.1639 -0.1280  0.0000
  132TCq2    H2 2022   0.367   0.666   9.669  0.3942  0.8344 -0.8673
  132TCq2    H3 2023   0.301   0.378   9.961  0.8583 -2.2390 -0.1361
  132TCq2    H4 2024   0.175   0.287   9.555 -0.1513  0.0207  0.2986
  133MPD2     C 2025   3.564   4.433   9.371 -0.8326  0.3426 -0.1568
  133MPD2    C1 2026   3.661   4.496   9.301 -0.4798 -0.6982 -0.2533
  133MPD2    C2 2027   3.628   4.616   9.233 -0.1209  0.0062 -0.2772
  133MPD2    C3 2028   3.498   4.662   9.235 -0.6028  0.0763 -0.5780
  133MPD2    C4 2029   3.398   4.589   9.295  0.0544  0.8407 -0.2581
  133MPD2    C5 2030   3.430   4.475   9.364 -0.3823  0.1147 -0.2349
  133MPD2     H 2031   3.702   4.670   9.175 -2.3017  1.6243 -1.5478
  133MPD2    H1 2032   3.296   4.622   9.281  0.0255  1.3005  1.1322
  133MPD2    H2 2033   3.585   4.345   9.431 -3.3604  0.7162  1.2957
  133MPD2    H3 2034   3.358   4.413   9.415  0.8293 -0.8806  0.2786
  133MPD2     N 2035   3.461   0.057   9.175 -0.0332 -0.2163  0.3718
  133MPD2    H5 2036   3.369   0.096   9.189 -0.0420  0.0440 -0.4255
  133MPD2    N1 2037   3.792   4.441   9.305 -0.5156 -0.1949  0.3653
  133MPD2    H7 2038   3.808   4.350   9.347  0.3865 -1.3124 -2.4319
  134TCq2    C1 2039   3.909   4.503   9.262 -0.2406  0.1424  0.8818
  134TCq2    O2 2040   3.924   4.616   9.215  0.0317 -0.1621 -0.7061
  134TCq2    C2 2041   4.023   4.435   9.310  0.4887  0.1019  0.1795
  134TCq2    C3 2042   4.003   4.338   9.414 -0.3711 -0.8746 -0.7134
  134TCq2    C4 2043   4.116   4.296   9.484  0.2187 -0.4254  0.0342
  134TCq2    C5 2044   4.237   4.348   9.460  0.0481  0.1634  0.1641
  134TCq2    C6 2045   4.250   4.436   9.361 -0.4023 -0.7049 -0.4323
  134TCq2    C7 2046   4.145   4.488   9.281 -0.3595 -0.6007  0.6934
  134TCq2    C8 2047   4.381   4.478   9.333 -0.0863 -0.1334  0.1131
  134TCq2    O4 2048   4.477   4.406   9.358 -0.2593  0.0981  0.1821
  134TCq2    C9 2049   4.102   4.195   9.587 -1.1141 -0.1805  0.1692
  134TCq2    O5 2050   4.206   4.131   9.621 -0.5643  0.4576  0.1899
  134TCq2    O6 2051   3.994   4.177   9.645  0.0014  0.1057 -0.1780
  134TCq2    H2 2052   3.915   4.288   9.452 -0.0172 -0.5402  0.5489
  134TCq2    H3 2053   4.320   4.327   9.527  1.0243 -1.3037 -1.5189
  134TCq2    H4 2054   4.171   4.556   9.201 -0.2229 -2.6326 -0.9946
  135MPD2     C 2055   1.796   3.150   8.862  0.4200 -0.0473  0.0480
  135MPD2    C1 2056   1.863   3.070   8.949  0.2629  0.1797 -0.2027
  135MPD2    C2 2057   1.998   3.089   8.955 -0.0670 -0.0974 -0.1915
  135MPD2    C3 2058   2.061   3.187   8.889  0.0876  0.3484 -0.4556
  135MPD2    C4 2059   1.997   3.264   8.799 -0.1262 -1.1159  0.2540
  135MPD2    C5 2060   1.862   3.247   8.792  0.2788 -0.3464 -0.0461
  135MPD2     H 2061   2.048   3.029   9.030  0.8422 -0.2528 -0.9108
  135MPD2    H1 2062   2.051   3.339   8.740  0.0381  0.3976  2.3341
  135MPD2    H2 2063   1.693   3.139   8.828  0.2099  1.1641  0.2856
  135MPD2    H3 2064   1.802   3.300   8.719  0.1395  1.2571  1.2288
  135MPD2     N 2065   2.204   3.189   8.898 -0.5722 -0.0600  0.0322
  135MPD2    H5 2066   2.238   3.253   8.827 -1.0496 -1.1089 -1.1257
  135MPD2    N1 2067   1.807   2.960   9.017 -0.6623  0.3927 -0.1729
  135MPD2    H7 2068   1.859   2.896   9.076 -1.3604  0.7278  0.8272
  136TCq2    C1 2069   1.674   2.930   9.024 -0.0362  0.3739  0.2267
  136TCq2    O2 2070   1.582   2.978   8.956 -0.2015 -0.1160 -0.5590
  136TCq2    C2 2071   1.633   2.823   9.119 -0.1682  0.2602 -0.3790
  136TCq2    C3 2072   1.502   2.812   9.142  0.8601 -0.1417 -0.0928
  136TCq2    C4 2073   1.450   2.692   9.196  0.1861  0.3544  0.0735
  136TCq2    C5 2074   1.532   2.594   9.242  0.0027  0.2732 -0.6648
  136TCq2    C6 2075   1.666   2.615   9.230 -0.7009  0.0201  0.2254
  136TCq2    C7 2076   1.716   2.735   9.175 -0.3084  0.1770 -0.6261
  136TCq2    C8 2077   1.752   2.508   9.265 -0.0274  0.3817 -0.5952
  136TCq2    O4 2078   1.871   2.538   9.258 -0.0664 -0.0468  0.5461
  136TCq2    C9 2079   1.306   2.681   9.214 -0.0800 -0.3683 -0.0631
  136TCq2    O5 2080   1.245   2.782   9.170 -0.0328  0.3799 -0.1449
  136TCq2    O6 2081   1.270   2.571   9.272 -1.0144  0.1841  0.4813
  136TCq2    H2 2082   1.432   2.881   9.096  2.0485  1.5980  0.6716
  136TCq2    H3 2083   1.489   2.505   9.288  2.2207 -0.5766 -0.2044
  136TCq2    H4 2084   1.824   2.745   9.172 -0.5661  3.4669  1.3754
  137MPD2     C 2085   1.134   0.185  10.193  0.0065  0.0555 -0.1813
  137MPD2    C1 2086   1.115   0.258  10.083  0.0806  0.1318  0.7416
  137MPD2    C2 2087   1.137   0.395  10.086  1.0215 -0.3565 -0.7552
  137MPD2    C3 2088   1.186   0.459  10.198  0.7694 -0.2294 -0.7328
  137MPD2    C4 2089   1.208   0.382  10.308  0.1229  0.5423 -0.1161
  137MPD2    C5 2090   1.180   0.247  10.308  0.2756  0.3819 -0.2196
  137MPD2     H 2091   1.118   0.451   9.995  2.1850  0.0108 -0.7774
  137MPD2    H1 2092   1.250   0.423  10.399 -0.0958  0.0774  0.1973
  137MPD2    H2 2093   1.103   0.082  10.208  0.2584 -0.0194 -0.1619
  137MPD2    H3 2094   1.186   0.193  10.402 -2.2376  0.2601 -0.1402
  137MPD2     N 2095   1.214   0.594  10.194  0.1410  0.0568 -0.1472
  137MPD2    H5 2096   1.227   0.639  10.104  1.8644  1.8875  1.0046
  137MPD2    N1 2097   1.072   0.192   9.968 -0.1148  0.0593  0.0121
  137MPD2    H7 2098   1.048   0.094   9.985  0.1732  0.1027  0.6942
  138TCq2    C1 2099   1.080   0.240   9.837  0.0346 -0.2538  0.7040
  138TCq2    O2 2100   1.109   0.348   9.785 -0.4801 -0.0115 -0.4565
  138TCq2    C2 2101   1.012   0.146   9.749 -0.3610  0.6100 -0.5950
  138TCq2    C3 2102   0.952   0.035   9.801 -1.2431 -0.2591  0.0403
  138TCq2    C4 2103   0.880   4.672   9.718  0.1040  0.2535  0.1254
  138TCq2    C5 2104   0.886   4.698   9.582  0.0794  0.1169 -0.0404
  138TCq2    C6 2105   0.939   0.089   9.533  0.4819  0.0225 -0.3659
  138TCq2    C7 2106   1.013   0.179   9.616 -0.6518  0.6279 -0.0383
  138TCq2    C8 2107   0.940   0.126   9.393 -0.1934 -0.2100  0.2452
  138TCq2    O4 2108   0.910   0.033   9.325 -0.5145 -0.5367  0.0481
  138TCq2    C9 2109   0.816   4.555   9.767 -0.4706 -0.3314  0.3572
  138TCq2    O5 2110   0.851   4.503   9.875  0.3002 -0.2110  0.1196
  138TCq2    O6 2111   0.743   4.499   9.683 -0.2747  0.0271  0.1227
  138TCq2    H2 2112   0.944   0.024   9.909 -0.7289 -0.5592  0.0500
  138TCq2    H3 2113   0.836   4.630   9.514 -0.2653 -0.1876  0.5169
  138TCq2    H4 2114   1.075   0.261   9.581 -0.3321  0.5326  0.3027
  139TMC2    C1 2115   1.435   4.488  13.023  0.1345  0.1909 -0.3174
  139TMC2    C2 2116   1.415   4.512  12.887 -0.3238  0.4325  0.4257
  139TMC2    C3 2117   1.332   4.618  12.861  0.0837 -0.1119 -0.5153
  139TMC2    C4 2118   1.400   4.580  13.123 -0.5340 -0.0579 -0.3480
  139TMC2    C5 2119   1.322   4.692  13.081  0.1368  0.0283 -0.9541
  139TMC2    C6 2120   1.286   4.708  12.953  0.3951 -0.2377 -0.3469
  139TMC2     C 2121   1.465   4.349  13.048 -0.3187  0.1505  0.2624
  139TMC2     O 2122   1.533   4.292  12.967  0.2223  0.7304 -0.1131
  139TMC2     H 2123   1.447   4.453  12.802 -3.6380 -0.2360 -0.3477
  139TMC2    H1 2124   1.412   4.568  13.231 -1.6323 -0.0947 -0.2285
  139TMC2    H2 2125   1.242   0.081  12.927 -2.1143 -0.9333  1.3474
  139TMC2    C7 2126   1.265   0.071  13.175  0.4176 -0.1965  0.1988
  139TMC2    C8 2127   1.323   4.663  12.724  0.3490  0.3166  0.0566
  139TMC2    O1 2128   1.160   0.121  13.139  0.1548  0.1394 -0.1121
  139TMC2    O2 2129   1.231   0.004  12.678  0.5601 -0.2257  0.2647
  139TMC2    O5 2130   1.445   4.659  12.683 -0.2188 -0.5382  0.3099
  139TMC2    H5 2131   1.509   4.651  12.756  2.0271  1.4553 -1.4372
  140MPD2     C 2132   1.303   4.149  13.299 -0.1435  0.0456  0.5354
  140MPD2    C1 2133   1.388   4.163  13.195  0.9688 -0.7605  0.0482
  140MPD2    C2 2134   1.443   4.052  13.119  0.2419  0.3948  0.0246
  140MPD2    C3 2135   1.429   3.928  13.175  0.0330  0.4699  0.8564
  140MPD2    C4 2136   1.350   3.913  13.288 -0.1273  0.5072 -0.1774
  140MPD2    C5 2137   1.290   4.021  13.342  0.0881  1.0790 -0.7229
  140MPD2     H 2138   1.498   4.070  13.027  1.5793  0.7290  0.8907
  140MPD2    H1 2139   1.327   3.824  13.345  0.0502  1.0211  0.6896
  140MPD2    H2 2140   1.248   4.231  13.344  4.0658  3.1875 -0.0338
  140MPD2    H3 2141   1.229   3.997  13.428 -1.2558  2.8335 -1.2017
  140MPD2     N 2142   1.498   3.817  13.121 -0.1783  0.1095  0.9652
  140MPD2    H5 2143   1.575   3.834  13.057 -1.1245  0.9679  0.0649
  140MPD2    N1 2144   1.392   4.297  13.150  0.0265 -0.3591  0.2738
  140MPD2    H7 2145   1.316   4.351  13.191  0.2118 -0.0507  0.2028
  141TCq2    C1 2146   1.805   1.244  14.041 -0.4087 -0.2136 -0.2539
  141TCq2    O2 2147   1.862   1.207  13.938  0.2213  0.2598 -0.2772
  141TCq2    C2 2148   1.807   1.384  14.062  0.0109 -0.8263  0.1176
  141TCq2    C3 2149   1.715   1.450  14.137  0.1365  0.4990 -0.4906
  141TCq2    C4 2150   1.746   1.578  14.189  0.0897 -0.2544 -0.5366
  141TCq2    C5 2151   1.867   1.641  14.161 -0.5046  0.2109  0.1341
  141TCq2    C6 2152   1.951   1.578  14.068 -0.1932  0.3387  0.0989
  141TCq2    C7 2153   1.923   1.447  14.034  0.0183 -0.6482  0.2252
  141TCq2    C8 2154   2.090   1.615  14.085 -0.0327  0.5496 -0.2220
  141TCq2    O4 2155   2.136   1.618  14.198 -0.1190  0.6536  0.6558
  141TCq2    C9 2156   1.656   1.635  14.285  0.3254  0.3923 -0.3724
  141TCq2    O5 2157   1.535   1.604  14.280 -0.4738 -0.2144  0.3559
  141TCq2    O6 2158   1.708   1.705  14.373 -0.2461  0.3775  0.7858
  141TCq2    H2 2159   1.614   1.415  14.153  1.3792 -2.2154  1.1893
  141TCq2    H3 2160   1.888   1.733  14.214 -0.0156  0.3273 -0.2542
  141TCq2    H4 2161   2.008   1.398  13.987  1.1943  0.1711  1.4970
  142MPD2     C 2162   0.092   3.783  10.403  0.1133  0.5597 -0.2972
  142MPD2    C1 2163   0.019   3.743  10.295 -0.4667 -0.8549  0.7071
  142MPD2    C2 2164   0.030   3.810  10.176 -0.1063  0.1071 -0.8091
  142MPD2    C3 2165   0.114   3.915  10.159  0.5324 -0.1484 -0.3076
  142MPD2    C4 2166   0.178   3.966  10.270  0.3657 -0.7890 -0.2598
  142MPD2    C5 2167   0.167   3.898  10.394 -0.0588 -0.0676  0.1622
  142MPD2     H 2168   4.705   3.764  10.090  0.7858 -1.4654 -0.4619
  142MPD2    H1 2169   0.251   4.045  10.261 -1.0158  0.7120  1.6411
  142MPD2    H2 2170   0.086   3.731  10.498  3.5791 -3.2972 -2.1711
  142MPD2    H3 2171   0.225   3.933  10.479  1.3879  2.7651 -2.0286
  142MPD2     N 2172   0.140   3.975  10.033  0.5627 -0.0329 -0.7244
  142MPD2    H5 2173   0.204   4.053  10.041  1.5617 -0.9684  0.4040
  142MPD2    N1 2174   4.682   3.618  10.304  0.2080 -0.4912  0.1837
  142MPD2    H7 2175   4.705   3.567  10.388 -2.4970  0.1423  1.3108
  143TCq2    C1 2176   0.092   3.948   9.912 -0.8708 -0.0841  0.3385
  143TCq2    O2 2177   0.006   3.868   9.883  0.6990 -0.5937  0.2755
  143TCq2    C2 2178   0.130   4.028   9.800 -0.4307 -0.8576  0.8523
  143TCq2    C3 2179   0.119   3.963   9.678  0.5512  0.2778  0.0293
  143TCq2    C4 2180   0.175   4.017   9.569 -0.1451 -0.0176  0.6721
  143TCq2    C5 2181   0.235   4.141   9.576  0.2571 -0.4693 -0.8483
  143TCq2    C6 2182   0.247   4.203   9.699  1.0309 -0.2224  1.2643
  143TCq2    C7 2183   0.197   4.146   9.812  0.9307  0.1241  0.3260
  143TCq2    C8 2184   0.296   4.333   9.711 -0.1829 -0.8141  0.6347
  143TCq2    O4 2185   0.348   4.356   9.814 -0.0068  0.6220 -0.2515
  143TCq2    C9 2186   0.149   3.950   9.441 -0.2956 -0.3192  0.2987
  143TCq2    O5 2187   0.197   4.020   9.344  0.6173  0.7171 -0.7003
  143TCq2    O6 2188   0.052   3.872   9.435 -0.0764 -0.1233  0.1236
  143TCq2    H2 2189   0.058   3.874   9.666 -0.7479  1.5264 -2.6439
  143TCq2    H3 2190   0.277   4.193   9.490  3.7344  1.1623  1.8268
  143TCq2    H4 2191   0.217   4.171   9.916  0.3604 -1.7490  0.8992
  144MPD2     C 2192   2.159   2.944   1.033  0.0185  0.7933 -0.1310
  144MPD2    C1 2193   2.190   2.924   0.900  0.2023 -1.0762 -0.5055
  144MPD2    C2 2194   2.322   2.894   0.863 -0.6051 -0.0314  0.0977
  144MPD2    C3 2195   2.421   2.901   0.960  0.6464  0.3127 -0.0644
  144MPD2    C4 2196   2.382   2.918   1.087  0.0169  0.3706 -0.4506
  144MPD2    C5 2197   2.253   2.944   1.127 -0.0202 -0.8457 -0.4122
  144MPD2     H 2198   2.344   2.876   0.759 -0.7689 -1.1169  0.2507
  144MPD2    H1 2199   2.457   2.927   1.165  0.0222 -0.8108 -0.3178
  144MPD2    H2 2200   2.059   2.968   1.066 -0.4064  0.1880 -0.9695
  144MPD2    H3 2201   2.227   2.956   1.232 -0.0210 -0.2670 -0.4815
  144MPD2     N 2202   2.554   2.879   0.931  0.1668  0.2782  0.1163
  144MPD2    H5 2203   2.613   2.875   1.014  2.0252  0.1481 -1.2180
  144MPD2    N1 2204   2.091   2.940   0.796 -0.1495  0.2085 -0.0183
  144MPD2    H7 2205   2.118   2.913   0.702  2.3899  1.6484  0.3016
  145TCq2    C1 2206   2.605   2.844   0.807  0.0815  0.3136 -0.2221
  145TCq2    O2 2207   2.557   2.823   0.697  0.4115 -0.5436  0.3888
  145TCq2    C2 2208   2.753   2.844   0.805  0.5061 -0.3846 -0.4089
  145TCq2    C3 2209   2.804   2.751   0.721  0.0569  0.0056 -0.3056
  145TCq2    C4 2210   2.934   2.712   0.741  0.0280 -0.6668  0.4908
  145TCq2    C5 2211   3.002   2.746   0.851 -0.3673 -0.0372  0.0286
  145TCq2    C6 2212   2.948   2.832   0.937 -0.0121  0.1145 -0.4739
  145TCq2    C7 2213   2.829   2.893   0.913 -0.6677 -0.0457  0.3088
  145TCq2    C8 2214   3.038   2.874   1.046 -0.1548 -0.3649 -0.6261
  145TCq2    O4 2215   3.159   2.876   1.045 -0.2706 -0.7297 -0.2180
  145TCq2    C9 2216   2.995   2.615   0.650  0.1816 -0.5814 -1.0084
  145TCq2    O5 2217   2.927   2.604   0.549 -0.7451  0.2489  0.4250
  145TCq2    O6 2218   3.109   2.569   0.675 -0.0803  0.3555  0.0045
  145TCq2    H2 2219   2.752   2.718   0.632 -1.6693  1.0635  0.3032
  145TCq2    H3 2220   3.107   2.720   0.851 -0.0946  1.1010  1.8987
  145TCq2    H4 2221   2.791   2.960   0.989  1.0767 -1.1509  2.1504
  146TMC2    C1 2222   3.587   2.216  13.009  0.5025  0.2162 -0.3841
  146TMC2    C2 2223   3.491   2.304  12.967 -0.1635  0.0881 -0.1081
  146TMC2    C3 2224   3.455   2.300  12.834  0.8211 -0.0875  0.3678
  146TMC2    C4 2225   3.646   2.130  12.916  0.1069 -0.1550  0.4639
  146TMC2    C5 2226   3.604   2.134  12.787 -0.7574 -0.0443 -0.6247
  146TMC2    C6 2227   3.512   2.229  12.740  0.7118  0.0321  0.4953
  146TMC2     C 2228   3.599   2.189  13.155  0.2671  0.3947 -0.3263
  146TMC2     O 2229   3.519   2.239  13.232 -0.4613 -0.3319  0.7935
  146TMC2     H 2230   3.441   2.368  13.039 -0.7098  1.3095 -1.5698
  146TMC2    H1 2231   3.719   2.057  12.949 -0.8090 -1.5695 -0.5946
  146TMC2    H2 2232   3.462   2.214  12.645  1.8318 -1.9241  0.2295
  146TMC2    C7 2233   3.665   2.049  12.683 -0.3298 -0.9166  0.4520
  146TMC2    C8 2234   3.364   2.402  12.783  1.1269 -0.3692 -0.9779
  146TMC2    O1 2235   3.601   2.045  12.577  0.6149  0.0001  0.1382
  146TMC2    O2 2236   3.278   2.445  12.857 -0.2135 -0.5472 -0.3286
  146TMC2    O5 2237   3.463   2.477  12.730  0.3512  0.2065 -0.1046
  146TMC2    H5 2238   3.547   2.434  12.701  1.5404  1.0698  2.0444
  147MPD2     C 2239   4.066   1.808  12.450  1.0349  0.8764 -0.4525
  147MPD2    C1 2240   4.093   1.815  12.589  0.0837 -0.2085 -0.1265
  147MPD2    C2 2241   4.008   1.892  12.675 -0.1040  0.5173 -0.0811
  147MPD2    C3 2242   3.884   1.932  12.632  0.1808  0.1147  0.2825
  147MPD2    C4 2243   3.862   1.923  12.501 -0.4195 -0.2906  0.2074
  147MPD2    C5 2244   3.947   1.861  12.413 -0.2964 -0.0445  0.1533
  147MPD2     H 2245   4.028   1.900  12.781  0.5178 -2.9016  0.0543
  147MPD2    H1 2246   3.766   1.950  12.460  0.0602 -0.6158 -1.1284
  147MPD2    H2 2247   4.127   1.753  12.379  0.4782  0.6494 -0.7515
  147MPD2    H3 2248   3.922   1.863  12.307 -0.8842 -4.0807  0.2109
  147MPD2     N 2249   3.791   1.992  12.717 -0.1765 -0.0848 -0.2342
  147MPD2    H5 2250   3.825   2.019  12.809 -1.7797 -1.5031  0.7942
  147MPD2    N1 2251   4.207   1.746  12.640 -0.7643 -0.3225  0.6761
  147MPD2    H7 2252   4.270   1.705  12.571  0.5381  2.7585  0.0380
  148MPD2     C 2253   4.438   0.180  10.845  0.1239 -0.5122  0.3384
  148MPD2    C1 2254   4.454   0.228  10.713  0.2747  0.3131  0.1017
  148MPD2    C2 2255   4.375   0.161  10.624  0.8915 -0.9314 -0.5384
  148MPD2    C3 2256   4.281   0.070  10.659  0.1652  0.4732 -0.0648
  148MPD2    C4 2257   4.273   0.033  10.792  0.5594  0.0165 -0.3678
  148MPD2    C5 2258   4.340   0.095  10.890  0.2428 -0.0867 -0.3324
  148MPD2     H 2259   4.383   0.201  10.523  1.6286 -0.3295 -0.2471
  148MPD2    H1 2260   4.207   4.679  10.828  1.9008 -1.3105 -0.7426
  148MPD2    H2 2261   4.510   0.216  10.918 -0.5018  1.8241 -0.1826
  148MPD2    H3 2262   4.334   0.057  10.991 -1.0823 -0.6349 -0.6159
  148MPD2     N 2263   4.193   0.004  10.577  0.0875  0.0039 -0.1479
  148MPD2    H5 2264   4.129   4.661  10.620  0.9379  0.0440  1.1685
  148MPD2    N1 2265   4.547   0.325  10.676 -0.0544 -0.0847  0.9916
  148MPD2    H7 2266   4.570   0.341  10.578  0.7438  0.5550  1.2859
  149TCq2    C1 2267   4.599   0.431  10.755  0.1966  0.1552 -0.0863
  149TCq2    O2 2268   4.551   0.464  10.858  1.0035  0.2025  0.2748
  149TCq2    C2 2269   4.689   0.517  10.684 -0.1458 -0.3923 -0.0512
  149TCq2    C3 2270   4.670   0.647  10.696 -0.2146 -0.3120  0.5229
  149TCq2    C4 2271   0.003   0.738  10.606 -0.4445 -0.0317 -0.2876
  149TCq2    C5 2272   0.048   0.696  10.481  0.0833 -0.5999 -0.5802
  149TCq2    C6 2273   0.066   0.558  10.476 -0.5463 -0.2532 -0.0249
  149TCq2    C7 2274   0.033   0.471  10.576 -0.9541 -0.0964  0.5863
  149TCq2    C8 2275   0.077   0.494  10.345  0.4706 -0.5384 -0.6802
  149TCq2    O4 2276   0.111   0.381  10.345 -0.2588 -0.3303 -0.3017
  149TCq2    C9 2277   4.669   0.870  10.607 -0.2290  1.0655 -0.1774
  149TCq2    O5 2278   4.562   0.885  10.672 -0.7235  0.6150 -0.2110
  149TCq2    O6 2279   4.720   0.947  10.517 -0.0884  0.4287 -0.0419
  149TCq2    H2 2280   4.618   0.683  10.784 -2.5086  4.2108 -2.6154
  149TCq2    H3 2281   0.056   0.757  10.392  4.6051  0.5106  0.6205
  149TCq2    H4 2282   0.035   0.366  10.549 -0.7299  0.4104 -1.3499
  150MPD2     C 2283   1.206   4.430  11.837 -0.7010  0.4862 -0.9526
  150MPD2    C1 2284   1.147   4.555  11.835 -0.6522 -0.1487 -0.3997
  150MPD2    C2 2285   1.215   4.661  11.891 -0.5121  0.2534  0.1876
  150MPD2    C3 2286   1.345   4.643  11.931  0.1101  0.6168 -0.1116
  150MPD2    C4 2287   1.394   4.516  11.962 -0.5420 -0.5080 -0.1255
  150MPD2    C5 2288   1.329   4.413  11.904 -0.6394  0.4096 -0.4847
  150MPD2     H 2289   1.181   0.041  11.881  0.6119  0.4173 -1.9540
  150MPD2    H1 2290   1.487   4.503  12.016  1.0346  2.1268 -2.2031
  150MPD2    H2 2291   1.152   4.349  11.790  0.7780 -1.4613  0.7493
  150MPD2    H3 2292   1.370   4.315  11.924  0.3805  1.3687  2.1140
  150MPD2     N 2293   1.411   0.036  11.972  0.3800 -0.0649 -0.3261
  150MPD2    H5 2294   1.369   0.127  11.956  1.0662  0.4035  0.5087
  150MPD2    N1 2295   1.012   4.564  11.782 -0.0339  0.1497  0.3235
  150MPD2    H7 2296   0.980   4.479  11.737 -1.6517 -0.3128  2.3549
  151TCq2    C1 2297   1.537   0.058  12.021 -0.9225 -0.3100  0.0671
  151TCq2    O2 2298   1.620   4.690  12.032  0.1441  0.3273 -0.1921
  151TCq2    C2 2299   1.562   0.199  12.048 -0.0874 -0.5420  0.4234
  151TCq2    C3 2300   1.503   0.292  11.968 -0.6216 -0.5200  0.5762
  151TCq2    C4 2301   1.537   0.419  11.988  0.0245  0.3638 -0.5819
  151TCq2    C5 2302   1.645   0.459  12.054 -0.5876 -0.2646 -0.8307
  151TCq2    C6 2303   1.718   0.357  12.121 -0.7281 -0.4926 -0.2057
  151TCq2    C7 2304   1.678   0.226  12.119  0.3445 -0.5291  0.8772
  151TCq2    C8 2305   1.848   0.396  12.178 -0.1574 -0.6922  0.5658
  151TCq2    O4 2306   1.875   0.513  12.199  0.0961 -0.3285 -0.3587
  151TCq2    C9 2307   1.462   0.521  11.926  0.4128  0.0764  0.0489
  151TCq2    O5 2308   1.432   0.630  11.988  0.9553 -0.0659  0.0082
  151TCq2    O6 2309   1.417   0.495  11.815  0.2455 -0.4943 -0.4703
  151TCq2    H2 2310   1.419   0.277  11.901 -0.9979  3.5891  0.1588
  151TCq2    H3 2311   1.679   0.562  12.058 -0.1567 -0.3848 -1.5359
  151TCq2    H4 2312   1.729   0.146  12.170  1.5115 -0.0453  0.4564
  152MPD2     C 2313   0.886   4.208  11.927 -0.2700  0.3565  0.2710
  152MPD2    C1 2314   0.865   4.332  11.975  0.3073 -0.5963 -0.2465
  152MPD2    C2 2315   0.742   4.404  11.968 -0.7332 -0.3703  0.9573
  152MPD2    C3 2316   0.633   4.343  11.916 -0.1292  0.0235 -0.5258
  152MPD2    C4 2317   0.652   4.217  11.866  0.2856  0.2777  0.7497
  152MPD2    C5 2318   0.769   4.148  11.878 -0.3899 -0.2095  0.1490
  152MPD2     H 2319   0.727   4.495  12.024 -0.9598  0.4491 -0.4521
  152MPD2    H1 2320   0.576   4.150  11.829 -1.2715  2.0388  0.7714
  152MPD2    H2 2321   0.979   4.153  11.923  0.9097  2.0834  3.4117
  152MPD2    H3 2322   0.765   4.046  11.842 -0.3778 -0.2626  0.2978
  152MPD2     N 2323   0.519   4.417  11.893 -0.2868 -0.2590  0.2070
  152MPD2    H5 2324   0.515   4.514  11.923  1.7118  1.1234 -3.9709
  152MPD2    N1 2325   0.965   4.379  12.065 -0.8189 -0.0135 -0.2963
  152MPD2    H7 2326   1.038   4.316  12.098 -0.9493  0.5080  0.9735
  153TCq2    C1 2327   0.979   4.509  12.118  0.3284 -1.0494 -0.1891
  153TCq2    O2 2328   0.910   4.601  12.081 -0.1519 -1.0135 -0.9104
  153TCq2    C2 2329   1.085   4.523  12.215 -0.0456  0.5311 -0.0501
  153TCq2    C3 2330   1.125   4.422  12.299 -0.7392  0.1423  0.4111
  153TCq2    C4 2331   1.225   4.442  12.383 -0.3403  0.3293 -0.1613
  153TCq2    C5 2332   1.294   4.561  12.386  0.2836  0.7102 -0.1680
  153TCq2    C6 2333   1.255   4.662  12.299  0.3025  0.2283  0.2171
  153TCq2    C7 2334   1.150   4.642  12.220  0.4926 -0.0865 -0.0681
  153TCq2    C8 2335   1.308   0.071  12.314 -0.2569 -0.0151 -0.0104
  153TCq2    O4 2336   1.247   0.152  12.244 -0.4909 -0.3398 -0.0695
  153TCq2    C9 2337   1.246   4.335  12.487 -0.1188 -0.1643  0.7919
  153TCq2    O5 2338   1.352   4.338  12.553 -0.1973  1.0367  0.0815
  153TCq2    O6 2339   1.160   4.245  12.494 -0.0471  0.2904 -0.0904
  153TCq2    H2 2340   1.076   4.326  12.315 -0.2480 -0.2587 -0.4781
  153TCq2    H3 2341   1.375   4.581  12.455 -1.2010 -0.0695  1.8329
  153TCq2    H4 2342   1.113   4.716  12.150  0.7044  1.6391  1.6514
  154MPD2     C 2343   2.288   4.516   0.399  0.1243  0.2470  0.5311
  154MPD2    C1 2344   2.291   4.402   0.474 -0.2090  0.1737 -0.1627
  154MPD2    C2 2345   2.241   4.397   0.599  0.0697  0.1134  0.6781
  154MPD2    C3 2346   2.185   4.510   0.655  0.2197 -0.8014 -0.8144
  154MPD2    C4 2347   2.186   4.630   0.579  0.4695 -1.0098  0.5302
  154MPD2    C5 2348   2.246   4.631   0.454  0.0112 -0.5842  0.0971
  154MPD2     H 2349   2.241   4.305   0.656  0.8937  0.5423  1.3652
  154MPD2    H1 2350   2.132   4.719   0.610 -1.6682 -2.0385 -0.2453
  154MPD2    H2 2351   2.321   4.523   0.296 -2.2997  1.8964 -0.1133
  154MPD2    H3 2352   2.240   4.715   0.385 -1.4358 -0.4947  0.3189
  154MPD2     N 2353   2.135   4.508   0.788  0.0204  0.3145 -0.2304
  154MPD2    H5 2354   2.156   4.431   0.851  0.2506  1.8234  1.5261
  154MPD2    N1 2355   2.367   4.295   0.414 -0.4008 -0.3500  0.2331
  154MPD2    H7 2356   2.392   4.311   0.317  1.2209  1.6434  0.9566
  155TCq2    C1 2357   2.424   4.189   0.475 -0.1712  0.3453 -0.8431
  155TCq2    O2 2358   2.420   4.156   0.593  0.0019  0.2134 -0.3005
  155TCq2    C2 2359   2.500   4.100   0.384  0.0599  0.0629 -0.3791
  155TCq2    C3 2360   2.528   3.973   0.424  0.2753 -0.4685  0.1165
  155TCq2    C4 2361   2.579   3.888   0.329 -0.4997  0.5046 -0.2673
  155TCq2    C5 2362   2.594   3.927   0.199  0.3840 -0.3980  0.3489
  155TCq2    C6 2363   2.567   4.057   0.159  0.1688 -0.2232 -0.1796
  155TCq2    C7 2364   2.527   4.142   0.255 -0.5481  0.5116  0.0469
  155TCq2    C8 2365   2.634   4.106   0.039 -0.4723 -0.2477 -1.1217
  155TCq2    O4 2366   2.686   4.021  17.663  0.1306 -0.1796  0.4857
  155TCq2    C9 2367   2.613   3.753   0.360 -0.7751  0.4124 -0.0457
  155TCq2    O5 2368   2.673   3.688   0.273 -1.0990  0.0543  0.1758
  155TCq2    O6 2369   2.608   3.727   0.484 -0.4833 -0.1580  0.1937
  155TCq2    H2 2370   2.502   3.940   0.524  0.2163  0.2899  0.3526
  155TCq2    H3 2371   2.624   3.846   0.132  3.8473  0.3963  0.9006
  155TCq2    H4 2372   2.502   4.244   0.228  0.1105  0.1854 -1.8246
  156MPD2     C 2373   1.239   1.555  12.139  0.3906 -0.3129 -0.8413
  156MPD2    C1 2374   1.213   1.633  12.027  0.3512 -0.1611  0.2642
  156MPD2    C2 2375   1.108   1.718  12.041 -0.7059  0.2469  0.2498
  156MPD2    C3 2376   1.036   1.731  12.159 -0.0366 -0.8834  0.3126
  156MPD2    C4 2377   1.065   1.649  12.270  0.2010  0.4993 -0.5664
  156MPD2    C5 2378   1.171   1.568  12.258 -0.2163  0.0960 -0.0003
  156MPD2     H 2379   1.082   1.790  11.964  0.9542 -1.5493 -1.9937
  156MPD2    H1 2380   0.997   1.647  12.355  0.5102  0.1196 -0.3279
  156MPD2    H2 2381   1.314   1.478  12.130  2.1386  1.3428 -0.4969
  156MPD2    H3 2382   1.188   1.496  12.337  0.5760  0.4404  0.1397
  156MPD2     N 2383   0.920   1.818  12.159  0.3573 -0.2114  0.0337
  156MPD2    H5 2384   0.908   1.878  12.078 -1.2153  0.6285  0.8700
  156MPD2    N1 2385   1.294   1.632  11.914 -0.0393 -0.4575  0.3981
  156MPD2    H7 2386   1.384   1.584  11.922  1.1262  1.2230 -2.8738
  157TCq2    C1 2387   1.253   1.694  11.790  0.0699 -0.6155 -0.4604
  157TCq2    O2 2388   1.147   1.744  11.754  0.0339  0.0059 -0.0785
  157TCq2    C2 2389   1.353   1.683  11.683 -0.2988  0.1298 -0.0042
  157TCq2    C3 2390   1.428   1.573  11.683  0.0626  0.1660  0.0255
  157TCq2    C4 2391   1.499   1.542  11.569 -0.2479  0.7482  0.2528
  157TCq2    C5 2392   1.486   1.623  11.456 -0.1008 -0.1962  0.1595
  157TCq2    C6 2393   1.410   1.737  11.461 -0.1241 -0.0061  0.6832
  157TCq2    C7 2394   1.347   1.765  11.578 -0.5351 -0.5281 -0.4660
  157TCq2    C8 2395   1.371   1.808  11.338 -0.5643  0.4820 -0.6379
  157TCq2    O4 2396   1.298   1.904  11.357  0.2742  0.7085  0.1859
  157TCq2    C9 2397   1.558   1.415  11.553 -0.5056 -0.1486  0.4203
  157TCq2    O5 2398   1.606   1.380  11.443 -0.5451  0.1220 -0.3778
  157TCq2    O6 2399   1.566   1.345  11.658  0.4318  0.2066 -0.2020
  157TCq2    H2 2400   1.425   1.501  11.764  0.4582 -0.9770 -0.9858
  157TCq2    H3 2401   1.526   1.587  11.362 -1.3826 -0.1484 -0.4070
  157TCq2    H4 2402   1.279   1.849  11.575  0.5479  0.2807 -2.6108
  158TMC2    C1 2403   1.491   0.943  13.853  0.1322 -0.1843  0.2828
  158TMC2    C2 2404   1.533   1.072  13.854  0.4557 -0.3847  0.3822
  158TMC2    C3 2405   1.460   1.158  13.925  0.2808  0.3480 -0.0899
  158TMC2    C4 2406   1.374   0.902  13.909  0.0609  0.2079  0.1556
  158TMC2    C5 2407   1.298   0.997  13.977 -0.5767  0.2843  0.7355
  158TMC2    C6 2408   1.343   1.125  13.996 -0.2322  0.8465  0.3153
  158TMC2     C 2409   1.583   0.845  13.788  0.2072 -0.5059  0.0569
  158TMC2     O 2410   1.675   0.891  13.717 -0.0582  0.9746 -0.3880
  158TMC2     H 2411   1.624   1.101  13.804  0.9017 -0.3570  1.2113
  158TMC2    H1 2412   1.345   0.798  13.922 -0.5275  0.0593 -2.3191
  158TMC2    H2 2413   1.286   1.193  14.060 -0.7568 -0.0752  0.8289
  158TMC2    C7 2414   1.183   0.953  14.050  0.7933 -0.4189 -0.8737
  158TMC2    C8 2415   1.483   1.305  13.892  0.3506  0.1360  0.2616
  158TMC2    O1 2416   1.152   1.001  14.156 -0.6164 -0.0660 -0.8580
  158TMC2    O2 2417   1.440   1.396  13.968  0.0880 -0.1960 -0.3901
  158TMC2    O5 2418   1.509   1.320  13.763 -0.1010 -0.1803  0.3311
  158TMC2    H5 2419   1.502   1.238  13.709 -0.5852  1.2026 -1.6916
  159MPD2     C 2420   1.694   0.350  13.703  0.0200  0.3172 -0.4628
  159MPD2    C1 2421   1.631   0.364  13.828  0.1865 -0.4962  0.0788
  159MPD2    C2 2422   1.594   0.488  13.866  0.0908 -0.7245  0.4806
  159MPD2    C3 2423   1.615   0.595  13.782  0.2496  0.1373 -0.0510
  159MPD2    C4 2424   1.686   0.584  13.665  0.4072  0.1668  0.3579
  159MPD2    C5 2425   1.716   0.459  13.623  1.2281  0.3426 -0.4874
  159MPD2     H 2426   1.536   0.506  13.956  1.3519  2.3860  0.6772
  159MPD2    H1 2427   1.708   0.668  13.600 -1.3211 -0.5620 -1.1766
  159MPD2    H2 2428   1.717   0.255  13.658  1.1890  1.1345 -1.5711
  159MPD2    H3 2429   1.764   0.457  13.526 -2.4835 -0.4233 -2.3204
  159MPD2     N 2430   1.568   0.717  13.836  0.4582  1.2533 -0.0110
  159MPD2    H5 2431   1.504   0.705  13.913 -2.6910  0.1579 -2.7954
  159MPD2    N1 2432   1.617   0.239  13.894  0.3579  0.4018 -0.0917
  159MPD2    H7 2433   1.647   0.152  13.853 -0.2288  0.1937 -0.0777
  160TMC2    C1 2434   0.624   4.063   1.881 -0.4282  0.7618 -0.2003
  160TMC2    C2 2435   0.700   4.031   1.990  0.4632  0.2535 -0.5716
  160TMC2    C3 2436   0.832   4.036   1.958 -0.2705  0.3811  0.4816
  160TMC2    C4 2437   0.674   4.059   1.757 -0.8865 -0.6268 -0.5005
  160TMC2    C5 2438   0.804   4.042   1.731  0.0991 -0.4906 -0.2011
  160TMC2    C6 2439   0.891   4.039   1.838  0.2918 -0.4742  0.1605
  160TMC2     C 2440   0.478   4.066   1.900  0.3646  0.4272  0.2007
  160TMC2     O 2441   0.444   4.060   2.018 -0.2519 -0.5166  0.2271
  160TMC2     H 2442   0.667   4.044   2.093 -1.5066  0.4594 -1.2153
  160TMC2    H1 2443   0.609   4.061   1.670  0.5743  0.6767 -1.5479
  160TMC2    H2 2444   0.997   4.047   1.821 -0.0819  1.4952 -1.3669
  160TMC2    C7 2445   0.848   4.090   1.600  1.0365 -0.5119 -0.3345
  160TMC2    C8 2446   0.924   3.985   2.058 -0.2426 -1.0849  0.3617
  160TMC2    O1 2447   0.779   4.168   1.534  0.2913  0.1862 -0.3318
  160TMC2    O2 2448   0.901   4.014   2.175  0.3178  0.3031 -0.2511
  160TMC2    O5 2449   0.962   3.868   2.007 -0.0554  0.2671 -0.9607
  160TMC2    H5 2450   0.975   3.863   1.910  0.8837  0.0416 -0.8201
  161MPD2     C 2451   0.187   4.109   1.880 -0.6423 -0.3951  0.6504
  161MPD2    C1 2452   0.273   4.101   1.772  0.5558  0.0008  0.0021
  161MPD2    C2 2453   0.222   4.135   1.645  0.1705 -0.5057  0.2540
  161MPD2    C3 2454   0.087   4.175   1.624 -0.1822 -0.4206 -0.1979
  161MPD2    C4 2455   0.002   4.175   1.736 -0.4811 -0.0937  0.6294
  161MPD2    C5 2456   0.056   4.138   1.861 -0.0917  0.7127 -0.7815
  161MPD2     H 2457   0.288   4.124   1.559 -2.4662 -0.1246 -1.8385
  161MPD2    H1 2458   4.621   4.201   1.732 -0.2523  0.7663  0.3613
  161MPD2    H2 2459   0.219   4.077   1.978 -0.0322 -1.4169  0.1180
  161MPD2    H3 2460   4.721   4.147   1.952  2.6289 -0.7774  1.0918
  161MPD2     N 2461   0.033   4.209   1.497 -0.5129 -0.0680  0.4035
  161MPD2    H5 2462   4.666   4.254   1.484 -1.2779 -1.9080 -0.6887
  161MPD2    N1 2463   0.410   4.084   1.782 -0.4137 -0.1746  0.2207
  161MPD2    H7 2464   0.464   4.092   1.696 -0.5865 -2.1639 -0.0711
  162TMC2    C1 2465   3.051   1.174   0.987 -0.2450  0.4324 -0.6948
  162TMC2    C2 2466   2.990   1.296   0.987 -0.4463  0.9343 -0.0372
  162TMC2    C3 2467   2.905   1.305   1.093  0.3596  0.5048  0.4730
  162TMC2    C4 2468   3.035   1.080   1.081  0.1892  0.2686 -0.0141
  162TMC2    C5 2469   2.947   1.091   1.181 -0.0304 -0.2680  0.0920
  162TMC2    C6 2470   2.878   1.212   1.191 -0.5630 -0.7115  0.3169
  162TMC2     C 2471   3.113   1.134   0.860 -0.1383 -0.5217  0.5716
  162TMC2     O 2472   3.115   1.011   0.829  0.1365 -0.5502  0.2997
  162TMC2     H 2473   3.007   1.372   0.912  0.4441  1.0393  0.2731
  162TMC2    H1 2474   3.094   0.990   1.065  1.0602  0.9398 -0.5708
  162TMC2    H2 2475   2.817   1.227   1.279  1.0391 -0.5954  1.4224
  162TMC2    C7 2476   2.938   1.002   1.294  0.5254  0.0654  0.1487
  162TMC2    C8 2477   2.843   1.438   1.093  0.8064  0.5460 -0.3453
  162TMC2    O1 2478   2.836   1.010   1.357  0.0866 -0.2488  0.3384
  162TMC2    O2 2479   2.879   1.525   1.017 -0.1724 -0.3776  0.3545
  162TMC2    O5 2480   2.788   1.461   1.222 -0.0109  0.1620  0.1123
  162TMC2    H5 2481   2.759   1.389   1.282  1.1445  0.1179  0.6224
  163MPD2     C 2482   3.369   1.241   0.416 -0.0280 -0.7204 -0.2307
  163MPD2    C1 2483   3.329   1.119   0.468 -0.2646  0.1032 -0.6345
  163MPD2    C2 2484   3.265   1.116   0.592 -0.2954 -0.0691  0.1192
  163MPD2    C3 2485   3.251   1.231   0.669  0.1748  0.9548  0.2878
  163MPD2    C4 2486   3.305   1.345   0.614 -0.1381 -0.0848 -0.7459
  163MPD2    C5 2487   3.356   1.349   0.492  0.1738 -0.1558 -0.1046
  163MPD2     H 2488   3.225   1.021   0.625  0.2717  0.0714  1.2033
  163MPD2    H1 2489   3.308   1.441   0.665  0.3016 -0.9238  0.8104
  163MPD2    H2 2490   3.407   1.256   0.316  0.6015 -1.4034 -0.1030
  163MPD2    H3 2491   3.380   1.448   0.453 -0.2963 -0.4511 -1.1292
  163MPD2     N 2492   3.184   1.236   0.794  0.4501  0.2134  0.1965
  163MPD2    H5 2493   3.182   1.319   0.852  2.0164 -0.4960  1.2597
  163MPD2    N1 2494   3.346   1.006   0.391  0.0301 -0.5174 -0.2061
  163MPD2    H7 2495   3.400   1.024   0.307  0.8025  1.3363  0.6866
  164TCq2    C1 2496   4.601   0.597  11.437  0.2125  0.1221  0.3038
  164TCq2    O2 2497   4.540   0.550  11.530 -0.2793 -0.1929  0.3985
  164TCq2    C2 2498   4.627   0.745  11.444 -0.3739 -0.6597  0.2875
  164TCq2    C3 2499   4.713   0.788  11.354 -0.3665  0.7768  0.0853
  164TCq2    C4 2500   4.708   0.919  11.315 -0.2718  0.0444  0.1122
  164TCq2    C5 2501   4.607   0.997  11.357 -0.6757 -0.3155 -0.1588
  164TCq2    C6 2502   4.515   0.957  11.442  0.0195 -0.5669  0.0955
  164TCq2    C7 2503   4.519   0.829  11.490  0.2204  0.3693  0.0445
  164TCq2    C8 2504   4.383   1.006  11.414 -0.0382  0.4064  0.0848
  164TCq2    O4 2505   4.339   1.003  11.297 -0.0358  0.6488  0.2490
  164TCq2    C9 2506   0.077   0.966  11.216  0.9330 -0.0700 -0.1327
  164TCq2    O5 2507   0.160   0.886  11.163  0.1982 -0.1782  0.3292
  164TCq2    O6 2508   0.083   1.095  11.214  0.1356 -0.3163 -0.2277
  164TCq2    H2 2509   0.083   0.740  11.327 -0.9157  0.0311 -0.4911
  164TCq2    H3 2510   4.606   1.104  11.340  0.1209 -0.0489  1.4460
  164TCq2    H4 2511   4.449   0.781  11.558  1.1031 -1.0624 -0.0389
  165MPD2     C 2512   0.645   3.109   1.178 -0.5121  0.2081  0.6184
  165MPD2    C1 2513   0.740   3.045   1.250  0.7737  0.3886 -0.2664
  165MPD2    C2 2514   0.825   3.110   1.340  0.2860 -0.0151 -0.3723
  165MPD2    C3 2515   0.807   3.244   1.358  0.5789 -0.3204  0.0446
  165MPD2    C4 2516   0.724   3.313   1.271 -0.2218 -0.2934  0.9677
  165MPD2    C5 2517   0.644   3.247   1.177 -0.1912 -0.3527 -0.2611
  165MPD2     H 2518   0.907   3.058   1.387  1.2737 -0.0192 -2.0849
  165MPD2    H1 2519   0.728   3.422   1.273 -1.8874 -0.1864 -1.9827
  165MPD2    H2 2520   0.571   3.053   1.123 -0.6258  0.5619  0.4095
  165MPD2    H3 2521   0.571   3.304   1.120 -0.5338 -0.7798 -0.2480
  165MPD2     N 2522   0.886   3.321   1.442 -0.2095 -0.3180  0.0138
  165MPD2    H5 2523   0.858   3.418   1.445 -0.2425 -0.2179 -3.2486
  165MPD2    N1 2524   0.734   2.902   1.243 -0.1929 -0.3211 -0.6799
  165MPD2    H7 2525   0.688   2.861   1.162  0.6799 -0.9786 -0.8389
  166TCq2    C1 2526   0.987   3.274   1.523 -0.3041  0.2767  0.1122
  166TCq2    O2 2527   1.030   3.161   1.538  0.4846 -0.2071 -0.7157
  166TCq2    C2 2528   1.048   3.375   1.608 -0.9247 -0.7630  0.3814
  166TCq2    C3 2529   0.992   3.500   1.621 -0.0281  0.0611 -0.5448
  166TCq2    C4 2530   1.066   3.602   1.689  0.2784 -0.2325  0.6390
  166TCq2    C5 2531   1.184   3.566   1.748  0.1650 -0.5206  0.5649
  166TCq2    C6 2532   1.236   3.441   1.725 -0.3407  0.1274 -0.1687
  166TCq2    C7 2533   1.172   3.347   1.657  0.5076  1.1229  0.5049
  166TCq2    C8 2534   1.348   3.386   1.798  0.2465 -0.2665  0.5054
  166TCq2    O4 2535   1.382   3.268   1.781 -0.1741  0.0039  0.5088
  166TCq2    C9 2536   1.007   3.730   1.705 -0.5115 -0.0426 -0.6520
  166TCq2    O5 2537   0.883   3.735   1.691  0.6359  0.4921 -0.1514
  166TCq2    O6 2538   1.072   3.819   1.767  1.0283 -0.5674  0.2618
  166TCq2    H2 2539   0.890   3.527   1.596 -0.0455 -0.9596 -1.5676
  166TCq2    H3 2540   1.232   3.642   1.807  2.5637 -1.3280 -0.3480
  166TCq2    H4 2541   1.220   3.252   1.634 -0.3209  0.6714  0.6575
  167TMC2    C1 2542   3.539   0.689  12.603  0.3612 -0.0375  0.1140
  167TMC2    C2 2543   3.494   0.789  12.686 -0.5751  0.0560 -0.0044
  167TMC2    C3 2544   3.500   0.769  12.815  0.5931 -0.0119  0.4481
  167TMC2    C4 2545   3.602   0.573  12.650  0.1032  0.6323  0.1727
  167TMC2    C5 2546   3.606   0.568  12.784 -0.3116 -0.3004 -0.1134
  167TMC2    C6 2547   3.556   0.654  12.873  0.0052  0.3426  0.3532
  167TMC2     C 2548   3.541   0.724  12.460  0.0526 -0.5559  0.4918
  167TMC2     O 2549   3.556   0.843  12.431 -0.1444  0.0759 -0.5996
  167TMC2     H 2550   3.465   0.882  12.637 -1.5067  0.6973  1.7770
  167TMC2    H1 2551   3.633   0.494  12.583  0.3680 -1.4054  2.6858
  167TMC2    H2 2552   3.563   0.641  12.980 -1.8189  1.8660  0.6444
  167TMC2    C7 2553   3.631   0.437  12.848  0.0930  0.3726 -0.0536
  167TMC2    C8 2554   3.435   0.853  12.915  0.2112 -0.2504  0.2729
  167TMC2    O1 2555   3.584   0.404  12.954  1.1290 -0.3452 -0.7388
  167TMC2    O2 2556   3.379   0.790  13.008 -0.2154  0.7955 -0.6114
  167TMC2    O5 2557   3.370   0.957  12.856  0.1824  0.0135  0.3587
  167TMC2    H5 2558   3.434   1.003  12.798 -0.9750  0.9176 -0.1992
  168MPD2     C 2559   3.570   0.718  12.169 -0.1283 -0.4920 -0.1784
  168MPD2    C1 2560   3.534   0.606  12.239  0.1633  0.6675  0.0724
  168MPD2    C2 2561   3.506   0.487  12.170 -0.7961 -0.6979 -0.2359
  168MPD2    C3 2562   3.509   0.495  12.029  0.2099 -0.1559 -0.5236
  168MPD2    C4 2563   3.543   0.609  11.957 -0.3892 -0.0977 -0.2625
  168MPD2    C5 2564   3.573   0.717  12.033  0.2714  0.3368  0.2676
  168MPD2     H 2565   3.464   0.397  12.214  0.2469  0.2855  2.7646
  168MPD2    H1 2566   3.562   0.612  11.851  0.9216 -1.6192 -0.0741
  168MPD2    H2 2567   3.601   0.812  12.213 -0.2498 -0.8547  0.6828
  168MPD2    H3 2568   3.593   0.814  11.989 -3.8954  0.8234 -0.5251
  168MPD2     N 2569   3.479   0.388  11.941 -0.2975 -0.7201  0.0878
  168MPD2    H5 2570   3.503   0.390  11.843 -1.8653 -0.5198 -0.2992
  168MPD2    N1 2571   3.532   0.610  12.382  0.3951  0.1156 -0.0741
  168MPD2    H7 2572   3.506   0.524  12.431  0.1097  1.0581  1.4294
  169MPD1     C 2573   1.301   0.410   8.762  0.0701  0.8996 -0.2318
  169MPD1    C1 2574   1.429   0.448   8.780  0.1684 -0.0734  0.2673
  169MPD1    C2 2575   1.500   0.381   8.867 -0.1157 -1.0447  0.7611
  169MPD1    C3 2576   1.465   0.261   8.918  0.5823 -0.0248 -0.7305
  169MPD1    C4 2577   1.349   0.206   8.885  0.3005 -0.7854 -0.3166
  169MPD1    C5 2578   1.264   0.285   8.804 -0.0980  0.4048  0.5019
  169MPD1     H 2579   1.588   0.430   8.906 -1.4372  0.9474  1.2577
  169MPD1    H1 2580   1.314   0.108   8.914 -0.1489 -0.9160 -1.2725
  169MPD1    H2 2581   1.240   0.472   8.699 -0.0345 -1.8667 -2.8402
  169MPD1    H3 2582   1.164   0.247   8.785 -0.2407  1.3783 -0.6910
  169MPD1     N 2583   1.552   0.211   9.016 -0.2734  0.3240 -0.0183
  169MPD1    H5 2584   1.613   0.277   9.063 -0.4921  0.7262 -0.3050
  169MPD1    N1 2585   1.469   0.578   8.757 -0.7668 -0.3452  0.2427
  169MPD1    H6 2586   1.424   0.615   8.674  0.6432  2.5034  0.7389
  169MPD1    H7 2587   1.569   0.591   8.743 -0.7515 -0.9151 -0.1584
  170MPD1     C 2588   0.066   2.496  12.717  0.1759 -0.7702  0.4373
  170MPD1    C1 2589   0.127   2.618  12.731 -0.7667  1.0521 -0.3582
  170MPD1    C2 2590   0.090   2.694  12.840 -0.2579 -0.1426 -0.0244
  170MPD1    C3 2591   0.051   2.634  12.958  0.1207  0.2324  0.4084
  170MPD1    C4 2592   0.002   2.504  12.957  0.1383  0.1653  0.3342
  170MPD1    C5 2593   0.000   2.444  12.832 -0.6559  0.2099 -0.0365
  170MPD1     H 2594   0.126   2.796  12.846 -0.5684  0.0669 -1.7588
  170MPD1    H1 2595   4.694   2.452  13.047  0.6902 -1.1383 -0.2187
  170MPD1    H2 2596   0.088   2.427  12.636 -1.4203 -0.0130 -0.6400
  170MPD1    H3 2597   4.677   2.347  12.825  2.2267 -1.0650 -1.7827
  170MPD1     N 2598   0.058   2.716  13.073  0.0811  1.0850  0.8789
  170MPD1    H5 2599   0.091   2.808  13.047 -0.5507  0.5593 -1.7628
  170MPD1    N1 2600   0.206   2.681  12.630 -0.2031 -0.1904 -0.4261
  170MPD1    H6 2601   0.275   2.615  12.593  1.3415  0.5014  1.2422
  170MPD1    H7 2602   0.263   2.756  12.667 -0.6460 -0.0767  0.0253
  171MPD1     C 2603   2.669   3.839  15.844  0.0156  0.4268  0.2051
  171MPD1    C1 2604   2.635   3.791  15.718  0.5908 -0.8966 -0.0218
  171MPD1    C2 2605   2.719   3.708  15.651  0.0080 -0.1380  0.4695
  171MPD1    C3 2606   2.835   3.661  15.706 -0.6449 -0.5165 -0.3613
  171MPD1    C4 2607   2.854   3.700  15.838 -0.1315  0.3296  0.0809
  171MPD1    C5 2608   2.773   3.783  15.908  0.3356  0.5749  0.3000
  171MPD1     H 2609   2.703   3.685  15.546  0.7181 -0.4278  0.4229
  171MPD1    H1 2610   2.938   3.664  15.896  1.1019 -2.2640 -3.3082
  171MPD1    H2 2611   2.603   3.903  15.902  0.7560  0.4611  1.0027
  171MPD1    H3 2612   2.785   3.810  16.012 -0.3886  0.3001  0.4534
  171MPD1     N 2613   2.939   3.582  15.649 -0.4516 -0.2180 -0.0445
  171MPD1    H5 2614   3.013   3.561  15.715  0.6156 -1.1470 -1.5278
  171MPD1    N1 2615   2.540   3.858  15.639 -0.7112 -0.0225 -0.2798
  171MPD1    H6 2616   2.509   3.818  15.550 -0.9751 -1.1871  0.3282
  171MPD1    H7 2617   2.455   3.878  15.691 -0.2236  1.0982  0.0729
  172MPD1     C 2618   2.212   2.354   0.632 -0.0680 -0.1335  0.1537
  172MPD1    C1 2619   2.193   2.477   0.688 -0.4058 -0.8412  0.5616
  172MPD1    C2 2620   2.211   2.591   0.614  0.1179 -0.1417  0.1048
  172MPD1    C3 2621   2.261   2.583   0.484  0.1979 -0.1964 -0.5247
  172MPD1    C4 2622   2.292   2.458   0.431 -0.1870 -0.5816 -0.2873
  172MPD1    C5 2623   2.265   2.347   0.512  0.2795  0.3151 -0.5314
  172MPD1     H 2624   2.192   2.688   0.659  0.3533  0.2648 -0.6818
  172MPD1    H1 2625   2.336   2.450   0.332 -0.0984  0.7704 -0.3690
  172MPD1    H2 2626   2.209   2.265   0.694  1.9919  1.0081  1.8834
  172MPD1    H3 2627   2.304   2.253   0.474 -0.5625 -0.2656  0.0493
  172MPD1     N 2628   2.310   2.694   0.413 -0.4867  0.1786  0.0489
  172MPD1    H5 2629   2.372   2.678   0.334  0.7878 -0.7017  1.2283
  172MPD1    N1 2630   2.175   2.492   0.822  0.2530 -0.2290 -0.2960
  172MPD1    H6 2631   2.133   2.408   0.859 -3.4455  1.8798  0.2937
  172MPD1    H7 2632   2.122   2.574   0.852  0.4915 -0.0010 -0.4954
  173MPD1     C 2633   4.563   3.139  13.779  0.0693  0.3362 -0.6871
  173MPD1    C1 2634   4.585   3.181  13.909  0.0157 -0.2772 -0.7868
  173MPD1    C2 2635   4.513   3.133  14.015 -1.0370  0.3048 -0.4921
  173MPD1    C3 2636   4.421   3.037  13.983  0.2202  0.4342 -0.1005
  173MPD1    C4 2637   4.390   2.993  13.850 -0.2627 -0.0106  0.2664
  173MPD1    C5 2638   4.461   3.052  13.748 -0.2954 -0.1021  0.3995
  173MPD1     H 2639   4.527   3.152  14.121  4.0685 -0.5123 -1.0641
  173MPD1    H1 2640   4.319   2.915  13.826 -1.5266  1.6788 -1.5154
  173MPD1    H2 2641   4.623   3.186  13.703 -0.2312  2.4970  0.4039
  173MPD1    H3 2642   4.448   3.008  13.649 -0.6717  1.6579 -0.3254
  173MPD1     N 2643   4.354   2.966  14.090 -0.5467  0.2713 -0.4213
  173MPD1    H5 2644   4.395   2.969  14.183  0.6880  2.2720 -1.0200
  173MPD1    N1 2645   4.701   3.257  13.940  0.1258  0.1110  0.4877
  173MPD1    H6 2646   4.688   3.332  14.008 -1.3907  0.2459  0.0373
  173MPD1    H7 2647   0.024   3.293  13.857  1.4994  0.1224  1.2604
  174MPD1     C 2648   4.520   2.443  14.928 -0.3376 -0.0818 -0.0630
  174MPD1    C1 2649   4.521   2.376  14.807  0.5268 -0.9576  0.1013
  174MPD1    C2 2650   4.478   2.446  14.699  0.3505  0.2249 -0.2942
  174MPD1    C3 2651   4.413   2.572  14.712  0.0954  0.5038 -0.1417
  174MPD1    C4 2652   4.399   2.625  14.838  0.3519 -0.2743 -0.0318
  174MPD1    C5 2653   4.456   2.559  14.941 -0.4459 -0.6096 -0.6312
  174MPD1     H 2654   4.466   2.388  14.608  2.7903 -1.9171  0.7285
  174MPD1    H1 2655   4.352   2.713  14.880  2.5245  0.5487  0.7164
  174MPD1    H2 2656   4.559   2.392  15.016 -1.1329  0.0924  0.3879
  174MPD1    H3 2657   4.450   2.605  15.039  0.3811 -0.7513 -0.5133
  174MPD1     N 2658   4.351   2.631  14.602  0.1057 -0.5440  0.2277
  174MPD1    H5 2659   4.297   2.714  14.627 -1.2417 -1.7231  1.2782
  174MPD1    N1 2660   4.590   2.256  14.784  0.2477  0.0012  0.5610
  174MPD1    H6 2661   4.561   2.199  14.705  0.2357  1.6575 -0.6340
  174MPD1    H7 2662   4.580   2.193  14.863 -0.4640  0.5281  0.8843
  175MPD1     C 2663   2.457   3.552  15.364  0.3434 -0.6810  0.2355
  175MPD1    C1 2664   2.383   3.654  15.417  0.2409 -0.1783 -0.4588
  175MPD1    C2 2665   2.315   3.633  15.536 -0.4354 -0.6021  0.2261
  175MPD1    C3 2666   2.303   3.511  15.595  0.4028 -0.3155 -0.0943
  175MPD1    C4 2667   2.375   3.407  15.543 -0.1340  0.6510  0.6521
  175MPD1    C5 2668   2.453   3.432  15.437  0.4756 -0.2086  0.2379
  175MPD1     H 2669   2.266   3.715  15.588  1.9105  0.8855  0.0565
  175MPD1    H1 2670   2.389   3.309  15.587 -0.3652  0.1748 -0.3518
  175MPD1    H2 2671   2.524   3.562  15.279 -0.9460  2.7335 -0.4037
  175MPD1    H3 2672   2.525   3.355  15.409  0.2202 -0.6706  0.8411
  175MPD1     N 2673   2.230   3.491  15.716 -0.6214  1.1413  0.2688
  175MPD1    H5 2674   2.259   3.412  15.772  0.2148 -0.0779 -1.9203
  175MPD1    N1 2675   2.394   3.781  15.358  0.6717 -0.1643  0.3337
  175MPD1    H6 2676   2.437   3.775  15.266  1.5337  1.9312  0.5986
  175MPD1    H7 2677   2.302   3.822  15.347  0.1747 -0.9369  1.6326
  176MPD1     C 2678   3.745   0.417  16.283 -0.4708  0.1679  0.6531
  176MPD1    C1 2679   3.831   0.455  16.381  0.8621  0.0587  0.4201
  176MPD1    C2 2680   3.784   0.461  16.517 -0.1837  0.8733 -0.5445
  176MPD1    C3 2681   3.651   0.457  16.549  0.4132 -0.6383  0.8810
  176MPD1    C4 2682   3.566   0.444  16.438 -0.6429 -0.0388 -0.7558
  176MPD1    C5 2683   3.616   0.408  16.314  0.1178  0.1515 -0.5536
  176MPD1     H 2684   3.861   0.463  16.592 -0.3429 -1.1334 -0.3268
  176MPD1    H1 2685   3.458   0.441  16.451 -0.5761 -3.3487 -1.1071
  176MPD1    H2 2686   3.779   0.388  16.184  1.7601  1.0602  1.1715
  176MPD1    H3 2687   3.540   0.393  16.238 -0.0614  0.1905 -0.3834
  176MPD1     N 2688   3.611   0.493  16.680  0.0834  0.6704  0.0660
  176MPD1    H5 2689   3.673   0.532  16.750 -0.9853  0.7615  0.9709
  176MPD1    N1 2690   3.966   0.428  16.354 -0.5385  0.4671  0.1288
  176MPD1    H6 2691   3.989   0.450  16.257  2.6763  0.5282  0.9128
  176MPD1    H7 2692   4.026   0.483  16.415 -1.2584  0.9858  0.3613
  177MPD1     C 2693   2.490   0.930  10.431 -0.0629  0.0197  0.7093
  177MPD1    C1 2694   2.416   0.887  10.325 -0.5592 -0.2610  0.4321
  177MPD1    C2 2695   2.443   0.934  10.195 -0.2624 -0.2312  0.2434
  177MPD1    C3 2696   2.547   1.027  10.175  0.6351  0.4127 -0.4355
  177MPD1    C4 2697   2.618   1.069  10.287 -0.0486  0.8582 -0.3159
  177MPD1    C5 2698   2.585   1.029  10.411 -0.2405  0.0467  0.0963
  177MPD1     H 2699   2.382   0.907  10.110 -0.5700 -1.2360  0.7896
  177MPD1    H1 2700   2.698   1.142  10.290  0.6671  0.0999 -1.0177
  177MPD1    H2 2701   2.466   0.903  10.533 -0.4604  0.2398  0.6754
  177MPD1    H3 2702   2.636   1.068  10.498 -1.9992 -1.2717  1.7380
  177MPD1     N 2703   2.569   1.076  10.045  0.5376 -0.2140  0.4549
  177MPD1    H5 2704   2.506   1.044   9.973 -0.5450 -2.7770  2.5491
  177MPD1    N1 2705   2.316   0.793  10.341  0.1076  0.0855  0.5845
  177MPD1    H6 2706   2.330   0.708  10.287  0.2962  0.1666  0.5054
  177MPD1    H7 2707   2.305   0.753  10.433  0.8283  0.4371  0.8213
  178MPD1     C 2708   4.415   1.872   0.205 -0.8619  0.0805  0.1908
  178MPD1    C1 2709   4.339   1.775   0.141  0.2877  0.3059  0.2452
  178MPD1    C2 2710   4.359   1.762   0.007 -0.6504  0.4467 -0.3055
  178MPD1    C3 2711   4.445   1.852  17.631  0.8942  0.1618  0.4326
  178MPD1    C4 2712   4.498   1.961  17.693 -0.0670 -0.6948  0.1656
  178MPD1    C5 2713   4.486   1.964   0.134 -0.3715 -0.3320  0.0914
  178MPD1     H 2714   4.314   1.678  17.649  0.1757 -0.7764  0.9439
  178MPD1    H1 2715   4.557   2.031  17.634  1.5753 -0.2517  2.3260
  178MPD1    H2 2716   4.398   1.890   0.310 -0.7028 -1.6859  0.5205
  178MPD1    H3 2717   4.533   2.048   0.184 -0.2687 -0.0235 -0.5172
  178MPD1     N 2718   4.490   1.838  17.494  0.3688 -0.0502  0.7703
  178MPD1    H5 2719   4.556   1.909  17.465  0.4955 -1.4609 -2.4247
  178MPD1    N1 2720   4.269   1.672   0.224  0.2092  0.0528 -0.0681
  178MPD1    H6 2721   4.246   1.701   0.318  1.4794  1.0028 -0.0570
  178MPD1    H7 2722   4.192   1.628   0.173 -0.5242  0.5615  0.6194
  179MPD1     C 2723   3.958   0.280  15.393  0.0188  0.6690  0.0216
  179MPD1    C1 2724   4.089   0.240  15.368  0.1890  0.2775  0.2675
  179MPD1    C2 2725   4.115   0.111  15.413 -0.4681 -0.0855  0.0743
  179MPD1    C3 2726   4.012   0.027  15.445  0.4768 -0.1934  0.4285
  179MPD1    C4 2727   3.883   0.065  15.440  0.1949  0.0438 -0.1686
  179MPD1    C5 2728   3.850   0.194  15.422 -0.0341 -0.2059  0.0949
  179MPD1     H 2729   4.219   0.083  15.429 -0.5617 -0.6502 -0.3307
  179MPD1    H1 2730   3.808   4.721  15.480  0.3333  0.9481  1.6197
  179MPD1    H2 2731   3.931   0.384  15.376 -2.5128 -0.2913 -1.8088
  179MPD1    H3 2732   3.753   0.237  15.445 -0.0462  0.5266 -1.2713
  179MPD1     N 2733   4.035   4.618  15.481 -0.7341 -0.1801 -0.0901
  179MPD1    H5 2734   3.950   4.563  15.486 -0.5560 -0.2768  1.8946
  179MPD1    N1 2735   4.189   0.336  15.344  0.1212  0.4677  0.2821
  179MPD1    H6 2736   4.272   0.293  15.302  0.2073  0.9709 -0.0628
  179MPD1    H7 2737   4.163   0.407  15.276  2.0219  0.7142 -0.2015
  180MPD1     C 2738   3.384   1.367  14.856 -0.2870 -0.4118 -0.0925
  180MPD1    C1 2739   3.386   1.305  14.731 -0.0826  0.3843 -0.2485
  180MPD1    C2 2740   3.487   1.337  14.640  0.4334 -0.0754 -0.3076
  180MPD1    C3 2741   3.597   1.407  14.686  0.2864 -0.3868  0.1802
  180MPD1    C4 2742   3.595   1.470  14.814 -0.6671  0.2992  0.2201
  180MPD1    C5 2743   3.486   1.450  14.898 -0.2254  0.1850  0.0445
  180MPD1     H 2744   3.472   1.305  14.538 -0.7453 -0.3157 -0.0616
  180MPD1    H1 2745   3.678   1.528  14.852 -3.3361  0.9247  5.1829
  180MPD1    H2 2746   3.307   1.340  14.926 -1.3877 -0.3012 -1.2599
  180MPD1    H3 2747   3.480   1.490  14.999  2.0566  0.1671  0.1809
  180MPD1     N 2748   3.709   1.418  14.601  0.8437  0.7651  0.1106
  180MPD1    H5 2749   3.693   1.411  14.501 -1.4510  0.8635  0.4799
  180MPD1    N1 2750   3.269   1.239  14.696  0.9570  0.4665 -0.4043
  180MPD1    H6 2751   3.284   1.186  14.610 -0.0722 -0.8170  0.2100
  180MPD1    H7 2752   3.226   1.181  14.767  1.4927  1.1542  0.4749
  181MPD1     C 2753   0.538   3.184   9.481 -0.0734  0.6061 -0.1867
  181MPD1    C1 2754   0.575   3.293   9.406 -0.2518 -0.3521  0.0807
  181MPD1    C2 2755   0.706   3.341   9.422 -0.1829 -0.3133  0.1914
  181MPD1    C3 2756   0.784   3.282   9.519  0.1361 -0.3138 -0.9681
  181MPD1    C4 2757   0.744   3.179   9.592 -0.3491  0.2402 -0.1533
  181MPD1    C5 2758   0.619   3.129   9.574 -0.2425  0.4192  0.6053
  181MPD1     H 2759   0.749   3.418   9.359  0.3900 -0.5843  0.2473
  181MPD1    H1 2760   0.801   3.131   9.670 -0.6598 -2.1073 -1.3637
  181MPD1    H2 2761   0.443   3.139   9.454  0.9130  0.0055 -2.6102
  181MPD1    H3 2762   0.599   3.033   9.620 -1.4564 -0.3854 -1.6020
  181MPD1     N 2763   0.911   3.334   9.558  0.2124 -0.2338  0.4694
  181MPD1    H5 2764   0.974   3.271   9.608  0.1421 -1.4523 -0.9663
  181MPD1    N1 2765   0.509   3.327   9.279  0.7355  0.3892 -0.2234
  181MPD1    H6 2766   0.532   3.422   9.252  0.0520  0.4759 -0.4979
  181MPD1    H7 2767   0.407   3.328   9.281  0.7006 -0.4023 -1.7897
  182MPD1     C 2768   2.001   2.281   1.348 -0.3862 -0.2335 -0.5052
  182MPD1    C1 2769   2.040   2.187   1.247 -0.2329  0.5465  0.2183
  182MPD1    C2 2770   1.994   2.210   1.121 -0.2681  0.3102 -0.4161
  182MPD1    C3 2771   1.909   2.310   1.086  0.4498 -0.7172 -0.9642
  182MPD1    C4 2772   1.889   2.411   1.185 -0.4575  0.1739 -0.5783
  182MPD1    C5 2773   1.931   2.392   1.314  0.5973 -0.5889 -1.0651
  182MPD1     H 2774   2.023   2.137   1.046 -0.4923  0.0011 -0.2035
  182MPD1    H1 2775   1.832   2.501   1.165  1.4097  1.6435  0.6813
  182MPD1    H2 2776   2.042   2.271   1.447 -0.5513 -0.5872 -0.4701
  182MPD1    H3 2777   1.928   2.475   1.384 -0.4078  0.5658 -2.4718
  182MPD1     N 2778   1.842   2.316   0.963 -0.1532 -0.7980  0.2764
  182MPD1    H5 2779   1.779   2.395   0.952  2.3642  1.2478  0.6977
  182MPD1    N1 2780   2.139   2.085   1.269 -0.4565  0.2660 -0.8016
  182MPD1    H6 2781   2.136   2.043   1.362 -3.3713  1.9571 -0.1306
  182MPD1    H7 2782   2.128   2.013   1.198  1.5247 -1.1765  0.3323
  183MPD1     C 2783   3.350   3.109   9.513 -0.0783 -0.4164  1.3300
  183MPD1    C1 2784   3.241   3.104   9.433  0.2343 -0.2380 -0.2271
  183MPD1    C2 2785   3.122   3.066   9.503  0.0607 -0.4353  0.3463
  183MPD1    C3 2786   3.111   3.028   9.632  0.0879 -0.3142  0.0096
  183MPD1    C4 2787   3.228   3.033   9.708 -0.2687 -0.1098  0.7447
  183MPD1    C5 2788   3.349   3.064   9.648 -0.0552  0.2395 -0.3648
  183MPD1     H 2789   3.031   3.063   9.444 -0.3737 -0.8461  1.0430
  183MPD1    H1 2790   3.227   3.011   9.814 -1.2087  1.4283  1.0659
  183MPD1    H2 2791   3.440   3.154   9.472  1.3828 -1.8690  2.9654
  183MPD1    H3 2792   3.437   3.069   9.711 -0.6480  4.4487  0.1186
  183MPD1     N 2793   2.989   2.991   9.686  0.0515 -0.0012 -0.2733
  183MPD1    H5 2794   2.910   3.008   9.625  0.6905 -0.6044 -1.2673
  183MPD1    N1 2795   3.246   3.155   9.297 -0.1047 -0.2636 -0.3356
  183MPD1    H6 2796   3.337   3.145   9.254  0.6937  2.4240  0.7506
  183MPD1    H7 2797   3.188   3.102   9.232  0.4045  1.4358 -2.1673
  184MPD1     C 2798   1.640   0.634  10.139  0.6299  0.8424  0.1407
  184MPD1    C1 2799   1.575   0.630  10.017  0.0814 -0.3079 -0.1823
  184MPD1    C2 2800   1.609   0.723   9.916  0.5059  0.5754  0.7218
  184MPD1    C3 2801   1.721   0.804   9.942  0.4076 -0.6309  0.3781
  184MPD1    C4 2802   1.791   0.792  10.059 -0.0868 -0.6117 -0.1509
  184MPD1    C5 2803   1.751   0.709  10.158  0.1234 -1.2920  0.4382
  184MPD1     H 2804   1.554   0.724   9.822  0.0795  0.5376  0.9686
  184MPD1    H1 2805   1.886   0.842  10.070 -1.2291  1.9264 -1.7037
  184MPD1    H2 2806   1.607   0.582  10.228 -0.0576  1.1205  0.0540
  184MPD1    H3 2807   1.803   0.700  10.252  0.5087  1.7205  0.4997
  184MPD1     N 2808   1.768   0.904   9.858  0.1198  0.7570  0.3110
  184MPD1    H5 2809   1.850   0.956   9.886  0.3801  0.0078  0.9335
  184MPD1    N1 2810   1.457   0.556  10.011  0.1927 -0.5908  0.4657
  184MPD1    H6 2811   1.474   0.465  10.054  1.5634 -0.2445  0.6630
  184MPD1    H7 2812   1.425   0.533   9.918 -1.6532  0.6762  0.7953
  185MPD1     C 2813   1.807   0.859   8.857 -0.2992  0.0145  0.8633
  185MPD1    C1 2814   1.900   0.955   8.895  0.2890 -0.1058 -0.3564
  185MPD1    C2 2815   1.889   1.001   9.024  0.3768 -0.1644  0.8190
  185MPD1    C3 2816   1.804   0.951   9.117  0.0818 -0.0288  0.4826
  185MPD1    C4 2817   1.708   0.856   9.068 -0.8181  0.1921 -0.5003
  185MPD1    C5 2818   1.715   0.815   8.943  0.2407  0.0069 -0.5640
  185MPD1     H 2819   1.966   1.075   9.044  2.2029 -2.4143  2.1544
  185MPD1    H1 2820   1.633   0.810   9.132 -1.6830  1.5944 -0.5060
  185MPD1    H2 2821   1.809   0.822   8.755  1.6068 -1.6219  1.4762
  185MPD1    H3 2822   1.644   0.744   8.903  1.4388 -1.3056 -0.3407
  185MPD1     N 2823   1.806   0.981   9.251 -0.4596 -0.2143  0.3751
  185MPD1    H5 2824   1.739   0.934   9.310 -2.1907  2.0403  0.2379
  185MPD1    N1 2825   2.014   0.987   8.817 -0.3775 -0.1711  0.7102
  185MPD1    H6 2826   2.038   1.081   8.847  0.2465 -0.2218  0.3730
  185MPD1    H7 2827   1.982   0.996   8.721  1.5265  0.2818  0.1217
  186MPD1     C 2828   4.031   0.685  15.606 -0.1478  0.2633  0.2657
  186MPD1    C1 2829   4.169   0.670  15.582 -0.5124  0.5553  0.3626
  186MPD1    C2 2830   4.255   0.688  15.690 -0.2463 -0.3626  0.5411
  186MPD1    C3 2831   4.204   0.683  15.824 -0.0880 -0.0361 -0.4434
  186MPD1    C4 2832   4.066   0.679  15.843  0.2036  0.8218 -0.4216
  186MPD1    C5 2833   3.982   0.685  15.740  0.1621 -0.1872 -0.2979
  186MPD1     H 2834   4.362   0.694  15.674 -0.6119  0.6533 -1.5636
  186MPD1    H1 2835   4.032   0.694  15.945  0.0640  1.9556 -0.6365
  186MPD1    H2 2836   3.953   0.684  15.530 -1.1385  2.1582  1.2622
  186MPD1    H3 2837   3.879   0.709  15.761  0.2548 -2.4751  2.8258
  186MPD1     N 2838   4.282   0.683  15.942 -0.1762  0.8982  0.2739
  186MPD1    H5 2839   4.239   0.671  16.033 -0.1104  0.4754  0.2495
  186MPD1    N1 2840   4.216   0.670  15.448  0.2457  0.4671  1.2890
  186MPD1    H6 2841   4.150   0.626  15.384  1.2427 -2.2112  2.0731
  186MPD1    H7 2842   4.311   0.635  15.439 -0.3167 -1.1543  1.6865
  187MPD1     C 2843   3.448   1.738   0.397  0.1751 -0.2368  0.2984
  187MPD1    C1 2844   3.446   1.873   0.411 -0.2657  0.1766  0.3012
  187MPD1    C2 2845   3.508   1.954   0.320 -0.4672 -0.1995 -0.4935
  187MPD1    C3 2846   3.556   1.899   0.198  0.3285  0.2861  0.2103
  187MPD1    C4 2847   3.533   1.770   0.177 -0.4332 -0.8381  1.2182
  187MPD1    C5 2848   3.494   1.685   0.272 -0.0467 -0.0244 -0.1569
  187MPD1     H 2849   3.535   2.056   0.343  0.7993 -0.9555  1.3915
  187MPD1    H1 2850   3.569   1.717   0.089 -0.8065  0.1349  0.4817
  187MPD1    H2 2851   3.410   1.666   0.469  1.8926  0.4107  1.8602
  187MPD1    H3 2852   3.483   1.581   0.241 -0.4564 -0.2777  0.8445
  187MPD1     N 2853   3.597   1.974   0.088  0.4427 -0.2843  0.3866
  187MPD1    H5 2854   3.599   1.942  17.686  2.1615 -2.4545  1.1511
  187MPD1    N1 2855   3.419   1.922   0.539  0.3232  0.1128  0.2601
  187MPD1    H6 2856   3.365   1.852   0.590  0.9122 -1.2996 -1.0693
  187MPD1    H7 2857   3.379   2.016   0.543  0.0773 -0.0773  1.9896
  188MPD1     C 2858   3.239   2.137  10.151 -0.4495  0.2757  0.2170
  188MPD1    C1 2859   3.261   2.145  10.018  0.7534 -0.7123 -0.5921
  188MPD1    C2 2860   3.288   2.029   9.952  0.3001 -0.4745 -0.3331
  188MPD1    C3 2861   3.336   1.922  10.020 -0.2212  1.1477  0.3166
  188MPD1    C4 2862   3.357   1.934  10.163 -0.2183 -0.5659  0.0038
  188MPD1    C5 2863   3.300   2.042  10.222  0.2697 -0.6965 -0.0695
  188MPD1     H 2864   3.284   2.027   9.843  3.5976 -2.0231 -0.3997
  188MPD1    H1 2865   3.395   1.854  10.224  0.4129  0.3744  0.8366
  188MPD1    H2 2866   3.227   2.226  10.213  2.2101  1.0731 -0.4393
  188MPD1    H3 2867   3.288   2.057  10.328 -0.1489 -3.0137  0.2098
  188MPD1     N 2868   3.368   1.801   9.960  0.0180 -0.4572 -0.0856
  188MPD1    H5 2869   3.408   1.728  10.017  3.2177 -0.5060 -2.3627
  188MPD1    N1 2870   3.235   2.267   9.956  0.1854 -0.0632 -0.3417
  188MPD1    H6 2871   3.285   2.266   9.868 -2.6595  1.6378 -1.9940
  188MPD1    H7 2872   3.261   2.346  10.015 -0.3124  1.8177 -2.6270
  189MPD1     C 2873   0.897   2.542   0.139 -0.2683 -0.2385  0.2761
  189MPD1    C1 2874   0.812   2.628   0.198  0.7274  0.2447  0.2336
  189MPD1    C2 2875   0.699   2.673   0.129  0.1486  0.4113 -0.1615
  189MPD1    C3 2876   0.665   2.631   0.002 -0.2329 -0.5281 -0.4103
  189MPD1    C4 2877   0.766   2.556  17.634 -0.3999 -0.2415  0.1854
  189MPD1    C5 2878   0.880   2.512   0.010  0.3565  0.4955 -0.9535
  189MPD1     H 2879   0.624   2.735   0.178 -0.8737 -0.1956 -0.9632
  189MPD1    H1 2880   0.751   2.542  17.527  0.5929 -1.2649  0.1728
  189MPD1    H2 2881   0.995   2.506   0.167 -0.3980 -0.3801  0.5462
  189MPD1    H3 2882   0.954   2.455  17.651  0.0661 -0.0505 -0.7722
  189MPD1     N 2883   0.543   2.678  17.641 -0.3968 -0.8982 -0.2354
  189MPD1    H5 2884   0.487   2.730   0.013  1.5668 -1.0036  1.4679
  189MPD1    N1 2885   0.833   2.651   0.334 -0.3347  0.1605 -0.1056
  189MPD1    H6 2886   0.798   2.744   0.355  0.3618  0.8719 -2.1719
  189MPD1    H7 2887   0.934   2.648   0.343 -0.4096 -1.3154  0.2392
  190MPD1     C 2888   3.784   1.482  15.610 -0.3107 -0.3009  0.8031
  190MPD1    C1 2889   3.828   1.440  15.727  0.2403  0.2894 -0.5652
  190MPD1    C2 2890   3.957   1.386  15.738  0.2071  0.0089  0.0180
  190MPD1    C3 2891   4.050   1.398  15.635 -1.0182 -0.2295 -0.2043
  190MPD1    C4 2892   3.999   1.448  15.516  0.5662  0.0444  0.1326
  190MPD1    C5 2893   3.872   1.494  15.507  1.0428  0.4318 -0.5122
  190MPD1     H 2894   3.994   1.342  15.829 -0.8280 -1.2468 -0.1547
  190MPD1    H1 2895   4.066   1.442  15.431  0.1425 -1.2938 -0.0944
  190MPD1    H2 2896   3.682   1.510  15.586 -1.0196 -0.9211  3.0934
  190MPD1    H3 2897   3.836   1.527  15.410 -0.3210 -0.6731 -0.3626
  190MPD1     N 2898   4.181   1.359  15.660  0.1338 -0.3182 -0.1919
  190MPD1    H5 2899   4.193   1.328  15.756  0.4864 -2.1098 -0.8206
  190MPD1    N1 2900   3.739   1.401  15.822  0.6245 -0.5058  0.2234
  190MPD1    H6 2901   3.666   1.472  15.820  1.9817  0.9384  0.8614
  190MPD1    H7 2902   3.771   1.399  15.919 -1.4506 -0.8221  0.9011
  191MPD1     C 2903   4.131   3.072  12.638 -0.1051  0.2616  0.1849
  191MPD1    C1 2904   4.197   3.158  12.560  0.0181  0.3586 -0.6487
  191MPD1    C2 2905   4.118   3.249  12.497  0.8990 -0.7599  0.0981
  191MPD1    C3 2906   3.981   3.258  12.521 -0.0954 -0.7087 -0.5441
  191MPD1    C4 2907   3.918   3.174  12.610 -0.2557 -0.5030 -0.8017
  191MPD1    C5 2908   4.001   3.086  12.670  0.4167 -0.3381 -0.1512
  191MPD1     H 2909   4.155   3.320  12.424  1.9771 -1.0459  0.3684
  191MPD1    H1 2910   3.812   3.155  12.619  0.2985 -1.8978  2.7435
  191MPD1    H2 2911   4.185   2.992  12.689  1.8814  1.4640 -0.0070
  191MPD1    H3 2912   3.952   3.025  12.745 -0.6758  2.0784  1.1364
  191MPD1     N 2913   3.910   3.351  12.431 -0.7825 -0.7683  0.3735
  191MPD1    H5 2914   3.963   3.386  12.352 -0.2007  1.8440  1.9109
  191MPD1    N1 2915   4.330   3.137  12.521  0.0448 -0.5757  0.4078
  191MPD1    H6 2916   4.387   3.118  12.603  1.5990  2.3289 -0.0001
  191MPD1    H7 2917   4.366   3.222  12.478  2.4149  0.0879  3.6618
  192MPD1     C 2918   3.251   4.024  12.756 -0.4228  0.2207  0.0854
  192MPD1    C1 2919   3.196   3.931  12.675 -0.7029  0.0210  0.1377
  192MPD1    C2 2920   3.288   3.866  12.589  0.5341 -0.6450  0.7178
  192MPD1    C3 2921   3.421   3.907  12.568 -0.1865 -0.3866  0.5088
  192MPD1    C4 2922   3.457   4.027  12.629  0.7617  0.1221 -0.6216
  192MPD1    C5 2923   3.375   4.082  12.724 -0.6388  0.1756 -0.2058
  192MPD1     H 2924   3.244   3.773  12.555 -2.3736  0.2217  2.1299
  192MPD1    H1 2925   3.553   4.069  12.601 -1.5697  3.4309 -3.5137
  192MPD1    H2 2926   3.192   4.075  12.831 -0.5470 -0.2275  0.2926
  192MPD1    H3 2927   3.409   4.172  12.775  0.7762  1.3064 -3.0981
  192MPD1     N 2928   3.515   3.840  12.487  0.3002  0.2764  0.8886
  192MPD1    H5 2929   3.613   3.866  12.484  0.0878  0.9258 -0.1107
  192MPD1    N1 2930   3.071   3.874  12.707 -0.2759 -0.1398 -0.2322
  192MPD1    H6 2931   3.039   3.839  12.617  1.4675 -1.0643 -0.4880
  192MPD1    H7 2932   3.002   3.940  12.741  0.7936  1.9800 -2.1830
  193MPD1     C 2933   2.933   3.294  16.074  0.2230  0.1502  0.5429
  193MPD1    C1 2934   2.913   3.289  16.209 -0.1800 -0.0591 -0.1961
  193MPD1    C2 2935   3.013   3.341  16.290 -0.6000 -0.1755 -0.6996
  193MPD1    C3 2936   3.135   3.392  16.243  0.1215  0.6772 -0.6628
  193MPD1    C4 2937   3.157   3.397  16.108 -0.3355  0.1019  0.5648
  193MPD1    C5 2938   3.057   3.344  16.025  0.9946 -0.5985 -0.5306
  193MPD1     H 2939   2.988   3.326  16.395  0.5500 -1.8656 -0.6625
  193MPD1    H1 2940   3.242   3.453  16.068 -0.1269 -0.3464  0.3816
  193MPD1    H2 2941   2.863   3.247  16.006 -0.4506  3.7722 -1.2603
  193MPD1    H3 2942   3.077   3.349  15.918 -1.0779  2.0387 -0.8035
  193MPD1     N 2943   3.225   3.451  16.331  0.4782 -0.1014  0.3565
  193MPD1    H5 2944   3.304   3.494  16.285 -1.5060  0.2426 -2.7189
  193MPD1    N1 2945   2.786   3.246  16.261  0.4470 -0.1801 -0.1983
  193MPD1    H6 2946   2.800   3.232  16.361  0.1705 -2.0765 -0.4217
  193MPD1    H7 2947   2.742   3.160  16.231 -1.5159  0.9121 -0.4286
  194MPD1     C 2948   1.741   1.060  16.948  0.1668 -0.5379 -0.0440
  194MPD1    C1 2949   1.609   1.019  16.956  0.6402 -0.0753 -0.2859
  194MPD1    C2 2950   1.595   0.878  16.965 -0.7578  0.4786  0.0877
  194MPD1    C3 2951   1.704   0.789  16.978 -0.2268  0.2554  0.0065
  194MPD1    C4 2952   1.828   0.838  16.968 -0.3689  1.1460  0.3428
  194MPD1    C5 2953   1.845   0.977  16.956 -0.4412 -0.8279 -0.2807
  194MPD1     H 2954   1.496   0.836  16.980 -0.5702 -0.4943 -1.4678
  194MPD1    H1 2955   1.913   0.772  16.982 -1.0288 -0.0550 -1.3741
  194MPD1    H2 2956   1.763   1.166  16.945 -1.1119 -0.2244  1.5059
  194MPD1    H3 2957   1.949   1.004  16.949 -0.8070  0.2946 -1.3283
  194MPD1     N 2958   1.687   0.650  17.002  0.2719 -0.6820 -0.1952
  194MPD1    H5 2959   1.769   0.597  17.031 -0.4522 -2.8096 -2.0967
  194MPD1    N1 2960   1.494   1.096  16.933 -0.1475  0.3814 -0.2192
  194MPD1    H6 2961   1.425   1.073  17.004  1.4588 -1.3008  0.8130
  194MPD1    H7 2962   1.509   1.194  16.955 -0.0768  0.2966  0.1171
  195MPD1     C 2963   3.042   2.359  16.764 -0.5550 -0.7431 -0.3711
  195MPD1    C1 2964   3.167   2.299  16.802  0.5138  0.2269  0.0411
  195MPD1    C2 2965   3.158   2.178  16.874 -0.2372  0.0946  0.2469
  195MPD1    C3 2966   3.035   2.110  16.886 -0.2621 -0.3182  0.1535
  195MPD1    C4 2967   2.921   2.158  16.825  0.5442 -0.1197 -0.5429
  195MPD1    C5 2968   2.933   2.280  16.764  0.3123 -0.2371 -0.0773
  195MPD1     H 2969   3.252   2.145  16.916  0.2853  1.5569  0.2325
  195MPD1    H1 2970   2.824   2.109  16.827  0.5333  0.0265  2.5141
  195MPD1    H2 2971   3.041   2.460  16.725 -0.2716 -0.0152  1.5185
  195MPD1    H3 2972   2.848   2.323  16.711  0.7728 -0.0615 -0.6712
  195MPD1     N 2973   3.024   1.990  16.959 -0.6461  0.0472 -0.4627
  195MPD1    H5 2974   2.936   1.941  16.970 -0.1032 -1.0284 -0.8413
  195MPD1    N1 2975   3.288   2.370  16.785 -0.3359 -0.5998  0.6532
  195MPD1    H6 2976   3.375   2.317  16.785 -1.4455 -2.4192 -1.2435
  195MPD1    H7 2977   3.281   2.422  16.697  1.8278 -1.3364  0.0597
  196MPD1     C 2978   2.728   1.795   0.265  0.2602 -0.7748 -0.4889
  196MPD1    C1 2979   2.620   1.801   0.353 -0.1623 -0.5567  0.3129
  196MPD1    C2 2980   2.649   1.818   0.489 -0.1046  0.0916 -0.1347
  196MPD1    C3 2981   2.780   1.826   0.535  0.3113 -0.1305 -0.4272
  196MPD1    C4 2982   2.881   1.814   0.451  0.3263  0.7520 -0.3439
  196MPD1    C5 2983   2.860   1.798   0.312 -0.3472 -0.4522  0.2934
  196MPD1     H 2984   2.562   1.835   0.553 -0.9252 -1.7835 -0.7438
  196MPD1    H1 2985   2.981   1.825   0.490 -0.1045  1.5599  0.5030
  196MPD1    H2 2986   2.723   1.774   0.159 -0.8983 -1.9820 -0.1825
  196MPD1    H3 2987   2.943   1.788   0.243 -0.4710  3.6143 -0.4521
  196MPD1     N 2988   2.820   1.848   0.671 -0.5180 -0.3496 -0.5682
  196MPD1    H5 2989   2.916   1.868   0.695 -1.0171  1.2210  0.1128
  196MPD1    N1 2990   2.490   1.822   0.304 -0.2586  0.5972  0.1666
  196MPD1    H6 2991   2.480   1.784   0.210 -1.7189 -2.0672  1.3998
  196MPD1    H7 2992   2.422   1.769   0.359  1.5675 -0.0457  1.8217
  197MPD1     C 2993   1.598   4.063  17.479 -0.4584  0.1885  0.1608
  197MPD1    C1 2994   1.561   4.060  17.348 -0.0859 -0.0217 -0.1621
  197MPD1    C2 2995   1.651   4.024  17.252 -0.1074  0.2527 -0.3033
  197MPD1    C3 2996   1.787   4.002  17.282  0.4037  1.4234 -0.1709
  197MPD1    C4 2997   1.821   4.021  17.415  0.0693  0.7132  0.4025
  197MPD1    C5 2998   1.732   4.049  17.517 -0.9174 -0.6244 -0.1410
  197MPD1     H 2999   1.624   4.014  17.147  3.7003  2.4315 -1.4723
  197MPD1    H1 3000   1.924   4.014  17.446 -0.6801 -1.1494  2.4598
  197MPD1    H2 3001   1.531   4.088  17.561 -0.5849  0.7890 -0.1300
  197MPD1    H3 3002   1.755   4.048  17.622 -1.2978  0.9273 -0.0381
  197MPD1     N 3003   1.895   3.982  17.190  0.7413 -0.1792 -0.6178
  197MPD1    H5 3004   1.990   3.989  17.225  0.4296  0.6679  0.0475
  197MPD1    N1 3005   1.429   4.084  17.323  0.0593 -0.0498 -0.4308
  197MPD1    H6 3006   1.411   4.111  17.226 -0.7264  0.4290 -0.1517
  197MPD1    H7 3007   1.379   4.146  17.386  2.6681  0.6773  0.9379
  198MPD1     C 3008   4.197   2.052  14.543  0.4053 -0.3626  0.0454
  198MPD1    C1 3009   4.208   2.192  14.567  0.1636  0.3591  0.0390
  198MPD1    C2 3010   4.214   2.239  14.697 -1.0135  0.3198  0.1343
  198MPD1    C3 3011   4.207   2.155  14.805 -0.0430  0.6363  0.3129
  198MPD1    C4 3012   4.222   2.017  14.776 -0.7214  0.7416 -0.3691
  198MPD1    C5 3013   4.211   1.973  14.649  0.5108  0.1496  0.1110
  198MPD1     H 3014   4.212   2.345  14.719 -0.9611 -0.1630  2.5188
  198MPD1    H1 3015   4.250   1.941  14.849 -0.9775  1.3519  0.3601
  198MPD1    H2 3016   4.198   2.006  14.445 -0.9323 -0.5622  0.1310
  198MPD1    H3 3017   4.215   1.868  14.626  2.1123  0.2618 -0.1361
  198MPD1     N 3018   4.214   2.203  14.940  0.1190  0.1633 -0.5672
  198MPD1    H5 3019   4.215   2.304  14.955 -3.8375 -0.0448  1.1488
  198MPD1    N1 3020   4.219   2.280  14.461 -0.3746 -0.6708  0.0874
  198MPD1    H6 3021   4.212   2.238  14.369  1.2842  0.3020 -0.4714
  198MPD1    H7 3022   4.299   2.342  14.469 -1.4166  0.8858 -1.6335
  199MPD1     C 3023   1.609   3.351   9.096 -0.7428 -0.9519 -0.9455
  199MPD1    C1 3024   1.482   3.332   9.044 -1.6775  0.0912  0.2336
  199MPD1    C2 3025   1.381   3.425   9.079  0.6702 -0.0883 -1.0066
  199MPD1    C3 3026   1.410   3.519   9.169  0.3803  0.9325 -0.4422
  199MPD1    C4 3027   1.535   3.528   9.226 -0.5289 -0.5743  0.1152
  199MPD1    C5 3028   1.637   3.452   9.180 -0.1770 -0.9963  0.2540
  199MPD1     H 3029   1.286   3.427   9.026 -0.7824 -0.0366  1.5670
  199MPD1    H1 3030   1.566   3.598   9.303 -0.3814 -0.1039 -0.3669
  199MPD1    H2 3031   1.690   3.284   9.068 -0.3269 -1.4248  1.3984
  199MPD1    H3 3032   1.740   3.456   9.216 -1.5237 -1.6087  4.1359
  199MPD1     N 3033   1.314   3.611   9.217 -0.4845 -0.5714  0.0321
  199MPD1    H5 3034   1.338   3.681   9.286  2.3401  0.1023 -1.6576
  199MPD1    N1 3035   1.451   3.234   8.946  0.4321  0.2659 -0.6135
  199MPD1    H6 3036   1.510   3.154   8.963  2.4072  1.6221 -1.1284
  199MPD1    H7 3037   1.355   3.208   8.970 -0.4917  0.5664 -3.9037
  200MPD1     C 3038   0.260   3.585  15.108 -0.3773  0.0955  0.1291
  200MPD1    C1 3039   0.213   3.616  14.982 -0.0967 -0.5049  0.5945
  200MPD1    C2 3040   0.305   3.634  14.884 -0.0883 -0.7531  0.0770
  200MPD1    C3 3041   0.443   3.623  14.902  0.5132  0.2035  0.2568
  200MPD1    C4 3042   0.487   3.596  15.030  0.2989 -0.2990  0.6031
  200MPD1    C5 3043   0.395   3.581  15.134  0.2379  0.6532  0.8425
  200MPD1     H 3044   0.268   3.678  14.792  2.5907  0.6349 -0.3500
  200MPD1    H1 3045   0.591   3.588  15.059  0.5203  1.4086  0.3252
  200MPD1    H2 3046   0.191   3.574  15.191  0.5153  1.1425  0.9896
  200MPD1    H3 3047   0.434   3.564  15.233 -0.7204  1.8836  1.4190
  200MPD1     N 3048   0.538   3.637  14.797 -0.1256  0.1835 -0.5763
  200MPD1    H5 3049   0.499   3.659  14.706  0.3151  1.7960 -0.3869
  200MPD1    N1 3050   0.075   3.615  14.957 -0.0081 -0.3974 -0.2785
  200MPD1    H6 3051   0.050   3.638  14.862 -1.6032  2.5794  0.8824
  200MPD1    H7 3052   0.022   3.534  14.989 -1.1063  0.5175  0.2028
  201MPD1     C 3053   2.326   2.751  12.986  0.1086  0.1374 -0.6831
  201MPD1    C1 3054   2.352   2.638  12.908 -0.0437  0.4156 -0.2499
  201MPD1    C2 3055   2.469   2.571  12.934  0.0283  0.8608  0.4137
  201MPD1    C3 3056   2.556   2.612  13.028  0.5519  0.1573  0.3546
  201MPD1    C4 3057   2.532   2.722  13.105 -0.7550  0.2936  0.6733
  201MPD1    C5 3058   2.413   2.792  13.082  0.2834 -0.0925 -0.3297
  201MPD1     H 3059   2.483   2.474  12.887 -0.0546  0.9071  0.2922
  201MPD1    H1 3060   2.600   2.763  13.179 -0.9685 -0.4028  1.2541
  201MPD1    H2 3061   2.229   2.799  12.977  1.0720  2.0898 -0.7373
  201MPD1    H3 3062   2.378   2.874  13.143  1.3214  0.3633 -0.3424
  201MPD1     N 3063   2.674   2.534  13.036  0.0129 -0.7104  0.2907
  201MPD1    H5 3064   2.670   2.450  12.979 -1.0327 -0.8890  0.6287
  201MPD1    N1 3065   2.251   2.592  12.819 -0.7741  0.2282  0.0719
  201MPD1    H6 3066   2.288   2.537  12.742  2.1225  0.0717  1.5923
  201MPD1    H7 3067   2.199   2.670  12.781 -1.7388 -1.0293 -1.1786
  202MPD1     C 3068   2.733   2.170   9.390 -0.2857  0.7637  0.0087
  202MPD1    C1 3069   2.742   2.037   9.401  0.9939 -0.6107  0.1009
  202MPD1    C2 3070   2.809   1.996   9.518  0.0121 -0.0580 -0.5083
  202MPD1    C3 3071   2.820   2.077   9.623  0.2243  0.9762 -0.7428
  202MPD1    C4 3072   2.788   2.211   9.613  0.2418 -0.5030  0.2504
  202MPD1    C5 3073   2.757   2.257   9.494  1.4456  0.7578  0.1701
  202MPD1     H 3074   2.823   1.889   9.520 -0.8560 -0.1274  1.5023
  202MPD1    H1 3075   2.792   2.273   9.701 -1.0985  0.9567 -0.7253
  202MPD1    H2 3076   2.699   2.217   9.299 -2.0913 -3.6977 -1.6353
  202MPD1    H3 3077   2.734   2.361   9.475  3.5885  1.5377  1.8890
  202MPD1     N 3078   2.865   2.039   9.749  0.0509 -0.0961 -0.1506
  202MPD1    H5 3079   2.874   2.106   9.825 -1.7932 -1.4556  1.2855
  202MPD1    N1 3080   2.748   1.953   9.292 -0.0591 -0.1608  0.0000
  202MPD1    H6 3081   2.844   1.958   9.259  0.9762  1.4073  3.2149
  202MPD1    H7 3082   2.739   1.855   9.317 -1.5249 -0.1458 -0.4859
  203MPD1     C 3083   1.666   3.887  12.308  0.0748  0.5253 -0.1748
  203MPD1    C1 3084   1.598   3.804  12.221  0.4784  0.3825 -0.8329
  203MPD1    C2 3085   1.596   3.664  12.239 -0.7713 -0.6398  0.7183
  203MPD1    C3 3086   1.665   3.606  12.345  0.5896  0.2645  0.7501
  203MPD1    C4 3087   1.718   3.692  12.443  0.2571  0.0921  0.3420
  203MPD1    C5 3088   1.718   3.824  12.420  0.5399 -0.3099 -0.1772
  203MPD1     H 3089   1.543   3.613  12.160 -0.2797  2.8553 -1.8704
  203MPD1    H1 3090   1.752   3.649  12.537  0.6714 -0.2877  0.0173
  203MPD1    H2 3091   1.672   3.995  12.300 -0.8727  0.5295 -0.8708
  203MPD1    H3 3092   1.745   3.889  12.503 -1.2736 -0.3808  0.4675
  203MPD1     N 3093   1.650   3.466  12.372  0.5700  0.7354  0.5759
  203MPD1    H5 3094   1.573   3.426  12.319  0.3636  3.4569 -1.1460
  203MPD1    N1 3095   1.548   3.852  12.098 -0.1205  0.2965 -0.7297
  203MPD1    H6 3096   1.478   3.789  12.059  1.2920 -2.2310  0.8462
  203MPD1    H7 3097   1.515   3.946  12.118  0.2215  0.3905 -0.6104
  204MPD1     C 3098   1.317   4.253  17.690  0.2022  0.2090 -0.2786
  204MPD1    C1 3099   1.284   4.278  17.556  0.4727  0.0571  0.3567
  204MPD1    C2 3100   1.189   4.201  17.496 -0.0754 -0.3222 -0.5294
  204MPD1    C3 3101   1.126   4.097  17.562 -0.1534 -0.5978  0.6299
  204MPD1    C4 3102   1.174   4.057  17.684 -0.0536 -0.1079  0.0760
  204MPD1    C5 3103   1.264   4.137   0.046  0.3864 -0.1457 -0.0479
  204MPD1     H 3104   1.168   4.220  17.391  1.6229 -0.4762 -0.8878
  204MPD1    H1 3105   1.132   3.970   0.037 -2.2752  1.4559  0.9590
  204MPD1    H2 3106   1.381   4.305   0.065  1.2989  0.6835 -1.6467
  204MPD1    H3 3107   1.282   4.117   0.151  2.1882  0.5624 -0.2366
  204MPD1     N 3108   1.025   4.026  17.493  0.1502  0.4664  0.1253
  204MPD1    H5 3109   1.019   4.046  17.394 -1.9527 -0.4030  0.0633
  204MPD1    N1 3110   1.342   4.386  17.491  0.4342  0.8077  0.5061
  204MPD1    H6 3111   1.316   4.385  17.393  0.1788  1.4442  0.5718
  204MPD1    H7 3112   1.299   4.471  17.526 -0.8247  0.8452 -1.1099
  205MPD1     C 3113   1.022   3.367  16.172 -0.4611 -0.1620 -0.7408
  205MPD1    C1 3114   1.089   3.249  16.182 -0.2142  0.8596 -0.6901
  205MPD1    C2 3115   1.082   3.175  16.296  0.6446  0.2277  0.7573
  205MPD1    C3 3116   1.014   3.230  16.407  0.5478 -0.0338  0.9276
  205MPD1    C4 3117   0.943   3.347  16.395  0.3773 -0.1761 -0.1228
  205MPD1    C5 3118   0.954   3.417  16.277 -0.4660 -0.3132 -0.2656
  205MPD1     H 3119   1.151   3.091  16.295  0.9072  0.4871 -2.6445
  205MPD1    H1 3120   0.884   3.395  16.472  0.7691 -0.2592  0.2266
  205MPD1    H2 3121   1.029   3.434  16.088 -1.4228  0.6081 -0.2077
  205MPD1    H3 3122   0.901   3.511  16.270 -0.0205  0.2915  4.2413
  205MPD1     N 3123   1.012   3.163  16.535  0.1919  0.8127 -0.3313
  205MPD1    H5 3124   0.954   3.206  16.607  0.6788 -0.7968  1.0210
  205MPD1    N1 3125   1.152   3.198  16.065 -0.0772  0.1070 -0.1913
  205MPD1    H6 3126   1.227   3.132  16.083  0.3953  0.7968  0.3595
  205MPD1    H7 3127   1.200   3.271  16.014 -1.8192  1.8868  0.6981
  206MPD1     C 3128   1.410   0.849  16.638 -1.1075 -0.4746 -0.1820
  206MPD1    C1 3129   1.438   0.967  16.579 -0.3833  0.4409  0.0684
  206MPD1    C2 3130   1.370   0.995  16.458 -0.6195  0.0316 -0.0967
  206MPD1    C3 3131   1.284   0.902  16.401  0.3804  0.0619  0.0149
  206MPD1    C4 3132   1.250   0.788  16.471 -0.7643 -0.2683  0.4979
  206MPD1    C5 3133   1.322   0.757  16.586 -0.0510  0.0868 -0.1804
  206MPD1     H 3134   1.386   1.092  16.413  0.1613  0.2633  0.6839
  206MPD1    H1 3135   1.200   0.706  16.421 -1.5299  0.5091  0.0120
  206MPD1    H2 3136   1.459   0.823  16.731 -0.4830 -0.1110 -0.4130
  206MPD1    H3 3137   1.299   0.674  16.651 -0.9421  1.2920  1.0385
  206MPD1     N 3138   1.234   0.909  16.268 -0.0840  0.2534  0.0134
  206MPD1    H5 3139   1.191   0.826  16.229  0.0409 -0.4332  1.3380
  206MPD1    N1 3140   1.528   1.055  16.634  0.0425  0.4879  0.2981
  206MPD1    H6 3141   1.536   1.150  16.598 -2.8779  0.4540 -0.4578
  206MPD1    H7 3142   1.515   1.067  16.734 -2.4920 -3.4564  0.4572
  207MPD1     C 3143   4.165   2.789   9.796  0.3081 -0.2081 -0.6861
  207MPD1    C1 3144   4.219   2.905   9.745  0.0478 -1.0216 -0.4970
  207MPD1    C2 3145   4.257   3.005   9.838 -0.4082  0.2291  0.6408
  207MPD1    C3 3146   4.230   3.004   9.975 -0.2098 -0.3043 -0.8520
  207MPD1    C4 3147   4.166   2.889  10.016  0.0246 -0.2535  0.3952
  207MPD1    C5 3148   4.131   2.790   9.929  0.0284  0.8551  0.5019
  207MPD1     H 3149   4.330   3.079   9.809 -3.0971  2.8552  0.5255
  207MPD1    H1 3150   4.141   2.866  10.119 -1.0967 -0.3646  0.1014
  207MPD1    H2 3151   4.141   2.699   9.741 -2.5058 -0.5004  1.0027
  207MPD1    H3 3152   4.071   2.703   9.958  0.1088  0.4378 -0.5713
  207MPD1     N 3153   4.279   3.100  10.067  0.0638 -0.4565 -0.0221
  207MPD1    H5 3154   4.266   3.078  10.165 -0.8253 -0.4533 -0.1410
  207MPD1    N1 3155   4.269   2.904   9.613  0.3883 -0.2619  0.8558
  207MPD1    H6 3156   4.206   2.850   9.554 -0.1772  0.2708  0.9770
  207MPD1    H7 3157   4.265   2.996   9.570 -1.2749 -1.1453 -0.9231
  208MPD1     C 3158   2.274   3.029  17.169  0.1330  0.0164 -0.6568
  208MPD1    C1 3159   2.344   2.931  17.237 -0.2939  0.3227  0.3844
  208MPD1    C2 3160   2.285   2.809  17.252 -0.2286  0.3387 -0.3700
  208MPD1    C3 3161   2.156   2.785  17.211  0.1911  1.0093  0.7705
  208MPD1    C4 3162   2.084   2.887  17.145 -0.4601 -0.0256  0.1522
  208MPD1    C5 3163   2.147   3.005  17.110  0.0135 -0.3962  0.3588
  208MPD1     H 3164   2.340   2.735  17.309  0.4222  0.9028 -0.2602
  208MPD1    H1 3165   1.984   2.880  17.104 -1.0087 -1.8933  1.8527
  208MPD1    H2 3166   2.319   3.126  17.154 -0.5669  0.8126  2.2530
  208MPD1    H3 3167   2.097   3.088  17.062  1.6148 -0.1298 -0.8423
  208MPD1     N 3168   2.095   2.655  17.241  0.2696 -0.2895  0.1094
  208MPD1    H5 3169   2.138   2.580  17.293  2.4267  0.7209 -0.2161
  208MPD1    N1 3170   2.457   2.968  17.313 -0.2430  0.1148  0.0265
  208MPD1    H6 3171   2.504   3.058  17.304 -0.5049  0.0202 -2.2001
  208MPD1    H7 3172   2.531   2.899  17.327 -0.1952  0.1922  0.1634
  209MPD1     C 3173   4.458   2.563  11.873 -0.0504 -0.3340 -0.0664
  209MPD1    C1 3174   4.424   2.686  11.926 -0.5706 -0.1343 -0.1876
  209MPD1    C2 3175   4.423   2.790  11.836 -0.3632  0.3545 -0.9483
  209MPD1    C3 3176   4.425   2.771  11.697 -0.4992 -0.0132 -0.1429
  209MPD1    C4 3177   4.441   2.646  11.653 -0.3378  0.3318 -0.8263
  209MPD1    C5 3178   4.461   2.541  11.736 -0.2520 -0.2952 -0.3630
  209MPD1     H 3179   4.419   2.889  11.880 -1.8617 -0.0816 -0.1289
  209MPD1    H1 3180   4.449   2.626  11.547  2.7166 -3.2241  0.0697
  209MPD1    H2 3181   4.480   2.481  11.941 -0.3325  0.7847  1.3843
  209MPD1    H3 3182   4.492   2.443  11.703 -2.8632  0.0864 -3.8970
  209MPD1     N 3183   4.421   2.881  11.609 -0.5146 -0.6150 -0.1307
  209MPD1    H5 3184   4.440   2.973  11.646 -1.8604 -0.0643 -0.7759
  209MPD1    N1 3185   4.427   2.699  12.068  0.7595  0.1352  0.4259
  209MPD1    H6 3186   4.397   2.615  12.117  0.4441 -0.2057 -0.3465
  209MPD1    H7 3187   4.379   2.783  12.101  1.0300  0.4792 -0.0545
  210MPD1     C 3188   4.485   3.863  11.534 -0.6039  0.8479  0.6198
  210MPD1    C1 3189   4.439   3.772  11.627 -0.1255 -0.0354 -0.6503
  210MPD1    C2 3190   4.443   3.633  11.590 -0.1002 -0.0986 -0.0286
  210MPD1    C3 3191   4.499   3.597  11.468  0.1174 -0.0070  0.0797
  210MPD1    C4 3192   4.553   3.693  11.378  0.0379 -0.1146  0.6813
  210MPD1    C5 3193   4.544   3.829  11.415 -0.5686 -0.4554  0.1382
  210MPD1     H 3194   4.411   3.557  11.659 -0.4059 -0.8816 -1.0320
  210MPD1    H1 3195   4.607   3.661  11.290 -1.5988 -0.1083 -0.3419
  210MPD1    H2 3196   4.473   3.966  11.565 -2.2465  0.0524  2.6561
  210MPD1    H3 3197   4.593   3.900  11.349 -1.9474  0.3383 -0.0231
  210MPD1     N 3198   4.515   3.468  11.420  0.5129  0.2568  0.5793
  210MPD1    H5 3199   4.574   3.460  11.338 -0.7570  3.6878 -0.6653
  210MPD1    N1 3200   4.407   3.807  11.757 -0.7180 -0.2138  0.5210
  210MPD1    H6 3201   4.339   3.747  11.804 -1.0302 -0.3582 -0.1136
  210MPD1    H7 3202   4.371   3.902  11.769 -0.4299 -0.2321  1.5481
  211MPD1     C 3203   1.558   2.411  15.233  1.1186  0.1334 -0.7987
  211MPD1    C1 3204   1.420   2.412  15.224 -0.6454  0.0084  0.5707
  211MPD1    C2 3205   1.344   2.471  15.328  0.3366  0.1664 -0.7207
  211MPD1    C3 3206   1.403   2.523  15.437  0.2266  0.3609  0.4465
  211MPD1    C4 3207   1.538   2.510  15.455  0.3582  0.3375  0.1141
  211MPD1    C5 3208   1.617   2.458  15.353  0.3527 -0.3570 -0.1908
  211MPD1     H 3209   1.238   2.480  15.313 -0.0605 -1.2473  1.1835
  211MPD1    H1 3210   1.585   2.555  15.542 -0.6027  0.2152  0.6862
  211MPD1    H2 3211   1.627   2.374  15.157  1.0538  0.5454 -1.0567
  211MPD1    H3 3212   1.725   2.459  15.361  0.2517 -1.0664  1.2639
  211MPD1     N 3213   1.322   2.587  15.532  0.0648 -0.4162  0.0233
  211MPD1    H5 3214   1.225   2.584  15.499  1.0300 -0.6273 -2.8515
  211MPD1    N1 3215   1.357   2.379  15.105 -0.9750  0.2836 -0.0482
  211MPD1    H6 3216   1.256   2.369  15.101 -0.6919 -3.0915  1.1534
  211MPD1    H7 3217   1.391   2.290  15.067  0.0090 -0.2593  2.0974
  212MPD1     C 3218   0.923   0.970  16.433 -0.1831 -0.6580  0.1237
  212MPD1    C1 3219   0.839   1.052  16.505 -0.0783 -0.6758  0.3796
  212MPD1    C2 3220   0.716   1.010  16.549 -0.0834 -0.2876 -0.0720
  212MPD1    C3 3221   0.681   0.877  16.529  0.0147  0.5303  0.5565
  212MPD1    C4 3222   0.772   0.793  16.474 -0.1520  0.6573  0.2721
  212MPD1    C5 3223   0.889   0.843  16.412  0.2479  0.0099  0.7091
  212MPD1     H 3224   0.644   1.071  16.603  0.4577  2.4461 -2.4225
  212MPD1    H1 3225   0.764   0.686  16.466  1.4948  0.5650 -0.2630
  212MPD1    H2 3226   1.014   1.008  16.387 -0.8080  0.3410 -0.2746
  212MPD1    H3 3227   0.967   0.780  16.371 -0.3956 -1.3423  1.5553
  212MPD1     N 3228   0.568   0.814  16.579  0.4779 -0.2747 -0.4144
  212MPD1    H5 3229   0.565   0.713  16.570 -1.1903 -0.4158  1.7636
  212MPD1    N1 3230   0.870   1.184  16.501  0.0851  0.1811 -0.4892
  212MPD1    H6 3231   0.971   1.198  16.498  0.1667  0.0563  1.2038
  212MPD1    H7 3232   0.841   1.233  16.586  1.7342  1.6043 -0.7445
  213MPD1     C 3233   3.413   1.409  15.821  1.1952  0.2399  0.2320
  213MPD1    C1 3234   3.363   1.340  15.707  0.6424 -0.0754  0.3684
  213MPD1    C2 3235   3.384   1.416  15.595  0.3541 -0.0117  0.6034
  213MPD1    C3 3236   3.403   1.554  15.603 -0.2885 -0.4744  0.1788
  213MPD1    C4 3237   3.396   1.616  15.720 -0.5800 -0.0989  0.4652
  213MPD1    C5 3238   3.418   1.540  15.826 -0.5963 -0.1475 -0.7221
  213MPD1     H 3239   3.376   1.363  15.501 -0.0557 -1.8913  1.6860
  213MPD1    H1 3240   3.396   1.723  15.735  1.5842 -0.2981  1.9096
  213MPD1    H2 3241   3.430   1.350  15.911 -2.0395  1.9996  2.0001
  213MPD1    H3 3242   3.435   1.574  15.927 -0.1035 -0.1958 -0.7895
  213MPD1     N 3243   3.401   1.623  15.475  0.7130  0.2433 -0.4043
  213MPD1    H5 3244   3.379   1.567  15.394 -0.1054  0.8169 -0.5806
  213MPD1    N1 3245   3.391   1.201  15.704  0.1121  0.2234  0.2859
  213MPD1    H6 3246   3.357   1.154  15.788  1.5279  1.8927  1.8003
  213MPD1    H7 3247   3.338   1.161  15.626  1.6306  0.6009 -0.9239
  214MPD1     C 3248   2.853   1.519  14.712  0.2755 -0.7226 -1.4072
  214MPD1    C1 3249   2.807   1.579  14.823  0.9766 -0.1111  0.8154
  214MPD1    C2 3250   2.903   1.626  14.910  0.0181 -0.5042 -0.3590
  214MPD1    C3 3251   3.039   1.620  14.880  0.2732  0.0520 -0.1318
  214MPD1    C4 3252   3.083   1.564  14.768 -0.3389  0.3147  0.0767
  214MPD1    C5 3253   2.987   1.520  14.682  0.1474 -0.0351  0.0135
  214MPD1     H 3254   2.874   1.677  15.001  1.5891 -0.0307 -0.1185
  214MPD1    H1 3255   3.188   1.554  14.742  0.0880  1.0133  1.5313
  214MPD1    H2 3256   2.774   1.486  14.646 -3.1258  0.8988  1.8358
  214MPD1    H3 3257   3.008   1.458  14.595  4.5415  0.2922  0.8567
  214MPD1     N 3258   3.137   1.690  14.954  1.7704  0.3517 -0.1389
  214MPD1    H5 3259   3.223   1.710  14.903  1.6213  1.1700 -0.0724
  214MPD1    N1 3260   2.674   1.579  14.862 -0.2085 -0.4826  0.0471
  214MPD1    H6 3261   2.614   1.586  14.780  0.2455 -0.5849 -0.2965
  214MPD1    H7 3262   2.649   1.661  14.917 -2.1904 -0.3368 -1.0761
  215MPD1     C 3263   4.038   2.213  10.795  0.6281  0.0364 -0.5040
  215MPD1    C1 3264   4.103   2.227  10.917  0.2637 -0.1391 -0.2876
  215MPD1    C2 3265   4.139   2.356  10.957 -0.0757 -0.5961  0.0809
  215MPD1    C3 3266   4.089   2.468  10.887 -0.1871  0.2976  0.0852
  215MPD1    C4 3267   4.017   2.442  10.770 -0.5765  0.0098  0.7156
  215MPD1    C5 3268   3.993   2.318  10.721  0.6989 -0.4572 -0.7999
  215MPD1     H 3269   4.193   2.370  11.050 -0.0473 -3.2291  0.4514
  215MPD1    H1 3270   3.986   2.519  10.701 -0.0056 -1.1069 -0.7876
  215MPD1    H2 3271   4.020   2.113  10.759 -0.2372  0.1591 -0.4114
  215MPD1    H3 3272   3.934   2.310  10.630 -0.4591  0.6165 -0.1336
  215MPD1     N 3273   4.128   2.591  10.936 -0.0312  0.0174 -0.2230
  215MPD1    H5 3274   4.155   2.606  11.033  0.9438 -1.2739 -0.2878
  215MPD1    N1 3275   4.164   2.112  10.971 -0.5435  0.3164  0.0807
  215MPD1    H6 3276   4.162   2.121  11.072  4.9765  1.2707  0.1295
  215MPD1    H7 3277   4.124   2.021  10.950 -0.5292 -0.6827  4.4182
  216MPD1     C 3278   0.948   0.194  16.996  0.1445  0.0434 -0.1269
  216MPD1    C1 3279   1.027   0.253  17.093 -0.3771 -0.6005  0.7692
  216MPD1    C2 3280   0.993   0.224  17.225  0.3211 -0.0504  0.0021
  216MPD1    C3 3281   0.895   0.133  17.255 -0.7237  0.6313 -0.1209
  216MPD1    C4 3282   0.827   0.069  17.155  0.6311 -0.4623 -0.1652
  216MPD1    C5 3283   0.847   0.108  17.024 -0.0800  0.8006 -0.3230
  216MPD1     H 3284   1.049   0.273  17.304  0.7499 -1.2580  0.4514
  216MPD1    H1 3285   0.760   4.709  17.177 -1.4697  1.4725  0.7674
  216MPD1    H2 3286   0.965   0.236  16.898 -1.6293 -0.3742 -0.6093
  216MPD1    H3 3287   0.801   0.060  16.938  0.9502 -1.0580  0.1531
  216MPD1     N 3288   0.872   0.097  17.387 -0.1519 -0.1173  0.5890
  216MPD1    H5 3289   0.933   0.144  17.454  2.3538 -0.4750 -1.4285
  216MPD1    N1 3290   1.118   0.361  17.072  0.6295  0.0105 -0.4868
  216MPD1    H6 3291   1.152   0.379  16.977  1.4488  0.1102 -0.1783
  216MPD1    H7 3292   1.186   0.386  17.144  2.1722 -0.0496 -1.9195
  217MPD1     C 3293   2.892   3.780   8.565  0.7273  0.7325  0.0752
  217MPD1    C1 3294   2.758   3.788   8.599  0.6106 -0.1734 -0.2815
  217MPD1    C2 3295   2.715   3.681   8.674  0.1338  0.1095  1.3153
  217MPD1    C3 3296   2.801   3.592   8.742  0.1071 -0.0970 -0.0232
  217MPD1    C4 3297   2.937   3.606   8.717 -0.1664 -0.6975  0.5963
  217MPD1    C5 3298   2.981   3.699   8.624 -0.2416 -0.7812  0.5661
  217MPD1     H 3299   2.607   3.678   8.682 -0.0960  3.0636 -0.7988
  217MPD1    H1 3300   3.004   3.532   8.758  1.8967  1.0923  0.4443
  217MPD1    H2 3301   2.927   3.852   8.492 -0.4694  0.8737 -0.3517
  217MPD1    H3 3302   3.086   3.706   8.597 -0.6307  0.3922 -0.6141
  217MPD1     N 3303   2.751   3.487   8.820  0.1713 -0.0293  0.1090
  217MPD1    H5 3304   2.818   3.424   8.865  0.6657  1.0105  0.8517
  217MPD1    N1 3305   2.665   3.878   8.540 -0.7621  0.0743  0.0553
  217MPD1    H6 3306   2.587   3.880   8.607 -0.8907  3.3201 -0.2043
  217MPD1    H7 3307   2.711   3.967   8.522  1.0740 -0.6570  1.1674
  218MPD1     C 3308   3.055   2.193  12.348 -0.2011  0.0432  0.0257
  218MPD1    C1 3309   3.192   2.162  12.334  0.1824 -0.0369  0.0200
  218MPD1    C2 3310   3.284   2.268  12.342 -0.5758 -0.6532  0.0365
  218MPD1    C3 3311   3.240   2.391  12.399  0.0009  0.1481  0.2092
  218MPD1    C4 3312   3.105   2.410  12.425  0.4385 -0.1073 -0.0913
  218MPD1    C5 3313   3.021   2.313  12.401 -0.3675  0.0087 -0.1763
  218MPD1     H 3314   3.386   2.249  12.310 -0.0771  1.2315  0.5282
  218MPD1    H1 3315   3.061   2.497  12.472  0.6776  0.5079 -0.9988
  218MPD1    H2 3316   2.974   2.121  12.336 -0.5460 -0.1802  3.6259
  218MPD1    H3 3317   2.915   2.330  12.420 -0.4410  0.6043 -1.1499
  218MPD1     N 3318   3.342   2.483  12.431  0.3055  0.0915 -0.1714
  218MPD1    H5 3319   3.439   2.453  12.423  0.5802  0.9098  0.0533
  218MPD1    N1 3320   3.230   2.035  12.297 -0.6592 -0.1731 -0.2237
  218MPD1    H6 3321   3.173   1.968  12.347  0.8518 -1.7969 -0.6820
  218MPD1    H7 3322   3.324   2.019  12.332  0.4770  0.3905 -2.9707
  219MPD1     C 3323   3.504   3.026  11.793  0.8196 -0.1165 -0.2108
  219MPD1    C1 3324   3.626   3.020  11.852 -1.2238  0.2940  0.1630
  219MPD1    C2 3325   3.637   2.956  11.975  0.0352  0.4818 -0.0105
  219MPD1    C3 3326   3.526   2.906  12.040  0.2397  0.1870  0.3072
  219MPD1    C4 3327   3.409   2.898  11.968  0.0042 -0.7051 -0.2296
  219MPD1    C5 3328   3.398   2.962  11.850  0.5007 -0.1541  0.0531
  219MPD1     H 3329   3.733   2.948  12.024  0.4047 -2.6238 -1.1868
  219MPD1    H1 3330   3.313   2.875  12.013 -0.0986 -1.4947 -0.8443
  219MPD1    H2 3331   3.491   3.065  11.693 -2.4331  0.2306  0.3599
  219MPD1    H3 3332   3.301   2.977  11.803  0.6713 -0.6506 -0.4475
  219MPD1     N 3333   3.531   2.859  12.171 -0.1675  0.0142  0.1898
  219MPD1    H5 3334   3.451   2.811  12.211 -0.9284  1.0042 -0.1501
  219MPD1    N1 3335   3.728   3.095  11.792 -0.6014  0.2185 -0.0766
  219MPD1    H6 3336   3.743   3.178  11.850 -1.3521  1.1867 -1.2825
  219MPD1    H7 3337   3.811   3.050  11.829 -1.7222 -1.2709  0.6257
  220MPD1     C 3338   4.371   3.532   9.412  0.7283 -0.6465  0.1082
  220MPD1    C1 3339   4.446   3.479   9.513  0.2299  0.8732  0.1560
  220MPD1    C2 3340   4.375   3.431   9.625  0.0232  0.3601 -0.3287
  220MPD1    C3 3341   4.238   3.437   9.624 -0.3063 -0.4459  0.2692
  220MPD1    C4 3342   4.166   3.488   9.520  0.0455 -0.2575 -0.6804
  220MPD1    C5 3343   4.232   3.533   9.413  0.5242  0.5474 -0.3439
  220MPD1     H 3344   4.428   3.367   9.695  0.5665  2.1119  0.8596
  220MPD1    H1 3345   4.060   3.509   9.526 -0.2218 -1.6590 -0.4115
  220MPD1    H2 3346   4.408   3.568   9.316 -0.8708  1.6908  0.3566
  220MPD1    H3 3347   4.173   3.570   9.331 -1.7991  0.2229  1.1807
  220MPD1     N 3348   4.168   3.389   9.733 -0.4490 -0.0902  0.4944
  220MPD1    H5 3349   4.220   3.368   9.818  1.8595  2.2004 -0.3543
  220MPD1    N1 3350   4.587   3.458   9.497 -0.0631 -0.6005 -0.2665
  220MPD1    H6 3351   4.631   3.471   9.588  0.3469  0.3088 -0.5928
  220MPD1    H7 3352   4.624   3.538   9.446 -3.1339  0.8756 -0.1526
  221MPD1     C 3353   2.203   2.107  15.744  0.2285  0.6226  0.4437
  221MPD1    C1 3354   2.225   2.160  15.869  0.4159  0.6984  0.0986
  221MPD1    C2 3355   2.122   2.164  15.961 -0.6288  0.1298  0.0861
  221MPD1    C3 3356   1.991   2.139  15.930 -0.6666  0.2942 -0.2048
  221MPD1    C4 3357   1.963   2.103  15.800 -0.1618 -0.6071  1.0429
  221MPD1    C5 3358   2.069   2.087  15.712  0.4552 -0.0302 -0.2330
  221MPD1     H 3359   2.144   2.199  16.061  0.6272 -1.2855  0.3021
  221MPD1    H1 3360   1.866   2.081  15.757  0.5112 -0.6554 -0.4596
  221MPD1    H2 3361   2.275   2.066  15.675 -0.2105 -1.4852  1.2501
  221MPD1    H3 3362   2.046   2.061  15.609 -1.6890 -0.2152  0.2998
  221MPD1     N 3363   1.888   2.133  16.028  0.2149  0.5749 -0.1817
  221MPD1    H5 3364   1.919   2.166  16.119 -1.7274  0.5712  0.4891
  221MPD1    N1 3365   2.361   2.169  15.906  0.7971  0.3926  0.2902
  221MPD1    H6 3366   2.372   2.224  15.991 -0.6056  0.6984  0.2726
  221MPD1    H7 3367   2.426   2.194  15.832  1.2140 -4.2654 -0.9627
  222MPD1     C 3368   4.607   0.660  17.561 -0.0448  0.3701  0.4530
  222MPD1    C1 3369   4.643   0.656  17.426  0.2521  0.2292  0.2472
  222MPD1    C2 3370   4.687   0.778  17.376  0.2494 -0.6875  0.0505
  222MPD1    C3 3371   4.694   0.896  17.448  0.5522 -0.0945 -1.0531
  222MPD1    C4 3372   4.653   0.899  17.576 -0.2940  0.2554 -0.1173
  222MPD1    C5 3373   4.621   0.778  17.628 -0.6144 -0.1261 -0.3139
  222MPD1     H 3374   4.710   0.783  17.270 -0.2174 -1.5227 -0.0919
  222MPD1    H1 3375   4.654   0.991  17.633 -0.6175  1.1394 -1.5164
  222MPD1    H2 3376   4.575   0.571  17.614  1.8167  0.0473  1.0472
  222MPD1    H3 3377   4.599   0.780   0.039 -0.0563  0.9092 -0.2127
  222MPD1     N 3378   0.006   1.024  17.396 -0.2665 -0.1990 -0.1369
  222MPD1    H5 3379   4.721   1.105  17.457  0.9582 -0.5266  0.4656
  222MPD1    N1 3380   4.624   0.538  17.351 -0.2327  0.3749 -0.3652
  222MPD1    H6 3381   4.661   0.538  17.256 -0.1983 -1.5377 -0.3582
  222MPD1    H7 3382   4.637   0.455  17.408  2.2160  0.4140 -0.8699
  223MPD1     C 3383   0.195   1.734   0.125  0.5398  0.3156  0.6351
  223MPD1    C1 3384   0.297   1.704   0.042 -0.8095 -0.1591  0.4177
  223MPD1    C2 3385   0.263   1.664  17.612 -0.1423 -0.6658 -0.0680
  223MPD1    C3 3386   0.139   1.619  17.581 -0.1062 -0.4390 -0.1258
  223MPD1    C4 3387   0.034   1.645  17.664  0.3236 -0.0305 -0.0550
  223MPD1    C5 3388   0.061   1.704   0.091  0.3550  0.4557 -0.0420
  223MPD1     H 3389   0.339   1.649  17.536 -0.5252  1.6763 -0.9119
  223MPD1    H1 3390   4.655   1.624  17.637  0.1903  0.7628 -0.1604
  223MPD1    H2 3391   0.219   1.791   0.215  0.6320  0.5432  0.4667
  223MPD1    H3 3392   4.699   1.732   0.151 -0.4199 -0.4365 -0.7283
  223MPD1     N 3393   0.129   1.551  17.453 -0.0859 -0.1127  0.0389
  223MPD1    H5 3394   0.213   1.543  17.397 -0.9605 -0.9221 -1.1488
  223MPD1    N1 3395   0.431   1.746   0.071  0.1921  0.2501  0.4449
  223MPD1    H6 3396   0.457   1.737   0.168  2.0109 -0.9083 -0.1510
  223MPD1    H7 3397   0.493   1.694   0.009  0.0193  0.5178  0.0438
  224MPD1     C 3398   2.750   3.643   9.156  0.5480 -0.3729  0.5701
  224MPD1    C1 3399   2.615   3.642   9.133  0.6602  0.3375  0.2559
  224MPD1    C2 3400   2.531   3.545   9.190  0.2233 -0.1975 -0.2961
  224MPD1    C3 3401   2.587   3.440   9.258 -0.6180  0.3182 -0.3074
  224MPD1    C4 3402   2.728   3.440   9.273 -0.1861 -0.3600  0.6978
  224MPD1    C5 3403   2.804   3.534   9.208 -0.4508  0.6772 -0.0902
  224MPD1     H 3404   2.423   3.556   9.188  0.1012 -1.7609 -1.6504
  224MPD1    H1 3405   2.783   3.359   9.319  0.5443  0.1494  0.7179
  224MPD1    H2 3406   2.816   3.721   9.119  3.3475 -2.3442  1.4265
  224MPD1    H3 3407   2.912   3.535   9.218 -0.1981  0.8541 -2.9180
  224MPD1     N 3408   2.519   3.329   9.305 -0.8545 -0.4011  0.3753
  224MPD1    H5 3409   2.578   3.271   9.364  1.1813  0.9407 -0.3433
  224MPD1    N1 3410   2.566   3.741   9.046  0.3620  0.9924 -0.6662
  224MPD1    H6 3411   2.476   3.719   9.003  1.0718 -0.6450 -1.3147
  224MPD1    H7 3412   2.636   3.745   8.973  1.7189  2.6431  0.7345
  225MPD1     C 3413   2.847   3.362  12.802  0.4535  0.2845  0.1738
  225MPD1    C1 3414   2.792   3.475  12.749 -0.9808  0.1112  0.3440
  225MPD1    C2 3415   2.858   3.538  12.647 -0.6928  0.3595 -0.2492
  225MPD1    C3 3416   2.982   3.486  12.602  0.0555 -0.0903 -0.5803
  225MPD1    C4 3417   3.034   3.367  12.659  0.7274 -0.1566  0.2094
  225MPD1    C5 3418   2.964   3.305  12.761  0.1771  0.1943  0.1702
  225MPD1     H 3419   2.824   3.630  12.602 -1.0857  0.2070 -0.2592
  225MPD1    H1 3420   3.127   3.328  12.619  0.8102 -0.7089  0.9436
  225MPD1    H2 3421   2.799   3.306  12.881 -1.1835 -0.7589 -1.5541
  225MPD1    H3 3422   3.008   3.229  12.824 -2.8954 -1.5133  0.3100
  225MPD1     N 3423   3.048   3.548  12.494 -0.7262  0.0145 -0.3841
  225MPD1    H5 3424   3.131   3.501  12.461 -1.1875 -0.2638 -1.1737
  225MPD1    N1 3425   2.680   3.538  12.808 -0.1000 -0.5370 -0.3570
  225MPD1    H6 3426   2.607   3.577  12.748 -1.1712  2.9442  3.2491
  225MPD1    H7 3427   2.641   3.469  12.872  1.7148 -2.0908 -0.9286
  226MPD1     C 3428   1.536   4.020   9.061  0.0314 -0.3188  0.2965
  226MPD1    C1 3429   1.561   3.889   9.024 -0.4583 -0.6572  0.2209
  226MPD1    C2 3430   1.675   3.829   9.069 -0.9874 -0.2106  0.3861
  226MPD1    C3 3431   1.768   3.897   9.147 -0.2732  0.3297 -0.0284
  226MPD1    C4 3432   1.738   4.025   9.187 -0.8324  0.5440  0.0268
  226MPD1    C5 3433   1.624   4.090   9.136  0.4477 -0.1478  0.6200
  226MPD1     H 3434   1.698   3.730   9.033 -0.4941  1.3670 -3.6536
  226MPD1    H1 3435   1.799   4.094   9.244  2.1018 -2.1697  0.1231
  226MPD1    H2 3436   1.462   4.078   9.006 -0.0495 -1.2664 -0.6106
  226MPD1    H3 3437   1.593   4.189   9.168 -0.5836 -0.4352  0.5152
  226MPD1     N 3438   1.884   3.828   9.185 -0.2622 -0.1018  0.9141
  226MPD1    H5 3439   1.896   3.730   9.164 -0.4611  0.2798 -0.9673
  226MPD1    N1 3440   1.480   3.838   8.922 -0.0664 -0.5958 -0.7223
  226MPD1    H6 3441   1.386   3.878   8.932  1.4627  2.9269 -0.4960
  226MPD1    H7 3442   1.481   3.736   8.930 -1.6594 -0.5093  0.7149
  227MPD1     C 3443   2.791   3.950   9.785  0.5721  0.1935  0.0208
  227MPD1    C1 3444   2.692   3.880   9.846 -0.8011  0.1163 -0.3450
  227MPD1    C2 3445   2.593   3.827   9.767 -0.3952  0.5995  0.2008
  227MPD1    C3 3446   2.571   3.865   9.631 -0.0996 -0.5925  0.1549
  227MPD1    C4 3447   2.667   3.950   9.575 -0.0546 -0.1228  0.4675
  227MPD1    C5 3448   2.777   3.987   9.655  0.4727  0.1147  0.0925
  227MPD1     H 3449   2.526   3.755   9.812 -1.7082  1.5543 -0.1998
  227MPD1    H1 3450   2.665   3.982   9.472 -0.8012  0.7706  0.7632
  227MPD1    H2 3451   2.881   3.981   9.836  0.5347  0.6805 -0.2154
  227MPD1    H3 3452   2.850   4.060   9.622 -0.9834  1.1506 -0.8417
  227MPD1     N 3453   2.455   3.823   9.562  0.7600 -0.2786 -0.0173
  227MPD1    H5 3454   2.401   3.750   9.608  1.1247 -0.1858  0.5547
  227MPD1    N1 3455   2.704   3.850   9.986 -0.4609 -0.6221  0.0776
  227MPD1    H6 3456   2.760   3.912  10.043 -1.5482 -0.3912  0.8795
  227MPD1    H7 3457   2.612   3.855  10.029  0.9853  2.2092  2.7959
  228MPD1     C 3458   0.208   1.890  12.220  0.2196 -0.3073 -0.0531
  228MPD1    C1 3459   0.070   1.880  12.194  0.0211  0.1290 -0.7186
  228MPD1    C2 3460   4.712   1.819  12.295 -0.1117 -1.1302  0.6045
  228MPD1    C3 3461   0.038   1.800  12.421 -0.2571  0.7346  0.3710
  228MPD1    C4 3462   0.173   1.812  12.443  0.9388  0.0331  0.2679
  228MPD1    C5 3463   0.256   1.841  12.342 -0.1751 -0.0916  0.3710
  228MPD1     H 3464   4.607   1.798  12.279  0.0457 -0.1295 -1.8297
  228MPD1    H1 3465   0.214   1.781  12.539  2.3753  1.4085  0.1017
  228MPD1    H2 3466   0.288   1.927  12.156  1.5648  1.6672  2.7742
  228MPD1    H3 3467   0.362   1.850  12.364  0.0871 -0.2858 -0.8414
  228MPD1     N 3468   4.671   1.753  12.520 -0.6614  0.4269  0.1900
  228MPD1    H5 3469   4.572   1.752  12.497 -1.2132 -0.7867  2.6789
  228MPD1    N1 3470   0.006   1.905  12.071  0.2669 -0.2902  0.0003
  228MPD1    H6 3471   4.637   1.947  12.078 -0.3541 -2.0566  2.0630
  228MPD1    H7 3472   0.067   1.964  12.013 -0.7784 -0.0611 -0.8658
  229MPD1     C 3473   4.512   0.631  15.365 -0.1390 -0.1469  0.3184
  229MPD1    C1 3474   4.472   0.576  15.246  0.5556  0.7366  0.0617
  229MPD1    C2 3475   4.480   0.441  15.222 -0.1186 -0.2783 -0.6047
  229MPD1    C3 3476   4.519   0.357  15.321 -0.0253  0.5150  0.5802
  229MPD1    C4 3477   4.568   0.410  15.442  0.1159  0.3991 -0.0071
  229MPD1    C5 3478   4.578   0.551  15.458 -0.0262 -0.3777  0.4880
  229MPD1     H 3479   4.439   0.404  15.129  1.8944 -0.7531 -1.2961
  229MPD1    H1 3480   4.604   0.351  15.526  1.2825  0.8198 -0.2181
  229MPD1    H2 3481   4.496   0.737  15.383 -2.2366 -0.3949 -0.0951
  229MPD1    H3 3482   4.617   0.600  15.547  3.1470 -1.6269 -0.2159
  229MPD1     N 3483   4.517   0.212  15.315  0.1597 -0.0186  0.0803
  229MPD1    H5 3484   4.564   0.157  15.386  0.8801  0.8563  0.2864
  229MPD1    N1 3485   4.394   0.647  15.158  0.1650  0.1754 -0.1628
  229MPD1    H6 3486   4.384   0.604  15.066  0.5390 -1.9992  0.8040
  229MPD1    H7 3487   4.439   0.736  15.137  3.2203 -1.2818  0.2310
  230MPD1     C 3488   0.234   4.167  15.719 -0.4536  0.4747 -0.3025
  230MPD1    C1 3489   0.151   4.274  15.756 -0.7528 -0.5626 -0.1307
  230MPD1    C2 3490   0.078   4.343  15.664  0.1843 -0.0815 -0.2148
  230MPD1    C3 3491   0.080   4.297  15.529  0.1149  0.3605  0.1536
  230MPD1    C4 3492   0.156   4.189  15.488 -0.5349  0.7838 -0.8920
  230MPD1    C5 3493   0.233   4.124  15.587  0.5919  0.4899 -0.5358
  230MPD1     H 3494   0.048   4.442  15.695  0.5783  0.1239 -0.4884
  230MPD1    H1 3495   0.161   4.158  15.384  2.4185 -2.0737  0.0950
  230MPD1    H2 3496   0.292   4.115  15.793  1.2382  1.5397 -0.8771
  230MPD1    H3 3497   0.297   4.043  15.553 -1.4574 -1.7814  0.9984
  230MPD1     N 3498   0.010   4.372  15.429 -0.4160 -0.9677  0.0914
  230MPD1    H5 3499   0.035   4.345  15.335  0.3515  0.7218 -0.2005
  230MPD1    N1 3500   0.172   4.323  15.882  0.2137  0.2027 -0.3344
  230MPD1    H6 3501   0.188   4.245  15.945  0.0548  1.1532  0.8696
  230MPD1    H7 3502   0.085   4.368  15.909 -0.9250 -2.9121  1.1382
  231MPD1     C 3503   2.742   1.884  15.207  0.0811 -0.5170  0.5737
  231MPD1    C1 3504   2.715   1.906  15.076 -1.1227 -0.0748  0.0160
  231MPD1    C2 3505   2.823   1.962  15.007 -0.7090  0.3055 -1.0917
  231MPD1    C3 3506   2.929   2.018  15.074  0.0427  0.5846 -1.0033
  231MPD1    C4 3507   2.951   1.999  15.215 -0.4992  0.5245  0.1482
  231MPD1    C5 3508   2.846   1.937  15.272  0.1057 -0.2469  0.5985
  231MPD1     H 3509   2.809   1.963  14.899 -0.8437 -1.2263 -1.0869
  231MPD1    H1 3510   3.039   2.034  15.268  0.4920 -1.2982 -0.2810
  231MPD1    H2 3511   2.673   1.821  15.260 -0.5682 -0.0538  0.2754
  231MPD1    H3 3512   2.833   1.925  15.379 -0.8390  0.7550  0.5952
  231MPD1     N 3513   3.021   2.084  14.993 -0.1795 -0.2806  0.7304
  231MPD1    H5 3514   2.995   2.080  14.895 -2.0825 -1.2996  1.2824
  231MPD1    N1 3515   2.610   1.838  15.015  0.0124 -0.5625  0.3397
  231MPD1    H6 3516   2.524   1.834  15.069 -0.0723  0.8520  0.2861
  231MPD1    H7 3517   2.580   1.880  14.927 -0.5911  0.2191  0.9236
  232MPD1     C 3518   0.035   4.334   0.233  0.4129 -0.2054  0.3361
  232MPD1    C1 3519   4.691   4.373   0.344 -0.0060 -1.2018  0.0486
  232MPD1    C2 3520   4.557   4.386   0.340 -0.3320 -0.0575  0.3251
  232MPD1    C3 3521   4.483   4.347   0.229  0.7302 -0.5498 -0.3095
  232MPD1    C4 3522   4.554   4.312   0.110 -1.4010 -0.9897  0.2335
  232MPD1    C5 3523   4.694   4.303   0.116 -0.5012 -0.3197  0.3045
  232MPD1     H 3524   4.504   4.437   0.420  1.7698  0.0888  1.6198
  232MPD1    H1 3525   4.510   4.265   0.023 -1.0109 -0.1749 -0.4053
  232MPD1    H2 3526   0.142   4.319   0.230  0.3211 -0.8896  0.5690
  232MPD1    H3 3527   0.023   4.286   0.023 -0.0082 -1.0190  0.7031
  232MPD1     N 3528   4.346   4.335   0.241  0.6959  0.7190 -0.5977
  232MPD1    H5 3529   4.305   4.343   0.333 -0.3982  1.1421 -1.1195
  232MPD1    N1 3530   0.036   4.416   0.457 -0.2147  0.4087 -0.0683
  232MPD1    H6 3531   0.126   4.370   0.471  0.0324  0.3156 -1.9422
  232MPD1    H7 3532   4.707   4.417   0.544  0.2891 -1.9088  0.2713
  233MPD1     C 3533   1.019   3.774   1.350  0.1537 -0.1616  0.0506
  233MPD1    C1 3534   0.945   3.691   1.270  0.2064  0.0810  0.3737
  233MPD1    C2 3535   0.997   3.570   1.230 -0.3633 -0.2505  0.6347
  233MPD1    C3 3536   1.123   3.523   1.262 -0.9361 -0.2739  0.1428
  233MPD1    C4 3537   1.196   3.613   1.335 -0.2453 -0.6794  0.1723
  233MPD1    C5 3538   1.150   3.734   1.376 -0.4940  0.8781  0.4812
  233MPD1     H 3539   0.943   3.500   1.167  0.7764 -0.1695 -0.4528
  233MPD1    H1 3540   1.301   3.593   1.357 -0.5401  0.8019  2.9461
  233MPD1    H2 3541   0.985   3.874   1.376  1.7504  1.3564 -3.8039
  233MPD1    H3 3542   1.219   3.795   1.432  3.2823 -1.3404 -1.7732
  233MPD1     N 3543   1.185   3.400   1.223  0.2781 -0.6302  0.3241
  233MPD1    H5 3544   1.270   3.380   1.275  1.0622  2.2917  0.1554
  233MPD1    N1 3545   0.804   3.713   1.247  0.0985 -0.4434 -1.0394
  233MPD1    H6 3546   0.787   3.812   1.238  1.3539 -0.2149 -0.9144
  233MPD1    H7 3547   0.763   3.678   1.160  0.3911 -0.2943 -1.2393
  234MPD1     C 3548   3.734   2.946   9.913  0.2897 -0.0818  0.1402
  234MPD1    C1 3549   3.762   2.906   9.784 -0.4795 -0.2507 -1.0959
  234MPD1    C2 3550   3.666   2.839   9.718 -0.3007 -0.6252  0.4175
  234MPD1    C3 3551   3.546   2.808   9.787 -0.1368 -0.0614 -0.0740
  234MPD1    C4 3552   3.518   2.862   9.906 -0.4180 -0.6272  0.4243
  234MPD1    C5 3553   3.614   2.929   9.968  0.6605 -0.8518  0.6155
  234MPD1     H 3554   3.672   2.795   9.619 -1.9343  1.8652 -0.7934
  234MPD1    H1 3555   3.419   2.869   9.950 -1.0333  2.5499 -1.4408
  234MPD1    H2 3556   3.809   3.005   9.965 -0.6406  1.4566 -0.2641
  234MPD1    H3 3557   3.585   2.972  10.063  1.4286  0.9082  0.0430
  234MPD1     N 3558   3.450   2.722   9.724 -0.2587 -0.7553 -0.4766
  234MPD1    H5 3559   3.461   2.699   9.625 -2.1258  1.2520 -1.1429
  234MPD1    N1 3560   3.874   2.962   9.713 -0.0616 -0.0383 -0.5351
  234MPD1    H6 3561   3.951   2.994   9.772 -0.1441 -1.0309  0.1166
  234MPD1    H7 3562   3.915   2.898   9.644  0.1469  0.9210 -1.2934
  235MPD1     C 3563   4.441   3.804  10.630  0.1550 -0.3230  0.5668
  235MPD1    C1 3564   4.428   3.811  10.491  0.2780  0.4159 -0.1340
  235MPD1    C2 3565   4.470   3.932  10.437 -0.0320 -0.3569 -0.2701
  235MPD1    C3 3566   4.538   4.030  10.509 -0.0659  0.3402  0.4762
  235MPD1    C4 3567   4.543   4.021  10.651 -1.2606  0.5758 -0.3606
  235MPD1    C5 3568   4.492   3.909  10.701  0.4987 -0.1571  0.5492
  235MPD1     H 3569   4.450   3.955  10.333 -0.8682 -0.9132 -0.2291
  235MPD1    H1 3570   4.581   4.096  10.719  2.5338 -0.4937 -1.2913
  235MPD1    H2 3571   4.403   3.719  10.686  1.7830 -1.6979 -0.4139
  235MPD1    H3 3572   4.480   3.902  10.808  0.5629  0.4730  0.5959
  235MPD1     N 3573   4.581   4.133  10.427  0.9061 -0.2148 -0.0659
  235MPD1    H5 3574   4.571   4.125  10.326 -0.4420  1.6423 -0.0654
  235MPD1    N1 3575   4.359   3.712  10.408 -0.3618  0.2051 -0.1636
  235MPD1    H6 3576   4.381   3.711  10.309 -0.0574 -1.4460 -0.0842
  235MPD1    H7 3577   4.358   3.616  10.444  2.3012  0.5772  0.9032
  236MPD1     C 3578   3.652   0.390   9.869  0.6270 -0.1813  0.2478
  236MPD1    C1 3579   3.636   0.255   9.851  0.2930 -0.2718  0.0183
  236MPD1    C2 3580   3.729   0.170   9.900 -1.6365 -0.1360 -0.3714
  236MPD1    C3 3581   3.834   0.212   9.981 -0.2550 -0.0894 -0.1394
  236MPD1    C4 3582   3.849   0.347   9.989 -0.0666 -0.0728  0.7875
  236MPD1    C5 3583   3.762   0.436   9.944 -0.4965  0.0485 -0.1730
  236MPD1     H 3584   3.721   0.062   9.885  1.3705 -0.7997  2.9171
  236MPD1    H1 3585   3.932   0.394  10.041 -1.3957  2.3712  0.7078
  236MPD1    H2 3586   3.585   0.464   9.828  1.9909  0.4826 -0.8052
  236MPD1    H3 3587   3.786   0.541   9.951  1.5367 -0.7564  4.7308
  236MPD1     N 3588   3.931   0.128  10.040 -0.2825 -0.3462  0.3233
  236MPD1    H5 3589   4.002   0.184  10.086 -0.9126 -1.9646  3.2507
  236MPD1    N1 3590   3.513   0.211   9.796 -0.1708 -0.2695  0.1488
  236MPD1    H6 3591   3.474   0.285   9.738  2.0634  0.4330 -0.4387
  236MPD1    H7 3592   3.522   0.123   9.745 -0.3317 -0.1299 -0.1158
  237MPD1     C 3593   3.353   3.058  14.349 -0.5084 -0.0862 -0.1707
  237MPD1    C1 3594   3.382   2.966  14.445 -0.2621 -0.1953 -0.4124
  237MPD1    C2 3595   3.325   2.987  14.572 -0.2780  0.5675 -0.2058
  237MPD1    C3 3596   3.253   3.102  14.611  0.0872 -0.4110 -0.5499
  237MPD1    C4 3597   3.237   3.195  14.512  0.3217  0.1283  0.0055
  237MPD1    C5 3598   3.293   3.181  14.383 -0.2052 -0.5372  1.2354
  237MPD1     H 3599   3.322   2.903  14.640  1.0959 -0.1486 -1.0424
  237MPD1    H1 3600   3.186   3.289  14.529  0.8500  0.8701 -2.5703
  237MPD1    H2 3601   3.392   3.044  14.249 -0.1851  0.3973 -0.1108
  237MPD1    H3 3602   3.272   3.257  14.309  0.7779 -0.4299  1.0633
  237MPD1     N 3603   3.171   3.111  14.727 -0.1648 -0.4373  0.5627
  237MPD1    H5 3604   3.104   3.186  14.736  0.5646  0.4704 -1.7823
  237MPD1    N1 3605   3.429   2.842  14.404 -0.2082  0.3204 -0.2937
  237MPD1    H6 3606   3.485   2.797  14.476 -0.3795 -1.6969 -1.4184
  237MPD1    H7 3607   3.491   2.850  14.324 -0.4979 -0.5752 -0.6089
  238MPD1     C 3608   4.668   2.208  15.477  0.1985  0.0029  0.1257
  238MPD1    C1 3609   4.648   2.261  15.354  0.0694  0.3796  0.7641
  238MPD1    C2 3610   4.609   2.169  15.249  0.1921  0.8864  0.7748
  238MPD1    C3 3611   4.569   2.039  15.284  0.4084 -0.5463  0.2578
  238MPD1    C4 3612   4.579   1.991  15.410  0.2886 -0.2656  0.7672
  238MPD1    C5 3613   4.627   2.077  15.509  0.0199  0.4643 -0.1666
  238MPD1     H 3614   4.591   2.214  15.152 -1.5064  0.9806  1.1386
  238MPD1    H1 3615   4.548   1.893  15.444 -1.4736 -0.2604 -0.7977
  238MPD1    H2 3616   4.681   2.274  15.562 -0.5361  1.0994 -0.6206
  238MPD1    H3 3617   4.634   2.036  15.609  1.3433 -0.1480 -0.5126
  238MPD1     N 3618   4.514   1.945  15.197  0.3220 -0.4290 -0.1084
  238MPD1    H5 3619   4.497   1.852  15.233 -1.3674  0.0315  0.2589
  238MPD1    N1 3620   4.689   2.398  15.332  0.1924 -0.0552  0.4637
  238MPD1    H6 3621   4.625   2.448  15.271  0.1778  1.7697  1.9719
  238MPD1    H7 3622   4.704   2.454  15.415 -0.6757 -2.4348  2.2217
  239MPD1     C 3623   0.269   2.456  14.805 -0.0076  0.3786  0.6010
  239MPD1    C1 3624   0.365   2.548  14.807 -0.3081 -0.3620  0.1220
  239MPD1    C2 3625   0.338   2.670  14.743  0.1745  0.2319 -0.4191
  239MPD1    C3 3626   0.208   2.705  14.703 -0.3190 -0.0827 -0.1407
  239MPD1    C4 3627   0.115   2.612  14.718 -0.0894 -0.7763  0.6940
  239MPD1    C5 3628   0.140   2.488  14.762  0.3351  0.5610  0.2979
  239MPD1     H 3629   0.419   2.741  14.733 -1.5798  2.4195  1.1312
  239MPD1    H1 3630   0.014   2.616  14.679  0.4096 -4.3912 -0.9668
  239MPD1    H2 3631   0.280   2.359  14.851  0.5312  1.1285  2.0490
  239MPD1    H3 3632   0.062   2.413  14.768  2.3298 -1.6168 -1.1652
  239MPD1     N 3633   0.173   2.830  14.643  0.3142  0.1188  0.2415
  239MPD1    H5 3634   0.081   2.819  14.601 -0.6732  0.0073  2.3898
  239MPD1    N1 3635   0.492   2.495  14.843  0.2208  0.4083 -0.0462
  239MPD1    H6 3636   0.549   2.578  14.860 -0.0550  0.5527  0.1625
  239MPD1    H7 3637   0.495   2.443  14.930  0.2661  1.5928  0.6595
  240MPD1     C 3638   4.272   2.879  13.304  0.6046 -0.6871 -0.6125
  240MPD1    C1 3639   4.164   2.847  13.379  0.4216 -0.5868 -0.2568
  240MPD1    C2 3640   4.192   2.797  13.511 -0.0617  0.3618 -0.0166
  240MPD1    C3 3641   4.323   2.764  13.545 -0.8658 -0.0006  0.0448
  240MPD1    C4 3642   4.427   2.810  13.471  0.4852 -1.0026 -0.5611
  240MPD1    C5 3643   4.400   2.868  13.354 -0.3384 -0.2015 -0.8978
  240MPD1     H 3644   4.111   2.771  13.578  1.2333 -1.8081  0.7162
  240MPD1    H1 3645   4.530   2.810  13.503 -0.0285 -0.1403  1.0746
  240MPD1    H2 3646   4.262   2.929  13.209 -2.6565 -0.4851 -0.1558
  240MPD1    H3 3647   4.481   2.898  13.288  1.0263 -2.2628 -0.1464
  240MPD1     N 3648   4.341   2.699  13.673 -0.2158 -0.5607 -0.0168
  240MPD1    H5 3649   4.259   2.677  13.728  0.9714 -1.3901  1.4255
  240MPD1    N1 3650   4.037   2.900  13.346 -0.2022 -0.1563 -0.4849
  240MPD1    H6 3651   4.030   2.916  13.246 -1.0510 -2.7091 -0.8363
  240MPD1    H7 3652   4.029   2.997  13.375  1.2101  0.3147 -1.6691
  241MPD1     C 3653   0.223   2.308  14.493 -0.4240  0.3022  0.1703
  241MPD1    C1 3654   0.269   2.373  14.386  0.5404  0.8732  0.3095
  241MPD1    C2 3655   0.182   2.404  14.276 -0.3906 -0.1258  0.2659
  241MPD1    C3 3656   0.046   2.381  14.297  0.0109 -0.7064 -0.1195
  241MPD1    C4 3657   0.003   2.326  14.413  0.3263  0.0523 -0.2539
  241MPD1    C5 3658   0.091   2.276  14.506  0.1032 -0.2335 -0.1949
  241MPD1     H 3659   0.207   2.448  14.181 -1.6292  0.6153  0.2859
  241MPD1    H1 3660   4.620   2.322  14.429  0.2201  0.0835 -0.9562
  241MPD1    H2 3661   0.289   2.285  14.576 -0.4583 -1.5810 -0.3225
  241MPD1    H3 3662   0.062   2.231  14.600 -1.9392  2.2543  0.3738
  241MPD1     N 3663   4.669   2.445  14.220 -0.5129  0.2718 -0.3917
  241MPD1    H5 3664   4.577   2.446  14.263  0.5897 -2.6187  2.0404
  241MPD1    N1 3665   0.410   2.380  14.364 -0.2925  0.1593 -0.0522
  241MPD1    H6 3666   0.441   2.456  14.303  0.8072  1.6051  2.3094
  241MPD1    H7 3667   0.456   2.391  14.454 -0.3144  1.9073 -0.2615
  242MPD1     C 3668   4.044   1.061  16.007 -0.0013 -0.0485 -0.0852
  242MPD1    C1 3669   4.179   1.038  15.982  0.2434  0.1830  0.3437
  242MPD1    C2 3670   4.220   1.016  15.850  0.5306 -0.2917  0.1227
  242MPD1    C3 3671   4.125   1.015  15.751 -0.0913  0.0208 -0.3461
  242MPD1    C4 3672   3.989   1.038  15.785  0.0751 -0.2730  0.0883
  242MPD1    C5 3673   3.951   1.067  15.908 -0.1843 -0.9124  0.3135
  242MPD1     H 3674   4.324   0.989  15.835  0.2146  0.2428 -2.9445
  242MPD1    H1 3675   3.914   1.029  15.707  0.6239  0.1229 -0.4894
  242MPD1    H2 3676   4.007   1.069  16.109 -0.1037 -0.4152 -0.0956
  242MPD1    H3 3677   3.845   1.080  15.926  0.3698  1.3191  1.9664
  242MPD1     N 3678   4.159   0.993  15.613  0.3572  0.6291 -0.3731
  242MPD1    H5 3679   4.078   0.986  15.552 -0.8124  0.6010  1.1988
  242MPD1    N1 3680   4.258   1.009  16.097  0.1561 -0.4078  0.6403
  242MPD1    H6 3681   4.244   1.058  16.185 -1.6035  0.8277 -0.3145
  242MPD1    H7 3682   4.357   0.997  16.078 -0.1365  2.1313 -2.4997
  243MPD1     C 3683   1.086   4.238   0.624 -0.1655  0.1059  0.4235
  243MPD1    C1 3684   1.032   4.121   0.572 -0.7640  0.1553 -0.5495
  243MPD1    C2 3685   0.983   4.115   0.441  0.4011 -0.6218 -0.5500
  243MPD1    C3 3686   0.977   4.228   0.362 -0.3032  0.5075  0.3340
  243MPD1    C4 3687   1.029   4.344   0.419  0.1843  0.0739 -0.6767
  243MPD1    C5 3688   1.078   4.351   0.547 -0.3621  0.1904  0.1707
  243MPD1     H 3689   0.950   4.020   0.401 -2.6099  0.6608 -1.1021
  243MPD1    H1 3690   1.040   4.438   0.366 -1.6878 -0.7367 -2.5067
  243MPD1    H2 3691   1.129   4.241   0.723 -0.5485  1.0574  0.5586
  243MPD1    H3 3692   1.109   4.448   0.584 -0.1231 -0.4830  1.7402
  243MPD1     N 3693   0.921   4.227   0.235 -0.6195 -0.3328 -0.6676
  243MPD1    H5 3694   0.880   4.141   0.201 -0.9170 -1.3738  2.3340
  243MPD1    N1 3695   1.016   4.008   0.653  0.3898  0.3054  0.0314
  243MPD1    H6 3696   1.038   4.006   0.752  1.6592 -1.6862 -0.3014
  243MPD1    H7 3697   1.061   3.923   0.620 -3.2548 -1.1430 -1.2239
  244MPD1     C 3698   0.525   3.567  17.614 -0.2405 -0.8328  0.1068
  244MPD1    C1 3699   0.631   3.601   0.000 -0.9225 -0.2895  0.6087
  244MPD1    C2 3700   0.667   3.739   0.011 -0.1609  0.4293 -0.5776
  244MPD1    C3 3701   0.586   3.833  17.653 -0.2769  0.1074 -0.0115
  244MPD1    C4 3702   0.466   3.802  17.594  0.0875 -0.2328 -0.7062
  244MPD1    C5 3703   0.443   3.672  17.569 -0.8916  0.5613 -0.7467
  244MPD1     H 3704   0.761   3.769   0.054 -0.4096 -0.0763  0.3053
  244MPD1    H1 3705   0.388   3.869  17.560 -2.8572 -5.1955 -3.7049
  244MPD1    H2 3706   0.487   3.466  17.602 -0.8119 -0.4882 -1.0727
  244MPD1    H3 3707   0.345   3.657  17.527 -0.4539  0.8702 -1.8903
  244MPD1     N 3708   0.633   3.969  17.664 -0.8393 -0.6390 -0.1796
  244MPD1    H5 3709   0.712   3.975   0.032 -0.8243  0.0921 -0.2693
  244MPD1    N1 3710   0.730   3.515   0.041 -0.7637 -0.2158 -0.2566
  244MPD1    H6 3711   0.699   3.421   0.061 -1.6370 -0.0444 -0.8316
  244MPD1    H7 3712   0.783   3.546   0.123 -0.4946  1.4946 -1.0706
  245MPD1     C 3713   2.609   4.463  13.263  0.0912  0.4251  0.4772
  245MPD1    C1 3714   2.700   4.516  13.173  0.1092 -0.2447  0.0134
  245MPD1    C2 3715   2.758   4.643  13.202 -0.1065 -0.3305 -0.8051
  245MPD1    C3 3716   2.733   4.708  13.318 -0.1467  0.0945 -0.5076
  245MPD1    C4 3717   2.645   4.649  13.407 -0.2704 -0.4948 -0.3237
  245MPD1    C5 3718   2.582   4.529  13.376  0.1743  0.0100  0.2956
  245MPD1     H 3719   2.836   4.681  13.137  1.5735 -3.4835 -0.6430
  245MPD1    H1 3720   2.619   4.687  13.505  0.4313 -1.1480  0.1188
  245MPD1    H2 3721   2.553   4.373  13.244 -0.6304  0.7267  1.1808
  245MPD1    H3 3722   2.516   4.482  13.447  0.0252 -0.2421 -0.0132
  245MPD1     N 3723   2.812   0.102  13.348  0.3961  0.2118 -0.5176
  245MPD1    H5 3724   2.886   0.128  13.283  1.3998  3.2901  1.8544
  245MPD1    N1 3725   2.721   4.455  13.045  0.0038 -0.2415  0.0809
  245MPD1    H6 3726   2.706   4.355  13.058  2.3982 -0.5031  0.8649
  245MPD1    H7 3727   2.813   4.478  13.009 -0.2804 -0.0363 -0.5190
  246MPD1     C 3728   4.694   0.146   9.225  0.5599 -0.4301  0.0059
  246MPD1    C1 3729   4.566   0.199   9.243 -1.0259  0.1417 -0.2763
  246MPD1    C2 3730   4.474   0.107   9.294  0.7247  0.1763 -0.1350
  246MPD1    C3 3731   4.498   4.692   9.308 -0.7494 -0.7596  0.0957
  246MPD1    C4 3732   4.629   4.645   9.290 -0.5466 -0.9365 -0.3060
  246MPD1    C5 3733   4.717   0.005   9.238  0.4635 -0.4129 -0.8154
  246MPD1     H 3734   4.374   0.141   9.319  1.4175  0.7906  1.7984
  246MPD1    H1 3735   4.651   4.539   9.289  4.4295  0.0880 -0.9519
  246MPD1    H2 3736   0.055   0.210   9.200  0.1773  0.5330  1.1637
  246MPD1    H3 3737   0.100   4.703   9.241  0.4213 -0.3882  0.5988
  246MPD1     N 3738   4.387   4.615   9.324  0.1178 -0.5975 -0.1984
  246MPD1    H5 3739   4.301   4.668   9.336 -0.9334 -2.7317  1.7427
  246MPD1    N1 3740   4.536   0.334   9.239  0.0762 -0.7353  0.0101
  246MPD1    H6 3741   4.437   0.346   9.217  0.4616  0.0108 -1.2800
  246MPD1    H7 3742   4.595   0.396   9.184  0.0041  0.4009  1.2237
  247MPD1     C 3743   2.196   0.782  16.466 -0.6495 -0.1661  0.0061
  247MPD1    C1 3744   2.247   0.769  16.341 -0.8333  1.1018  0.7829
  247MPD1    C2 3745   2.241   0.640  16.284  0.3251 -0.1188  0.0345
  247MPD1    C3 3746   2.176   0.535  16.359  0.0273  0.4162  0.2429
  247MPD1    C4 3747   2.128   0.551  16.483  0.2958 -0.0754  0.3048
  247MPD1    C5 3748   2.142   0.678  16.539 -0.5750 -0.3681  0.4448
  247MPD1     H 3749   2.267   0.620  16.181  1.2735  1.3218 -0.0075
  247MPD1    H1 3750   2.079   0.474  16.541  0.1738  0.5738  1.0787
  247MPD1    H2 3751   2.171   0.882  16.500 -0.0131  0.2917 -0.8698
  247MPD1    H3 3752   2.100   0.698  16.638 -2.6110 -2.3711  0.0007
  247MPD1     N 3753   2.168   0.402  16.313 -0.4891  0.5999  0.3629
  247MPD1    H5 3754   2.102   0.341  16.361  0.2064 -0.5211 -0.1278
  247MPD1    N1 3755   2.282   0.883  16.266 -0.1281 -0.6123 -0.1773
  247MPD1    H6 3756   2.305   0.963  16.325 -2.4559 -0.2911  0.2827
  247MPD1    H7 3757   2.358   0.861  16.201 -0.7810 -2.2681 -0.3768
  248MPD1     C 3758   2.901   4.470  17.461  0.0477 -0.2585  0.3485
  248MPD1    C1 3759   2.801   4.530  17.532 -1.2548 -0.3304 -0.0473
  248MPD1    C2 3760   2.724   4.453  17.624 -0.4984 -0.6325  0.1262
  248MPD1    C3 3761   2.725   4.314  17.623 -0.0245 -0.3004  0.7297
  248MPD1    C4 3762   2.821   4.257  17.535  0.4694 -0.7169 -0.0931
  248MPD1    C5 3763   2.909   4.332  17.453  0.1049  0.2237  0.1152
  248MPD1     H 3764   2.648   4.499  17.686  1.8870 -0.5395  2.9508
  248MPD1    H1 3765   2.830   4.151  17.515  0.0359 -0.4792 -1.5438
  248MPD1    H2 3766   2.959   4.533  17.394  0.1875  1.2817  1.9097
  248MPD1    H3 3767   2.978   4.286  17.383 -0.9042  1.3235 -1.6101
  248MPD1     N 3768   2.643   4.244   0.025 -0.0003  0.0321  0.5960
  248MPD1    H5 3769   2.598   4.307   0.089  2.0893  2.6561 -0.5202
  248MPD1    N1 3770   2.794   4.673  17.543 -0.2535  0.2395 -0.6648
  248MPD1    H6 3771   2.697   4.699  17.556 -0.4232 -0.4915 -0.4623
  248MPD1    H7 3772   2.802   4.713  17.450 -0.6230 -2.3502 -1.8110
  249MPD1     C 3773   4.491   2.459  10.254 -0.0317 -0.0655 -0.4777
  249MPD1    C1 3774   4.406   2.480  10.148 -0.7970 -0.1427  0.8456
  249MPD1    C2 3775   4.410   2.598  10.078 -0.2818 -0.2744  0.1379
  249MPD1    C3 3776   4.493   2.700  10.130 -0.8219  0.0737 -0.0667
  249MPD1    C4 3777   4.560   2.683  10.246 -0.0801 -0.7382  0.3496
  249MPD1    C5 3778   4.565   2.561  10.306  0.1322 -0.3043 -0.2134
  249MPD1     H 3779   4.352   2.606   9.986 -1.5812 -1.5798  0.8517
  249MPD1    H1 3780   4.628   2.757  10.288 -0.1622 -1.1143  1.1558
  249MPD1    H2 3781   4.492   2.362  10.302  1.0341  0.7606  1.1747
  249MPD1    H3 3782   4.631   2.549  10.392 -2.8006 -2.3310  1.7630
  249MPD1     N 3783   4.515   2.812  10.049  0.8047 -0.5074  0.0412
  249MPD1    H5 3784   4.487   2.813   9.951  0.0219 -2.5888  0.2408
  249MPD1    N1 3785   4.329   2.372  10.097  0.2101 -0.1660 -0.3907
  249MPD1    H6 3786   4.238   2.399  10.060  0.2163  2.0925  1.3006
  249MPD1    H7 3787   4.316   2.301  10.169 -2.4785  1.0436  0.3156
  250MPD2     C 3788   0.847   3.576  12.920  0.5716 -0.1791 -0.4246
  250MPD2    C1 3789   0.914   3.585  12.797  0.7322  0.4920 -0.4994
  250MPD2    C2 3790   0.898   3.489  12.695 -0.2905  0.2428 -0.5861
  250MPD2    C3 3791   0.811   3.385  12.722 -0.2074 -0.3489 -0.2883
  250MPD2    C4 3792   0.752   3.378  12.842 -0.1143  0.1289 -0.0155
  250MPD2    C5 3793   0.766   3.470  12.945  0.2405  0.5288 -0.3740
  250MPD2     H 3794   0.958   3.499  12.605 -0.9207 -0.1153 -1.0374
  250MPD2    H1 3795   0.683   3.297  12.860  0.3341 -0.5389 -1.2712
  250MPD2    H2 3796   0.854   3.659  12.989  1.0011 -0.7391  0.2066
  250MPD2    H3 3797   0.706   3.467  13.035 -0.7837  0.2915 -1.0598
  250MPD2     N 3798   0.792   3.277  12.631  0.2303 -0.4714 -0.2610
  250MPD2    H5 3799   0.743   3.196  12.669  0.3533  0.0102  0.9289
  250MPD2    N1 3800   1.000   3.696  12.783 -0.4034 -0.2574  0.0227
  250MPD2    H7 3801   1.001   3.765  12.858 -1.9114 -0.4521  0.2253
  251TMC3    C1 3802   1.171   3.837  12.711 -0.2035  0.2228  0.6024
  251TMC3    C2 3803   1.120   3.946  12.778 -0.0055  0.0957 -0.4228
  251TMC3    C3 3804   1.208   4.052  12.791  0.0843 -0.0109  0.4029
  251TMC3    C4 3805   1.301   3.824  12.683 -0.3681 -0.0631  0.0343
  251TMC3    C5 3806   1.387   3.925  12.713 -0.0438 -0.3792  0.3388
  251TMC3    C6 3807   1.341   4.040  12.763  0.3749  0.9257 -0.1685
  251TMC3     C 3808   1.091   3.717  12.682 -0.1554 -0.1220 -0.0045
  251TMC3     O 3809   1.113   3.663  12.577 -0.3781 -0.4382  0.3213
  251TMC3     H 3810   1.014   3.962  12.794 -0.2255 -1.8473  0.0641
  251TMC3    H1 3811   1.334   3.738  12.626 -0.9521 -0.6916  0.6554
  251TMC3    H2 3812   1.399   4.131  12.776 -0.7679  1.3150  2.2183
  251TMC3    C7 3813   1.517   3.882  12.755 -0.3936  0.0553  0.4382
  251TMC3    C8 3814   1.158   4.165  12.865  0.5282 -0.0663 -0.0097
  251TMC3    O1 3815   1.532   3.761  12.770 -0.0460 -0.5526 -0.0026
  251TMC3    O2 3816   1.082   4.144  12.960  0.4189 -0.0646 -0.4287
  252TMC3    C1 3817   1.633   0.064   9.188 -0.4896 -0.2041 -0.1210
  252TMC3    C2 3818   1.698   0.172   9.238  0.1777 -0.3875 -0.4131
  252TMC3    C3 3819   1.780   0.144   9.338  0.6249 -0.7452  0.6937
  252TMC3    C4 3820   1.639   4.661   9.241 -0.3674 -0.6188 -0.0338
  252TMC3    C5 3821   1.724   4.646   9.343  0.7569  0.6774  0.1973
  252TMC3    C6 3822   1.793   0.025   9.391  0.1224 -0.7320 -0.2479
  252TMC3     C 3823   1.561   0.077   9.062 -0.1622 -1.0556  0.1407
  252TMC3     O 3824   1.511   4.709   9.004  0.1240 -0.5210 -0.2561
  252TMC3     H 3825   1.672   0.273   9.210 -0.0666 -0.3551 -0.0643
  252TMC3    H1 3826   1.582   4.584   9.191 -1.3729  0.8850 -1.2131
  252TMC3    H2 3827   1.885   4.723   9.442  0.0208  0.6464  0.6136
  252TMC3    C7 3828   1.723   4.530   9.426  0.5824  0.1202 -0.0129
  252TMC3    C8 3829   1.886   0.247   9.365  0.1503 -0.2948 -0.1948
  252TMC3    O1 3830   1.800   4.524   9.521  0.0528 -0.7568  0.0324
  252TMC3    O2 3831   1.900   0.336   9.281 -0.3221  0.4471  0.2873
  253MPD2     C 3832   2.676   3.123  15.541 -0.3484 -0.1875 -0.0499
  253MPD2    C1 3833   2.551   3.072  15.508  0.2218  0.0099  0.2078
  253MPD2    C2 3834   2.468   3.037  15.609 -0.2499  0.0995  0.4280
  253MPD2    C3 3835   2.495   3.048  15.743 -0.5495 -0.4022  0.0949
  253MPD2    C4 3836   2.616   3.107  15.774 -0.2673 -0.4682  0.6441
  253MPD2    C5 3837   2.705   3.127  15.678  0.6035  0.2887  0.1742
  253MPD2     H 3838   2.369   3.007  15.577 -0.0391  1.1134 -1.1891
  253MPD2    H1 3839   2.645   3.139  15.873  1.6085  1.0786 -0.4238
  253MPD2    H2 3840   2.751   3.146  15.467  1.5577  2.5949  2.7743
  253MPD2    H3 3841   2.810   3.144  15.701  0.3878  0.1393  1.3121
  253MPD2     N 3842   2.406   3.016  15.850 -0.8867  0.6133 -0.1901
  253MPD2    H5 3843   2.432   3.037  15.946 -1.5147  1.5022 -0.2170
  253MPD2    N1 3844   2.495   3.067  15.378 -0.3112  0.6660  0.2388
  253MPD2    H7 3845   2.403   3.030  15.356 -0.6009  2.1718 -1.0220
  254TMC3    C1 3846   2.199   2.992  15.939 -0.3685 -0.7523 -0.4268
  254TMC3    C2 3847   2.082   3.055  15.917 -0.1690  0.6055  0.5190
  254TMC3    C3 3848   2.028   3.127  16.017 -0.6130  0.0818 -0.3399
  254TMC3    C4 3849   2.258   2.990  16.065 -0.8191  0.1900  0.0130
  254TMC3    C5 3850   2.199   3.052  16.168 -0.0467 -0.3224  0.1283
  254TMC3    C6 3851   2.082   3.123  16.145 -0.5971 -0.4726 -0.1941
  254TMC3     C 3852   2.280   2.964  15.829 -0.2902  0.5913  0.0003
  254TMC3     O 3853   2.227   2.924  15.729  0.5235  0.0089  0.0447
  254TMC3     H 3854   2.047   3.070  15.816 -0.5683 -1.5827  0.3361
  254TMC3    H1 3855   2.340   2.920  16.082 -0.9884 -0.1061 -0.3768
  254TMC3    H2 3856   2.047   3.187  16.225 -1.6699 -0.1542 -0.9215
  254TMC3    C7 3857   2.242   3.005  16.298  0.4722 -0.4640  0.1034
  254TMC3    C8 3858   1.928   3.219  15.979 -0.1764 -0.5096 -0.8585
  254TMC3    O1 3859   2.360   2.965  16.300  0.5574  0.0169  0.0265
  254TMC3    O2 3860   1.926   3.251  15.861  0.1419  0.0907  0.2439
  255MPD2     C 3861   1.066   1.617  10.213 -0.0093  0.0476 -0.2063
  255MPD2    C1 3862   1.200   1.590  10.181  0.4349  0.1986  0.5235
  255MPD2    C2 3863   1.265   1.481  10.237 -0.1013  0.2378 -0.4535
  255MPD2    C3 3864   1.196   1.399  10.321  0.4697 -0.0519  0.0849
  255MPD2    C4 3865   1.064   1.422  10.349  0.5450 -0.3868 -0.0690
  255MPD2    C5 3866   1.005   1.538  10.304  1.3221 -0.0731 -0.4399
  255MPD2     H 3867   1.367   1.451  10.216  0.1280  0.6006  0.1225
  255MPD2    H1 3868   1.014   1.355  10.417 -1.0646  1.1220  0.2386
  255MPD2    H2 3869   1.016   1.703  10.169  1.6159  0.1377 -1.9034
  255MPD2    H3 3870   0.901   1.556  10.332  1.5765  1.0811 -0.2066
  255MPD2     N 3871   1.255   1.275  10.361 -0.8858 -0.2391  0.0493
  255MPD2    H5 3872   1.351   1.256  10.337 -0.7988 -0.4438  0.5664
  255MPD2    N1 3873   1.258   1.672  10.084 -0.3852 -0.4037 -0.0490
  255MPD2    H7 3874   1.189   1.722  10.029 -0.8875  0.5271  1.4099
  256TMC3    C1 3875   1.423   1.718   9.913  0.2231 -0.1654 -0.0310
  256TMC3    C2 3876   1.505   1.827   9.893 -0.2027  0.1809 -0.1443
  256TMC3    C3 3877   1.530   1.858   9.764  0.1373 -0.6230 -0.3048
  256TMC3    C4 3878   1.382   1.636   9.814  0.4454 -0.3577 -0.2455
  256TMC3    C5 3879   1.413   1.674   9.688  0.0278  0.3373  0.2921
  256TMC3    C6 3880   1.496   1.775   9.660 -1.1879 -0.4218 -1.4702
  256TMC3     C 3881   1.394   1.673  10.048  0.4002  0.6778  0.1016
  256TMC3     O 3882   1.494   1.646  10.115  0.5032  0.1038  0.0463
  256TMC3     H 3883   1.547   1.875   9.980 -2.8624 -0.5348  1.5477
  256TMC3    H1 3884   1.309   1.557   9.824 -2.1594  1.8015 -2.4002
  256TMC3    H2 3885   1.517   1.799   9.557 -0.2124 -0.5923 -1.3042
  256TMC3    C7 3886   1.369   1.585   9.580  0.3905  0.5293  0.6582
  256TMC3    C8 3887   1.634   1.962   9.735 -0.0897 -0.0212  0.0047
  256TMC3    O1 3888   1.266   1.524   9.597  0.0484  0.2797 -0.1983
  256TMC3    O2 3889   1.713   1.987   9.827  0.5503 -0.1786 -0.3073
  257MPD2     C 3890   0.048   3.546  13.028 -0.0372  0.5283  0.0069
  257MPD2    C1 3891   0.037   3.433  12.949  0.2647  0.1462 -0.1120
  257MPD2    C2 3892   0.004   3.309  13.012 -0.2522  0.5468 -0.7640
  257MPD2    C3 3893   4.715   3.308  13.146  0.6448  0.2563 -0.6023
  257MPD2    C4 3894   0.001   3.418  13.228  0.0769  0.9696  0.0506
  257MPD2    C5 3895   0.017   3.543  13.164 -0.0403  0.7495 -0.4294
  257MPD2     H 3896   0.001   3.213  12.961  0.0430 -1.3884  2.8125
  257MPD2    H1 3897   4.715   3.412  13.336  0.1903  2.9137  0.1564
  257MPD2    H2 3898   0.077   3.638  12.980  1.3571  0.2081  0.2229
  257MPD2    H3 3899   0.005   3.641  13.208  2.6261  0.7179  0.3572
  257MPD2     N 3900   4.721   3.180  13.205 -0.1669 -0.0621  0.3114
  257MPD2    H5 3901   0.015   3.103  13.142  2.1302  0.7576 -0.0296
  257MPD2    N1 3902   0.044   3.458  12.808 -0.9151  0.2458  0.3955
  257MPD2    H7 3903   0.056   3.553  12.774  1.9429 -0.9467 -1.9574
  258TMC3    C1 3904   0.000   2.995  13.362 -0.0477 -1.1696  0.5798
  258TMC3    C2 3905   0.002   2.901  13.261  0.3583 -0.5047 -0.2992
  258TMC3    C3 3906   0.059   2.781  13.291 -0.1907 -0.3576 -0.3530
  258TMC3    C4 3907   0.031   2.969  13.494 -0.2766  0.3167  0.5483
  258TMC3    C5 3908   0.077   2.840  13.511  0.1608  0.4470  0.2409
  258TMC3    C6 3909   0.084   2.747  13.417 -0.3859 -0.2252  0.4987
  258TMC3     C 3910   4.708   3.136  13.336 -0.3348 -0.1743  0.9892
  258TMC3     O 3911   4.672   3.207  13.430  0.3344 -0.0504 -0.2332
  258TMC3     H 3912   4.687   2.930  13.163  0.1199 -1.5749 -0.5164
  258TMC3    H1 3913   0.044   3.051  13.564 -2.3390 -0.3946  1.7525
  258TMC3    H2 3914   0.105   2.643  13.439 -0.3565 -0.4536 -0.6154
  258TMC3    C7 3915   0.134   2.796  13.637  0.6663 -0.4404 -0.1332
  258TMC3    C8 3916   0.034   2.671  13.201  0.2530 -0.4481 -1.1847
  258TMC3    O1 3917   0.211   2.706  13.644  0.3236  0.6157 -0.4124
  258TMC3    O2 3918   0.011   2.558  13.247 -0.1176  0.3461  0.1382
  259MPD2     C 3919   3.159   0.261   0.519  0.5385  0.2255 -0.0558
  259MPD2    C1 3920   3.199   0.128   0.493 -0.1478  0.1272 -0.6054
  259MPD2    C2 3921   3.190   0.082   0.365 -0.3249 -0.4593  0.6739
  259MPD2    C3 3922   3.144   0.170   0.266 -0.1812  0.7316  0.0793
  259MPD2    C4 3923   3.101   0.297   0.297 -0.1843  0.3068  0.0297
  259MPD2    C5 3924   3.109   0.344   0.426 -0.2312 -0.7385 -0.5815
  259MPD2     H 3925   3.213   4.703   0.337  0.9049 -0.0496  0.1950
  259MPD2    H1 3926   3.068   0.363   0.217  1.4192  1.0804  0.0078
  259MPD2    H2 3927   3.170   0.297   0.621 -1.0444 -1.4150  0.6895
  259MPD2    H3 3928   3.099   0.449   0.451  2.4065 -0.1053 -2.2242
  259MPD2     N 3929   3.127   0.119   0.139 -0.3466 -0.6255 -0.4566
  259MPD2    H5 3930   3.146   0.021   0.124  0.9686 -0.5627  0.7876
  259MPD2    N1 3931   3.250   0.051   0.601 -0.9183 -0.4579  0.4835
  259MPD2    H7 3932   3.258   0.103   0.687 -3.1214  0.8455 -0.0979
  260TMC3    C1 3933   3.102   0.093  17.594 -0.1445  0.2986 -0.1363
  260TMC3    C2 3934   3.181   0.149  17.498 -0.4919 -0.0744 -0.4816
  260TMC3    C3 3935   3.253   0.062  17.420 -0.6885 -0.2620  0.4151
  260TMC3    C4 3936   3.097   4.685  17.622  0.1992  0.5114  0.3307
  260TMC3    C5 3937   3.172   4.604  17.542  0.4368 -0.2337  1.0371
  260TMC3    C6 3938   3.252   4.652  17.442  0.2728 -0.2276 -0.5002
  260TMC3     C 3939   3.099   0.181   0.015  0.0094  0.2749  0.3401
  260TMC3     O 3940   3.097   0.299  17.690 -0.1843  0.3877 -0.0884
  260TMC3     H 3941   3.180   0.256  17.482 -0.7801  0.1519  1.0340
  260TMC3    H1 3942   3.030   4.648   0.003  0.4650 -0.4434  0.0981
  260TMC3    H2 3943   3.293   4.580  17.372 -1.2413 -0.4803 -1.1342
  260TMC3    C7 3944   3.238   4.492  17.609 -0.3138 -0.5413  0.1820
  260TMC3    C8 3945   3.394   0.105  17.405  0.3583 -0.2070  0.3016
  260TMC3    O1 3946   3.328   4.445  17.540  0.3663 -0.2506 -0.4029
  260TMC3    O2 3947   3.411   0.227  17.414  0.0024 -0.2146  0.3571
  261MPD2     C 3948   0.747   3.044  11.798  0.7853  0.1692  0.2759
  261MPD2    C1 3949   0.804   3.148  11.871  0.0931 -0.0128  0.3773
  261MPD2    C2 3950   0.848   3.264  11.801  0.0371  0.3385 -0.1751
  261MPD2    C3 3951   0.853   3.275  11.655 -0.1128 -0.3801  0.2747
  261MPD2    C4 3952   0.803   3.162  11.592 -0.1242 -0.0508  0.0763
  261MPD2    C5 3953   0.758   3.051  11.661  0.3254 -0.3464  0.6546
  261MPD2     H 3954   0.877   3.353  11.856  1.9825 -0.3687 -0.0560
  261MPD2    H1 3955   0.779   3.163  11.486 -3.5200  0.5562  0.8488
  261MPD2    H2 3956   0.705   2.952  11.838 -0.5470  1.3609  1.5540
  261MPD2    H3 3957   0.700   2.977  11.608 -1.1889  1.1198  0.2987
  261MPD2     N 3958   0.910   3.391  11.590 -0.4697 -0.3053  0.0073
  261MPD2    H5 3959   0.942   3.471  11.644  1.3834  1.1416 -3.2214
  261MPD2    N1 3960   0.809   3.148  12.014 -0.0365  0.2397  0.1961
  261MPD2    H7 3961   0.838   3.232  12.062 -1.8338  0.5732  0.7081
  262TMC3    C1 3962   0.995   3.525  11.417 -0.1920 -0.1670 -0.1772
  262TMC3    C2 3963   0.948   3.641  11.475  0.7746 -0.9139  0.8121
  262TMC3    C3 3964   0.979   3.757  11.416  0.2148 -0.5367  0.0524
  262TMC3    C4 3965   1.062   3.526  11.301 -0.4163  0.4057 -0.4360
  262TMC3    C5 3966   1.090   3.649  11.246  0.0721  0.2375 -0.0246
  262TMC3    C6 3967   1.051   3.771  11.302  0.4628 -0.1177 -0.6974
  262TMC3     C 3968   0.937   3.399  11.458  0.3986 -0.3891  0.4183
  262TMC3     O 3969   0.920   3.318  11.365  0.2406  0.2760  0.1998
  262TMC3     H 3970   0.877   3.637  11.557 -1.5537  0.4251 -1.1347
  262TMC3    H1 3971   1.091   3.435  11.248 -2.2243 -0.1666 -0.4473
  262TMC3    H2 3972   1.071   3.871  11.264  1.1555  0.8053  2.1359
  262TMC3    C7 3973   1.181   3.644  11.133 -0.1953 -0.4694  0.1363
  262TMC3    C8 3974   0.905   3.878  11.445 -0.3689 -0.5197  0.5794
  262TMC3    O1 3975   1.254   3.544  11.135  0.0068  0.7937 -0.1656
  262TMC3    O2 3976   0.959   3.986  11.431 -0.1564 -0.2086  0.1875
  263MPD2     C 3977   1.542   2.505  10.962 -0.0808  0.5264  0.3574
  263MPD2    C1 3978   1.548   2.610  11.050 -0.0137 -0.4096 -0.4338
  263MPD2    C2 3979   1.600   2.729  11.006  0.7679 -0.1139  0.5390
  263MPD2    C3 3980   1.639   2.751  10.875 -0.6197 -0.0598 -0.2474
  263MPD2    C4 3981   1.617   2.645  10.781 -0.2537 -0.1088 -0.1313
  263MPD2    C5 3982   1.575   2.525  10.827 -0.1189 -0.0344 -0.2422
  263MPD2     H 3983   1.603   2.816  11.070  2.6526  2.1541 -2.6315
  263MPD2    H1 3984   1.629   2.664  10.675 -3.0925  0.5204 -0.3441
  263MPD2    H2 3985   1.516   2.404  10.992  1.9852 -0.7336 -2.0441
  263MPD2    H3 3986   1.560   2.455  10.746  0.6250  0.2781 -0.6553
  263MPD2     N 3987   1.693   2.871  10.832 -0.4712  0.4249  0.9080
  263MPD2    H5 3988   1.680   2.950  10.894 -0.4175  0.9857  0.2119
  263MPD2    N1 3989   1.510   2.584  11.188 -0.3804  0.4442 -0.1259
  263MPD2    H7 3990   1.486   2.488  11.212 -2.8243  0.2865 -3.1303
  264TMC3    C1 3991   1.804   3.025  10.687 -0.0172 -1.0844  0.0939
  264TMC3    C2 3992   1.742   3.132  10.750 -0.0873 -0.1195 -0.1319
  264TMC3    C3 3993   1.791   3.258  10.719  0.0795  0.2634 -0.2267
  264TMC3    C4 3994   1.905   3.039  10.598 -0.0672  0.5682  0.0419
  264TMC3    C5 3995   1.960   3.163  10.576  0.1044 -0.0433  0.7664
  264TMC3    C6 3996   1.902   3.271  10.641 -0.1873  0.4480  0.0933
  264TMC3     C 3997   1.758   2.892  10.710  0.0582  0.0233 -0.1626
  264TMC3     O 3998   1.806   2.812  10.631 -0.4749  0.0058 -0.3147
  264TMC3     H 3999   1.662   3.122  10.823 -0.4342  0.8939 -0.3776
  264TMC3    H1 4000   1.950   2.952  10.552 -0.4751 -0.2481  1.1728
  264TMC3    H2 4001   1.942   3.370  10.622  0.5744 -0.1874 -1.7243
  264TMC3    C7 4002   2.109   3.166  10.548 -0.2676 -0.0274 -0.3186
  264TMC3    C8 4003   1.760   3.374  10.797 -0.0035 -0.1249  0.2723
  264TMC3    O1 4004   2.150   3.082  10.470 -0.4153  0.0358 -0.2998
  264TMC3    O2 4005   1.795   3.483  10.746  0.0816 -0.0958  0.3690
  265MPD2     C 4006   3.357   3.342  14.937  0.0940 -0.7039 -0.2006
  265MPD2    C1 4007   3.383   3.253  15.045 -0.2116  0.2229 -0.3298
  265MPD2    C2 4008   3.494   3.162  15.035  0.5008  0.0418 -0.0344
  265MPD2    C3 4009   3.571   3.154  14.914  0.7316  0.2299 -0.2090
  265MPD2    C4 4010   3.537   3.234  14.804  0.4713  0.1649  0.3634
  265MPD2    C5 4011   3.431   3.324  14.824 -1.0761  0.2551 -0.1576
  265MPD2     H 4012   3.509   3.100  15.122  4.5165  1.6178  0.3766
  265MPD2    H1 4013   3.586   3.234  14.707  0.5450 -1.1284  0.4068
  265MPD2    H2 4014   3.277   3.415  14.941 -0.0647 -0.9167  0.4653
  265MPD2    H3 4015   3.400   3.392  14.745 -2.2011 -2.0941 -1.7267
  265MPD2     N 4016   3.675   3.060  14.892  0.0224  0.1458 -0.0879
  265MPD2    H5 4017   3.718   3.065  14.800  0.9228  2.5821  0.4665
  265MPD2    N1 4018   3.311   3.249  15.162  0.6588 -0.5102  0.1201
  265MPD2    H7 4019   3.357   3.197  15.236 -1.0405 -0.4321  1.2501
  266TMC3    C1 4020   3.143   3.306  15.318 -0.7299  0.0866  0.0196
  266TMC3    C2 4021   3.200   3.225  15.413 -0.0761  0.6260  0.7310
  266TMC3    C3 4022   3.164   3.249  15.547  0.0646 -0.1583 -0.3803
  266TMC3    C4 4023   3.077   3.422  15.359 -0.6130  0.1262  0.3779
  266TMC3    C5 4024   3.043   3.436  15.488 -1.1583  0.1198  0.9373
  266TMC3    C6 4025   3.086   3.353  15.588  0.4403  0.0249  0.4850
  266TMC3     C 4026   3.187   3.307  15.181 -0.3041 -0.1488 -0.9076
  266TMC3     O 4027   3.125   3.388  15.109  0.1209 -0.1192  0.5869
  266TMC3     H 4028   3.267   3.142  15.393 -3.1889 -0.7637 -3.7064
  266TMC3    H1 4029   3.044   3.497  15.289 -1.6442 -0.1468  0.5775
  266TMC3    H2 4030   3.048   3.361  15.689 -0.3363 -0.0552  0.2024
  266TMC3    C7 4031   2.937   3.535  15.514 -0.7481 -0.0255  0.5871
  266TMC3    C8 4032   3.244   3.172  15.641 -0.1332  0.0509 -0.2780
  266TMC3    O1 4033   2.870   3.552  15.413  0.1484 -0.3349  0.0163
  266TMC3    O2 4034   3.245   3.048  15.640  0.0156  0.0839  0.3106
  267MPD2     C 4035   1.164   4.699   0.650 -0.9416 -0.0428 -0.6013
  267MPD2    C1 4036   1.230   0.004   0.532 -0.1036  0.6706 -0.7401
  267MPD2    C2 4037   1.154   0.023   0.410  0.0428 -0.1102  0.1699
  267MPD2    C3 4038   1.015   0.026   0.420  0.1055  0.1846 -0.1684
  267MPD2    C4 4039   0.954   0.003   0.542  0.5295  0.2225 -0.0721
  267MPD2    C5 4040   1.029   4.692   0.655 -0.2894 -0.7272 -0.8533
  267MPD2     H 4041   1.194   0.047   0.312  2.4207  1.0218  1.4304
  267MPD2    H1 4042   0.846   0.003   0.547  0.4484 -0.1593 -1.9486
  267MPD2    H2 4043   1.228   4.675   0.734 -0.7414  2.4744 -0.0412
  267MPD2    H3 4044   0.973   4.684   0.748  0.2960 -0.6878 -0.4988
  267MPD2     N 4045   0.930   0.024   0.311  0.1123 -0.2255  0.2756
  267MPD2    H5 4046   0.831   0.026   0.333 -0.0827 -1.1437 -0.5413
  267MPD2    N1 4047   1.369   4.716   0.533  0.0820  0.7900  0.4023
  267MPD2    H7 4048   1.418   4.690   0.619  0.3527 -1.9070 -0.5905
  268TMC3    C1 4049   1.584   4.706   0.439  0.4952  0.2452 -0.4475
  268TMC3    C2 4050   1.663   0.015   0.335 -0.1662  0.2384  0.1704
  268TMC3    C3 4051   1.782   4.672   0.336  0.3837 -0.2915  0.5517
  268TMC3    C4 4052   1.608   4.603   0.530 -0.0187  0.2179 -0.1299
  268TMC3    C5 4053   1.723   4.531   0.511 -0.1705 -0.6259  0.0320
  268TMC3    C6 4054   1.818   4.572   0.424  0.5086  0.1839  0.8675
  268TMC3     C 4055   1.448   0.032   0.428  0.2629 -0.0272  0.5737
  268TMC3     O 4056   1.427   0.119   0.339 -0.1878  0.2560  0.8394
  268TMC3     H 4057   1.646   0.099   0.269  0.4177 -0.1979 -0.5343
  268TMC3    H1 4058   1.536   4.574   0.606  2.2423 -0.6360  1.6985
  268TMC3    H2 4059   1.915   4.525   0.412  0.6772  1.1584 -1.7084
  268TMC3    C7 4060   1.757   4.437   0.619 -0.0412 -0.2809  0.2945
  268TMC3    C8 4061   1.878   4.700   0.229 -0.4566 -0.2275  0.6905
  268TMC3    O1 4062   1.699   4.455   0.725  0.1634  0.0402  0.0326
  268TMC3    O2 4063   1.993   4.662   0.238  0.0220  0.2318  1.1318
  269MPD2     C 4064   1.742   3.543  15.582 -0.0903 -0.4323  0.0479
  269MPD2    C1 4065   1.602   3.521  15.566  0.4413 -0.2255  0.3401
  269MPD2    C2 4066   1.516   3.632  15.545 -0.3985 -0.3808 -0.3897
  269MPD2    C3 4067   1.564   3.760  15.544 -0.0943 -0.4595 -0.0011
  269MPD2    C4 4068   1.698   3.783  15.561  0.2396 -0.6755 -0.0229
  269MPD2    C5 4069   1.781   3.672  15.579 -0.0238  0.0810  0.6105
  269MPD2     H 4070   1.414   3.610  15.517  0.6805 -3.7878 -1.6916
  269MPD2    H1 4071   1.751   3.877  15.550  0.8885 -1.0469 -0.1324
  269MPD2    H2 4072   1.818   3.468  15.599  1.0203  0.8653  0.8112
  269MPD2    H3 4073   1.885   3.704  15.584 -0.8427  2.5197  2.0249
  269MPD2     N 4074   1.474   3.867  15.525 -0.4098 -1.6390  0.5333
  269MPD2    H5 4075   1.376   3.846  15.537 -0.6196 -1.4416 -0.8196
  269MPD2    N1 4076   1.565   3.382  15.568 -0.4965 -0.8617  0.1036
  269MPD2    H7 4077   1.642   3.316  15.573  0.3975 -0.0448 -2.9145
  270TMC3    C1 4078   1.433   3.196  15.536 -0.5858  0.8099 -0.2523
  270TMC3    C2 4079   1.329   3.151  15.454  0.3411 -0.0053  0.1347
  270TMC3    C3 4080   1.325   3.020  15.419 -0.1687 -0.1560  0.2685
  270TMC3    C4 4081   1.526   3.114  15.584  0.6288  0.5885 -0.5375
  270TMC3    C5 4082   1.521   2.981  15.549  0.1467 -0.1030  1.2366
  270TMC3    C6 4083   1.424   2.929  15.466  0.6038  0.2311  0.5761
  270TMC3     C 4084   1.435   3.339  15.562 -0.0098 -0.2935  0.6601
  270TMC3     O 4085   1.328   3.401  15.566  0.7427 -0.6822 -0.7626
  270TMC3     H 4086   1.256   3.221  15.415  2.5706  0.1911 -3.7035
  270TMC3    H1 4087   1.605   3.147  15.650  1.2742  0.1503 -1.0975
  270TMC3    H2 4088   1.404   2.823  15.452  3.4612  0.1277 -2.6487
  270TMC3    C7 4089   1.621   2.890  15.609  0.0763  0.7004  0.0449
  270TMC3    C8 4090   1.241   2.981  15.304 -0.1055 -0.5779 -0.1329
  270TMC3    O1 4091   1.707   2.826  15.542  0.1214 -0.3753 -0.3062
  270TMC3    O2 4092   1.302   2.905  15.229  0.3733  0.5692 -0.5808
  271MPD2     C 4093   0.498   3.676  13.852 -0.4090  0.0391  0.7232
  271MPD2    C1 4094   0.445   3.553  13.880  0.1251  0.7861 -1.2189
  271MPD2    C2 4095   0.311   3.536  13.838  0.6782  0.0308  1.0904
  271MPD2    C3 4096   0.231   3.636  13.777 -0.2897 -0.4064  0.2710
  271MPD2    C4 4097   0.298   3.751  13.751 -0.3219 -0.1689  0.0010
  271MPD2    C5 4098   0.428   3.774  13.791  0.9119 -0.4621 -0.7906
  271MPD2     H 4099   0.267   3.440  13.861  0.8514 -0.7705 -1.9089
  271MPD2    H1 4100   0.243   3.831  13.704  0.2385  0.5003  0.4943
  271MPD2    H2 4101   0.602   3.705  13.868  0.6960 -3.2714 -0.3520
  271MPD2    H3 4102   0.479   3.866  13.763  0.9251  0.2158  1.4999
  271MPD2     N 4103   0.092   3.626  13.742 -0.0863 -0.1626  0.2278
  271MPD2    H5 4104   0.045   3.712  13.719  2.4680  1.9939  3.0844
  271MPD2    N1 4105   0.513   3.442  13.934 -0.0412 -0.6026 -0.3402
  271MPD2    H7 4106   0.456   3.360  13.948 -0.9195  0.3093  1.3690
  272TMC3    C1 4107   0.668   3.299  14.030  0.3549  0.5353  0.0765
  272TMC3    C2 4108   0.782   3.231  13.988 -0.0747  0.4112 -0.1788
  272TMC3    C3 4109   0.861   3.179  14.092  0.1079 -0.3735 -0.1224
  272TMC3    C4 4110   0.628   3.303  14.163  0.4707  0.2334 -0.5695
  272TMC3    C5 4111   0.694   3.230  14.251  0.1263 -0.2866  0.2501
  272TMC3    C6 4112   0.815   3.167  14.221 -0.1253  0.2023 -0.5729
  272TMC3     C 4113   0.648   3.430  13.968 -0.3950 -0.1240  0.0698
  272TMC3     O 4114   0.733   3.516  13.957 -0.2781  0.2851 -0.2285
  272TMC3     H 4115   0.809   3.238  13.883 -3.1707  1.3539 -0.9180
  272TMC3    H1 4116   0.538   3.355  14.192  1.0530  0.6269  0.5404
  272TMC3    H2 4117   0.871   3.123  14.303 -0.5242  0.9928  0.1210
  272TMC3    C7 4118   0.658   3.246  14.391 -0.3393 -0.4410 -0.4754
  272TMC3    C8 4119   0.983   3.112  14.043  0.2019  0.3187 -0.1248
  272TMC3    O1 4120   0.541   3.285  14.416 -0.2702  0.0151  0.3749
  272TMC3    O2 4121   1.015   3.142  13.932 -0.4428  0.2385  0.1318
  273MPD2     C 4122   2.078   0.955  11.799  0.1751 -0.5038 -0.3912
  273MPD2    C1 4123   2.068   1.067  11.881 -0.1135 -0.0407  0.0040
  273MPD2    C2 4124   2.006   1.176  11.824  0.0007  0.2634  1.2395
  273MPD2    C3 4125   1.947   1.188  11.701 -0.7299  0.4174  0.0712
  273MPD2    C4 4126   1.946   1.065  11.633  0.4200  0.0654  0.1664
  273MPD2    C5 4127   2.013   0.955  11.674  0.1322  0.1138 -0.2384
  273MPD2     H 4128   1.991   1.260  11.891 -1.4139  1.3038 -0.3821
  273MPD2    H1 4129   1.885   1.057  11.544  0.7036  1.1302 -0.1335
  273MPD2    H2 4130   2.140   0.874  11.834  3.0142  1.6513 -0.4058
  273MPD2    H3 4131   2.003   0.860  11.623  0.1358  1.7324 -3.2163
  273MPD2     N 4132   1.903   1.308  11.646  0.5637 -0.4322  0.2224
  273MPD2    H5 4133   1.839   1.290  11.569 -0.2394 -0.7993  0.9688
  273MPD2    N1 4134   2.142   1.068  11.998 -0.2870 -0.1713 -0.4535
  273MPD2    H7 4135   2.185   0.981  12.028 -1.2304 -0.4770  0.0109
  274TMC3    C1 4136   1.879   1.533  11.609  0.1365 -0.0098 -0.7103
  274TMC3    C2 4137   1.871   1.512  11.475 -0.4375  0.4547  0.1940
  274TMC3    C3 4138   1.859   1.621  11.393  0.0436  0.3688  0.0441
  274TMC3    C4 4139   1.888   1.660  11.661 -0.1638  0.6342 -0.8680
  274TMC3    C5 4140   1.876   1.763  11.570  0.0092 -0.3115 -0.8289
  274TMC3    C6 4141   1.876   1.748  11.436 -0.0724 -0.5809  0.1555
  274TMC3     C 4142   1.935   1.428  11.692  0.0433 -0.2235 -0.5546
  274TMC3     O 4143   1.996   1.458  11.795  0.2376 -0.2392 -0.7165
  274TMC3     H 4144   1.855   1.416  11.428 -2.5167  0.0354  1.7498
  274TMC3    H1 4145   1.897   1.673  11.769  0.5787 -2.5195 -0.5544
  274TMC3    H2 4146   1.856   1.831  11.369 -4.2579  0.1409  2.2762
  274TMC3    C7 4147   1.790   1.879  11.600  0.6128 -0.2213  0.5120
  274TMC3    C8 4148   1.808   1.609  11.260  0.9938 -0.2175  0.0994
  274TMC3    O1 4149   1.798   1.973  11.526  0.0843 -0.0420 -0.4028
  274TMC3    O2 4150   1.819   1.705  11.193  0.5313  0.1708 -0.5660
  275MPD2     C 4151   2.210   4.220  14.340 -0.5629  0.8022  0.4825
  275MPD2    C1 4152   2.130   4.210  14.455 -0.4355  0.0475  0.5810
  275MPD2    C2 4153   2.003   4.170  14.454  0.6838  0.3243 -0.0464
  275MPD2    C3 4154   1.932   4.139  14.341  1.0636  0.5791  0.4587
  275MPD2    C4 4155   2.005   4.159  14.220  0.6294  0.2699 -0.5538
  275MPD2    C5 4156   2.141   4.194  14.226 -0.4317  0.0611 -0.1672
  275MPD2     H 4157   1.953   4.170  14.550  0.2702  3.6168 -0.2670
  275MPD2    H1 4158   1.951   4.152  14.127  0.3623 -0.9709 -0.3033
  275MPD2    H2 4159   2.312   4.253  14.325  0.1345 -1.0348  1.1431
  275MPD2    H3 4160   2.193   4.210  14.132  0.7354 -2.5643  0.0107
  275MPD2     N 4161   1.795   4.111  14.335 -0.6134  0.0520  0.4048
  275MPD2    H5 4162   1.748   4.123  14.246  0.5813 -2.1247 -0.5350
  275MPD2    N1 4163   2.178   4.241  14.586 -1.0464 -0.1939 -0.0521
  275MPD2    H7 4164   2.112   4.235  14.663 -0.8826 -1.3814 -0.0042
  276TMC3    C1 4165   2.333   4.287  14.756  0.1155  0.2609  0.2102
  276TMC3    C2 4166   2.275   4.190  14.834  0.1717  0.2692  0.0821
  276TMC3    C3 4167   2.302   4.197  14.969 -0.4150 -0.4676  0.4433
  276TMC3    C4 4168   2.433   4.376  14.797  0.2966 -0.2639  0.7223
  276TMC3    C5 4169   2.450   4.380  14.932  0.5377 -0.0226  0.1771
  276TMC3    C6 4170   2.385   4.298  15.017 -0.0192  0.5279 -0.4052
  276TMC3     C 4171   2.304   4.280  14.613  0.5989 -0.7007 -0.0719
  276TMC3     O 4172   2.406   4.286  14.542 -0.2788 -0.2453 -0.0299
  276TMC3     H 4173   2.228   4.103  14.788  2.0249 -0.7348  0.0838
  276TMC3    H1 4174   2.453   4.466  14.741  0.6980  0.6433  2.3120
  276TMC3    H2 4175   2.416   4.308  15.120  0.0138  2.3330 -0.5863
  276TMC3    C7 4176   2.550   4.465  14.997 -0.0355 -0.2577 -1.3129
  276TMC3    C8 4177   2.238   4.112  15.074  0.2180 -0.2775  0.1645
  276TMC3    O1 4178   2.513   4.505  15.109  0.3304  0.4207 -0.1845
  276TMC3    O2 4179   2.235   4.167  15.183  0.3926 -0.3320  0.1729
  277MPD2     C 4180   4.339   3.249  13.318  0.2760  0.1658 -0.0369
  277MPD2    C1 4181   4.219   3.292  13.267 -0.0929  0.0745  0.3432
  277MPD2    C2 4182   4.099   3.286  13.341 -0.1552 -0.3077  0.1017
  277MPD2    C3 4183   4.100   3.230  13.469 -0.8034  0.1638  1.1646
  277MPD2    C4 4184   4.219   3.180  13.519 -0.6496 -0.0417 -0.4118
  277MPD2    C5 4185   4.335   3.194  13.443  0.1068 -0.3481  0.5037
  277MPD2     H 4186   4.007   3.316  13.292 -0.8048  0.9642  2.0879
  277MPD2    H1 4187   4.227   3.159  13.625 -1.0095 -2.7458 -0.9332
  277MPD2    H2 4188   4.433   3.250  13.264 -0.4148  2.1659 -1.2078
  277MPD2    H3 4189   4.428   3.173  13.495  1.1105 -0.1476 -1.2073
  277MPD2     N 4190   3.983   3.203  13.538 -0.3505  0.1260  0.7055
  277MPD2    H5 4191   3.992   3.142  13.620  1.6756 -1.7997 -0.9333
  277MPD2    N1 4192   4.190   3.322  13.130 -0.2085  0.2569  0.8584
  277MPD2    H7 4193   4.095   3.357  13.116 -0.9813 -2.1091  0.1340
  278TMC3    C1 4194   3.754   3.212  13.589  0.3161  0.7762 -0.2660
  278TMC3    C2 4195   3.737   3.081  13.615  0.1230 -0.2656  0.1473
  278TMC3    C3 4196   3.614   3.028  13.618 -0.1362  0.3619  1.0059
  278TMC3    C4 4197   3.642   3.291  13.579  0.8778 -0.0150  0.0644
  278TMC3    C5 4198   3.520   3.235  13.592  0.4175  0.1584 -0.0201
  278TMC3    C6 4199   3.501   3.099  13.623 -0.3804  0.2205  0.1349
  278TMC3     C 4200   3.862   3.255  13.504  0.2970  0.2054 -0.4962
  278TMC3     O 4201   3.832   3.346  13.427  0.6257  0.5675 -0.0632
  278TMC3     H 4202   3.815   3.008  13.631  1.1255  0.7696  0.0071
  278TMC3    H1 4203   3.661   3.397  13.571 -0.9850  0.5392  3.2095
  278TMC3    H2 4204   3.402   3.057  13.639  0.2811 -0.4199  2.5165
  278TMC3    C7 4205   3.411   3.331  13.611 -0.4640  0.0952 -0.2932
  278TMC3    C8 4206   3.615   2.883  13.623 -0.6092  0.5344 -0.3777
  278TMC3    O1 4207   3.447   3.438  13.661  0.2964  0.0781  0.2197
  278TMC3    O2 4208   3.719   2.819  13.651 -0.2468 -0.6136  0.1269
  279MPD2     C 4209   3.009   3.074   0.607 -0.4653 -0.6769 -0.1142
  279MPD2    C1 4210   2.949   3.009   0.498  0.2188 -0.0939 -0.0596
  279MPD2    C2 4211   3.025   2.952   0.396 -0.1890  0.0205  0.0675
  279MPD2    C3 4212   3.161   2.967   0.405 -0.1524  0.8791 -0.0050
  279MPD2    C4 4213   3.222   3.032   0.513  0.1010 -0.1240  0.6571
  279MPD2    C5 4214   3.146   3.076   0.621 -0.4125  0.6606 -0.9703
  279MPD2     H 4215   2.979   2.890   0.320 -2.1183  1.4895  0.0102
  279MPD2    H1 4216   3.329   3.049   0.508 -0.0508  0.1621 -1.8138
  279MPD2    H2 4217   2.949   3.112   0.688 -0.1879 -0.1053 -0.1769
  279MPD2    H3 4218   3.197   3.118   0.707 -0.1802  1.0527 -1.3027
  279MPD2     N 4219   3.243   2.932   0.293 -0.6050 -0.5628  0.2383
  279MPD2    H5 4220   3.342   2.943   0.314 -0.2994  0.2440 -1.5711
  279MPD2    N1 4221   2.809   3.017   0.505  0.4017  0.1238 -0.1942
  279MPD2    H7 4222   2.763   3.054   0.587  0.1661 -0.0834 -0.2336
  280TMC3    C1 4223   2.586   2.978   0.444 -0.0253 -0.1508  0.4528
  280TMC3    C2 4224   2.505   2.877   0.399 -0.5680  0.6519 -0.2129
  280TMC3    C3 4225   2.374   2.910   0.367 -0.5038  0.2298  1.1749
  280TMC3    C4 4226   2.534   3.102   0.466  0.8322 -0.8096 -0.2685
  280TMC3    C5 4227   2.400   3.128   0.427  0.2786 -0.2183  0.3408
  280TMC3    C6 4228   2.320   3.038   0.376  0.2088  0.6156  0.3123
  280TMC3     C 4229   2.723   2.970   0.406  0.4109 -0.5480  1.3106
  280TMC3     O 4230   2.740   2.886   0.323  0.3866 -0.1106  0.0543
  280TMC3     H 4231   2.542   2.777   0.380 -1.2552  0.6494 -1.5026
  280TMC3    H1 4232   2.599   3.177   0.511  0.9817 -1.8394  1.2534
  280TMC3    H2 4233   2.214   3.051   0.357  0.0078 -0.6450  0.5882
  280TMC3    C7 4234   2.390   3.264   0.388 -0.5316  0.3310  0.0218
  280TMC3    C8 4235   2.285   2.824   0.438  0.2746  0.0702  0.2793
  280TMC3    O1 4236   2.459   3.352   0.435  0.3222  0.2629 -0.3603
  280TMC3    O2 4237   2.221   2.876   0.530 -0.3827 -0.3538  0.1960
  281TMC3    C1 4238   1.575   3.602  13.111 -0.3886  0.3589  0.2803
  281TMC3    C2 4239   1.702   3.654  13.077  0.5346 -0.1894 -0.6575
  281TMC3    C3 4240   1.777   3.582  12.991  0.5129 -0.8135 -0.3130
  281TMC3    C4 4241   1.538   3.475  13.083 -0.2591  0.4097  0.0929
  281TMC3    C5 4242   1.614   3.408  12.988  0.2512 -0.0162 -0.1438
  281TMC3    C6 4243   1.726   3.464  12.936  0.5767 -0.0511  0.0867
  281TMC3     C 4244   1.478   3.690  13.169 -0.1400 -1.1489 -0.6733
  281TMC3     O 4245   1.366   3.647  13.190  0.2564 -0.1779 -0.1520
  281TMC3     H 4246   1.742   3.738  13.134  1.4795 -1.6851  0.9046
  281TMC3    H1 4247   1.445   3.445  13.130 -0.0616 -1.9378 -1.0147
  281TMC3    H2 4248   1.776   3.417  12.853 -0.2266 -0.3959 -0.2062
  281TMC3    C7 4249   1.596   3.267  12.965  0.7668  0.2657 -0.1340
  281TMC3    C8 4250   1.922   3.611  12.986  0.5527  0.1835 -0.4794
  281TMC3    O1 4251   1.653   3.228  12.865 -0.2583 -0.1596  0.2650
  281TMC3    O2 4252   1.988   3.509  13.011 -0.2225  0.3194  0.0273
  282MPD2     C 4253   3.625   4.681  15.012  0.2745  0.6836 -0.1864
  282MPD2    C1 4254   3.528   0.056  15.033  0.2338 -0.6037 -0.4966
  282MPD2    C2 4255   3.478   0.116  14.918  0.0855 -0.2446 -0.9356
  282MPD2    C3 4256   3.511   0.080  14.789  0.7337  0.5380  0.1403
  282MPD2    C4 4257   3.599   4.697  14.774  0.2267 -0.3183 -0.3203
  282MPD2    C5 4258   3.659   4.642  14.882  0.0380  0.7552 -0.2672
  282MPD2     H 4259   3.405   0.195  14.934  2.9900  2.9443 -3.3737
  282MPD2    H1 4260   3.631   4.657  14.678  2.7165 -1.4264  0.9832
  282MPD2    H2 4261   3.681   4.635  15.092 -0.8688 -0.6972 -0.1819
  282MPD2    H3 4262   3.733   4.563  14.870 -2.8642 -1.5444 -2.9824
  282MPD2     N 4263   3.462   0.154  14.679  0.4989 -0.0394 -0.4151
  282MPD2    H5 4264   3.390   0.225  14.691  0.3516 -0.4433  1.0717
  282MPD2    N1 4265   3.494   0.100  15.165  0.0367  0.4053 -0.5285
  282MPD2    H7 4266   3.416   0.163  15.180  2.6999  3.5605  0.0670
  283TMC3    C1 4267   3.474   0.082  15.404  0.1543 -0.0917 -0.0979
  283TMC3    C2 4268   3.491   0.216  15.441  0.3012  0.2075  0.6635
  283TMC3    C3 4269   3.487   0.259  15.573 -0.1586  0.1238 -0.4197
  283TMC3    C4 4270   3.468   4.715  15.500 -0.0200  0.3622  0.1395
  283TMC3    C5 4271   3.459   0.032  15.627 -0.8258 -0.0010  0.0084
  283TMC3    C6 4272   3.474   0.161  15.671  0.2037  0.0310 -0.1585
  283TMC3     C 4273   3.526   0.030  15.280 -0.2973  0.0905 -0.6281
  283TMC3     O 4274   3.571   4.639  15.287  0.4680  0.0714 -0.1460
  283TMC3     H 4275   3.507   0.290  15.363  2.6691 -2.6986 -1.5984
  283TMC3    H1 4276   3.445   4.612  15.474  3.2132 -0.2181 -0.4206
  283TMC3    H2 4277   3.484   0.184  15.776 -0.2759 -1.6557  0.2520
  283TMC3    C7 4278   3.396   4.668  15.719  0.7499 -0.4119 -0.1842
  283TMC3    C8 4279   3.445   0.390  15.621  0.4707 -0.4739  0.1436
  283TMC3    O1 4280   3.340   4.720  15.815  0.5021  0.4718 -0.0332
  283TMC3    O2 4281   3.446   0.397  15.748 -0.3589 -0.0962  0.3534
  284MPD2     C 4282   2.113   4.235  12.188  0.6966  0.6122  0.3000
  284MPD2    C1 4283   2.099   4.217  12.053  0.0728  0.3014 -0.8195
  284MPD2    C2 4284   2.013   4.122  12.006  0.0583 -0.1367 -0.3545
  284MPD2    C3 4285   1.945   4.041  12.091  0.0378  0.7314  0.1770
  284MPD2    C4 4286   1.958   4.064  12.227 -0.2121  0.1542  0.3913
  284MPD2    C5 4287   2.041   4.164  12.274 -0.2004 -0.0435 -0.1931
  284MPD2     H 4288   1.994   4.118  11.899 -0.0994  2.1001 -0.4059
  284MPD2    H1 4289   1.907   4.001  12.298  0.9554 -1.1698  0.0471
  284MPD2    H2 4290   2.177   4.312  12.229  0.5665  1.2559 -0.7045
  284MPD2    H3 4291   2.054   4.176  12.381  0.4773  0.8609 -0.3801
  284MPD2     N 4292   1.874   3.922  12.047  0.0067  0.7584 -0.4619
  284MPD2    H5 4293   1.814   3.880  12.117 -0.5069  2.5107  0.1415
  284MPD2    N1 4294   2.167   4.294  11.959 -0.5817 -0.1698 -0.8540
  284MPD2    H7 4295   2.132   4.292  11.864 -0.6697 -0.6501 -0.8146
  285TMC3    C1 4296   2.319   4.435  11.858 -0.0437 -0.4743  0.3688
  285TMC3    C2 4297   2.324   4.358  11.745 -0.4339  0.3431 -0.2852
  285TMC3    C3 4298   2.406   4.390  11.641 -0.2898  1.1435 -0.0950
  285TMC3    C4 4299   2.410   4.532  11.880  0.6569 -0.5799 -0.5528
  285TMC3    C5 4300   2.487   4.572  11.774 -0.7287 -0.0319 -0.5992
  285TMC3    C6 4301   2.480   4.510  11.648 -0.0599 -1.3317 -0.4033
  285TMC3     C 4302   2.267   4.382  11.981 -0.2651  0.1431 -1.0579
  285TMC3     O 4303   2.332   4.398  12.085  0.2398  0.8002 -0.3445
  285TMC3     H 4304   2.295   4.254  11.751 -1.8819  0.7458 -0.1860
  285TMC3    H1 4305   2.425   4.572  11.979  1.1771 -1.5101 -0.2538
  285TMC3    H2 4306   2.525   4.551  11.558 -0.7192 -1.6607 -0.8903
  285TMC3    C7 4307   2.525   4.709  11.778 -1.0759  0.6454  0.5076
  285TMC3    C8 4308   2.451   4.287  11.548 -0.4629  0.1925 -0.0993
  285TMC3    O1 4309   2.577   0.030  11.678 -0.3819  0.2711 -0.8075
  285TMC3    O2 4310   2.378   4.189  11.528 -0.4654  0.1035  0.1694
  286MPD2     C 4311   2.452   2.671   2.154 -0.0014 -0.7405  0.7225
  286MPD2    C1 4312   2.386   2.666   2.033 -0.3480  0.4707  0.9215
  286MPD2    C2 4313   2.457   2.620   1.926  0.5764  0.0912 -0.2144
  286MPD2    C3 4314   2.592   2.587   1.936 -0.1764 -0.1215 -0.3268
  286MPD2    C4 4315   2.653   2.585   2.061 -0.0021 -0.5179  1.0186
  286MPD2    C5 4316   2.583   2.638   2.167  0.3699  0.4317  0.6426
  286MPD2     H 4317   2.409   2.610   1.829  1.1158  2.6949 -0.7523
  286MPD2    H1 4318   2.757   2.556   2.063  0.3085  0.6589  2.1027
  286MPD2    H2 4319   2.405   2.714   2.242  0.2531  3.3464 -1.0986
  286MPD2    H3 4320   2.642   2.649   2.258  2.2068  1.3356 -0.6386
  286MPD2     N 4321   2.662   2.537   1.827  0.1946 -0.4850  0.2374
  286MPD2    H5 4322   2.762   2.531   1.845  0.0397 -1.1874  0.9033
  286MPD2    N1 4323   2.250   2.708   2.009  0.2491 -0.3663 -0.3042
  286MPD2    H7 4324   2.221   2.717   1.912 -0.4006 -2.0051 -0.2568
  287TMC3    C1 4325   2.707   2.412   1.634  0.5298  0.3144  0.0155
  287TMC3    C2 4326   2.654   2.349   1.524 -0.1793 -0.1903 -0.3562
  287TMC3    C3 4327   2.738   2.270   1.451  0.1507 -0.4530  0.5552
  287TMC3    C4 4328   2.841   2.419   1.663 -0.1981  0.1221  0.0776
  287TMC3    C5 4329   2.919   2.356   1.581  0.6228  0.3618 -0.4152
  287TMC3    C6 4330   2.871   2.277   1.471  0.5030 -0.2961 -0.2944
  287TMC3     C 4331   2.611   2.482   1.712 -0.2896 -0.5608 -0.2059
  287TMC3     O 4332   2.496   2.476   1.661  0.0021  0.5935 -0.6552
  287TMC3     H 4333   2.548   2.329   1.511 -0.2567 -1.1057  1.6673
  287TMC3    H1 4334   2.880   2.473   1.748 -0.4727 -1.2251  1.0646
  287TMC3    H2 4335   2.939   2.233   1.399 -0.6819 -0.5410 -1.2573
  287TMC3    C7 4336   3.061   2.379   1.600 -0.1682 -0.4400  0.5463
  287TMC3    C8 4337   2.676   2.220   1.328  0.6036  0.2532  0.3709
  287TMC3    O1 4338   3.098   2.477   1.664 -0.0884 -0.5962  0.3315
  287TMC3    O2 4339   2.583   2.142   1.335 -0.5004 -0.2901  0.0574
  288TMC3    C1 4340   4.274   2.691  14.397 -0.4709  0.3512 -0.2771
  288TMC3    C2 4341   4.137   2.677  14.427  0.4342  0.5459 -0.6008
  288TMC3    C3 4342   4.052   2.754  14.351 -0.0124  0.3116  0.1249
  288TMC3    C4 4343   4.318   2.753  14.285 -0.1860  0.2926 -0.0295
  288TMC3    C5 4344   4.223   2.823  14.208 -0.3055 -0.6381 -0.6384
  288TMC3    C6 4345   4.092   2.836  14.245 -0.4024  0.4346  0.1753
  288TMC3     C 4346   4.360   2.597  14.470 -0.5418  0.4615  0.4258
  288TMC3     O 4347   4.442   2.528  14.413 -0.4560 -0.4994 -0.2356
  288TMC3     H 4348   4.101   2.604  14.498 -0.9884 -0.2042 -2.0861
  288TMC3    H1 4349   4.424   2.763  14.262  0.4580  1.4404  3.4746
  288TMC3    H2 4350   4.017   2.893  14.192  0.1813  0.5153 -0.5614
  288TMC3    C7 4351   4.244   2.889  14.083 -0.5617  0.3493 -0.4301
  288TMC3    C8 4352   3.918   2.789  14.410 -0.5292  0.6816 -1.0632
  288TMC3    O1 4353   4.164   2.893  13.991 -0.3250  0.3080 -0.2254
  288TMC3    O2 4354   3.858   2.890  14.366  1.1012  0.1996  0.1039
  289MPD2     C 4355   4.121   2.123  14.215  0.3145  0.4507 -0.0256
  289MPD2    C1 4356   4.091   2.244  14.177 -0.1916  0.0052  0.2515
  289MPD2    C2 4357   3.962   2.290  14.176  1.3557 -0.3397  0.1582
  289MPD2    C3 4358   3.857   2.206  14.219 -0.9276  0.4327  0.2250
  289MPD2    C4 4359   3.890   2.082  14.262 -0.6934 -0.2329 -0.4125
  289MPD2    C5 4360   4.021   2.039  14.258  0.1612  0.8714 -0.3741
  289MPD2     H 4361   3.939   2.388  14.135 -1.0431 -1.2909 -0.7720
  289MPD2    H1 4362   3.807   2.017  14.289  0.8766 -0.3203  4.2094
  289MPD2    H2 4363   4.225   2.091  14.211  0.4136  0.6960  0.6037
  289MPD2    H3 4364   4.046   1.935  14.273  2.5176  1.5016  0.0597
  289MPD2     N 4365   3.715   2.241  14.204  0.1002 -0.4845 -0.7164
  289MPD2    H5 4366   3.649   2.169  14.231  0.4137 -0.9474 -1.1657
  289MPD2    N1 4367   4.200   2.315  14.120 -0.2968 -0.1554 -0.8462
  289MPD2    H7 4368   4.294   2.278  14.113  0.0678  0.6951 -0.5359
  290TMC3    C1 4369   3.534   2.353  14.095  0.5195 -0.3504  0.0435
  290TMC3    C2 4370   3.499   2.475  14.027 -0.6048 -1.0052  0.2235
  290TMC3    C3 4371   3.420   2.464  13.913 -0.0662 -0.3468 -0.3476
  290TMC3    C4 4372   3.492   2.235  14.049  0.6235 -0.4412  0.2261
  290TMC3    C5 4373   3.421   2.226  13.928  0.1417  0.1876  0.5562
  290TMC3    C6 4374   3.389   2.342  13.869 -0.2218  0.1787 -0.0283
  290TMC3     C 4375   3.668   2.360  14.146 -0.4280  0.8834  0.0981
  290TMC3     O 4376   3.732   2.459  14.115  0.4646 -0.1392 -0.0525
  290TMC3     H 4377   3.523   2.572  14.070  1.2995 -0.4999 -1.9837
  290TMC3    H1 4378   3.493   2.146  14.111  1.1171 -1.1730 -0.8352
  290TMC3    H2 4379   3.322   2.340  13.784  1.3689 -1.1680 -1.2529
  290TMC3    C7 4380   3.324   2.115  13.898  0.2644  0.2525  0.0661
  290TMC3    C8 4381   3.328   2.566  13.871  0.7070  0.0393  0.2059
  290TMC3    O1 4382   3.221   2.146  13.833  0.1882  0.3445 -0.4037
  290TMC3    O2 4383   3.233   2.524  13.803  0.5245 -0.1939 -0.0623
  291MPD2     C 4384   3.181   1.744   0.158  0.2334 -0.7986  0.4244
  291MPD2    C1 4385   3.173   1.620   0.103 -0.9019 -0.5649 -0.1487
  291MPD2    C2 4386   3.186   1.608  17.662 -0.6117  0.2465  0.2758
  291MPD2    C3 4387   3.212   1.720  17.581  0.2633  0.2397  0.1768
  291MPD2    C4 4388   3.216   1.843  17.644 -0.1931  0.5117 -0.0515
  291MPD2    C5 4389   3.214   1.846   0.084  0.4624 -0.2421 -0.0935
  291MPD2     H 4390   3.176   1.511  17.615 -1.4524  2.5187 -4.1422
  291MPD2    H1 4391   3.228   1.929  17.579  2.4948  0.4144  0.3263
  291MPD2    H2 4392   3.168   1.764   0.263 -0.6899 -1.1168  0.3782
  291MPD2    H3 4393   3.241   1.938   0.135 -0.5204  0.1509 -0.2636
  291MPD2     N 4394   3.213   1.716  17.443 -0.2282  0.0514  0.3348
  291MPD2    H5 4395   3.197   1.807  17.400  3.1317  1.4855  2.1847
  291MPD2    N1 4396   3.138   1.504   0.177  0.2699  0.1121 -0.0347
  291MPD2    H7 4397   3.122   1.416   0.128  1.3971  1.0693 -2.1371
  292TMC3    C1 4398   3.073   1.364   0.367 -0.1889 -0.3880  0.0652
  292TMC3    C2 4399   2.998   1.370   0.483  0.8510 -0.1078 -0.1466
  292TMC3    C3 4400   2.920   1.270   0.520 -0.3546 -0.5602  0.0509
  292TMC3    C4 4401   3.054   1.260   0.281  0.3899  0.3311 -0.1899
  292TMC3    C5 4402   2.975   1.156   0.321 -0.6672 -0.0171 -0.3554
  292TMC3    C6 4403   2.906   1.159   0.437  0.2964 -0.6350  0.1434
  292TMC3     C 4404   3.112   1.497   0.312  0.1286  0.7753 -0.9108
  292TMC3     O 4405   3.112   1.586   0.396  0.9869  0.4232 -0.0079
  292TMC3     H 4406   3.011   1.459   0.545  1.1785  1.2602 -2.1814
  292TMC3    H1 4407   3.106   1.265   0.186 -0.3479 -1.6476 -0.6861
  292TMC3    H2 4408   2.825   1.090   0.458  0.2089 -0.3138  0.8609
  292TMC3    C7 4409   2.983   1.028   0.249  0.3067 -0.6674 -0.3781
  292TMC3    C8 4410   2.844   1.295   0.646 -0.1721 -0.0893  0.6418
  292TMC3    O1 4411   3.008   1.039   0.128 -0.2764 -0.6082 -0.7190
  292TMC3    O2 4412   2.833   1.415   0.683 -0.2169 -0.1325  0.1385
  293MPD2     C 4413   0.414   3.308  12.556  0.6610  0.2257  0.2633
  293MPD2    C1 4414   0.330   3.228  12.629 -0.2667 -0.6486 -0.3728
  293MPD2    C2 4415   0.317   3.234  12.767  0.2144  0.3768  0.5347
  293MPD2    C3 4416   0.381   3.336  12.831  0.0533 -0.1476 -0.3689
  293MPD2    C4 4417   0.458   3.423  12.752 -0.6166  0.6571  0.0336
  293MPD2    C5 4418   0.479   3.410  12.623 -1.0364  0.0878  0.3093
  293MPD2     H 4419   0.260   3.155  12.813  0.0790 -0.5510 -1.2408
  293MPD2    H1 4420   0.504   3.513  12.791  0.3745  0.3746 -0.4856
  293MPD2    H2 4421   0.418   3.300  12.448 -0.2281  2.9884  0.0222
  293MPD2    H3 4422   0.550   3.474  12.574 -2.3187  0.4834 -1.0312
  293MPD2     N 4423   0.353   3.354  12.968 -0.5295 -0.1697  0.2232
  293MPD2    H5 4424   0.294   3.282  13.008  0.1897 -0.3677  0.9196
  293MPD2    N1 4425   0.258   3.136  12.550  0.7660  0.6061 -0.0924
  293MPD2    H7 4426   0.282   3.140  12.452  0.7613 -0.5689 -0.1503
  294TMC3    C1 4427   0.079   3.002  12.465 -0.1900  0.0169 -0.3214
  294TMC3    C2 4428   4.712   2.898  12.486  0.3841 -0.9660 -0.5486
  294TMC3    C3 4429   4.586   2.908  12.441  0.4532  0.1814  0.1250
  294TMC3    C4 4430   0.056   3.094  12.366  0.3288  0.5173 -0.6144
  294TMC3    C5 4431   4.647   3.105  12.321 -0.3238  0.1676 -0.7023
  294TMC3    C6 4432   4.553   3.008  12.351  0.3077  0.8711 -0.1171
  294TMC3     C 4433   0.166   3.038  12.582  0.2107  0.4935  0.0365
  294TMC3     O 4434   0.140   2.991  12.690  0.4532 -0.0512 -0.1984
  294TMC3     H 4435   0.006   2.833  12.571  2.4936 -0.1984 -0.3922
  294TMC3    H1 4436   0.135   3.162  12.338  0.8701  0.3648  0.5825
  294TMC3    H2 4437   4.457   3.022  12.303  0.3331 -0.4177 -0.5357
  294TMC3    C7 4438   4.609   3.207  12.219  1.2814  0.5371  0.5145
  294TMC3    C8 4439   4.483   2.807  12.468 -0.3908  0.5430 -0.1707
  294TMC3    O1 4440   4.492   3.249  12.222 -0.4836 -0.1896  0.4600
  294TMC3    O2 4441   4.518   2.693  12.498 -0.3167  0.2428 -0.2230
  295MPD2     C 4442   0.956   1.802   0.439  0.6058 -0.1581 -0.0751
  295MPD2    C1 4443   0.865   1.782   0.335 -0.0516 -1.1904  0.2630
  295MPD2    C2 4444   0.734   1.811   0.354  0.9399 -0.3299  0.1847
  295MPD2    C3 4445   0.686   1.871   0.471 -0.0832 -0.4170 -0.0457
  295MPD2    C4 4446   0.778   1.896   0.567  0.0324 -0.0033 -0.2549
  295MPD2    C5 4447   0.909   1.864   0.549  0.3468  0.6196  0.3953
  295MPD2     H 4448   0.663   1.768   0.285  1.7179  0.1769 -0.9266
  295MPD2    H1 4449   0.740   1.947   0.655  1.4868  1.9073 -0.7358
  295MPD2    H2 4450   1.058   1.767   0.432  0.3180 -1.0753  0.3684
  295MPD2    H3 4451   0.974   1.880   0.634  1.1789 -1.8665  0.2312
  295MPD2     N 4452   0.550   1.897   0.492  0.2699 -0.2580  0.3283
  295MPD2    H5 4453   0.510   1.940   0.575 -1.6320 -0.0852 -0.6603
  295MPD2    N1 4454   0.906   1.714   0.216  0.4518 -0.4253 -0.0064
  295MPD2    H7 4455   0.835   1.689   0.149  0.4705  0.5926 -0.4055
  296TMC3    C1 4456   0.326   1.899   0.476  0.4226 -0.0918  0.3818
  296TMC3    C2 4457   0.324   2.016   0.540 -0.9713  0.0523 -0.1196
  296TMC3    C3 4458   0.218   2.045   0.621  0.1783 -0.2298  0.1724
  296TMC3    C4 4459   0.222   1.814   0.470  0.1238 -0.0937  0.4853
  296TMC3    C5 4460   0.114   1.850   0.549 -0.2967 -0.1604  0.0207
  296TMC3    C6 4461   0.116   1.957   0.632 -1.1855 -0.4070  0.2086
  296TMC3     C 4462   0.442   1.847   0.418 -0.0037  0.4794  0.0050
  296TMC3     O 4463   0.447   1.745   0.345  0.2309  0.0188  0.7071
  296TMC3     H 4464   0.403   2.090   0.529 -1.9258  1.1124  0.2501
  296TMC3    H1 4465   0.221   1.727   0.405  0.7563  0.3617 -0.1336
  296TMC3    H2 4466   0.034   1.989   0.696  0.3103  0.1879  1.8129
  296TMC3    C7 4467   4.717   1.765   0.546  0.5183  0.0315  0.0438
  296TMC3    C8 4468   0.190   2.186   0.631  0.7596 -0.2781 -0.4829
  296TMC3    O1 4469   4.709   1.686   0.453 -0.7824  0.6437 -0.2109
  296TMC3    O2 4470   0.072   2.215   0.627  0.1104  0.2448 -0.7293
  297MPD2     C 4471   2.383   3.476  16.459 -0.1863  0.3555 -0.0866
  297MPD2    C1 4472   2.413   3.510  16.326  0.0958  0.7304  0.0614
  297MPD2    C2 4473   2.532   3.578  16.309  0.2399  0.7283  0.3368
  297MPD2    C3 4474   2.623   3.612  16.407 -0.0346 -0.0848 -0.0814
  297MPD2    C4 4475   2.590   3.581  16.535 -0.3283 -1.0257  0.1928
  297MPD2    C5 4476   2.473   3.502  16.557 -0.4398  0.5783 -0.3925
  297MPD2     H 4477   2.555   3.624  16.213  2.3121  2.1268  1.5193
  297MPD2    H1 4478   2.665   3.589  16.614 -0.5824 -2.0353  0.5433
  297MPD2    H2 4479   2.290   3.429  16.488  0.8128 -1.7315 -0.3231
  297MPD2    H3 4480   2.461   3.471  16.660 -3.9032 -0.1003 -1.0162
  297MPD2     N 4481   2.760   3.660  16.393 -0.3090 -0.1370 -1.1053
  297MPD2    H5 4482   2.814   3.693  16.472  0.4382  1.0108 -2.0941
  297MPD2    N1 4483   2.319   3.508  16.217 -0.2328  0.1253  0.1455
  297MPD2    H7 4484   2.353   3.557  16.135 -0.5611 -0.0085 -0.0725
  298TMC3    C1 4485   2.110   3.508  16.113  0.4398  0.3849  0.0120
  298TMC3    C2 4486   2.167   3.511  15.987  0.0748  0.5741 -0.5412
  298TMC3    C3 4487   2.086   3.560  15.892 -0.4481  0.2821 -0.3796
  298TMC3    C4 4488   1.970   3.537  16.135 -0.5224 -0.2613 -0.4144
  298TMC3    C5 4489   1.897   3.582  16.026  1.3671  0.5589 -0.2430
  298TMC3    C6 4490   1.955   3.602  15.908  0.3261  0.2125  0.1422
  298TMC3     C 4491   2.188   3.476  16.231 -0.4236 -0.3760 -0.1805
  298TMC3     O 4492   2.132   3.426  16.326 -0.1122 -0.0099 -0.4888
  298TMC3     H 4493   2.263   3.468  15.965  1.2621  3.7016 -1.5214
  298TMC3    H1 4494   1.929   3.526  16.235 -0.0524 -2.0890 -0.4363
  298TMC3    H2 4495   1.895   3.621  15.820  0.2636 -1.5267 -0.1993
  298TMC3    C7 4496   1.778   3.655  16.061  0.5454 -0.4331 -0.0192
  298TMC3    C8 4497   2.135   3.581  15.759 -0.1892 -0.8796  0.6286
  298TMC3    O1 4498   1.745   3.643  16.181 -0.6417  0.2670  0.7605
  298TMC3    O2 4499   2.080   3.671  15.693  0.0225 -0.1224  0.2935
  299MPD2     C 4500   3.941   3.778  10.261 -0.1206 -0.1576  0.0166
  299MPD2    C1 4501   3.876   3.729  10.370  0.9131  0.4522  0.7593
  299MPD2    C2 4502   3.768   3.647  10.356  0.4070 -0.0730  0.2192
  299MPD2    C3 4503   3.710   3.620  10.228 -0.1901 -0.4256 -0.3553
  299MPD2    C4 4504   3.777   3.660  10.113  0.2317  0.3703  0.1275
  299MPD2    C5 4505   3.888   3.739  10.137  0.5746 -0.6383 -0.5004
  299MPD2     H 4506   3.717   3.618  10.447  1.6071 -1.0536  0.5708
  299MPD2    H1 4507   3.743   3.632  10.013 -0.0341 -0.5550  0.4721
  299MPD2    H2 4508   4.038   3.828  10.267  0.2636 -0.8279 -0.6398
  299MPD2    H3 4509   3.945   3.777  10.053 -0.7885  0.7122 -0.8110
  299MPD2     N 4510   3.582   3.558  10.206 -0.1057  0.3902 -0.0713
  299MPD2    H5 4511   3.543   3.542  10.114  0.1105 -0.4994 -0.0062
  299MPD2    N1 4512   3.920   3.778  10.501  0.0580 -0.8077 -0.6202
  299MPD2    H7 4513   4.004   3.834  10.505 -1.2952  1.3492 -2.6000
  300TMC3    C1 4514   3.384   3.465  10.280  1.1078  0.4449  0.3326
  300TMC3    C2 4515   3.310   3.561  10.220  0.7987 -0.0415  0.4315
  300TMC3    C3 4516   3.177   3.558  10.229 -0.3488 -0.4821 -0.7423
  300TMC3    C4 4517   3.312   3.363  10.344 -0.7467  0.2988 -0.5038
  300TMC3    C5 4518   3.177   3.364  10.350  0.9150  0.0865  0.3822
  300TMC3    C6 4519   3.106   3.450  10.270 -0.5047  0.2308 -0.3125
  300TMC3     C 4520   3.522   3.492  10.313  0.1488 -0.2869 -0.8516
  300TMC3     O 4521   3.559   3.464  10.424 -0.2022 -0.0487  0.5104
  300TMC3     H 4522   3.357   3.644  10.169 -0.0252 -1.4384 -2.6411
  300TMC3    H1 4523   3.373   3.301  10.409 -1.4331 -0.4199 -0.5529
  300TMC3    H2 4524   2.998   3.457  10.271 -0.4750  0.4460  1.2666
  300TMC3    C7 4525   3.109   3.296  10.456 -0.7304  0.4861 -0.1271
  300TMC3    C8 4526   3.126   3.687  10.268  0.6001  0.2191  1.2042
  300TMC3    O1 4527   3.169   3.194  10.491 -0.6664  0.3474  0.1438
  300TMC3    O2 4528   3.205   3.776  10.274  0.3507  0.2316 -0.0382
  301MPD2     C 4529   4.680   0.374   1.501  0.2415 -0.0778  0.1150
  301MPD2    C1 4530   4.580   0.312   1.434  0.1122  1.3346 -0.4977
  301MPD2    C2 4531   4.590   0.175   1.403 -0.3503 -0.2601 -0.1717
  301MPD2    C3 4532   4.706   0.104   1.420 -0.3859 -0.2023  0.5147
  301MPD2    C4 4533   0.081   0.164   1.489 -0.4292 -0.2569  0.7275
  301MPD2    C5 4534   0.071   0.298   1.526 -0.2360  0.0056 -0.0597
  301MPD2     H 4535   4.508   0.128   1.350 -1.1049  0.5063  0.3127
  301MPD2    H1 4536   0.174   0.110   1.503  0.4847  1.0304 -0.3296
  301MPD2    H2 4537   4.675   0.476   1.537  1.2819  0.4740 -1.3073
  301MPD2    H3 4538   0.149   0.349   1.582  0.5073  0.8247 -1.8595
  301MPD2     N 4539   0.007   4.703   1.358  0.1512  0.1475  0.2415
  301MPD2    H5 4540   0.095   4.655   1.369  0.5597  0.5648 -1.2261
  301MPD2    N1 4541   4.456   0.373   1.397  0.1579 -0.4936 -0.4182
  301MPD2    H7 4542   4.395   0.316   1.339 -0.1517 -1.3464  0.7400
  302TMC3    C1 4543   4.691   4.514   1.241  0.4747  0.6866 -0.5098
  302TMC3    C2 4544   0.023   4.428   1.334  0.3664 -0.2032 -0.6340
  302TMC3    C3 4545   0.072   4.312   1.289  0.1611  0.1080 -0.0599
  302TMC3    C4 4546   4.689   4.483   1.107 -0.2449 -0.0951 -0.3761
  302TMC3    C5 4547   0.016   4.364   1.064  0.6798 -0.3406  0.7541
  302TMC3    C6 4548   0.067   4.276   1.157 -0.2563  0.0427  0.7728
  302TMC3     C 4549   4.642   4.639   1.282  0.2138  0.7108  0.2980
  302TMC3     O 4550   4.527   4.661   1.239 -0.1971 -0.8181 -0.2834
  302TMC3     H 4551   0.037   4.453   1.439  1.4096 -0.2324 -0.7589
  302TMC3    H1 4552   4.634   4.541   1.033 -2.9051 -0.9411  0.9327
  302TMC3    H2 4553   0.092   4.176   1.122 -1.8959  0.5377 -1.8947
  302TMC3    C7 4554   4.672   4.298   0.952  0.1308  0.0116  0.3553
  302TMC3    C8 4555   0.105   4.208   1.380 -0.1407 -0.3234  0.5237
  302TMC3    O1 4556   4.720   4.195   0.904  0.3238  0.3122 -0.2052
  302TMC3    O2 4557   0.185   4.119   1.350  0.5867 -0.1969 -0.0584
  303MPD2     C 4558   0.925   3.538  10.309 -0.1024 -0.3994 -0.0994
  303MPD2    C1 4559   0.807   3.473  10.341  0.0913  0.1181  0.0407
  303MPD2    C2 4560   0.724   3.432  10.246  0.0672  0.3404 -0.3569
  303MPD2    C3 4561   0.740   3.468  10.109 -0.4144  0.0349 -0.5371
  303MPD2    C4 4562   0.848   3.550  10.082  0.0036 -0.0230 -0.6847
  303MPD2    C5 4563   0.940   3.575  10.179  0.4806  0.1469 -0.5812
  303MPD2     H 4564   0.641   3.366  10.271 -1.1443  1.8888 -0.3191
  303MPD2    H1 4565   0.870   3.585   9.982  0.8209 -0.7732 -0.7660
  303MPD2    H2 4566   1.009   3.550  10.376 -2.4668 -1.8704  3.1503
  303MPD2    H3 4567   1.028   3.633  10.156  0.8194 -0.2375 -0.2511
  303MPD2     N 4568   0.651   3.436  10.000  0.0560  0.2649  0.1069
  303MPD2    H5 4569   0.678   3.467   9.907 -2.5765  0.1650 -0.6764
  303MPD2    N1 4570   0.794   3.423  10.470  0.3403  0.9719  0.6243
  303MPD2    H7 4571   0.880   3.432  10.522  1.5134 -0.4373 -1.0885
  304TMC3    C1 4572   0.718   3.318  10.668  0.6214 -0.3548  0.0626
  304TMC3    C2 4573   0.608   3.337  10.740  0.1123 -0.5846  0.2183
  304TMC3    C3 4574   0.582   3.253  10.848 -0.2323 -0.3052  0.2091
  304TMC3    C4 4575   0.800   3.218  10.694  0.2842  0.0745  0.0217
  304TMC3    C5 4576   0.778   3.131  10.793  0.6393 -0.1184  0.3550
  304TMC3    C6 4577   0.666   3.148  10.875  0.2502  0.3512 -0.0047
  304TMC3     C 4578   0.687   3.357  10.529  0.3169 -0.6268  0.1284
  304TMC3     O 4579   0.567   3.345  10.504 -0.1801 -0.3088 -0.3491
  304TMC3     H 4580   0.537   3.418  10.733 -0.5608 -1.3764 -2.1636
  304TMC3    H1 4581   0.868   3.198  10.612 -0.3138 -0.7949 -0.2613
  304TMC3    H2 4582   0.644   3.093  10.966 -0.6202  1.9085  0.7334
  304TMC3    C7 4583   0.760   2.988  10.753  0.4468  0.6445  0.1846
  304TMC3    C8 4584   0.449   3.228  10.872  1.0073  0.6653 -0.7547
  304TMC3    O1 4585   0.665   2.938  10.811  0.6266  0.4370  0.5730
  304TMC3    O2 4586   0.369   3.317  10.885  0.2854  0.3851  0.6508
  305MPD2     C 4587   3.778   0.658  14.099  0.0165 -0.2674  0.5406
  305MPD2    C1 4588   3.761   0.524  14.121 -0.5114 -0.5147  0.8220
  305MPD2    C2 4589   3.744   0.434  14.018  0.5271  1.1819 -0.3403
  305MPD2    C3 4590   3.752   0.484  13.889 -0.2915  0.7812  0.5408
  305MPD2    C4 4591   3.785   0.613  13.864  0.7445 -0.0877 -0.0100
  305MPD2    C5 4592   3.794   0.698  13.969  0.3927 -0.0060 -0.8367
  305MPD2     H 4593   3.734   0.328  14.035 -0.4575  1.4886  1.0408
  305MPD2    H1 4594   3.813   0.652  13.767 -0.7880  0.3311 -0.2938
  305MPD2    H2 4595   3.782   0.735  14.175  0.9157  1.5270 -1.3412
  305MPD2    H3 4596   3.826   0.800  13.955  0.1400  0.0349 -1.1080
  305MPD2     N 4597   3.732   0.406  13.773 -0.0883  0.2861 -0.1821
  305MPD2    H5 4598   3.748   0.453  13.684 -1.5672 -1.4646 -1.3748
  305MPD2    N1 4599   3.746   0.488  14.259 -0.7310  0.6790  0.8114
  305MPD2    H7 4600   3.762   0.569  14.318  2.1930 -0.1290  1.1540
  306TMC3    C1 4601   3.772   0.353  14.457 -0.4863 -0.1384 -0.3325
  306TMC3    C2 4602   3.827   0.235  14.499  0.3141  0.0691  0.3180
  306TMC3    C3 4603   3.834   0.224  14.632  0.2081 -0.2362  0.3003
  306TMC3    C4 4604   3.728   0.453  14.535  0.1424 -0.0177 -0.0866
  306TMC3    C5 4605   3.740   0.433  14.672 -0.2118  0.1349 -0.1164
  306TMC3    C6 4606   3.798   0.322  14.724 -0.1994 -0.2374  0.2467
  306TMC3     C 4607   3.730   0.364  14.316  0.0049  0.7960  0.1757
  306TMC3     O 4608   3.722   0.250  14.265  0.2410 -0.0156  0.3244
  306TMC3     H 4609   3.843   0.155  14.428  1.9660  1.8863 -1.3313
  306TMC3    H1 4610   3.674   0.536  14.490  0.4807 -0.7966 -1.9189
  306TMC3    H2 4611   3.817   0.317  14.831 -0.1205 -2.2267  0.1406
  306TMC3    C7 4612   3.697   0.533  14.765 -0.0929  0.4551  0.2208
  306TMC3    C8 4613   3.918   0.115  14.675 -0.0989  0.4983 -0.0018
  306TMC3    O1 4614   3.589   0.583  14.738  0.1232  0.4614 -0.8269
  306TMC3    O2 4615   3.947   0.030  14.594  0.0842  0.5906 -0.4566
  307MPD2     C 4616   1.279   2.395   0.081  0.0763 -0.0162  0.1039
  307MPD2    C1 4617   1.283   2.489   0.186  0.1653  0.9862  0.2397
  307MPD2    C2 4618   1.216   2.454   0.301 -0.1636 -0.5878  0.8352
  307MPD2    C3 4619   1.143   2.340   0.311  0.3985  0.3102 -0.0021
  307MPD2    C4 4620   1.145   2.251   0.209  0.0879 -0.4191 -0.0640
  307MPD2    C5 4621   1.207   2.284   0.092 -0.1321 -0.2397  0.1082
  307MPD2     H 4622   1.221   2.520   0.386 -0.7122  0.4543  0.0647
  307MPD2    H1 4623   1.091   2.156   0.215 -0.7715  0.0810  0.1075
  307MPD2    H2 4624   1.329   2.407  17.681 -1.5124  1.0513 -0.6008
  307MPD2    H3 4625   1.208   2.224   0.002  1.9256 -0.1985  0.1011
  307MPD2     N 4626   1.050   2.333   0.420 -0.1308 -0.4373  0.3810
  307MPD2    H5 4627   1.054   2.406   0.491  0.3279 -0.0014 -0.0956
  307MPD2    N1 4628   1.342   2.616   0.177  0.3889  0.0718 -0.0190
  307MPD2    H7 4629   1.322   2.672   0.259 -3.5865  2.0035 -2.3491
  308TMC3    C1 4630   0.614   2.375   0.486 -0.2281 -0.6962  0.1107
  308TMC3    C2 4631   0.649   2.478   0.574  0.8481  0.5486  0.2454
  308TMC3    C3 4632   0.770   2.474   0.626  0.7099  0.1433 -0.3455
  308TMC3    C4 4633   0.711   2.285   0.455  0.1964  0.1836 -0.1672
  308TMC3    C5 4634   0.832   2.290   0.512  0.2799 -0.2413  0.4327
  308TMC3    C6 4635   0.863   2.384   0.606  0.0464 -0.0334  0.0566
  308TMC3     C 4636   0.495   2.391   0.398 -0.4900 -0.2599 -0.9408
  308TMC3     O 4637   0.443   2.289   0.353  0.0211  0.8169  0.2615
  308TMC3     H 4638   0.577   2.556   0.596  1.3558  1.4008 -1.1079
  308TMC3    H1 4639   0.682   2.205   0.387 -0.2617 -0.5872  0.9257
  308TMC3    H2 4640   0.947   2.371   0.673  0.4129  1.0733 -0.1982
  308TMC3    C7 4641   0.944   2.241   0.431 -1.0524  0.1165 -0.1585
  308TMC3    C8 4642   0.811   2.583   0.719  0.1118 -0.2886 -0.6592
  308TMC3    O1 4643   0.921   2.138   0.368 -0.0108 -0.1561 -0.0066
  308TMC3    O2 4644   0.894   2.554   0.801 -0.0401  0.7021 -0.0307
  309MPD2     C 4645   0.385   3.326  17.114  0.8757 -0.2597 -0.1986
  309MPD2    C1 4646   0.329   3.380  17.001  0.2196 -0.0037  0.1045
  309MPD2    C2 4647   0.214   3.460  17.002  0.0867  0.6607 -0.2379
  309MPD2    C3 4648   0.158   3.490  17.122 -0.0225 -0.1715 -0.6569
  309MPD2    C4 4649   0.217   3.447  17.237  0.0167  0.2087  0.4566
  309MPD2    C5 4650   0.325   3.365  17.229 -0.3022  0.0514  0.4902
  309MPD2     H 4651   0.175   3.492  16.905  1.4521 -1.0451 -1.3267
  309MPD2    H1 4652   0.182   3.485  17.332 -1.3026  2.4535 -0.9194
  309MPD2    H2 4653   0.476   3.267  17.113  0.7852 -0.3304 -2.9268
  309MPD2    H3 4654   0.374   3.337  17.322 -1.5358 -0.6084  0.9375
  309MPD2     N 4655   0.044   3.568  17.139 -0.4632 -0.1678  0.2337
  309MPD2    H5 4656   0.016   3.573  17.237  3.0143 -1.2205  1.2870
  309MPD2    N1 4657   0.369   3.340  16.867  0.3037 -0.5650 -0.1794
  309MPD2    H7 4658   0.298   3.347  16.795  1.4505  1.5707 -1.0919
  310TMC3    C1 4659   0.458   3.254  16.679 -0.4594 -0.4234 -0.0798
  310TMC3    C2 4660   0.402   3.362  16.612 -0.9847 -0.1033 -0.2389
  310TMC3    C3 4661   0.410   3.365  16.478 -0.9293  0.3691 -0.4890
  310TMC3    C4 4662   0.519   3.151  16.607  0.0772 -0.9030  0.2466
  310TMC3    C5 4663   0.525   3.159  16.473  0.4204 -0.5128 -0.7537
  310TMC3    C6 4664   0.475   3.267  16.402  0.6896  0.7150 -0.1669
  310TMC3     C 4665   0.480   3.272  16.823 -0.4730 -0.0088  0.9103
  310TMC3     O 4666   0.576   3.226  16.885  0.1718  0.0619 -0.3793
  310TMC3     H 4667   0.356   3.445  16.665  0.0301  0.8997 -0.9317
  310TMC3    H1 4668   0.571   3.071  16.660  1.1377 -0.0099  0.5528
  310TMC3    H2 4669   0.472   3.281  16.295 -0.3775  0.0066 -0.2302
  310TMC3    C7 4670   0.597   3.053  16.395  0.0268  0.0799  0.6449
  310TMC3    C8 4671   0.341   3.467  16.405  0.1870  0.2528  0.1032
  310TMC3    O1 4672   0.591   3.077  16.273 -0.3693 -0.3070  0.5097
  310TMC3    O2 4673   0.387   3.488  16.293 -0.4200 -0.4556 -0.0519
  311MPD2     C 4674   2.808   4.636  12.734 -0.0855 -0.3319 -0.0355
  311MPD2    C1 4675   2.798   0.057  12.739  0.5574 -0.1171  0.1384
  311MPD2    C2 4676   2.674   0.116  12.729 -0.1138 -0.0913 -0.0513
  311MPD2    C3 4677   2.562   0.041  12.719 -0.1941  0.2297  0.0306
  311MPD2    C4 4678   2.572   4.625  12.702 -0.3028  0.4508 -0.5247
  311MPD2    C5 4679   2.695   4.563  12.710 -0.7724 -0.1240 -0.0099
  311MPD2     H 4680   2.656   0.221  12.712  1.6863  0.0281 -1.2496
  311MPD2    H1 4681   2.476   4.576  12.699 -0.2235  0.2681 -0.1254
  311MPD2    H2 4682   2.901   4.580  12.737 -0.7183 -1.3591  0.4305
  311MPD2    H3 4683   2.693   4.455  12.714 -0.8715  0.0006  3.0568
  311MPD2     N 4684   2.437   0.108  12.727  0.0554 -0.2196  0.2556
  311MPD2    H5 4685   2.438   0.210  12.727  0.3984 -0.2245  0.1939
  311MPD2    N1 4686   2.908   0.148  12.758  0.1167 -0.1022 -0.0281
  311MPD2    H7 4687   2.899   0.249  12.749 -1.4926 -0.4120 -1.8171
  312TMC3    C1 4688   2.211   0.152  12.770 -0.1810  0.9031 -0.6177
  312TMC3    C2 4689   2.091   0.132  12.717  0.1527 -0.0645 -0.4585
  312TMC3    C3 4690   2.016   0.235  12.684 -0.1310 -0.2339 -0.1707
  312TMC3    C4 4691   2.244   0.278  12.815 -0.0901 -0.7357  0.4651
  312TMC3    C5 4692   2.154   0.378  12.802  0.2195 -0.5921  0.3371
  312TMC3    C6 4693   2.044   0.361  12.723  0.1847  0.1983  0.0819
  312TMC3     C 4694   2.316   0.052  12.749 -0.7817  0.1650  0.1434
  312TMC3     O 4695   2.280   4.657  12.765  0.2040  0.0615 -0.2002
  312TMC3     H 4696   2.075   0.037  12.667 -0.4609  1.0253 -2.3243
  312TMC3    H1 4697   2.341   0.301  12.857 -0.1752  1.0937 -0.3650
  312TMC3    H2 4698   1.978   0.446  12.717 -2.6358 -2.0214 -0.1590
  312TMC3    C7 4699   2.176   0.515  12.853 -0.2132  0.2982 -0.3771
  312TMC3    C8 4700   1.893   0.203  12.611  0.1997  0.2313  0.0123
  312TMC3    O1 4701   2.108   0.609  12.806  0.1457  0.2165  0.1953
  312TMC3    O2 4702   1.870   0.089  12.584  0.2794 -0.0883 -0.0187
  313MPD2     C 4703   2.530   4.102  10.560 -0.3564  0.8428 -0.2880
  313MPD2    C1 4704   2.439   4.014  10.608  0.4197  0.7248  0.6668
  313MPD2    C2 4705   2.375   3.931  10.520  0.0064 -0.6397 -0.2517
  313MPD2    C3 4706   2.420   3.927  10.389  0.5902 -0.2762 -0.2699
  313MPD2    C4 4707   2.528   4.008  10.349  0.2816  0.1460  0.5213
  313MPD2    C5 4708   2.578   4.099  10.432  0.3697  1.4411  1.2732
  313MPD2     H 4709   2.294   3.870  10.557  1.3701 -1.4120  1.4293
  313MPD2    H1 4710   2.570   4.004  10.249  0.4009  0.7256  0.5503
  313MPD2    H2 4711   2.582   4.170  10.626  0.2001  1.3914 -1.2931
  313MPD2    H3 4712   2.658   4.169  10.409 -0.6187  1.8841 -0.7550
  313MPD2     N 4713   2.360   3.837  10.300 -0.3330 -0.1187  0.4745
  313MPD2    H5 4714   2.290   3.773  10.338  0.0069  1.2003  3.3488
  313MPD2    N1 4715   2.392   4.023  10.741  0.0645 -0.1447 -0.7585
  313MPD2    H7 4716   2.307   3.972  10.761  0.9048 -1.7348 -1.2018
  314TMC3    C1 4717   2.342   4.149  10.933  0.1504 -0.1539 -0.1468
  314TMC3    C2 4718   2.391   4.201  11.053 -0.7165  1.0672  0.5274
  314TMC3    C3 4719   2.294   4.278  11.127  0.1633  0.1555 -0.6101
  314TMC3    C4 4720   2.219   4.183  10.884 -0.4821 -0.4073  0.3103
  314TMC3    C5 4721   2.130   4.257  10.963 -0.0850 -0.3968  0.0712
  314TMC3    C6 4722   2.161   4.299  11.089 -0.3059 -0.4117  0.8405
  314TMC3     C 4723   2.443   4.111  10.840  0.2549 -0.9324  0.2978
  314TMC3     O 4724   2.560   4.150  10.853 -0.0823  0.0159 -0.9165
  314TMC3     H 4725   2.496   4.196  11.081 -0.6031 -0.2138 -0.0970
  314TMC3    H1 4726   2.197   4.168  10.779 -0.2286  2.6318 -0.1720
  314TMC3    H2 4727   2.092   4.365  11.140  1.1082 -0.0090  2.2502
  314TMC3    C7 4728   2.026   4.329  10.891  0.3303  0.7764  0.3497
  314TMC3    C8 4729   2.353   4.388  11.205 -0.2368  0.6393 -0.0405
  314TMC3    O1 4730   1.916   4.337  10.945  0.3514 -0.3701 -0.6470
  314TMC3    O2 4731   2.471   4.408  11.201 -0.3315  0.6332 -0.3152
  315MPD2     C 4732   1.467   3.402   0.407  0.4036  0.0598 -0.4998
  315MPD2    C1 4733   1.571   3.329   0.356  0.5249  0.2104  0.0066
  315MPD2    C2 4734   1.604   3.345   0.222  0.0934  0.4442 -0.6104
  315MPD2    C3 4735   1.545   3.442   0.146  0.1900 -0.4493 -0.4188
  315MPD2    C4 4736   1.446   3.519   0.200  0.0417 -0.2726  0.1829
  315MPD2    C5 4737   1.405   3.502   0.331 -0.0047 -0.5768 -0.1856
  315MPD2     H 4738   1.683   3.284   0.180 -0.6572 -1.0457  0.1194
  315MPD2    H1 4739   1.380   3.583   0.144  0.2773  0.2931  0.5596
  315MPD2    H2 4740   1.443   3.387   0.512 -0.5197 -3.1454 -1.1504
  315MPD2    H3 4741   1.328   3.567   0.371 -0.5801 -2.3516  1.5960
  315MPD2     N 4742   1.601   3.466   0.019  0.0947  0.4903  0.0489
  315MPD2    H5 4743   1.682   3.411  17.687 -0.4873 -0.4824  0.2960
  315MPD2    N1 4744   1.644   3.223   0.426  0.0711 -0.3339  0.1399
  315MPD2    H7 4745   1.721   3.179   0.376 -1.6889 -2.7405 -0.4372
  316TMC3    C1 4746   1.660   3.598  17.539 -1.0532  0.3212  0.0356
  316TMC3    C2 4747   1.793   3.597  17.582  0.0585 -0.2317  0.1654
  316TMC3    C3 4748   1.898   3.617  17.494 -0.3291  0.1682 -0.3750
  316TMC3    C4 4749   1.636   3.620  17.409  0.0184 -0.1674  0.2668
  316TMC3    C5 4750   1.746   3.650  17.328 -0.9076  0.3853 -0.0686
  316TMC3    C6 4751   1.877   3.655  17.368 -0.4158  0.0646 -0.1925
  316TMC3     C 4752   1.558   3.567  17.631 -0.3749 -0.7129 -0.6100
  316TMC3     O 4753   1.464   3.647  17.630  0.3062 -0.0994 -0.2486
  316TMC3     H 4754   1.815   3.584  17.687 -2.0400 -1.3522  0.4683
  316TMC3    H1 4755   1.534   3.615  17.372  0.6846  1.3279 -1.7723
  316TMC3    H2 4756   1.953   3.691  17.300 -0.3120  0.0192 -0.1003
  316TMC3    C7 4757   1.724   3.625  17.189 -0.0801 -0.3598  0.0334
  316TMC3    C8 4758   2.026   3.622  17.551 -0.4252 -0.7065  0.2031
  316TMC3    O1 4759   1.830   3.588  17.137  0.2027  0.0453 -0.0703
  316TMC3    O2 4760   2.113   3.696  17.508  0.0234  0.7881 -0.7006
  317MPD2     C 4761   3.663   2.059  13.416  0.0270 -0.2072  0.1303
  317MPD2    C1 4762   3.732   2.033  13.298  0.8177  0.5986 -0.0027
  317MPD2    C2 4763   3.852   1.967  13.296  1.2440  0.7891 -0.6326
  317MPD2    C3 4764   3.905   1.927  13.419 -0.9700  0.7755 -0.3766
  317MPD2    C4 4765   3.839   1.952  13.539 -0.9646 -0.1194  0.7649
  317MPD2    C5 4766   3.715   2.006  13.537 -0.7608 -0.1827 -0.7577
  317MPD2     H 4767   3.907   1.951  13.204  2.1226 -1.6334  0.3125
  317MPD2    H1 4768   3.872   1.919  13.637  0.5090  1.0375  0.6465
  317MPD2    H2 4769   3.568   2.112  13.417  0.4363  0.5304 -0.1137
  317MPD2    H3 4770   3.661   2.010  13.631  0.1338 -0.2596 -0.2434
  317MPD2     N 4771   4.031   1.859  13.424 -0.7203  0.7106 -0.3028
  317MPD2    H5 4772   4.073   1.835  13.335 -0.9734  0.2732 -0.3017
  317MPD2    N1 4773   3.698   2.099  13.176 -0.0720  0.0105 -0.2543
  317MPD2    H7 4774   3.750   2.069  13.094 -1.3547  0.3875 -1.2215
  318TMC3    C1 4775   4.187   1.713  13.512 -0.3447 -0.7941  0.7000
  318TMC3    C2 4776   4.162   1.604  13.438 -0.3316  0.0146  0.5995
  318TMC3    C3 4777   4.242   1.498  13.430 -0.2254  1.0631  0.5767
  318TMC3    C4 4778   4.309   1.708  13.581 -0.7389  0.3012 -0.2828
  318TMC3    C5 4779   4.395   1.602  13.568 -0.0183  0.4508 -0.4320
  318TMC3    C6 4780   4.367   1.491  13.493  0.5513  0.6346  0.0034
  318TMC3     C 4781   4.099   1.821  13.536 -0.4568  0.3464  0.5661
  318TMC3     O 4782   4.110   1.861  13.655  0.1725 -0.2793  0.6656
  318TMC3     H 4783   4.070   1.613  13.381 -1.1231 -1.4491  1.6472
  318TMC3    H1 4784   4.334   1.785  13.654 -2.1123 -0.3575  0.8813
  318TMC3    H2 4785   4.426   1.401  13.497  0.1620  0.3052 -1.8543
  318TMC3    C7 4786   4.501   1.603  13.668 -0.4510 -0.3309  0.3841
  318TMC3    C8 4787   4.206   1.380  13.349  0.0730 -0.0849 -0.2973
  318TMC3    O1 4788   4.569   1.707  13.660  0.9486  0.0693  0.3474
  318TMC3    O2 4789   4.279   1.281  13.363  0.3418 -0.7310  0.5327
  319MPD2     C 4790   0.065   3.057  16.353  0.2407  0.2331 -0.7652
  319MPD2    C1 4791   0.005   2.951  16.416 -0.0743  0.0395 -0.0916
  319MPD2    C2 4792   4.629   2.879  16.348  0.3640  0.5723  0.5219
  319MPD2    C3 4793   4.599   2.910  16.217 -0.2696  0.4980 -0.1274
  319MPD2    C4 4794   4.666   3.014  16.149 -0.6414  0.5423  0.5065
  319MPD2    C5 4795   0.037   3.088  16.219  0.2322 -0.5943  0.2699
  319MPD2     H 4796   4.575   2.803  16.403  0.7196 -0.2482 -0.2617
  319MPD2    H1 4797   4.642   3.041  16.047 -2.4344 -1.4623  0.3839
  319MPD2    H2 4798   0.155   3.102  16.393  0.3999  0.7405 -1.6988
  319MPD2    H3 4799   0.098   3.167  16.177 -1.2658 -0.8994 -2.4874
  319MPD2     N 4800   4.504   2.824  16.157  0.2448  0.2626 -0.0786
  319MPD2    H5 4801   4.459   2.757  16.219  1.7875 -0.7379 -0.0395
  319MPD2    N1 4802   0.048   2.912  16.543  0.0925  0.0812 -0.5261
  319MPD2    H7 4803   0.010   2.823  16.574  2.9681 -0.6999  0.7113
  320TMC3    C1 4804   4.294   2.814  16.047 -0.4538  0.2884  0.2179
  320TMC3    C2 4805   4.197   2.886  15.985  0.5728  0.6049 -0.6119
  320TMC3    C3 4806   4.083   2.824  15.937 -0.1143 -0.2320 -0.3589
  320TMC3    C4 4807   4.294   2.676  16.047 -0.4275  0.1071 -0.7666
  320TMC3    C5 4808   4.179   2.614  15.999 -0.0165  0.4562  0.1395
  320TMC3    C6 4809   4.068   2.682  15.945  0.0529 -0.4335 -0.2964
  320TMC3     C 4810   4.421   2.880  16.056 -0.7075  0.9744  0.3806
  320TMC3     O 4811   4.434   2.974  15.981 -0.2949 -0.4223 -0.1379
  320TMC3     H 4812   4.202   2.994  15.990 -2.5531  0.7882 -1.5238
  320TMC3    H1 4813   4.382   2.619  16.073  0.3847  1.7360  0.0679
  320TMC3    H2 4814   3.973   2.639  15.916 -0.3935 -0.1587  0.7761
  320TMC3    C7 4815   4.161   2.471  15.983  0.4428  0.1893 -0.4467
  320TMC3    C8 4816   3.983   2.906  15.860 -0.2183  0.0702 -0.2813
  320TMC3    O1 4817   4.080   2.451  15.895  0.2321  0.2125  0.4654
  320TMC3    O2 4818   3.988   3.029  15.874  0.0469  0.0119 -0.5445
  321TMC3    C1 4819   0.140   2.916  16.753 -0.5121 -0.2681 -0.2841
  321TMC3    C2 4820   0.154   2.783  16.755 -0.1378 -0.6540 -0.0597
  321TMC3    C3 4821   0.150   2.714  16.876  0.0515  0.3908  0.1439
  321TMC3    C4 4822   0.130   2.988  16.868  0.1700 -0.2725 -0.0004
  321TMC3    C5 4823   0.116   2.923  16.983  0.6089 -0.1507  0.0018
  321TMC3    C6 4824   0.121   2.783  16.996 -0.6567 -0.4112  0.2142
  321TMC3     C 4825   0.122   2.982  16.630 -0.1829  0.4683 -0.2818
  321TMC3     O 4826   0.136   3.107  16.631  0.0613 -0.1834 -0.1981
  321TMC3     H 4827   0.169   2.730  16.662 -2.3713 -2.2606  0.5008
  321TMC3    H1 4828   0.131   3.096  16.867 -0.9692 -0.2516  1.6047
  321TMC3    H2 4829   0.111   2.735  17.093 -1.5148  0.1126  0.3921
  321TMC3    C7 4830   0.194   2.988  17.080 -0.4045  0.4857  0.2234
  321TMC3    C8 4831   0.260   2.624  16.898 -0.7118  0.0075  0.3884
  321TMC3    O1 4832   0.189   3.109  17.084 -0.2260  0.4960  0.4470
  321TMC3    O2 4833   0.332   2.647  16.996 -0.5112  0.0151 -0.3519
  322MPD2     C 4834   3.410   4.411  13.568  0.0739 -0.0335  0.0062
  322MPD2    C1 4835   3.456   4.309  13.651  0.1156 -0.6695 -0.2197
  322MPD2    C2 4836   3.459   4.174  13.606 -0.0251  0.4404  0.9267
  322MPD2    C3 4837   3.418   4.141  13.476 -0.2809 -0.0131 -0.0128
  322MPD2    C4 4838   3.369   4.242  13.400 -0.7555  0.6510 -0.0813
  322MPD2    C5 4839   3.357   4.367  13.448 -0.0463  0.0510 -0.2484
  322MPD2     H 4840   3.505   4.107  13.678  2.5427 -0.0706 -1.2038
  322MPD2    H1 4841   3.328   4.233  13.300 -0.9835 -0.4668  0.1118
  322MPD2    H2 4842   3.391   4.515  13.591 -0.5330 -0.2925  0.6725
  322MPD2    H3 4843   3.306   4.441  13.388 -0.3178 -2.3276 -2.9587
  322MPD2     N 4844   3.427   4.007  13.433 -1.1616 -0.2525 -0.4201
  322MPD2    H5 4845   3.450   3.940  13.506 -1.4965  0.4423  0.3133
  322MPD2    N1 4846   3.508   4.346  13.771 -0.3854 -0.5783  0.2383
  322MPD2    H7 4847   3.507   4.444  13.796 -0.1055 -0.0444 -1.8239
  323TMC3    C1 4848   3.624   4.325  13.970  0.0162 -0.2024 -0.1142
  323TMC3    C2 4849   3.706   4.426  13.930 -0.5663 -0.2903  0.7198
  323TMC3    C3 4850   3.777   4.486  14.029 -0.3215  0.6010 -0.4389
  323TMC3    C4 4851   3.616   4.277  14.100  0.6494  0.2351  0.1267
  323TMC3    C5 4852   3.704   4.329  14.191 -0.4527 -0.1230  0.0440
  323TMC3    C6 4853   3.780   4.444  14.164  0.6214 -0.3272 -0.9285
  323TMC3     C 4854   3.541   4.261  13.875 -0.3942  0.2169 -0.0335
  323TMC3     O 4855   3.478   4.161  13.905  0.3882 -0.5177  0.2385
  323TMC3     H 4856   3.719   4.435  13.822  1.7328 -0.8386  0.9506
  323TMC3    H1 4857   3.565   4.185  14.124 -1.4187  1.2736 -0.3289
  323TMC3    H2 4858   3.847   4.492  14.235  0.2555 -0.6020 -0.3892
  323TMC3    C7 4859   3.764   4.236  14.285  0.7927 -0.2408  0.0313
  323TMC3    C8 4860   3.883   4.582  13.984  0.3487  1.2389  0.2229
  323TMC3    O1 4861   3.773   4.121  14.253 -0.1103  0.5699  0.8735
  323TMC3    O2 4862   3.972   4.621  14.060 -0.2126 -0.2390  0.5555
  324MPD2     C 4863   0.542   0.145  14.195 -2.0071  0.1672 -0.2024
  324MPD2    C1 4864   0.605   0.261  14.163 -0.4674  0.2459  0.0368
  324MPD2    C2 4865   0.524   0.378  14.168 -0.0163  0.2121 -0.5091
  324MPD2    C3 4866   0.382   0.371  14.191 -0.0893  0.4559  0.1490
  324MPD2    C4 4867   0.331   0.244  14.225  0.5308 -0.1648 -0.2014
  324MPD2    C5 4868   0.411   0.138  14.228 -0.1620  0.2887 -0.0234
  324MPD2     H 4869   0.558   0.478  14.143  1.4106 -0.1586 -0.0248
  324MPD2    H1 4870   0.228   0.230  14.255  0.3142 -1.9607 -1.8071
  324MPD2    H2 4871   0.597   0.052  14.184 -0.6121  1.0718 -1.0001
  324MPD2    H3 4872   0.365   0.040  14.236 -0.1263  0.2998  0.3173
  324MPD2     N 4873   0.293   0.477  14.202 -0.4396 -0.2009 -0.3500
  324MPD2    H5 4874   0.196   0.456  14.224  0.0146  0.5084  2.3286
  324MPD2    N1 4875   0.741   0.269  14.127  0.0236  0.1816 -0.2288
  324MPD2    H7 4876   0.781   0.355  14.091 -1.3251  0.8856 -0.0316
  325TMC3    C1 4877   0.213   0.685  14.257  0.1189 -0.1214 -0.4202
  325TMC3    C2 4878   0.084   0.631  14.244  0.3515 -0.4699 -0.3755
  325TMC3    C3 4879   4.712   0.697  14.306 -0.4538  0.3000  0.2092
  325TMC3    C4 4880   0.246   0.808  14.312  0.4192 -0.0160  0.4376
  325TMC3    C5 4881   0.147   0.864  14.387  0.4227  0.0604  0.6093
  325TMC3    C6 4882   0.022   0.802  14.390  0.1504 -0.0176 -0.5209
  325TMC3     C 4883   0.325   0.603  14.218 -0.8166 -0.1018 -1.4640
  325TMC3     O 4884   0.432   0.658  14.201 -0.3240  0.3479 -0.2659
  325TMC3     H 4885   0.057   0.550  14.177 -3.1282  0.9507 -0.7298
  325TMC3    H1 4886   0.350   0.840  14.311  0.0072  1.3643  1.7675
  325TMC3    H2 4887   4.669   0.834  14.460  1.2214  1.9193 -0.2622
  325TMC3    C7 4888   0.143   1.005  14.362  0.3816  0.2221  0.2727
  325TMC3    C8 4889   4.574   0.672  14.282 -0.5994  0.2379  0.7887
  325TMC3    O1 4890   0.243   1.055  14.309  0.5789 -0.4202 -0.3039
  325TMC3    O2 4891   4.556   0.560  14.239  0.0090 -0.4390 -0.6254
  326MPD2     C 4892   1.995   1.971  10.975  0.5231  0.3094 -0.0573
  326MPD2    C1 4893   2.052   2.012  10.851 -0.9436 -0.2497  0.4519
  326MPD2    C2 4894   2.161   2.097  10.855 -0.6580  0.9361  0.4956
  326MPD2    C3 4895   2.210   2.146  10.969 -1.1120 -0.3389 -0.4546
  326MPD2    C4 4896   2.155   2.109  11.087  0.2518  0.2104  0.2881
  326MPD2    C5 4897   2.049   2.023  11.090  0.3996 -0.3327 -0.0421
  326MPD2     H 4898   2.211   2.117  10.761  0.1068 -0.5197  0.5959
  326MPD2    H1 4899   2.200   2.140  11.180  1.1968 -1.2495  0.3253
  326MPD2    H2 4900   1.914   1.898  10.976 -0.4801  1.3644 -3.4671
  326MPD2    H3 4901   2.000   1.991  11.181 -4.5946  0.6780 -2.3781
  326MPD2     N 4902   2.331   2.219  10.977 -0.0974 -0.2404  0.6751
  326MPD2    H5 4903   2.334   2.268  11.065 -1.4372 -0.2548  0.7360
  326MPD2    N1 4904   2.013   1.945  10.727  0.3266  0.3337 -0.2047
  326MPD2    H7 4905   2.055   1.977  10.640  0.6628 -0.2228 -0.2456
  327TMC3    C1 4906   1.889   1.795  10.587 -0.1823  0.1489 -0.1521
  327TMC3    C2 4907   1.814   1.891  10.526  0.6722  0.0283  0.3057
  327TMC3    C3 4908   1.694   1.847  10.466 -0.0256 -0.3108 -0.0630
  327TMC3    C4 4909   1.857   1.665  10.577 -0.6830  0.0893 -0.0988
  327TMC3    C5 4910   1.738   1.633  10.531 -0.5857  0.1192 -0.5761
  327TMC3    C6 4911   1.655   1.718  10.473 -0.4939  0.6311  0.1131
  327TMC3     C 4912   1.945   1.829  10.722  0.2540  0.7483 -0.0722
  327TMC3     O 4913   1.926   1.741  10.807 -0.1211  0.1919 -0.2188
  327TMC3     H 4914   1.827   1.998  10.538 -1.8958  0.5116 -1.2084
  327TMC3    H1 4915   1.917   1.587  10.624  0.1665  1.9796  1.9433
  327TMC3    H2 4916   1.566   1.680  10.425 -0.5165  0.2180  0.4786
  327TMC3    C7 4917   1.661   1.540  10.624  0.1310  0.2548 -0.6630
  327TMC3    C8 4918   1.642   1.933  10.363  0.0023 -0.9988  0.9914
  327TMC3    O1 4919   1.561   1.482  10.580 -0.1401 -0.1851  0.5511
  327TMC3    O2 4920   1.697   2.041  10.344 -0.4403  0.4109 -0.3303
  328MPD2     C 4921   3.585   1.102  17.279 -0.6573 -0.1054  0.0069
  328MPD2    C1 4922   3.628   1.056  17.156  0.7272  0.1666  0.2489
  328MPD2    C2 4923   3.696   1.138  17.070  0.2755 -0.3183 -0.5550
  328MPD2    C3 4924   3.732   1.262  17.115  0.6382 -0.3939 -0.5350
  328MPD2    C4 4925   3.692   1.303  17.241 -0.5092 -1.1834  0.2289
  328MPD2    C5 4926   3.640   1.218  17.329 -0.2202  0.6130  0.0241
  328MPD2     H 4927   3.716   1.114  16.967 -1.0974 -0.5929 -0.7556
  328MPD2    H1 4928   3.734   1.392  17.288 -1.7606  0.5286 -1.9254
  328MPD2    H2 4929   3.548   1.032  17.353  0.7017  1.4850  2.2083
  328MPD2    H3 4930   3.628   1.247  17.433  3.1424 -0.6558  0.7862
  328MPD2     N 4931   3.786   1.357  17.029 -0.1855  0.0045  0.1047
  328MPD2    H5 4932   3.814   1.447  17.066  0.9602 -0.3560  0.1146
  328MPD2    N1 4933   3.598   0.924  17.129 -0.0754  0.0556 -0.4821
  328MPD2    H7 4934   3.535   0.885  17.199  0.0015 -0.8757 -0.9304
  329TMC3    C1 4935   3.523   0.757  16.976  0.6009  0.3687 -0.4549
  329TMC3    C2 4936   3.391   0.793  17.010  0.3887 -0.2337 -0.2056
  329TMC3    C3 4937   3.293   0.724  16.945  0.3779 -0.1770 -0.1357
  329TMC3    C4 4938   3.568   0.667  16.883 -0.4228  0.5533 -0.1774
  329TMC3    C5 4939   3.464   0.605  16.823  0.3314 -0.2549 -0.3511
  329TMC3    C6 4940   3.335   0.633  16.853 -0.5327 -0.2253 -0.3639
  329TMC3     C 4941   3.619   0.861  17.010 -0.1421  0.1254 -0.7591
  329TMC3     O 4942   3.695   0.888  16.916  0.5597 -0.1950 -0.4433
  329TMC3     H 4943   3.361   0.870  17.080 -2.1981  0.4212 -2.0060
  329TMC3    H1 4944   3.675   0.660  16.866 -0.4511 -1.0789  0.3698
  329TMC3    H2 4945   3.258   0.594  16.786 -1.8556 -1.4338  1.8810
  329TMC3    C7 4946   3.480   0.508  16.716  1.2994  0.4171 -0.4121
  329TMC3    C8 4947   3.182   0.798  16.898  0.1305  0.3009  0.0490
  329TMC3    O1 4948   3.376   0.469  16.666 -0.4293  1.1274  0.3828
  329TMC3    O2 4949   3.093   0.735  16.845  0.0779  0.2870 -0.6107
  330TMC3    C1 4950   2.660   1.416   9.723 -0.1594  0.4904  0.0665
  330TMC3    C2 4951   2.599   1.344   9.621 -0.2314 -0.3004 -0.3133
  330TMC3    C3 4952   2.571   1.211   9.651 -0.1010 -0.1305 -0.5503
  330TMC3    C4 4953   2.681   1.364   9.852  0.1595 -0.4555 -0.8501
  330TMC3    C5 4954   2.637   1.235   9.877  0.0140 -0.2133 -0.1676
  330TMC3    C6 4955   2.583   1.153   9.776  0.5352  1.0541 -0.3864
  330TMC3     C 4956   2.620   1.560   9.724 -0.0447  0.5750  0.2154
  330TMC3     O 4957   2.664   1.619   9.821  0.1059  0.5487 -0.2907
  330TMC3     H 4958   2.593   1.389   9.522  1.1522  1.9226  0.6153
  330TMC3    H1 4959   2.724   1.423   9.931  0.6708 -0.6317 -0.9921
  330TMC3    H2 4960   2.554   1.052   9.802  1.5032  1.0348  0.6088
  330TMC3    C7 4961   2.642   1.189  10.020  0.3956 -0.0650 -0.1930
  330TMC3    C8 4962   2.499   1.143   9.545  0.3607 -0.2773 -0.1865
  330TMC3    O1 4963   2.697   1.266  10.103  0.3446  0.4442 -0.4128
  330TMC3    O2 4964   2.514   1.181   9.433 -0.1211 -0.3277 -0.3955
  331MPD2     C 4965   0.030   0.142  12.588 -0.0438  0.1526  0.0969
  331MPD2    C1 4966   0.134   0.190  12.522  0.2949 -0.7710  0.1921
  331MPD2    C2 4967   0.155   0.137  12.396  0.2071  0.2289  0.5021
  331MPD2    C3 4968   0.094   0.025  12.348 -0.0108 -0.2511  0.2679
  331MPD2    C4 4969   4.717   4.690  12.419 -0.6604  0.1815  0.9319
  331MPD2    C5 4970   4.692   0.025  12.541 -0.4786  0.4151 -0.4260
  331MPD2     H 4971   0.225   0.190  12.332 -0.9525 -0.1627 -1.0890
  331MPD2    H1 4972   4.659   4.606  12.382  1.4537 -1.0019  0.2830
  331MPD2    H2 4973   4.723   0.180  12.686  0.4179 -0.7172  0.5720
  331MPD2    H3 4974   4.612   4.708  12.602  1.9901  0.1552  2.6515
  331MPD2     N 4975   0.126   4.701  12.220 -0.2339 -0.2181 -0.6635
  331MPD2    H5 4976   0.205   0.028  12.180  1.0729 -0.8822  1.0470
  331MPD2    N1 4977   0.205   0.304  12.560 -0.2194 -0.1035 -0.0393
  331MPD2    H7 4978   0.159   0.364  12.627 -1.3618 -2.1487  0.9900
  332TMC3    C1 4979   0.148   4.577  12.028  0.6150  0.3280  0.4402
  332TMC3    C2 4980   0.161   4.699  11.978  0.2095  0.6490 -0.2918
  332TMC3    C3 4981   0.256   4.703  11.871  0.1411 -0.0279 -0.3659
  332TMC3    C4 4982   0.207   4.462  11.993 -0.5177 -0.3550  0.2261
  332TMC3    C5 4983   0.295   4.472  11.886 -0.2706 -0.7418  0.6874
  332TMC3    C6 4984   0.324   4.593  11.831 -0.3340 -0.0490  0.2658
  332TMC3     C 4985   0.083   4.586  12.154 -0.0392  0.3876  0.0347
  332TMC3     O 4986   4.717   4.511  12.184 -0.4888 -0.6430 -0.4100
  332TMC3     H 4987   0.093   0.059  11.996 -0.6759  0.2666 -1.8274
  332TMC3    H1 4988   0.206   4.366  12.044 -0.1940  0.5137  1.8735
  332TMC3    H2 4989   0.395   4.605  11.750  0.5909 -0.6120  1.0005
  332TMC3    C7 4990   0.398   4.372  11.856 -0.0828 -0.1242  0.8930
  332TMC3    C8 4991   0.290   0.110  11.825  0.3465  0.2266 -0.1210
  332TMC3    O1 4992   0.362   4.256  11.842 -0.3203  0.5120 -0.1032
  332TMC3    O2 4993   0.410   0.125  11.826 -0.0680 -0.2797 -0.1365
  333MPD2     C 4994   0.369   0.308  11.246 -0.7359  0.4623 -0.7072
  333MPD2    C1 4995   0.414   0.205  11.178 -0.2166  0.1286 -0.0293
  333MPD2    C2 4996   0.376   0.075  11.229  0.2445  0.1640 -0.1732
  333MPD2    C3 4997   0.290   0.054  11.336 -0.1635  0.1834 -0.1156
  333MPD2    C4 4998   0.244   0.171  11.401 -0.0531 -0.0828 -0.7638
  333MPD2    C5 4999   0.292   0.291  11.361 -0.4214 -0.2874 -0.8731
  333MPD2     H 5000   0.412   4.706  11.187 -1.5548  0.5867 -2.6723
  333MPD2    H1 5001   0.189   0.163  11.494  0.8337  2.1540 -0.0503
  333MPD2    H2 5002   0.396   0.405  11.204 -1.3793  0.2246 -1.6539
  333MPD2    H3 5003   0.276   0.380  11.421 -0.6614 -1.1575  0.3417
  333MPD2     N 5004   0.261   4.647  11.383  0.5953 -0.2581  0.3315
  333MPD2    H5 5005   0.302   4.574  11.325 -0.2224 -0.6454  0.2461
  333MPD2    N1 5006   0.494   0.231  11.061  0.9183 -0.4938 -0.0518
  333MPD2    H7 5007   0.519   0.329  11.056 -0.4920 -0.1329 -0.0961
  334TMC3    C1 5008   0.659   0.213  10.909 -0.4282 -0.5039 -0.1896
  334TMC3    C2 5009   0.774   0.145  10.880 -1.1085  0.2667 -0.1984
  334TMC3    C3 5010   0.850   0.185  10.771 -0.6495 -0.1426 -0.0171
  334TMC3    C4 5011   0.628   0.330  10.844  0.4630 -0.7735  0.1890
  334TMC3    C5 5012   0.718   0.382  10.756  0.8235 -0.0406 -0.2335
  334TMC3    C6 5013   0.824   0.303  10.708  0.0389  0.0848  0.7087
  334TMC3     C 5014   0.572   0.140  10.998 -0.0275 -0.2476 -0.6994
  334TMC3     O 5015   0.581   0.019  11.007 -0.3243 -0.0025 -0.0115
  334TMC3     H 5016   0.791   0.048  10.925  2.3751  1.2067  0.5450
  334TMC3    H1 5017   0.537   0.382  10.871  0.8952 -0.4825  1.0831
  334TMC3    H2 5018   0.870   0.341  10.618  0.0591 -1.2022  0.1741
  334TMC3    C7 5019   0.699   0.518  10.707  0.7228  0.4400 -0.1193
  334TMC3    C8 5020   0.959   0.092  10.731 -0.1232 -0.0125 -0.1053
  334TMC3    O1 5021   0.802   0.575  10.667 -0.0077  0.2011 -0.0476
  334TMC3    O2 5022   0.939   4.700  10.761 -0.0209  0.5098 -0.4484
  335TMC3    C1 5023   4.511   1.738  17.279 -0.0790  0.5865 -0.5759
  335TMC3    C2 5024   4.438   1.678  17.185  0.0999 -0.1541  0.8331
  335TMC3    C3 5025   4.502   1.665  17.063  0.1543 -0.6106  0.8800
  335TMC3    C4 5026   4.638   1.777  17.265 -0.0755 -0.2401  0.4849
  335TMC3    C5 5027   4.692   1.770  17.137 -0.0065 -0.2123 -0.0108
  335TMC3    C6 5028   4.629   1.710  17.037 -0.6629 -0.3049 -0.4367
  335TMC3     C 5029   4.449   1.738  17.407 -0.1882  0.5734  0.2288
  335TMC3     O 5030   4.357   1.661  17.415  0.6478  0.2281  0.3163
  335TMC3     H 5031   4.332   1.658  17.199 -0.4103  1.9644  0.0533
  335TMC3    H1 5032   4.697   1.793  17.354 -1.3610  0.0992  1.2722
  335TMC3    H2 5033   4.673   1.693  16.940  0.1028  2.8263 -0.6319
  335TMC3    C7 5034   0.111   1.790  17.127  0.2921  0.0342  0.4382
  335TMC3    C8 5035   4.427   1.600  16.956  0.0028 -0.5605 -0.0660
  335TMC3    O1 5036   0.171   1.744  17.029  0.0889 -0.5627  0.2475
  335TMC3    O2 5037   4.468   1.623  16.844  0.0750  0.2111 -0.1327
  336MPD2     C 5038   4.252   4.178  16.185  0.5313 -0.0012  0.1591
  336MPD2    C1 5039   4.293   4.111  16.069  0.6790 -0.2183 -0.1547
  336MPD2    C2 5040   4.350   3.984  16.095 -0.2184 -0.2922 -0.4287
  336MPD2    C3 5041   4.344   3.921  16.216  0.2999  0.1615 -0.6113
  336MPD2    C4 5042   4.289   3.990  16.318 -0.0371 -0.1615 -0.9483
  336MPD2    C5 5043   4.263   4.121  16.304 -0.3725 -0.9932 -0.2173
  336MPD2     H 5044   4.411   3.947  16.013  3.8135 -1.1908  3.0079
  336MPD2    H1 5045   4.287   3.946  16.417  0.1950 -2.7572 -2.1122
  336MPD2    H2 5046   4.201   4.274  16.186  1.5982  0.5469  1.4112
  336MPD2    H3 5047   4.231   4.178  16.390  4.7257  0.8810  0.4860
  336MPD2     N 5048   4.374   3.781  16.227  0.7490 -0.6481  0.0460
  336MPD2    H5 5049   4.351   3.734  16.313 -3.3111  0.4976 -0.4033
  336MPD2    N1 5050   4.290   4.157  15.938 -0.3756 -1.1535 -0.0856
  336MPD2    H7 5051   4.325   4.099  15.862 -1.6168 -1.2892 -0.5616
  337TMC3    C1 5052   4.211   4.282  15.754 -0.3234  0.2087  0.4810
  337TMC3    C2 5053   4.115   4.191  15.709  0.2221 -0.1258  0.3561
  337TMC3    C3 5054   4.019   4.240  15.618 -0.1373  0.0655  0.1501
  337TMC3    C4 5055   4.216   4.411  15.698 -0.3429 -0.3186 -0.3304
  337TMC3    C5 5056   4.126   4.441  15.596 -0.6562 -0.2001 -0.3280
  337TMC3    C6 5057   4.024   4.367  15.561 -0.0804  0.6688  0.0106
  337TMC3     C 5058   4.228   4.276  15.898 -0.2167 -0.1852  0.3541
  337TMC3     O 5059   4.175   4.367  15.964 -0.5233 -0.1476  0.2817
  337TMC3     H 5060   4.094   4.106  15.773  0.8643 -1.0236 -0.6249
  337TMC3    H1 5061   4.289   4.482  15.735 -0.7565  0.7198 -1.5205
  337TMC3    H2 5062   3.963   4.397  15.476 -1.1622 -0.5023  0.3600
  337TMC3    C7 5063   4.150   4.565  15.527  0.1385 -0.5130 -0.0374
  337TMC3    C8 5064   3.889   4.172  15.618 -0.2023  0.3946  0.0412
  337TMC3    O1 5065   4.258   4.618  15.541  0.0543  0.2837 -0.4071
  337TMC3    O2 5066   3.879   4.068  15.677  0.6139 -0.4411  0.1371
  338MPD2     C 5067   0.207   3.411   0.774 -0.6863  0.2237 -0.0494
  338MPD2    C1 5068   0.097   3.443   0.691  0.2547 -0.0375 -0.4976
  338MPD2    C2 5069   0.015   3.547   0.744  0.6913  0.5684 -0.6933
  338MPD2    C3 5070   0.047   3.617   0.858 -0.6466 -0.4290  0.4987
  338MPD2    C4 5071   0.150   3.578   0.940  0.3320  0.0340  0.9194
  338MPD2    C5 5072   0.232   3.479   0.891  0.5336 -0.0206 -0.2968
  338MPD2     H 5073   4.644   3.570   0.696  0.7744 -0.0045 -1.1262
  338MPD2    H1 5074   0.158   3.619   1.040  1.7726  1.6486  0.1212
  338MPD2    H2 5075   0.272   3.326   0.758 -1.7848 -0.3905 -1.2381
  338MPD2    H3 5076   0.315   3.445   0.953  0.3406 -0.9479 -0.5526
  338MPD2     N 5077   4.681   3.728   0.895 -0.3189 -0.2153  0.1305
  338MPD2    H5 5078   4.591   3.737   0.849  0.2999  2.2313 -0.5731
  338MPD2    N1 5079   0.056   3.383   0.571  0.2097 -0.1738  0.2270
  338MPD2    H7 5080   4.706   3.425   0.514  0.8609 -0.2276 -0.6560
  339TMC3    C1 5081   4.587   3.901   1.019 -0.9415  0.2885  0.4715
  339TMC3    C2 5082   4.560   3.930   1.149  0.5301 -0.2048 -0.1579
  339TMC3    C3 5083   4.438   3.993   1.169  0.0690  0.1540  0.1339
  339TMC3    C4 5084   4.502   3.919   0.919 -0.6867 -0.2719 -0.2647
  339TMC3    C5 5085   4.385   3.980   0.953  0.4738 -0.2370  0.3352
  339TMC3    C6 5086   4.350   4.023   1.076 -0.1877  0.3289 -0.1077
  339TMC3     C 5087   4.706   3.827   0.989 -0.5603 -0.3844  0.5140
  339TMC3     O 5088   0.072   3.844   1.075 -0.3769 -0.6255 -0.3411
  339TMC3     H 5089   4.635   3.937   1.227 -1.0871  0.7124  1.3095
  339TMC3    H1 5090   4.529   3.904   0.816  0.0411  0.7067 -0.2169
  339TMC3    H2 5091   4.257   4.069   1.105  0.2865  1.7882 -0.8939
  339TMC3    C7 5092   4.283   3.986   0.844 -0.1918  0.2951  0.4707
  339TMC3    C8 5093   4.394   4.018   1.304 -0.0496 -0.4434 -0.0512
  339TMC3    O1 5094   4.320   3.952   0.730  0.1806 -0.0306  0.2965
  339TMC3    O2 5095   4.333   4.126   1.313 -0.1254  0.3924  0.1433
  340MPD2     C 5096   1.518   1.246   9.236  0.1011  0.1396 -0.2991
  340MPD2    C1 5097   1.393   1.263   9.287  0.7618 -0.4905  0.3829
  340MPD2    C2 5098   1.369   1.377   9.369 -0.1072  1.0107  0.2897
  340MPD2    C3 5099   1.477   1.467   9.391 -0.4103 -0.2372  0.5231
  340MPD2    C4 5100   1.597   1.448   9.333  1.0966 -0.4196 -0.4153
  340MPD2    C5 5101   1.622   1.334   9.261 -0.7754  0.1479 -0.5586
  340MPD2     H 5102   1.276   1.388   9.423 -1.4534 -2.1494 -1.4608
  340MPD2    H1 5103   1.675   1.524   9.337  1.8292 -1.1954  0.1949
  340MPD2    H2 5104   1.515   1.160   9.171 -1.8290 -0.1037  0.1054
  340MPD2    H3 5105   1.720   1.313   9.218  0.2100  0.2410  1.5953
  340MPD2     N 5106   1.467   1.571   9.487  0.2758 -0.7868 -0.6239
  340MPD2    H5 5107   1.545   1.634   9.505  0.8177 -1.2871 -1.2306
  340MPD2    N1 5108   1.297   1.173   9.249 -0.3645  0.1304  0.2114
  340MPD2    H7 5109   1.337   1.099   9.193  0.0752 -0.2087  0.9597
  341TMC3    C1 5110   1.084   1.060   9.270  0.3592  0.2712  0.5141
  341TMC3    C2 5111   0.948   1.076   9.265 -0.0944  0.2268 -0.2454
  341TMC3    C3 5112   0.873   0.979   9.195 -0.4888  0.2820  0.6499
  341TMC3    C4 5113   1.140   0.960   9.202 -0.8857  0.5313 -0.1465
  341TMC3    C5 5114   1.065   0.864   9.134 -0.2338  0.2627  0.4822
  341TMC3    C6 5115   0.931   0.871   9.122  0.1955  0.1566  0.6676
  341TMC3     C 5116   1.165   1.182   9.292 -0.3040 -0.9159  0.5055
  341TMC3     O 5117   1.101   1.275   9.338  0.1483  0.3744 -0.2921
  341TMC3     H 5118   0.904   1.155   9.325 -1.0100  0.4381 -1.1899
  341TMC3    H1 5119   1.242   0.930   9.219 -1.5166  0.1904  2.9926
  341TMC3    H2 5120   0.880   0.781   9.091 -0.2063  0.4784  0.4029
  341TMC3    C7 5121   1.105   0.726   9.155  0.2079 -0.0375  0.0609
  341TMC3    C8 5122   0.745   0.949   9.244  0.2514 -0.3732  0.3763
  341TMC3    O1 5123   1.174   0.700   9.253 -0.0917 -0.0785  0.0605
  341TMC3    O2 5124   0.718   0.983   9.363 -0.1598 -0.0546 -0.2823
  342MPD2     C 5125   2.370   4.501  17.487  0.1092  0.2725 -0.0127
  342MPD2    C1 5126   2.467   4.503  17.393  0.7098  0.1093  0.8503
  342MPD2    C2 5127   2.523   4.627  17.353  0.5979  0.2937  0.9230
  342MPD2    C3 5128   2.489   0.019  17.423  0.0913 -0.4349  0.2726
  342MPD2    C4 5129   2.389   0.017  17.515 -0.0608  0.0175  0.2045
  342MPD2    C5 5130   2.334   4.619  17.555  0.8881 -0.2324 -0.0098
  342MPD2     H 5131   2.606   4.631  17.284  0.2984  0.2826  0.5585
  342MPD2    H1 5132   2.374   0.107  17.573 -0.4945  1.3432 -1.9882
  342MPD2    H2 5133   2.332   4.405  17.519  0.7753 -0.4943 -1.4990
  342MPD2    H3 5134   2.256   4.607  17.630  1.5320  1.0388  0.8552
  342MPD2     N 5135   2.561   0.142  17.414 -0.8409 -0.4675 -0.4840
  342MPD2    H5 5136   2.541   0.217  17.479  1.1414 -0.0101 -0.3814
  342MPD2    N1 5137   2.518   4.386  17.334  0.0300 -0.0788  0.0908
  342MPD2    H7 5138   2.599   4.409  17.276 -1.0793  1.2058 -0.9409
  343TMC3    C1 5139   2.535   4.167  17.269  0.3576 -0.1244 -0.5195
  343TMC3    C2 5140   2.666   4.191  17.240 -0.2358  0.6338  0.5481
  343TMC3    C3 5141   2.737   4.086  17.184 -0.1104 -1.1963  0.1182
  343TMC3    C4 5142   2.481   4.040  17.271 -0.6330 -0.0171  0.1235
  343TMC3    C5 5143   2.557   3.938  17.234 -0.4241  0.1935  0.2406
  343TMC3    C6 5144   2.686   3.954  17.192 -0.0359 -0.1693 -0.3130
  343TMC3     C 5145   2.454   4.266  17.334  0.9609 -0.0100 -0.1113
  343TMC3     O 5146   2.338   4.244  17.373  0.0603  0.3000  0.2049
  343TMC3     H 5147   2.705   4.292  17.251  0.4551  0.3968  0.2922
  343TMC3    H1 5148   2.377   4.032  17.299 -1.2435  2.4173 -1.4061
  343TMC3    H2 5149   2.731   3.861  17.161  0.1741  0.4579 -1.8813
  343TMC3    C7 5150   2.504   3.806  17.259 -0.1782 -0.1201 -0.3530
  343TMC3    C8 5151   2.870   4.116  17.141 -0.1769  0.0702  0.3167
  343TMC3    O1 5152   2.387   3.795  17.230 -1.0749  0.5951 -0.1002
  343TMC3    O2 5153   2.903   4.235  17.146  0.2602  0.3246  0.2126
  344MPD2     C 5154   4.300   4.325  10.813  0.9133 -0.2366  0.0719
  344MPD2    C1 5155   4.266   4.243  10.709  0.3845  0.0423 -1.6678
  344MPD2    C2 5156   4.297   4.283  10.576  0.1494  0.1832  0.4505
  344MPD2    C3 5157   4.362   4.407  10.553 -0.0374 -0.1512 -0.3652
  344MPD2    C4 5158   4.389   4.486  10.659 -0.4137  0.0840 -0.0297
  344MPD2    C5 5159   4.358   4.442  10.785  0.1634  0.5736  0.4345
  344MPD2     H 5160   4.268   4.222  10.492 -0.2930 -1.7169  1.9739
  344MPD2    H1 5161   4.437   4.583  10.654  0.6567 -0.2904  2.6593
  344MPD2    H2 5162   4.291   4.299  10.918  1.1270  1.6493  0.5483
  344MPD2    H3 5163   4.381   4.502  10.873 -0.4356  0.8420  0.4116
  344MPD2     N 5164   4.402   4.459  10.427 -0.1837  0.0906 -0.6824
  344MPD2    H5 5165   4.448   4.549  10.437  3.6770 -2.2771  2.9311
  344MPD2    N1 5166   4.195   4.118  10.728  0.4703 -0.0504  0.1211
  344MPD2    H7 5167   4.160   4.073  10.644 -0.5661  2.5668 -0.8282
  345TMC3    C1 5168   4.397   4.504  10.197 -0.3127 -0.2893 -0.0633
  345TMC3    C2 5169   4.451   4.623  10.222  0.6336 -0.3133  0.1788
  345TMC3    C3 5170   4.469   4.705  10.116 -0.6121 -0.2146 -0.1126
  345TMC3    C4 5171   4.328   4.474  10.078 -0.7064  0.0483 -0.1063
  345TMC3    C5 5172   4.338   4.567   9.976 -0.9911  0.1593 -0.2520
  345TMC3    C6 5173   4.400   4.688   9.995  0.0001  0.2637 -0.2678
  345TMC3     C 5174   4.372   4.409  10.301  0.5584  0.1856 -0.1241
  345TMC3     O 5175   4.337   4.295  10.269  0.5198  0.3802  0.3180
  345TMC3     H 5176   4.486   4.656  10.319 -0.1782  0.9727  0.0325
  345TMC3    H1 5177   4.283   4.375  10.074 -2.2109  0.7500 -0.6261
  345TMC3    H2 5178   4.397   0.037   9.914  0.6679 -0.3876 -0.8702
  345TMC3    C7 5179   4.228   4.567   9.870  0.0789  0.2400 -0.2063
  345TMC3    C8 5180   4.516   0.118  10.137  0.1616  0.6018 -0.0835
  345TMC3    O1 5181   4.152   4.469   9.879 -0.4313 -0.6963 -0.0830
  345TMC3    O2 5182   4.513   0.156  10.251  0.1094 -0.4554 -0.1622
  346MPD2     C 5183   3.929   1.037  13.879 -0.0515  0.2867  0.3341
  346MPD2    C1 5184   4.061   1.064  13.892 -0.3067  0.0113 -0.2997
  346MPD2    C2 5185   4.102   1.170  13.974  0.5209  0.1704 -0.8727
  346MPD2    C3 5186   4.012   1.251  14.041 -0.5599  0.0246  0.5847
  346MPD2    C4 5187   3.877   1.223  14.025  0.3721 -0.8757  0.4294
  346MPD2    C5 5188   3.834   1.120  13.935  0.0632  0.2346 -0.3604
  346MPD2     H 5189   4.209   1.177  13.989 -0.1833 -0.3007  4.0833
  346MPD2    H1 5190   3.798   1.262  14.089  0.2559 -0.5365  0.0804
  346MPD2    H2 5191   3.894   0.956  13.817 -1.7758  1.0248  0.3229
  346MPD2    H3 5192   3.729   1.097  13.918  0.7209 -2.1046 -1.1608
  346MPD2     N 5193   4.061   1.348  14.131 -0.1782 -0.0747  0.4288
  346MPD2    H5 5194   4.159   1.338  14.154 -0.3687  0.1792  1.3444
  346MPD2    N1 5195   4.158   0.991  13.826  0.2202 -0.3575  0.3527
  346MPD2    H7 5196   4.247   1.040  13.815  0.8247 -1.4591  0.3013
  347TMC3    C1 5197   4.023   1.458  14.325  0.9928  0.3253 -0.1608
  347TMC3    C2 5198   4.151   1.454  14.365 -0.0431  0.3819  0.7909
  347TMC3    C3 5199   4.186   1.429  14.495 -0.2235 -0.3015 -0.6489
  347TMC3    C4 5200   3.914   1.441  14.414 -0.1337 -0.5897 -0.7134
  347TMC3    C5 5201   3.949   1.426  14.545 -0.0040 -0.6193 -0.7298
  347TMC3    C6 5202   4.080   1.403  14.586  0.6882 -0.5273 -0.0383
  347TMC3     C 5203   3.979   1.445  14.189  0.2350 -0.6937 -0.0325
  347TMC3     O 5204   3.867   1.483  14.163 -0.1499  0.5878  0.5143
  347TMC3     H 5205   4.219   1.452  14.280  0.2728 -2.9416  1.1292
  347TMC3    H1 5206   3.809   1.450  14.389 -0.8426 -1.0329  2.1887
  347TMC3    H2 5207   4.096   1.376  14.690 -1.4596 -0.4807  0.3031
  347TMC3    C7 5208   3.840   1.414  14.646 -0.0717  0.0468 -0.4456
  347TMC3    C8 5209   4.305   1.362  14.513  0.3513  0.5868 -0.3476
  347TMC3    O1 5210   3.886   1.434  14.758 -0.4935 -0.3222  0.2656
  347TMC3    O2 5211   4.300   1.259  14.573  0.2291  0.0324  0.5136
  348MPD2     C 5212   2.612   0.661  12.229 -0.1605  0.2660  0.2104
  348MPD2    C1 5213   2.719   0.739  12.188  0.4507 -0.1291  0.1266
  348MPD2    C2 5214   2.694   0.827  12.082 -0.0273  0.4255 -0.2902
  348MPD2    C3 5215   2.566   0.817  12.014 -0.8100  0.6441 -0.0991
  348MPD2    C4 5216   2.465   0.744  12.073  0.4075  0.4644 -0.9311
  348MPD2    C5 5217   2.498   0.658  12.171  0.5471  0.2629 -0.8402
  348MPD2     H 5218   2.774   0.891  12.045 -1.0588  0.0611 -3.2148
  348MPD2    H1 5219   2.369   0.740  12.025 -1.3189 -1.2233  2.6638
  348MPD2    H2 5220   2.614   0.586  12.307 -2.1636  0.3290  0.3210
  348MPD2    H3 5221   2.414   0.601  12.210  0.0004  1.9175  0.4459
  348MPD2     N 5222   2.539   0.904  11.911 -0.0076  0.6919 -0.3880
  348MPD2    H5 5223   2.606   0.978  11.894  0.8877 -0.0598 -0.1024
  348MPD2    N1 5224   2.846   0.748  12.253  0.3345 -0.0089 -0.2138
  348MPD2    H7 5225   2.917   0.800  12.202  0.5526 -0.0519  0.0497
  349TMC3    C1 5226   3.024   0.624  12.358 -0.0051  0.1994 -0.0596
  349TMC3    C2 5227   3.035   0.493  12.397  0.2320  0.1873 -0.2253
  349TMC3    C3 5228   3.110   0.412  12.320  0.2211  0.1012  0.0923
  349TMC3    C4 5229   3.103   0.679  12.262 -0.6766  0.3046 -0.3156
  349TMC3    C5 5230   3.166   0.588  12.183 -0.9205  0.4365  0.2009
  349TMC3    C6 5231   3.176   0.455  12.212 -0.0521  1.7293 -1.1559
  349TMC3     C 5232   2.883   0.665  12.357  0.2614 -0.5275  0.1296
  349TMC3     O 5233   2.807   0.589  12.417 -0.3936  0.2166  0.3445
  349TMC3     H 5234   2.975   0.449  12.476 -0.1557  0.5488 -0.3151
  349TMC3    H1 5235   3.088   0.783  12.232  0.8110  0.2020 -1.4195
  349TMC3    H2 5236   3.235   0.391  12.148 -0.3147 -2.7659  3.0707
  349TMC3    C7 5237   3.157   0.613  12.039  0.4084 -0.3909 -0.2541
  349TMC3    C8 5238   3.108   0.268  12.364 -0.5580 -0.8696  0.2209
  349TMC3    O1 5239   3.144   0.511  11.971  0.2762 -0.5251  0.3146
  349TMC3    O2 5240   3.046   0.242  12.467 -0.0179  0.5607 -0.4122
  350MPD2     C 5241   1.665   3.803   9.552  0.4690  0.8655 -0.0303
  350MPD2    C1 5242   1.654   3.684   9.623  0.6019 -0.0383 -0.2056
  350MPD2    C2 5243   1.761   3.654   9.703  0.3050 -0.1091  0.6588
  350MPD2    C3 5244   1.880   3.716   9.694  0.0324  0.2917  0.4090
  350MPD2    C4 5245   1.896   3.817   9.605  0.5354  0.3720  0.1518
  350MPD2    C5 5246   1.786   3.868   9.542 -0.1870  0.0111 -0.0570
  350MPD2     H 5247   1.745   3.575   9.776 -0.4927  1.1193  1.8056
  350MPD2    H1 5248   1.989   3.870   9.587  0.2569  1.7991  2.8108
  350MPD2    H2 5249   1.586   3.838   9.486  1.4333  3.4097  0.1579
  350MPD2    H3 5250   1.801   3.948   9.470 -1.3364 -0.0698 -0.3880
  350MPD2     N 5251   1.991   3.673   9.777 -0.4181 -0.5725  0.3483
  350MPD2    H5 5252   1.964   3.602   9.844 -0.2017 -2.4842 -1.5869
  350MPD2    N1 5253   1.531   3.610   9.625 -0.5487  0.2420 -0.0803
  350MPD2    H7 5254   1.531   3.534   9.691 -0.8267 -0.6933 -1.1542
  351TMC3    C1 5255   1.331   3.520   9.560 -0.0727  0.0758  0.2195
  351TMC3    C2 5256   1.390   3.399   9.543 -0.1776 -0.0722  0.0916
  351TMC3    C3 5257   1.314   3.289   9.501  0.7547 -0.2753 -0.1017
  351TMC3    C4 5258   1.202   3.538   9.520 -0.3859  0.4492 -0.0163
  351TMC3    C5 5259   1.123   3.425   9.497 -0.0009 -0.2575  0.3927
  351TMC3    C6 5260   1.176   3.299   9.489  0.5061 -0.3712  0.6724
  351TMC3     C 5261   1.421   3.631   9.551  0.3403  0.1694 -0.8251
  351TMC3     O 5262   1.394   3.730   9.480 -0.4746  0.3537 -0.3251
  351TMC3     H 5263   1.498   3.396   9.554 -0.2106 -1.9857 -0.0651
  351TMC3    H1 5264   1.158   3.637   9.521 -0.6264  0.3386  0.3636
  351TMC3    H2 5265   1.116   3.209   9.482  0.6871 -0.4403  0.0048
  351TMC3    C7 5266   0.978   3.437   9.502  0.2093 -0.6712 -0.1159
  351TMC3    C8 5267   1.374   3.156   9.483  0.3701  0.5813  0.3031
  351TMC3    O1 5268   0.938   3.529   9.435 -0.4165  0.2988  0.0383
  351TMC3    O2 5269   1.303   3.069   9.437 -0.2499 -0.7019 -0.1308
  352MPD2     C 5270   4.298   1.181   0.838 -0.2419  0.6221 -0.1755
  352MPD2    C1 5271   4.169   1.143   0.871  0.3111  0.1899 -0.6518
  352MPD2    C2 5272   4.155   1.042   0.962 -0.6375  0.0055 -0.0968
  352MPD2    C3 5273   4.265   0.979   1.020 -0.0603 -0.0946 -0.6632
  352MPD2    C4 5274   4.390   1.019   0.990  0.3243 -0.9068 -0.2911
  352MPD2    C5 5275   4.409   1.119   0.895  0.3014  0.4308 -0.1191
  352MPD2     H 5276   4.054   1.013   0.986 -1.4052  0.2658 -3.0626
  352MPD2    H1 5277   4.472   0.972   1.043 -0.4943 -3.5212 -1.2940
  352MPD2    H2 5278   4.314   1.263   0.769 -0.0372  0.6917 -0.0425
  352MPD2    H3 5279   4.507   1.153   0.863  0.2920 -2.6466 -3.4407
  352MPD2     N 5280   4.264   0.860   1.104  0.4283 -0.1354 -0.6959
  352MPD2    H5 5281   4.355   0.817   1.116  0.7302  0.3462 -1.3244
  352MPD2    N1 5282   4.061   1.208   0.811  0.3540  0.6197  0.2999
  352MPD2    H7 5283   4.082   1.283   0.745 -0.2023 -0.2684 -0.8719
  353TMC3    C1 5284   4.170   0.680   1.212 -0.4815 -0.6996  0.3900
  353TMC3    C2 5285   4.292   0.653   1.267  0.6955 -0.6181  0.1382
  353TMC3    C3 5286   4.303   0.535   1.332 -0.9730 -0.5649  0.0985
  353TMC3    C4 5287   4.059   0.595   1.228 -0.2536  0.5967  0.7698
  353TMC3    C5 5288   4.074   0.481   1.303  0.1868 -0.0868  0.2944
  353TMC3    C6 5289   4.201   0.445   1.352  0.9221  0.6964  0.3253
  353TMC3     C 5290   4.148   0.804   1.151  0.1687  0.3562  0.3530
  353TMC3     O 5291   4.026   0.831   1.132 -0.1695 -0.1347  0.3465
  353TMC3     H 5292   4.379   0.718   1.263  0.7791 -0.8863 -2.0469
  353TMC3    H1 5293   3.974   0.611   1.162  0.2757  1.1154  0.2093
  353TMC3    H2 5294   4.219   0.358   1.415  0.1376 -0.7116 -1.4190
  353TMC3    C7 5295   3.972   0.384   1.281 -0.0923  0.0619 -0.0244
  353TMC3    C8 5296   4.431   0.507   1.394  0.6944  0.4481 -0.0487
  353TMC3    O1 5297   3.901   0.392   1.186  0.7475  0.1223 -0.2778
  353TMC3    O2 5298   4.508   0.607   1.416  0.0433 -0.0218 -0.0733
  354TMC3    C1 5299   1.839   2.177  13.226 -1.0428  0.0056  0.3513
  354TMC3    C2 5300   1.804   2.309  13.229 -0.1429  0.8432  1.1520
  354TMC3    C3 5301   1.802   2.387  13.116 -0.1990 -0.6822  0.3501
  354TMC3    C4 5302   1.855   2.114  13.105  0.4736 -0.6299  0.4277
  354TMC3    C5 5303   1.844   2.195  12.992  0.3200  0.5332 -0.7164
  354TMC3    C6 5304   1.821   2.332  12.996 -0.4529  0.7513 -0.9400
  354TMC3     C 5305   1.799   2.094  13.338  0.3019  0.2831 -0.2733
  354TMC3     O 5306   1.676   2.075  13.348  0.0969  0.2798 -0.5548
  354TMC3     H 5307   1.782   2.350  13.327 -0.5462 -0.1236  1.4653
  354TMC3    H1 5308   1.888   2.011  13.106  0.2607 -0.7276 -1.8480
  354TMC3    H2 5309   1.794   2.387  12.906  1.3260 -0.6234 -2.3125
  354TMC3    C7 5310   1.870   2.127  12.863 -0.3689 -0.0762 -0.3744
  354TMC3    C8 5311   1.776   2.523  13.129  0.5605 -0.5158  0.3818
  354TMC3    O1 5312   1.857   2.005  12.866  0.2379 -0.6490  0.7573
  354TMC3    O2 5313   1.747   2.564  13.239  0.1554  0.2096 -0.7545
  355MPD2     C 5314   1.812   2.779  11.448 -0.0367 -1.1851 -0.1363
  355MPD2    C1 5315   1.871   2.850  11.343  0.3158  0.9352  0.5282
  355MPD2    C2 5316   2.012   2.850  11.346  0.2969  0.4184 -0.9260
  355MPD2    C3 5317   2.093   2.798  11.448 -0.4456 -0.5485  0.9293
  355MPD2    C4 5318   2.026   2.729  11.548 -0.5078  0.8166  0.4231
  355MPD2    C5 5319   1.887   2.721  11.547 -0.0455  0.5007  0.1476
  355MPD2     H 5320   2.062   2.897  11.262  0.8659 -2.4661 -2.2373
  355MPD2    H1 5321   2.083   2.684  11.628 -0.2898  0.4867  0.0783
  355MPD2    H2 5322   1.706   2.787  11.469 -0.2846  2.1482 -2.5927
  355MPD2    H3 5323   1.849   2.680  11.640 -1.6702 -0.6266 -1.0267
  355MPD2     N 5324   2.226   2.812  11.469  0.4760 -0.1183  0.3115
  355MPD2    H5 5325   2.272   2.778  11.553  0.9934  0.4149  0.2479
  355MPD2    N1 5326   1.784   2.912  11.251  0.2548 -0.2735 -0.6323
  355MPD2    H7 5327   1.692   2.872  11.247 -0.4691  1.2775  0.4280
  356TMC3    C1 5328   2.428   2.939  11.440 -0.8650 -0.1000 -0.0191
  356TMC3    C2 5329   2.502   3.001  11.349 -0.1299  0.7127  0.1223
  356TMC3    C3 5330   2.617   3.063  11.391  0.1143  0.8833  0.1608
  356TMC3    C4 5331   2.456   2.943  11.573  0.3256  0.0708 -0.0193
  356TMC3    C5 5332   2.568   3.012  11.613  0.4027 -0.5006 -0.6463
  356TMC3    C6 5333   2.659   3.072  11.525  0.8494  0.3955 -0.5546
  356TMC3     C 5334   2.300   2.905  11.392  0.0062  0.3588 -0.2364
  356TMC3     O 5335   2.270   2.953  11.284  0.1289  0.1206 -0.4951
  356TMC3     H 5336   2.469   3.001  11.245  1.5298 -0.1804 -0.3896
  356TMC3    H1 5337   2.387   2.902  11.644  0.0865 -0.6834 -0.6888
  356TMC3    H2 5338   2.741   3.135  11.558 -0.5865  0.8517  2.1814
  356TMC3    C7 5339   2.580   3.015  11.757  1.0115 -0.2252 -0.9335
  356TMC3    C8 5340   2.698   3.111  11.289 -0.2044  0.1148  0.3055
  356TMC3    O1 5341   2.505   2.946  11.824 -0.3761  0.1093  0.2624
  356TMC3    O2 5342   2.662   3.089  11.176 -0.1034 -0.3504 -0.3274
  357MPD2     C 5343   1.426   2.794   0.468 -0.4300  0.2231  0.3790
  357MPD2    C1 5344   1.427   2.711   0.572 -0.7000 -0.8977 -0.1991
  357MPD2    C2 5345   1.373   2.755   0.687  0.0079 -0.6350  0.4311
  357MPD2    C3 5346   1.329   2.889   0.703 -0.0300 -0.1190  0.0487
  357MPD2    C4 5347   1.318   2.967   0.587 -0.0279  0.0927 -0.4756
  357MPD2    C5 5348   1.377   2.920   0.474 -0.0988 -0.6958 -0.7633
  357MPD2     H 5349   1.366   2.682   0.767  0.2277 -0.4919  0.5820
  357MPD2    H1 5350   1.274   3.065   0.596 -1.6461 -0.6346 -0.5397
  357MPD2    H2 5351   1.477   2.780   0.374 -0.9189 -1.2719  0.3400
  357MPD2    H3 5352   1.399   2.991   0.396  1.0232 -0.7108 -0.4647
  357MPD2     N 5353   1.281   2.948   0.829  0.1357 -0.1082 -0.0731
  357MPD2    H5 5354   1.256   3.046   0.826  0.7909 -0.0179 -2.9798
  357MPD2    N1 5355   1.497   2.586   0.561 -0.3729 -0.3141 -0.8399
  357MPD2    H7 5356   1.549   2.577   0.474  1.8270 -1.3134  0.5580
  358TMC3    C1 5357   1.597   2.382   0.641 -0.5577 -0.2855 -0.4727
  358TMC3    C2 5358   1.653   2.357   0.519 -0.0670  0.1234 -0.0212
  358TMC3    C3 5359   1.775   2.289   0.506 -0.4615 -0.6659  0.3096
  358TMC3    C4 5360   1.664   2.340   0.752  0.3979  0.5709 -0.2424
  358TMC3    C5 5361   1.787   2.281   0.743  0.8075 -0.0182 -0.0211
  358TMC3    C6 5362   1.842   2.256   0.622  0.1555 -0.0815  0.1511
  358TMC3     C 5363   1.501   2.488   0.654  0.1644  0.1105 -0.3710
  358TMC3     O 5364   1.424   2.474   0.749  0.2582 -0.8513 -0.3912
  358TMC3     H 5365   1.602   2.396   0.431  1.3274 -2.1362 -1.8530
  358TMC3    H1 5366   1.620   2.350   0.851  1.1051 -2.2052  0.3579
  358TMC3    H2 5367   1.926   2.189   0.610 -0.2530 -0.4233 -0.8113
  358TMC3    C7 5368   1.859   2.230   0.856 -0.2117 -0.6994  0.3178
  358TMC3    C8 5369   1.846   2.310   0.382  0.0926  0.1217  0.2598
  358TMC3    O1 5370   1.954   2.156   0.836 -0.3535 -0.2066 -0.0651
  358TMC3    O2 5371   1.774   2.353   0.293 -0.0840  0.0321 -0.9597
  359MPD2     C 5372   2.188   1.586  12.663 -0.3269  0.4601 -0.9292
  359MPD2    C1 5373   2.107   1.480  12.635 -0.2645 -0.3311 -0.9351
  359MPD2    C2 5374   1.976   1.482  12.683  0.1946 -0.8518 -0.4949
  359MPD2    C3 5375   1.950   1.569  12.796 -0.4498  0.3141  0.4025
  359MPD2    C4 5376   2.036   1.669  12.826 -0.8894 -0.8800  0.1002
  359MPD2    C5 5377   2.151   1.671  12.751 -0.9244 -0.3190 -0.0948
  359MPD2     H 5378   1.903   1.406  12.657 -0.6214  0.0948 -0.9497
  359MPD2    H1 5379   2.017   1.746  12.900 -1.2668  0.5998 -1.5255
  359MPD2    H2 5380   2.286   1.599  12.619 -1.5159  1.7184 -3.2370
  359MPD2    H3 5381   2.216   1.758  12.753 -0.6146 -0.4871 -2.5493
  359MPD2     N 5382   1.829   1.556  12.867  0.1477  0.4553 -0.8351
  359MPD2    H5 5383   1.821   1.615  12.949  1.0300  0.9947 -1.1373
  359MPD2    N1 5384   2.142   1.370  12.549  0.1262  0.4811 -0.0856
  359MPD2    H7 5385   2.064   1.315  12.514  0.1153 -0.4942  1.4543
  360TMC3    C1 5386   2.291   1.240  12.420 -0.0393  0.8900  0.4052
  360TMC3    C2 5387   2.417   1.186  12.404  0.3406 -0.3774 -0.3777
  360TMC3    C3 5388   2.440   1.116  12.291 -0.2867  0.5398 -0.4071
  360TMC3    C4 5389   2.193   1.214  12.326 -0.7468  0.2181  0.0003
  360TMC3    C5 5390   2.226   1.144  12.213  0.3149 -0.3656  0.0310
  360TMC3    C6 5391   2.352   1.098  12.191  0.4609 -0.4835  0.1205
  360TMC3     C 5392   2.274   1.354  12.503 -1.2441  0.3541  0.0110
  360TMC3     O 5393   2.381   1.415  12.524  0.5054  0.8415 -0.4663
  360TMC3     H 5394   2.492   1.200  12.480  1.0842  1.5888 -1.4661
  360TMC3    H1 5395   2.096   1.258  12.345 -0.5339  1.1684 -1.1300
  360TMC3    H2 5396   2.386   1.050  12.100  0.7551  0.9064 -0.5041
  360TMC3    C7 5397   2.139   1.164  12.097  0.0882 -0.0141 -0.2381
  360TMC3    C8 5398   2.575   1.068  12.282 -0.0959 -0.4646 -0.0500
  360TMC3    O1 5399   2.061   1.260  12.106  0.1859  0.3042 -0.0643
  360TMC3    O2 5400   2.627   1.011  12.376  0.3725 -0.4259  0.0012
  361MPD2     C 5401   3.388   4.672  16.646 -0.2900 -0.2520 -0.8784
  361MPD2    C1 5402   3.418   0.088  16.665  1.7114 -0.0348 -0.6939
  361MPD2    C2 5403   3.549   0.128  16.682 -0.0439  0.0592 -0.6925
  361MPD2    C3 5404   3.642   0.028  16.676 -0.7681  0.1794 -0.7234
  361MPD2    C4 5405   3.618   4.623  16.641 -0.4441  0.4101 -0.4590
  361MPD2    C5 5406   3.490   4.584  16.618 -0.1931  0.5986 -0.3215
  361MPD2     H 5407   3.573   0.227  16.719 -0.2584 -0.6218  1.2941
  361MPD2    H1 5408   3.697   4.550  16.635 -1.5302 -0.7329 -0.6577
  361MPD2    H2 5409   3.285   4.640  16.645 -0.4924  0.3889 -0.5238
  361MPD2    H3 5410   3.456   4.483  16.600 -0.7327  0.6960  0.1327
  361MPD2     N 5411   3.772   0.048  16.720 -0.1389  0.5435 -0.1067
  361MPD2    H5 5412   3.830   4.688  16.721 -1.8096 -0.6251 -0.6334
  361MPD2    N1 5413   3.315   0.184  16.673 -0.3269 -0.0803  0.1545
  361MPD2    H7 5414   3.333   0.284  16.666  3.2445 -0.6660  0.9660
  362TMC3    C1 5415   3.106   0.279  16.685  0.5293 -0.1221 -0.4766
  362TMC3    C2 5416   3.013   0.305  16.782 -0.2759 -1.0734  0.2477
  362TMC3    C3 5417   2.946   0.424  16.766  0.0230  0.2339 -0.1845
  362TMC3    C4 5418   3.136   0.363  16.584 -0.5847  0.4689  0.1808
  362TMC3    C5 5419   3.065   0.482  16.575 -0.1529 -0.1167 -0.3754
  362TMC3    C6 5420   2.966   0.514  16.664  0.3702  0.5897 -0.1668
  362TMC3     C 5421   3.181   0.155  16.698 -0.5054 -0.3857  0.2223
  362TMC3     O 5422   3.131   0.060  16.752  0.5656  0.3113 -0.1760
  362TMC3     H 5423   2.999   0.236  16.864  0.9586 -1.6130 -0.0042
  362TMC3    H1 5424   3.215   0.338  16.514  0.7889  0.7210  1.6455
  362TMC3    H2 5425   2.901   0.600  16.658  0.1940  0.4202 -0.6883
  362TMC3    C7 5426   3.103   0.574  16.473  0.6761  0.0166  0.4531
  362TMC3    C8 5427   2.857   0.463  16.880 -0.4867 -0.0568  0.0684
  362TMC3    O1 5428   3.092   0.694  16.505  0.2029  0.7937  1.0876
  362TMC3    O2 5429   2.835   0.374  16.959 -0.5340  0.1421 -0.1958
  363TMC3    C1 5430   2.828   2.909   9.845  0.0191  0.3247 -0.4812
  363TMC3    C2 5431   2.798   2.818   9.940  0.4088  0.2256  0.1281
  363TMC3    C3 5432   2.673   2.821  10.004  0.1259  0.0692 -0.1583
  363TMC3    C4 5433   2.739   3.003   9.810 -0.1195 -0.0365 -0.2508
  363TMC3    C5 5434   2.607   2.995   9.853  0.1109  0.3775 -0.7694
  363TMC3    C6 5435   2.570   2.913   9.957  0.2822  0.2361 -0.3931
  363TMC3     C 5436   2.971   2.913   9.800  0.0869  0.6942  0.6477
  363TMC3     O 5437   3.055   2.850   9.864 -0.2690 -0.2083 -0.2700
  363TMC3     H 5438   2.879   2.754   9.973 -1.7130 -1.0727  2.8211
  363TMC3    H1 5439   2.771   3.075   9.735 -1.6537 -2.4352 -3.2139
  363TMC3    H2 5440   2.469   2.911   9.997 -0.1956 -2.4922 -1.7700
  363TMC3    C7 5441   2.514   3.090   9.791 -0.7886 -0.2733  0.0254
  363TMC3    C8 5442   2.637   2.719  10.104  0.1423  0.2994  0.0806
  363TMC3    O1 5443   2.574   3.190   9.746  0.4115 -1.0378  0.0996
  363TMC3    O2 5444   2.540   2.741  10.178 -0.6280 -0.6265 -0.4567
  364MPD2     C 5445   1.244   2.103  10.096  0.1472  0.4086  0.1790
  364MPD2    C1 5446   1.371   2.145  10.080  0.5540 -0.0782 -0.0152
  364MPD2    C2 5447   1.461   2.080  10.174  0.2185 -0.4660 -0.5315
  364MPD2    C3 5448   1.420   1.975  10.253  0.5859  0.5232 -1.0409
  364MPD2    C4 5449   1.285   1.936  10.251  0.7950 -0.6468 -1.3499
  364MPD2    C5 5450   1.198   2.002  10.176 -0.5868  0.4380 -0.3449
  364MPD2     H 5451   1.567   2.100  10.166 -0.3388  1.8837 -2.1102
  364MPD2    H1 5452   1.256   1.845  10.303 -1.4620  0.7347 -0.1751
  364MPD2    H2 5453   1.168   2.152  10.037 -1.3138 -2.3191 -0.1479
  364MPD2    H3 5454   1.093   1.976  10.175 -0.8435  1.4833 -0.7217
  364MPD2     N 5455   1.504   1.909  10.345 -0.1389 -0.3498 -0.3087
  364MPD2    H5 5456   1.464   1.827  10.390 -1.3502 -0.0154 -0.7749
  364MPD2    N1 5457   1.402   2.259   9.998 -0.6973 -0.0149  0.3379
  364MPD2    H7 5458   1.327   2.301   9.945  1.2898  1.3292 -1.4022
  365TMC3    C1 5459   1.529   2.419   9.879 -0.0328  0.3849  0.0621
  365TMC3    C2 5460   1.637   2.418   9.798 -0.5575  0.0655 -0.1906
  365TMC3    C3 5461   1.708   2.539   9.789 -0.3370  0.1857  0.0489
  365TMC3    C4 5462   1.479   2.531   9.942 -0.5126 -0.5484 -0.4435
  365TMC3    C5 5463   1.554   2.648   9.929 -0.1345  0.3356 -0.2202
  365TMC3    C6 5464   1.667   2.652   9.852 -0.0712  0.5630  0.4832
  365TMC3     C 5465   1.527   2.301   9.968  0.1218 -1.0745  0.4696
  365TMC3     O 5466   1.638   2.255   9.988 -0.2004 -0.3311 -0.1419
  365TMC3     H 5467   1.670   2.331   9.742  1.9856  0.1853  1.1005
  365TMC3    H1 5468   1.390   2.531  10.004  0.5798  0.1339  1.1195
  365TMC3    H2 5469   1.723   2.745   9.856  0.5628  0.2034 -0.3258
  365TMC3    C7 5470   1.555   2.748  10.036  0.1737 -0.1220 -0.3210
  365TMC3    C8 5471   1.850   2.520   9.776 -0.6959 -0.4296 -0.5629
  365TMC3    O1 5472   1.625   2.849  10.018 -0.1751  0.3952  0.0516
  365TMC3    O2 5473   1.922   2.617   9.757  0.0110  0.5524  0.0077
  366MPD2     C 5474   3.828   3.273  15.197 -0.0901 -0.1414  0.3767
  366MPD2    C1 5475   3.931   3.328  15.127 -0.0116  0.0119  0.4919
  366MPD2    C2 5476   4.048   3.249  15.110 -0.0537 -0.1031  0.1290
  366MPD2    C3 5477   4.055   3.118  15.157 -0.8186  0.2248  0.2007
  366MPD2    C4 5478   3.943   3.069  15.223 -0.3773  0.8077  0.1417
  366MPD2    C5 5479   3.832   3.148  15.246  0.4244 -0.3690 -0.3274
  366MPD2     H 5480   4.135   3.280  15.054  0.3967 -0.3187  0.7020
  366MPD2    H1 5481   3.938   2.967  15.259  0.7211  1.3273  1.7735
  366MPD2    H2 5482   3.737   3.329  15.215 -1.6038 -2.5527  0.2387
  366MPD2    H3 5483   3.745   3.105  15.295 -1.1294  3.0439 -0.0914
  366MPD2     N 5484   4.167   3.038  15.124  0.1909  0.1981 -0.1578
  366MPD2    H5 5485   4.238   3.098  15.083  0.5792 -0.5780 -0.6103
  366MPD2    N1 5486   3.936   3.465  15.090 -0.0341 -0.2813  0.7887
  366MPD2    H7 5487   4.026   3.498  15.057 -0.6463 -0.9272 -1.5429
  367TMC3    C1 5488   3.895   3.693  15.071 -0.0009 -0.2477 -0.4572
  367TMC3    C2 5489   4.024   3.714  15.110  0.1102  0.4525 -0.2948
  367TMC3    C3 5490   4.068   3.842  15.108 -0.5422  0.3292  0.2192
  367TMC3    C4 5491   3.817   3.793  15.026  0.5849 -0.0103 -1.1188
  367TMC3    C5 5492   3.874   3.913  15.020 -0.2317  0.6093 -0.5578
  367TMC3    C6 5493   3.999   3.949  15.061 -0.3864  0.1623  0.1385
  367TMC3     C 5494   3.841   3.560  15.097 -0.2454 -1.0741 -0.6375
  367TMC3     O 5495   3.720   3.545  15.104 -0.0634 -0.3550 -0.0104
  367TMC3     H 5496   4.090   3.635  15.144 -0.8030 -0.9590 -1.8013
  367TMC3    H1 5497   3.713   3.771  15.003  0.6300 -0.3076 -1.0305
  367TMC3    H2 5498   4.037   4.050  15.058 -1.4908  0.5736 -0.0459
  367TMC3    C7 5499   3.787   4.025  14.996  0.1083 -0.0002  0.2430
  367TMC3    C8 5500   4.171   3.864  15.206 -0.0175 -0.4437  0.2247
  367TMC3    O1 5501   3.777   4.119  15.074 -0.0488  0.5155  0.1645
  367TMC3    O2 5502   4.225   3.766  15.255  0.2066  0.4082  0.3330
  368MPD2     C 5503   0.466   0.613  13.381 -0.2722  0.9166  0.5761
  368MPD2    C1 5504   0.469   0.637  13.244  0.1844  0.3048 -0.3563
  368MPD2    C2 5505   0.586   0.622  13.181 -0.7603 -0.1881  0.1656
  368MPD2    C3 5506   0.702   0.570  13.244  0.4956 -0.3563 -0.0081
  368MPD2    C4 5507   0.697   0.544  13.377 -0.3206  0.2645  0.0420
  368MPD2    C5 5508   0.579   0.560  13.440  0.3313  0.4455 -1.1888
  368MPD2     H 5509   0.598   0.647  13.076 -0.8640  3.2005  0.9726
  368MPD2    H1 5510   0.791   0.523  13.426  0.1905  1.2619 -0.5165
  368MPD2    H2 5511   0.375   0.614  13.440 -0.7431 -0.7472 -0.0995
  368MPD2    H3 5512   0.567   0.530  13.544 -0.0377  0.4891 -1.2157
  368MPD2     N 5513   0.826   0.569  13.179  0.1926  0.0040  0.5564
  368MPD2    H5 5514   0.912   0.568  13.233  1.2751 -2.8104 -1.2108
  368MPD2    N1 5515   0.349   0.690  13.191 -0.3225  0.3983 -0.5106
  368MPD2    H7 5516   0.264   0.687  13.245  0.3905 -1.4351  0.5212
  369TMC3    C1 5517   0.206   0.800  13.036 -0.3590  0.6261 -0.3305
  369TMC3    C2 5518   0.199   0.905  12.952 -0.1176 -0.0038 -0.2293
  369TMC3    C3 5519   0.083   0.972  12.942  0.7028 -1.2959 -0.0749
  369TMC3    C4 5520   0.109   0.767  13.115 -0.7554 -0.5944 -1.1154
  369TMC3    C5 5521   4.714   0.834  13.102 -0.2388  0.0948 -0.2255
  369TMC3    C6 5522   4.698   0.941  13.020 -0.5974  0.3702 -0.2684
  369TMC3     C 5523   0.340   0.753  13.066 -0.0142 -0.1377 -0.1299
  369TMC3     O 5524   0.428   0.770  12.981  0.3080 -0.1025  0.4564
  369TMC3     H 5525   0.277   0.917  12.877 -0.4931 -0.5443 -0.7021
  369TMC3    H1 5526   0.110   0.680  13.180 -0.1406 -0.3064 -0.7469
  369TMC3    H2 5527   4.607   1.000  13.012  0.4664  1.8399 -1.6348
  369TMC3    C7 5528   4.614   0.790  13.194  0.0480 -0.6721  0.0130
  369TMC3    C8 5529   0.083   1.094  12.868  0.2389  0.5787 -0.3308
  369TMC3    O1 5530   4.656   0.733  13.296  0.1133 -0.0827  0.0090
  369TMC3    O2 5531   4.702   1.148  12.827  0.1801  0.0122  0.3257
  370TMC3    C1 5532   0.254   1.220  16.092  0.5578  0.6079  0.1471
  370TMC3    C2 5533   0.125   1.209  16.143 -0.3563 -0.1781 -0.4549
  370TMC3    C3 5534   0.032   1.121  16.098  0.3445  0.2492  0.3469
  370TMC3    C4 5535   0.302   1.140  15.994 -0.1845 -0.2714 -0.6615
  370TMC3    C5 5536   0.209   1.049  15.947  0.1547  0.7727  0.3397
  370TMC3    C6 5537   0.077   1.043  15.997  0.5080  0.0979 -0.0849
  370TMC3     C 5538   0.321   1.340  16.118 -0.1234 -0.4362 -0.1492
  370TMC3     O 5539   0.266   1.441  16.167  0.0493  0.4305  0.4279
  370TMC3     H 5540   0.101   1.293  16.207  1.7452 -0.5842  0.8639
  370TMC3    H1 5541   0.406   1.134  15.966  0.1296  1.6341  0.0787
  370TMC3    H2 5542   0.011   0.969  15.952  0.8630  0.9721 -2.0576
  370TMC3    C7 5543   0.261   0.928  15.892 -0.0699 -0.5622  0.3731
  370TMC3    C8 5544   4.642   1.058  16.171  0.3130  0.8539 -0.2253
  370TMC3    O1 5545   0.384   0.917  15.901 -0.1975 -0.4567  0.1358
  370TMC3    O2 5546   4.601   0.946  16.145  0.5076 -0.9661 -0.2815
  371TMC3    C1 5547   1.392   4.082  15.498 -0.1854  0.2248  0.1022
  371TMC3    C2 5548   1.293   4.061  15.591 -0.2437  0.0172 -0.1111
  371TMC3    C3 5549   1.204   4.161  15.624 -0.8042  0.3767 -0.5120
  371TMC3    C4 5550   1.396   4.200  15.428  0.6639 -0.1879  0.9753
  371TMC3    C5 5551   1.306   4.296  15.460  0.2869 -0.2648 -0.0354
  371TMC3    C6 5552   1.203   4.273  15.548  0.4111  0.2315  0.2796
  371TMC3     C 5553   1.513   3.997  15.499 -0.0849  0.0339 -0.1697
  371TMC3     O 5554   1.614   4.052  15.462 -0.3401  0.0175  0.2717
  371TMC3     H 5555   1.292   3.986  15.669  1.1417  1.3402  1.1747
  371TMC3    H1 5556   1.471   4.217  15.352 -0.5721 -0.6162 -0.3325
  371TMC3    H2 5557   1.148   4.364  15.572  1.5808  0.3868  2.3278
  371TMC3    C7 5558   1.351   4.436  15.451 -0.1533  0.2573  0.1845
  371TMC3    C8 5559   1.149   4.164  15.761  0.3903  0.1552 -0.1803
  371TMC3    O1 5560   1.256   4.515  15.461  0.6024 -0.1064 -0.0761
  371TMC3    O2 5561   1.190   4.077  15.836 -0.7075  0.4303  1.3255
  372MPD2     C 5562   0.909   0.856  14.120 -0.1430  0.0835 -0.5777
  372MPD2    C1 5563   0.982   0.819  14.015 -0.0121  0.0178  0.0529
  372MPD2    C2 5564   0.928   0.728  13.929 -0.2320  0.1018  0.7307
  372MPD2    C3 5565   0.810   0.669  13.952  0.1015  0.0407  0.1951
  372MPD2    C4 5566   0.730   0.714  14.053  0.7235 -1.0533 -0.2519
  372MPD2    C5 5567   0.786   0.799  14.131  0.9359  0.2338 -0.1159
  372MPD2     H 5568   0.989   0.687  13.850  0.2694 -0.4753  1.4164
  372MPD2    H1 5569   0.627   0.684  14.069 -0.1942  1.1593 -2.0145
  372MPD2    H2 5570   0.937   0.932  14.193 -0.9976  0.6297 -0.8129
  372MPD2    H3 5571   0.727   0.847  14.208  0.8882 -0.9646  0.5802
  372MPD2     N 5572   0.781   0.558  13.869 -0.1442 -0.2117 -0.1687
  372MPD2    H5 5573   0.863   0.511  13.830  0.8927 -1.0453  2.9590
  372MPD2    N1 5574   1.112   0.863  13.979 -0.6246 -0.0036 -0.4198
  372MPD2    H7 5575   1.142   0.828  13.889 -1.7854  0.5323 -1.0152
  373TMC3    C1 5576   0.683   0.377  13.770 -0.3794 -0.5330 -0.5856
  373TMC3    C2 5577   0.602   0.267  13.804  0.0242 -0.2271  0.6154
  373TMC3    C3 5578   0.624   0.162  13.725 -0.2089 -0.3521 -0.7599
  373TMC3    C4 5579   0.770   0.374  13.670 -0.2341  0.7274 -0.0615
  373TMC3    C5 5580   0.778   0.272  13.581 -0.5610 -0.0166  0.0386
  373TMC3    C6 5581   0.703   0.163  13.613  0.1594 -0.3579  0.8187
  373TMC3     C 5582   0.667   0.496  13.855  0.3801 -0.1014  0.1310
  373TMC3     O 5583   0.558   0.509  13.912  0.0247  0.4276  0.7173
  373TMC3     H 5584   0.526   0.261  13.881 -0.9307  2.8104 -0.0871
  373TMC3    H1 5585   0.826   0.466  13.657  0.5574  0.0654 -1.2616
  373TMC3    H2 5586   0.712   0.065  13.568 -4.8313  0.4440 -2.0046
  373TMC3    C7 5587   0.904   0.238  13.522  0.0330 -0.4595 -0.1580
  373TMC3    C8 5588   0.643   0.043  13.792  0.5132 -0.8050  0.1730
  373TMC3    O1 5589   0.901   0.147  13.443  0.2584  0.1734 -0.4525
  373TMC3    O2 5590   0.544   4.719  13.843 -0.4286 -0.0915 -0.4199
  374TMC3    C1 5591   1.798   1.018   9.650  0.6494 -0.1982  0.0607
  374TMC3    C2 5592   1.869   1.115   9.717 -0.6241  0.6262  0.5092
  374TMC3    C3 5593   1.960   1.188   9.642 -0.0895 -0.0701 -0.1178
  374TMC3    C4 5594   1.808   0.996   9.520  0.4350  0.7293 -0.2847
  374TMC3    C5 5595   1.882   1.083   9.447  0.3542 -0.2705 -1.1028
  374TMC3    C6 5596   1.963   1.178   9.507  0.2534  0.7059 -0.5682
  374TMC3     C 5597   1.717   0.923   9.736  0.3553 -0.3213  1.1903
  374TMC3     O 5598   1.623   0.872   9.677 -0.4202  0.5382  0.3763
  374TMC3     H 5599   1.861   1.126   9.824  2.0158 -0.2094  0.8020
  374TMC3    H1 5600   1.746   0.916   9.482  0.1401  1.5125 -1.4612
  374TMC3    H2 5601   2.049   1.211   9.449  0.0985  2.2038  0.0601
  374TMC3    C7 5602   1.890   1.079   9.306 -0.1197  0.7471  0.3230
  374TMC3    C8 5603   2.048   1.289   9.706  0.5594 -0.0688  0.4672
  374TMC3    O1 5604   1.944   1.177   9.254  0.0513  0.4869  0.0847
  374TMC3    O2 5605   2.087   1.371   9.627  0.4310 -0.3552 -0.4925
  375MPD2     C 5606   1.442   1.385  17.022  0.1183 -0.2383 -0.4210
  375MPD2    C1 5607   1.365   1.405  16.913  0.2540 -0.1082  0.3969
  375MPD2    C2 5608   1.421   1.403  16.791 -0.3703  0.3995  0.4294
  375MPD2    C3 5609   1.557   1.395  16.771  0.2779 -0.0012  0.7884
  375MPD2    C4 5610   1.639   1.397  16.884  0.1400 -0.6333  0.1282
  375MPD2    C5 5611   1.582   1.394  17.010 -0.0134 -0.6094  0.6722
  375MPD2     H 5612   1.350   1.400  16.710 -1.3345  1.3474  1.2419
  375MPD2    H1 5613   1.745   1.414  16.875  0.4198 -2.3486  0.2955
  375MPD2    H2 5614   1.394   1.365  17.116  3.4919 -1.3242  1.0644
  375MPD2    H3 5615   1.648   1.395  17.096  0.6545  2.0808  0.1554
  375MPD2     N 5616   1.627   1.408  16.642  0.0831  0.2393  0.0659
  375MPD2    H5 5617   1.727   1.426  16.639 -0.1235  1.4195 -0.0431
  375MPD2    N1 5618   1.227   1.432  16.927 -0.2642 -0.7839  0.4570
  375MPD2    H7 5619   1.169   1.427  16.843  0.8014 -1.1983 -0.2630
  376TMC3    C1 5620   1.651   1.449  16.408  0.3473 -0.4914  0.2996
  376TMC3    C2 5621   1.783   1.480  16.441 -0.1099  0.1524  0.9284
  376TMC3    C3 5622   1.848   1.530  16.330 -0.5668  0.0538 -0.1599
  376TMC3    C4 5623   1.592   1.472  16.285  0.1902  0.4832 -0.9328
  376TMC3    C5 5624   1.669   1.502  16.182  0.1045 -0.0462  0.2145
  376TMC3    C6 5625   1.799   1.536  16.208  0.4091  0.1410  0.2303
  376TMC3     C 5626   1.564   1.419  16.520 -0.0528  0.4107  0.2131
  376TMC3     O 5627   1.447   1.392  16.500 -0.1683  0.4954  0.4010
  376TMC3     H 5628   1.833   1.464  16.535 -1.1177 -2.0675  1.0735
  376TMC3    H1 5629   1.486   1.452  16.273  0.0206  0.0676  1.2342
  376TMC3    H2 5630   1.860   1.566  16.124  2.8424 -1.4091  1.4504
  376TMC3    C7 5631   1.606   1.536  16.055  0.1331 -1.0486  0.1822
  376TMC3    C8 5632   1.990   1.535  16.344  0.3386  0.5976  0.7896
  376TMC3    O1 5633   1.674   1.613  15.988  0.2052  0.2017  0.2448
  376TMC3    O2 5634   2.051   1.513  16.244 -0.3352 -0.8100  0.5141
  377MPD2     C 5635   4.292   1.185  12.084  0.3261  0.9163 -0.6613
  377MPD2    C1 5636   4.348   1.135  12.204  0.0017 -0.3573  0.8014
  377MPD2    C2 5637   4.260   1.089  12.301  0.1447 -0.4451  0.4253
  377MPD2    C3 5638   4.121   1.085  12.284 -0.2372  0.2474 -0.0064
  377MPD2    C4 5639   4.071   1.145  12.164  0.0621 -0.2837  0.6032
  377MPD2    C5 5640   4.153   1.193  12.065  0.0076 -0.0783 -0.0115
  377MPD2     H 5641   4.319   1.060  12.388 -1.8118 -0.7786  1.6484
  377MPD2    H1 5642   3.964   1.150  12.146 -0.0330 -0.8282  1.0065
  377MPD2    H2 5643   4.343   1.216  11.994  1.7726 -2.5687 -1.0299
  377MPD2    H3 5644   4.108   1.228  11.974 -1.0419  0.2839  0.6434
  377MPD2     N 5645   4.028   1.041  12.382  0.1638  0.2130  0.6571
  377MPD2    H5 5646   3.931   1.061  12.360 -0.0203 -1.2305  0.1538
  377MPD2    N1 5647   4.490   1.139  12.218  0.2039  0.6764  0.5935
  377MPD2    H7 5648   4.528   1.183  12.135  0.9632 -1.0791  0.0256
  378TMC3    C1 5649   0.183   1.151  12.188  0.3093 -0.2859 -0.3905
  378TMC3    C2 5650   0.049   1.136  12.199 -0.2188 -0.3719 -0.4300
  378TMC3    C3 5651   4.718   1.110  12.314  0.0011 -0.1836 -0.0736
  378TMC3    C4 5652   0.260   1.122  12.292 -0.2418  0.4698  0.4245
  378TMC3    C5 5653   0.204   1.086  12.412 -0.5611 -0.2020  0.8385
  378TMC3    C6 5654   0.068   1.073  12.423 -0.1101 -0.0376 -0.3988
  378TMC3     C 5655   0.229   1.199  12.057  0.1816 -0.2660  0.9896
  378TMC3     O 5656   0.141   1.251  11.989  0.2423  0.0765 -0.3440
  378TMC3     H 5657   4.713   1.140  12.108 -0.5880  2.1995 -0.0762
  378TMC3    H1 5658   0.359   1.168  12.291 -0.6236  1.2424 -1.4143
  378TMC3    H2 5659   0.024   1.044  12.518 -0.4237  0.0783 -0.5087
  378TMC3    C7 5660   0.282   1.027  12.521  0.4267  0.1810 -0.3278
  378TMC3    C8 5661   4.574   1.092  12.321 -0.2707  0.8690  0.4861
  378TMC3    O1 5662   0.223   0.960  12.605  0.2815  0.0406  0.1071
  378TMC3    O2 5663   4.530   1.024  12.413 -0.0629  0.4722  0.4466
  379MPD2     C 5664   4.678   3.800  16.333  0.6196  0.0726 -1.1142
  379MPD2    C1 5665   0.055   3.755  16.250  0.7455 -0.5441  0.2812
  379MPD2    C2 5666   0.143   3.654  16.290  0.1673 -0.2837 -0.1383
  379MPD2    C3 5667   0.133   3.598  16.416 -0.5426 -0.1087 -0.3314
  379MPD2    C4 5668   0.036   3.646  16.503  0.4251 -0.4708  0.1538
  379MPD2    C5 5669   4.676   3.748  16.458  0.1298 -0.3467  0.0239
  379MPD2     H 5670   0.226   3.626  16.226 -0.5622  0.2711 -1.3240
  379MPD2    H1 5671   0.038   3.607  16.603 -0.8117 -1.9365 -0.4019
  379MPD2    H2 5672   4.619   3.888  16.312  0.9500  1.1178  2.2695
  379MPD2    H3 5673   4.604   3.782  16.531  0.8420  0.8597  0.1573
  379MPD2     N 5674   0.226   3.511  16.470  0.1598  0.1733 -0.5687
  379MPD2    H5 5675   0.196   3.452  16.548 -1.2745  1.1625 -0.3804
  379MPD2    N1 5676   0.057   3.817  16.116 -0.0985  0.4607 -0.2973
  379MPD2    H7 5677   4.711   3.885  16.086  0.2285  1.3182  0.8698
  380TMC3    C1 5678   0.119   3.824  15.886  0.5501  0.0546 -0.4756
  380TMC3    C2 5679   0.203   3.776  15.790 -0.1600 -0.0696 -0.2358
  380TMC3    C3 5680   0.156   3.783  15.656  0.1047 -0.4222  0.0575
  380TMC3    C4 5681   0.004   3.887  15.856  0.4606 -0.2779 -0.3276
  380TMC3    C5 5682   4.692   3.899  15.721  0.0551 -0.3756  0.0334
  380TMC3    C6 5683   0.039   3.855  15.620  0.0876  1.1789  1.0368
  380TMC3     C 5684   0.153   3.792  16.022 -0.0955 -0.7710  0.0782
  380TMC3     O 5685   0.264   3.739  16.045  0.3037  0.1648 -0.7504
  380TMC3     H 5686   0.290   3.717  15.818 -0.4394 -0.4220 -0.1076
  380TMC3    H1 5687   4.653   3.921  15.927 -0.0629  2.0643 -1.9938
  380TMC3    H2 5688   0.009   3.858  15.516  0.6759  1.9645  0.8925
  380TMC3    C7 5689   4.591   4.000  15.689  0.1468 -0.4204  0.4471
  380TMC3    C8 5690   0.253   3.763  15.550 -0.7779  0.0689 -0.3763
  380TMC3    O1 5691   4.554   4.075  15.777  0.4051  0.2499 -0.0004
  380TMC3    O2 5692   0.218   3.811  15.444  0.7969 -0.1328 -0.6929
  381TMC3    C1 5693   4.480   0.663  16.069 -0.2310 -0.0668  0.1958
  381TMC3    C2 5694   4.623   0.680  16.066  0.3305  0.6820  0.0802
  381TMC3    C3 5695   4.684   0.571  16.101  0.9978 -0.0922 -0.1974
  381TMC3    C4 5696   4.414   0.570  16.140 -0.0537 -0.4764  0.0427
  381TMC3    C5 5697   4.495   0.468  16.193 -0.0791 -0.9052 -0.8293
  381TMC3    C6 5698   4.628   0.458  16.161 -0.0307 -0.1500  0.1440
  381TMC3     C 5699   4.421   0.702  15.946  0.1622 -0.1871 -0.7905
  381TMC3     O 5700   4.500   0.727  15.854 -0.1879 -0.3166 -0.2096
  381TMC3     H 5701   4.672   0.761  16.013  1.8302 -0.8409 -0.8494
  381TMC3    H1 5702   4.309   0.546  16.142 -0.6068  2.1350  1.1920
  381TMC3    H2 5703   4.687   0.379  16.206  1.7035  1.0203 -0.0596
  381TMC3    C7 5704   4.444   0.367  16.293 -0.2920  0.1402 -0.3475
  381TMC3    C8 5705   0.096   0.608  16.127  0.0063  0.1313 -0.2019
  381TMC3    O1 5706   4.513   0.263  16.306  0.6661 -0.1316  0.6434
  381TMC3    O2 5707   0.184   0.542  16.079 -0.2829  0.3308 -0.1895
  382MPD2     C 5708   4.287   2.623  17.302 -0.3757  0.3460  0.0913
  382MPD2    C1 5709   4.187   2.667  17.383  0.3572  0.0771  0.8063
  382MPD2    C2 5710   4.094   2.576  17.423 -0.0641 -0.1396 -0.1188
  382MPD2    C3 5711   4.096   2.445  17.374 -0.3603  0.1068 -0.6735
  382MPD2    C4 5712   4.189   2.406  17.283 -0.3131 -0.0684  0.1036
  382MPD2    C5 5713   4.288   2.496  17.245  0.0893 -0.6689 -0.1273
  382MPD2     H 5714   4.012   2.618  17.479  3.4882  1.3139  4.0374
  382MPD2    H1 5715   4.197   2.302  17.252  1.0471 -0.0416  0.3786
  382MPD2    H2 5716   4.374   2.687  17.288 -0.6157  0.4573 -0.9192
  382MPD2    H3 5717   4.363   2.469  17.171  0.6539 -0.1385  0.2513
  382MPD2     N 5718   3.989   2.355  17.405 -0.2695 -0.8945 -0.7984
  382MPD2    H5 5719   3.992   2.271  17.349  0.8450 -1.0284 -0.5227
  382MPD2    N1 5720   4.180   2.799  17.437  0.2553  0.0650 -0.3545
  382MPD2    H7 5721   4.107   2.818  17.505 -0.5013 -1.0356 -0.8416
  383TMC3    C1 5722   3.804   2.263  17.518  0.4570 -0.6236 -0.2192
  383TMC3    C2 5723   3.768   2.193  17.404  0.0214  0.5527 -0.5761
  383TMC3    C3 5724   3.670   2.095  17.419 -0.8105 -0.4037  0.7739
  383TMC3    C4 5725   3.758   2.240  17.642  0.1026  0.4571 -0.2019
  383TMC3    C5 5726   3.650   2.150  17.648 -0.1566 -0.0276 -0.3938
  383TMC3    C6 5727   3.612   2.070  17.541 -0.4287 -0.1943 -0.6557
  383TMC3     C 5728   3.908   2.361  17.513 -0.3194  0.9387 -0.2117
  383TMC3     O 5729   3.932   2.428  17.611 -0.4859  0.5799 -0.2850
  383TMC3     H 5730   3.808   2.224  17.308  1.8297  2.7989  0.8870
  383TMC3    H1 5731   3.801   2.290   0.034  1.8925 -0.1792 -0.7209
  383TMC3    H2 5732   3.531   1.999  17.550  0.4672 -0.9117  1.7380
  383TMC3    C7 5733   3.621   2.112   0.090  0.4394 -0.5193  0.0284
  383TMC3    C8 5734   3.622   2.036  17.291  0.4569 -0.8897 -0.8635
  383TMC3    O1 5735   3.620   2.196   0.186 -0.0923  0.4168  0.4372
  383TMC3    O2 5736   3.617   2.096  17.187 -0.6492 -0.1389 -0.4554
  384MPD2     C 5737   1.256   3.813  11.622  0.1488 -0.8203  0.2963
  384MPD2    C1 5738   1.181   3.748  11.724 -0.2355  0.3198  0.4924
  384MPD2    C2 5739   1.165   3.612  11.728  0.7028 -0.4168  0.1269
  384MPD2    C3 5740   1.226   3.538  11.632  0.3109  0.2664 -0.3334
  384MPD2    C4 5741   1.310   3.599  11.533  0.5098 -0.8614 -0.2235
  384MPD2    C5 5742   1.323   3.733  11.535 -0.3507  0.4529 -0.2880
  384MPD2     H 5743   1.108   3.558  11.802 -0.0310  0.0950 -0.0557
  384MPD2    H1 5744   1.366   3.543  11.460  2.2898 -2.1568  2.1196
  384MPD2    H2 5745   1.278   3.919  11.623  2.1860 -1.2558  0.8117
  384MPD2    H3 5746   1.394   3.765  11.459 -0.7160  0.9460 -0.4213
  384MPD2     N 5747   1.222   3.401  11.652 -0.5495 -0.0603 -0.0216
  384MPD2    H5 5748   1.182   3.369  11.739  0.1773 -0.7456  0.0538
  384MPD2    N1 5749   1.117   3.823  11.823 -0.1057 -0.1620 -0.1846
  384MPD2    H7 5750   1.147   3.919  11.837  2.5596 -0.8597 -1.0577
  385TMC3    C1 5751   1.266   3.189  11.626  0.4070 -0.8980 -0.1322
  385TMC3    C2 5752   1.182   3.091  11.570 -0.3429 -0.2193  0.2657
  385TMC3    C3 5753   1.136   3.004  11.671  0.3317  0.7897 -0.6238
  385TMC3    C4 5754   1.303   3.202  11.758  0.9052  0.3376  0.1741
  385TMC3    C5 5755   1.250   3.116  11.847  0.5130 -0.4760  0.0426
  385TMC3    C6 5756   1.172   3.007  11.801 -0.4791  0.3604 -0.5368
  385TMC3     C 5757   1.276   3.313  11.565 -0.1147 -0.1964 -0.0366
  385TMC3     O 5758   1.267   3.313  11.439 -0.0498 -0.5158  0.0405
  385TMC3     H 5759   1.137   3.103  11.473 -1.7687 -1.0268  0.8245
  385TMC3    H1 5760   1.376   3.277  11.786 -0.9671  2.7787 -1.4870
  385TMC3    H2 5761   1.137   2.930  11.869  2.7992 -0.7279 -0.0668
  385TMC3    C7 5762   1.204   3.202  11.952  0.7677 -0.5713  0.0909
  385TMC3    C8 5763   1.075   2.879  11.631  0.5930 -0.3788 -0.0249
  385TMC3    O1 5764   1.185   3.316  11.903 -0.0259  0.3741  0.1187
  385TMC3    O2 5765   1.013   2.820  11.719  0.6719  0.2144 -0.0380
  386TMC3    C1 5766   1.024   1.396  11.876  0.5826 -0.1992 -0.0362
  386TMC3    C2 5767   1.066   1.377  11.746 -0.2954 -0.2031  0.8204
  386TMC3    C3 5768   1.011   1.459  11.652 -0.3623 -0.0211  0.5778
  386TMC3    C4 5769   0.930   1.484  11.909 -0.4829  0.0805 -0.6025
  386TMC3    C5 5770   0.873   1.566  11.812 -0.5810  0.7852 -0.3927
  386TMC3    C6 5771   0.908   1.545  11.679 -0.0056  0.3101 -0.6518
  386TMC3     C 5772   1.083   1.319  11.990 -0.1664 -0.1124  0.2385
  386TMC3     O 5773   1.010   1.293  12.085  0.4404 -0.3881 -0.4004
  386TMC3     H 5774   1.125   1.288  11.725 -0.4424 -0.7143  2.5889
  386TMC3    H1 5775   0.910   1.499  12.014 -1.6975 -0.9716 -0.6794
  386TMC3    H2 5776   0.878   1.619  11.606  0.3310  1.3286  0.2335
  386TMC3    C7 5777   0.754   1.651  11.852  0.5215 -0.0354 -0.3125
  386TMC3    C8 5778   1.056   1.442  11.510  0.3026  0.3646  0.7078
  386TMC3    O1 5779   0.717   1.629  11.967 -1.1061 -0.3548  0.1590
  386TMC3    O2 5780   1.002   1.499  11.419 -0.3495  0.0665  0.4025
  387MPD2     C 5781   3.277   1.133   9.409 -0.6165  0.4617  0.3936
  387MPD2    C1 5782   3.395   1.162   9.476  0.7225  0.1535  0.3046
  387MPD2    C2 5783   3.504   1.077   9.465 -0.6747  0.6455  0.5103
  387MPD2    C3 5784   3.501   0.956   9.407 -0.0495  0.4072  0.1004
  387MPD2    C4 5785   3.388   0.929   9.333  0.5909 -0.0582 -1.5871
  387MPD2    C5 5786   3.288   1.017   9.332  0.0799  0.2497 -0.7620
  387MPD2     H 5787   3.595   1.098   9.520  0.7142  1.9368 -2.2533
  387MPD2    H1 5788   3.376   0.841   9.270 -3.4653 -1.4827  1.1715
  387MPD2    H2 5789   3.188   1.194   9.421 -0.2656  0.9385  0.5866
  387MPD2    H3 5790   3.203   0.990   9.270  0.0898  0.5302 -0.8971
  387MPD2     N 5791   3.612   0.871   9.425  0.2070 -1.0614  0.3423
  387MPD2    H5 5792   3.693   0.920   9.462  0.4894  1.2362 -3.3436
  387MPD2    N1 5793   3.397   1.268   9.566 -0.1369 -0.3699 -0.8887
  387MPD2    H7 5794   3.482   1.275   9.622 -0.8787 -0.3545  0.2281
  388TMC3    C1 5795   3.330   1.437   9.693 -0.1964  0.2704 -0.1341
  388TMC3    C2 5796   3.320   1.573   9.697  0.3727 -0.0244 -0.0566
  388TMC3    C3 5797   3.385   1.629   9.805  0.1862 -0.1011 -0.0541
  388TMC3    C4 5798   3.387   1.364   9.789 -0.0030 -0.2358 -0.0905
  388TMC3    C5 5799   3.449   1.425   9.897  0.7672  0.6802  0.4474
  388TMC3    C6 5800   3.456   1.558   9.905 -0.3274  0.4937  0.3183
  388TMC3     C 5801   3.303   1.369   9.575  0.6624 -0.3764 -0.2970
  388TMC3     O 5802   3.225   1.405   9.494  0.8818  0.7910 -0.0451
  388TMC3     H 5803   3.272   1.627   9.616 -0.7846 -2.8298 -1.2334
  388TMC3    H1 5804   3.359   1.260   9.800 -0.5081 -0.3523 -2.3823
  388TMC3    H2 5805   3.524   1.605   9.975 -0.8179  2.7163 -0.6808
  388TMC3    C7 5806   3.546   1.347   9.975  0.2324  0.4910 -0.6336
  388TMC3    C8 5807   3.343   1.760   9.832 -0.3797 -0.3480  0.1412
  388TMC3    O1 5808   3.596   1.384  10.077  0.0781 -0.5205 -0.4111
  388TMC3    O2 5809   3.305   1.815   9.736 -0.0120  0.4100  0.4170
  389MPD2     C 5810   3.297   4.187  11.438  1.1543  0.1026 -0.1796
  389MPD2    C1 5811   3.245   4.092  11.351 -0.0766  0.0741  0.3562
  389MPD2    C2 5812   3.156   3.991  11.397 -0.4008  0.3611  0.4664
  389MPD2    C3 5813   3.118   3.994  11.531  0.2769 -0.0564  0.1379
  389MPD2    C4 5814   3.173   4.089  11.615  0.0582  0.3308  0.3594
  389MPD2    C5 5815   3.265   4.185  11.571 -0.7800  0.2453 -0.0453
  389MPD2     H 5816   3.113   3.909  11.341  0.6079 -0.5299  0.9987
  389MPD2    H1 5817   3.148   4.090  11.720  3.2851  0.3477  1.1143
  389MPD2    H2 5818   3.364   4.269  11.413 -1.6782  2.2007 -0.9451
  389MPD2    H3 5819   3.300   4.261  11.640 -0.5019 -0.3303  0.4436
  389MPD2     N 5820   3.020   3.915  11.591 -0.1133 -0.4342  0.0579
  389MPD2    H5 5821   3.009   3.930  11.691 -2.7010  0.8859 -0.4353
  389MPD2    N1 5822   3.285   4.097  11.212 -0.0169  0.5005  0.1375
  389MPD2    H7 5823   3.360   4.158  11.182  1.0606 -1.2563 -0.7594
  390TMC3    C1 5824   2.878   3.745  11.639 -0.0788  0.1071 -0.3758
  390TMC3    C2 5825   2.835   3.623  11.610 -0.8476 -0.0626  0.4026
  390TMC3    C3 5826   2.766   3.557  11.710  0.5136  0.4030  0.0967
  390TMC3    C4 5827   2.842   3.814  11.747 -0.8906 -0.0627  0.4431
  390TMC3    C5 5828   2.761   3.757  11.841  0.0802 -0.0874 -0.3075
  390TMC3    C6 5829   2.742   3.625  11.826  0.6559 -0.7723 -1.0338
  390TMC3     C 5830   2.953   3.810  11.535  0.3175 -0.2094 -0.0560
  390TMC3     O 5831   2.938   3.779  11.414  0.1839 -0.5945  0.0583
  390TMC3     H 5832   2.866   3.569  11.521  0.5190  0.7349  0.3860
  390TMC3    H1 5833   2.843   3.922  11.753 -1.1422  0.0203 -1.0198
  390TMC3    H2 5834   2.702   3.571  11.911 -0.1293  0.6977 -0.4535
  390TMC3    C7 5835   2.635   3.827  11.815  0.4082  0.1920 -0.0762
  390TMC3    C8 5836   2.675   3.451  11.674  0.0306 -0.4593  0.9081
  390TMC3    O1 5837   2.630   3.932  11.752 -0.7380 -0.0914  0.0512
  390TMC3    O2 5838   2.680   3.397  11.569 -0.5532  0.0101  0.3556
  391MPD2     C 5839   2.071   0.828  11.207 -0.2163 -0.4891  0.0034
  391MPD2    C1 5840   2.163   0.927  11.231 -0.4692 -0.0686  0.3381
  391MPD2    C2 5841   2.225   0.993  11.117  0.0631  0.1254 -0.0933
  391MPD2    C3 5842   2.171   0.980  10.988 -0.2471  0.3091  0.1063
  391MPD2    C4 5843   2.078   0.883  10.970  0.4013 -0.2631  0.0900
  391MPD2    C5 5844   2.031   0.816  11.076  0.5312  0.2705  0.1235
  391MPD2     H 5845   2.307   1.062  11.133  0.8989 -0.4742 -1.8240
  391MPD2    H1 5846   2.043   0.840  10.877 -1.7080 -0.5139  1.0023
  391MPD2    H2 5847   2.017   0.772  11.283 -2.1787 -0.0257 -1.0453
  391MPD2    H3 5848   1.958   0.739  11.053  0.5309  0.1033  0.6730
  391MPD2     N 5849   2.225   1.054  10.881 -0.6086  0.1829  0.2569
  391MPD2    H5 5850   2.312   1.094  10.912 -0.2094  1.2061 -2.1335
  391MPD2    N1 5851   2.195   0.948  11.363 -1.0791 -0.0250 -0.3618
  391MPD2    H7 5852   2.154   0.884  11.430 -0.7928 -1.3074 -1.4200
  392TMC3    C1 5853   2.283   1.137  10.666  0.0657 -0.7006  0.2827
  392TMC3    C2 5854   2.250   1.140  10.530  0.1963  0.0797  0.2369
  392TMC3    C3 5855   2.314   1.243  10.458  1.1406  0.0412 -0.9225
  392TMC3    C4 5856   2.355   1.235  10.723 -0.4965  0.5452  0.0092
  392TMC3    C5 5857   2.409   1.331  10.647  0.0458  0.8175  0.0155
  392TMC3    C6 5858   2.385   1.348  10.514  0.0903  0.3723 -0.3530
  392TMC3     C 5859   2.190   1.054  10.749  0.2237  0.4010  0.5559
  392TMC3     O 5860   2.089   1.007  10.697 -0.1178  0.2153 -0.2453
  392TMC3     H 5861   2.200   1.061  10.476  0.0671 -0.8297  1.6693
  392TMC3    H1 5862   2.384   1.227  10.827  3.0157  1.0957 -0.9325
  392TMC3    H2 5863   2.412   1.439  10.462  3.0812 -0.5051 -0.3381
  392TMC3    C7 5864   2.513   1.415  10.705 -0.4964 -0.5297  0.1925
  392TMC3    C8 5865   2.292   1.237  10.312 -0.0829  0.2363  0.2734
  392TMC3    O1 5866   2.497   1.429  10.825 -0.0444  0.4529  0.1322
  392TMC3    O2 5867   2.190   1.173  10.282  0.4951 -0.0939  0.4222
  393TMC3    C1 5868   1.301   3.737  10.377 -0.6655 -0.1647 -0.0396
  393TMC3    C2 5869   1.180   3.720  10.449  0.1030  0.2737 -0.1208
  393TMC3    C3 5870   1.183   3.621  10.549  0.4904  0.2725 -0.6536
  393TMC3    C4 5871   1.420   3.668  10.407  0.2172 -0.2024 -0.6932
  393TMC3    C5 5872   1.411   3.575  10.511 -1.0287 -0.8691  0.1474
  393TMC3    C6 5873   1.300   3.542  10.581  0.3422 -0.3751  0.6336
  393TMC3     C 5874   1.307   3.840  10.280 -0.8536 -0.6363  0.5404
  393TMC3     O 5875   1.206   3.902  10.251  0.0662 -0.2060  0.0647
  393TMC3     H 5876   1.088   3.771  10.423 -1.1655 -0.8037  2.2095
  393TMC3    H1 5877   1.503   3.660  10.337  1.1140  1.6850  0.1647
  393TMC3    H2 5878   1.303   3.469  10.660  3.5195  0.9785  1.7656
  393TMC3    C7 5879   1.504   3.463  10.504 -0.0013  0.4680  0.8750
  393TMC3    C8 5880   1.066   3.619  10.632 -0.6173 -0.6809 -0.3319
  393TMC3    O1 5881   1.455   3.357  10.541 -1.3953 -0.2447  0.1219
  393TMC3    O2 5882   0.978   3.705  10.611 -1.0147  0.5720 -0.3272
  394TMC3    C1 5883   3.258   4.082  10.984  0.0582 -0.3354  0.1588
  394TMC3    C2 5884   3.166   4.070  10.885 -0.1198 -0.4113  0.1026
  394TMC3    C3 5885   3.179   4.142  10.771 -0.1772  0.1125 -0.2096
  394TMC3    C4 5886   3.372   4.164  10.962 -0.1318 -0.0056 -0.3464
  394TMC3    C5 5887   3.376   4.231  10.841 -0.2437  0.1251  0.1543
  394TMC3    C6 5888   3.279   4.228  10.744 -0.9082  0.0981  0.1992
  394TMC3     C 5889   3.216   4.034  11.112  0.0958  0.4578 -0.1045
  394TMC3     O 5890   3.125   3.953  11.105 -0.5464  0.1291 -0.3149
  394TMC3     H 5891   3.088   3.994  10.891  0.4657 -1.0651 -0.5885
  394TMC3    H1 5892   3.451   4.175  11.036 -0.2760  1.1225 -0.3518
  394TMC3    H2 5893   3.293   4.277  10.648  1.9439 -0.3255  0.3940
  394TMC3    C7 5894   3.511   4.224  10.784  0.0603 -0.0237  0.0638
  394TMC3    C8 5895   3.120   4.086  10.648  0.0014  0.6716 -0.3330
  394TMC3    O1 5896   3.610   4.285  10.824  0.0635 -0.5163  0.2065
  394TMC3    O2 5897   3.197   4.077  10.558  0.0258 -0.3406  0.0180
  395TMC3    C1 5898   2.784   1.240  14.181 -0.4540 -0.2173  0.4288
  395TMC3    C2 5899   2.724   1.335  14.101  1.5351  0.5732 -0.0312
  395TMC3    C3 5900   2.789   1.455  14.084  0.3375 -0.4884  0.3310
  395TMC3    C4 5901   2.905   1.266  14.236  0.8417 -0.3211  0.3177
  395TMC3    C5 5902   2.970   1.381  14.207  0.1619  0.0822  0.1791
  395TMC3    C6 5903   2.916   1.480  14.137 -0.7613  0.1360 -0.2724
  395TMC3     C 5904   2.687   1.184  14.269 -0.3999  0.0081 -0.3890
  395TMC3     O 5905   2.583   1.245  14.283 -0.3362  0.2222  0.5836
  395TMC3     H 5906   2.625   1.315  14.061  1.6805  1.5897 -0.8807
  395TMC3    H1 5907   2.962   1.198  14.299 -1.6194 -1.2889  1.4788
  395TMC3    H2 5908   2.951   1.582  14.125 -0.9068  0.0905 -1.1201
  395TMC3    C7 5909   3.077   1.415  14.299 -0.0799 -0.6642 -0.6631
  395TMC3    C8 5910   2.725   1.570  14.011 -0.4333  0.0768  0.2184
  395TMC3    O1 5911   3.144   1.319  14.336 -0.1770 -0.0295  0.7510
  395TMC3    O2 5912   2.797   1.632  13.937  0.3223 -0.0973  0.3102
  396MPD2     C 5913   2.684   2.378  17.640  0.1353  0.1498 -0.2728
  396MPD2    C1 5914   2.634   2.323  17.521 -0.0804 -0.2608  0.0407
  396MPD2    C2 5915   2.622   2.413  17.413 -0.0676 -0.1724 -0.3126
  396MPD2    C3 5916   2.668   2.544  17.420 -0.0912 -0.1888 -0.8626
  396MPD2    C4 5917   2.724   2.590  17.539  0.3491  0.8207 -0.0217
  396MPD2    C5 5918   2.719   2.510  17.650  0.2689 -0.2884  0.1103
  396MPD2     H 5919   2.585   2.373  17.319 -1.3498  0.2313  0.0343
  396MPD2    H1 5920   2.750   2.695  17.551  3.7373 -0.0926  0.4766
  396MPD2    H2 5921   2.691   2.317   0.035 -1.1676  0.5127  0.0732
  396MPD2    H3 5922   2.732   2.558   0.051 -1.4160 -0.3224  0.3604
  396MPD2     N 5923   2.676   2.625  17.301 -0.2303  0.0452  0.1810
  396MPD2    H5 5924   2.747   2.698  17.307  1.0410 -1.1176 -0.6019
  396MPD2    N1 5925   2.606   2.183  17.513  0.6598  0.5200  0.7669
  396MPD2    H7 5926   2.617   2.128  17.597 -2.1926  1.8953  2.0632
  397TMC3    C1 5927   2.546   1.968  17.420 -0.1054  0.0977 -0.2119
  397TMC3    C2 5928   2.565   1.909  17.298 -0.0488 -0.0186 -0.1128
  397TMC3    C3 5929   2.477   1.833  17.228 -0.4698  0.0127 -0.7569
  397TMC3    C4 5930   2.425   1.930  17.479 -0.5229 -0.2549 -0.4837
  397TMC3    C5 5931   2.345   1.835  17.418 -0.8025  0.1342 -0.1596
  397TMC3    C6 5932   2.362   1.795  17.291  0.6559 -0.2557  0.4197
  397TMC3     C 5933   2.554   2.112  17.401 -0.1005  0.1064  0.0893
  397TMC3     O 5934   2.506   2.151  17.297  0.0130  0.2643  0.2227
  397TMC3     H 5935   2.648   1.952  17.243  0.5844 -2.1061 -0.8037
  397TMC3    H1 5936   2.412   1.961  17.582 -1.5205 -1.0487 -0.3603
  397TMC3    H2 5937   2.286   1.727  17.252 -0.9232  1.1019  1.1178
  397TMC3    C7 5938   2.218   1.808  17.478  0.1287  0.5140 -0.1491
  397TMC3    C8 5939   2.462   1.873  17.096  0.1800 -0.3849 -0.3793
  397TMC3    O1 5940   2.119   1.799  17.405  0.1367 -0.4801  0.3631
  397TMC3    O2 5941   2.365   1.932  17.057 -0.1456 -0.1901  0.8444
  398MPD2     C 5942   0.166   3.289  17.605 -0.0947  0.0963 -0.0734
  398MPD2    C1 5943   0.248   3.197  17.661 -0.6967  0.1122  0.1541
  398MPD2    C2 5944   0.328   3.230   0.068 -0.3547 -0.9900  0.5268
  398MPD2    C3 5945   0.327   3.360   0.120 -0.3038 -0.5252  0.4330
  398MPD2    C4 5946   0.240   3.455   0.066 -0.2262  0.1985 -1.3267
  398MPD2    C5 5947   0.165   3.421  17.650 -0.2175 -0.8986 -0.2246
  398MPD2     H 5948   0.378   3.150   0.122  2.9113  1.4089  1.1186
  398MPD2    H1 5949   0.257   3.557   0.096 -1.9929  0.0393  0.1717
  398MPD2    H2 5950   0.115   3.272  17.511  3.2866  0.9062 -2.0682
  398MPD2    H3 5951   0.103   3.496  17.602 -1.3725  0.9619  4.1286
  398MPD2     N 5952   0.399   3.378   0.239  0.1381  0.8041  0.4511
  398MPD2    H5 5953   0.460   3.303   0.271 -0.1322  0.0781 -0.7430
  398MPD2    N1 5954   0.251   3.061  17.619  1.1210  0.1982  0.2597
  398MPD2    H7 5955   0.303   2.999  17.681  0.5142  0.6172  1.1855
  399TMC3    C1 5956   0.195   2.854  17.516 -0.2677 -0.5684 -0.1065
  399TMC3    C2 5957   0.325   2.806  17.546  0.1959  0.8063 -0.4666
  399TMC3    C3 5958   0.343   2.674  17.527 -0.7211 -0.2097  0.5272
  399TMC3    C4 5959   0.091   2.776  17.474  0.9501 -0.1067 -0.1998
  399TMC3    C5 5960   0.122   2.648  17.449 -0.6711  0.1307  0.3602
  399TMC3    C6 5961   0.243   2.588  17.478  0.2198  0.5930 -0.2217
  399TMC3     C 5962   0.168   2.998  17.525  0.1801  0.4491 -0.4933
  399TMC3     O 5963   0.073   3.040  17.460 -0.9199 -0.5859 -0.0076
  399TMC3     H 5964   0.405   2.878  17.557  0.1462  0.9237 -0.8614
  399TMC3    H1 5965   4.723   2.820  17.435  0.3127 -1.9544 -0.7890
  399TMC3    H2 5966   0.271   2.489  17.444 -3.7538 -0.5111 -0.3490
  399TMC3    C7 5967   0.007   2.565  17.419 -0.0239 -0.1007 -0.0139
  399TMC3    C8 5968   0.480   2.622  17.540  0.5932 -0.0199 -0.9532
  399TMC3    O1 5969   4.632   2.598  17.479  0.2302 -0.4417 -0.5254
  399TMC3    O2 5970   0.514   2.519  17.480  0.0513  0.0184  0.1133
  400TMC3    C1 5971   3.814   1.483  16.845 -0.3145  0.3683 -0.0630
  400TMC3    C2 5972   3.746   1.519  16.733 -0.2604 -0.7750  0.8666
  400TMC3    C3 5973   3.735   1.650  16.712  0.5618 -0.3024 -0.3756
  400TMC3    C4 5974   3.889   1.569  16.922  0.6340 -0.2912  0.6024
  400TMC3    C5 5975   3.899   1.694  16.882  0.6874 -0.2610 -0.4823
  400TMC3    C6 5976   3.821   1.738  16.777 -0.0542  0.1561 -0.4879
  400TMC3     C 5977   3.786   1.354  16.892 -0.3596 -0.1155 -0.0626
  400TMC3     O 5978   3.737   1.274  16.813  0.3239  0.1257  0.3669
  400TMC3     H 5979   3.699   1.443  16.671 -1.1719  1.5493 -1.2821
  400TMC3    H1 5980   3.964   1.520  16.983  1.8665  0.8292 -0.0063
  400TMC3    H2 5981   3.812   1.842  16.747  2.2988 -0.6041 -3.8225
  400TMC3    C7 5982   4.016   1.778  16.919  0.3348  0.1815  0.5731
  400TMC3    C8 5983   3.651   1.699  16.605  1.0799 -0.3674 -0.3826
  400TMC3    O1 5984   4.108   1.727  16.977  0.2161 -0.1033  0.0712
  400TMC3    O2 5985   3.657   1.817  16.587  0.8101  0.2777 -0.2857
  401MPD2     C 5986   2.173   0.481   1.497 -0.2057 -0.2777  0.2951
  401MPD2    C1 5987   2.257   0.434   1.406 -0.6790  0.1328  0.6163
  401MPD2    C2 5988   2.224   0.317   1.334  0.7043 -0.2400  0.3570
  401MPD2    C3 5989   2.110   0.246   1.358 -0.4407  0.0330 -0.4087
  401MPD2    C4 5990   2.023   0.296   1.454  0.2297  0.3153  0.5125
  401MPD2    C5 5991   2.061   0.407   1.527  0.1904 -0.2493  0.3852
  401MPD2     H 5992   2.294   0.279   1.261 -0.0674 -0.2254 -0.3835
  401MPD2    H1 5993   1.927   0.253   1.478  0.0353  2.1433  2.9633
  401MPD2    H2 5994   2.196   0.565   1.562 -1.2754 -0.8704  1.4424
  401MPD2    H3 5995   2.000   0.446   1.608  2.1125  4.9031 -0.6642
  401MPD2     N 5996   2.080   0.142   1.275  0.7335  0.2254 -0.5221
  401MPD2    H5 5997   2.130   0.133   1.187  1.5630  0.2393 -0.0457
  401MPD2    N1 5998   2.381   0.497   1.373 -0.4836 -0.0217  0.0346
  401MPD2    H7 5999   2.429   0.436   1.308  1.7519  2.0224 -0.2342
  402TMC3    C1 6000   2.007   4.660   1.206 -0.0124  0.6305  0.4193
  402TMC3    C2 6001   1.995   4.525   1.252  0.2774 -0.3357  0.5762
  402TMC3    C3 6002   2.003   4.418   1.167 -0.0194 -0.3061  0.0888
  402TMC3    C4 6003   2.021   4.687   1.077 -0.1403 -0.0936  0.0468
  402TMC3    C5 6004   2.031   4.579   0.993  0.0175  0.0372  0.0737
  402TMC3    C6 6005   2.022   4.451   1.036 -0.2769  0.0852 -0.3226
  402TMC3     C 6006   1.991   0.042   1.302  0.0964 -0.4517 -0.5300
  402TMC3     O 6007   1.939   0.008   1.409  0.4666 -0.2396  0.2398
  402TMC3     H 6008   1.973   4.508   1.357 -1.7343  3.5327  0.7799
  402TMC3    H1 6009   2.039   0.063   1.037 -1.8451 -0.0844 -0.7241
  402TMC3    H2 6010   2.036   4.370   0.965  1.2579 -0.3669  0.4806
  402TMC3    C7 6011   2.066   4.616   0.847  0.3842  0.1314 -0.3579
  402TMC3    C8 6012   2.057   4.295   1.216  0.4205  0.2652  0.0443
  402TMC3    O1 6013   2.028   0.002   0.808  0.2383 -0.1246  0.2894
  402TMC3    O2 6014   2.152   4.248   1.155  0.2942  0.0292  0.1399
  403MPD2     C 6015   0.504   3.992  13.387  0.0405 -0.3192 -0.0354
  403MPD2    C1 6016   0.534   3.869  13.428  0.2445  0.0267  0.1135
  403MPD2    C2 6017   0.642   3.851  13.508  0.4701 -0.4111  0.0447
  403MPD2    C3 6018   0.719   3.958  13.553  0.6199 -0.1712  0.6902
  403MPD2    C4 6019   0.692   4.082  13.501 -0.4373  0.1235 -0.5891
  403MPD2    C5 6020   0.585   4.099  13.416 -0.0977 -0.3950 -0.1919
  403MPD2     H 6021   0.668   3.750  13.538 -0.5940 -0.2064  1.6418
  403MPD2    H1 6022   0.746   4.172  13.530 -0.3090  0.2757 -1.3064
  403MPD2    H2 6023   0.423   4.004  13.316  0.5310  1.2190 -0.3264
  403MPD2    H3 6024   0.560   4.190  13.362 -0.0480  0.0371  0.5140
  403MPD2     N 6025   0.829   3.939  13.635  0.5203  0.4435  0.5221
  403MPD2    H5 6026   0.858   3.843  13.653 -1.5442 -0.0236  1.2451
  403MPD2    N1 6027   0.436   3.770  13.396 -0.2866  0.0251 -0.0657
  403MPD2    H7 6028   0.354   3.798  13.344 -1.9999 -1.7495  1.7079
  404TMC3    C1 6029   0.319   3.561  13.383  0.3110 -0.1603  0.5395
  404TMC3    C2 6030   0.298   3.448  13.453  0.6095  0.5630 -0.6897
  404TMC3    C3 6031   0.296   3.330  13.386  0.5486 -0.1151 -0.6476
  404TMC3    C4 6032   0.333   3.566  13.252 -0.5265  0.2469  0.0130
  404TMC3    C5 6033   0.341   3.446  13.183  0.2478 -0.1962 -0.1230
  404TMC3    C6 6034   0.325   3.323  13.249  1.0741 -0.4123 -0.0223
  404TMC3     C 6035   0.432   3.641  13.442  0.3491  0.4134 -0.1187
  404TMC3     O 6036   0.525   3.569  13.470  0.1287 -0.0914  0.0179
  404TMC3     H 6037   0.300   3.444  13.562 -1.7928  0.6974 -0.6346
  404TMC3    H1 6038   0.354   3.659  13.201  0.2708 -0.3388 -0.7167
  404TMC3    H2 6039   0.330   3.228  13.197 -1.0473  0.1481 -1.2666
  404TMC3    C7 6040   0.383   3.462  13.042  0.0110 -0.5146  0.2957
  404TMC3    C8 6041   0.299   3.202  13.461  0.0346  1.5324 -0.6294
  404TMC3    O1 6042   0.426   3.573  13.003 -0.5084  0.0860  0.4350
  404TMC3    O2 6043   0.329   3.098  13.403  0.2264 -0.0462  0.4093
  405MPD2     C 6044   0.916   4.244  14.653 -0.1754  0.1871  0.3345
  405MPD2    C1 6045   0.896   4.148  14.556  0.1479  0.4344  0.0919
  405MPD2    C2 6046   0.843   4.183  14.436  0.1170  0.0489 -0.1910
  405MPD2    C3 6047   0.780   4.307  14.418 -0.1595 -0.0653 -0.3564
  405MPD2    C4 6048   0.799   4.403  14.511 -0.1121  1.2660  0.5269
  405MPD2    C5 6049   0.862   4.364  14.629 -0.9550 -0.3057  0.5375
  405MPD2     H 6050   0.825   4.102  14.367  0.9731 -0.2578 -0.0529
  405MPD2    H1 6051   0.754   4.501  14.501 -1.3225  0.3800 -2.6666
  405MPD2    H2 6052   0.961   4.219  14.749 -0.3360  0.2041  0.4143
  405MPD2    H3 6053   0.881   4.433  14.711  2.3332 -0.5037 -0.0805
  405MPD2     N 6054   0.698   4.315  14.310  0.0868  0.1742 -0.4005
  405MPD2    H5 6055   0.708   4.228  14.259  1.3943 -0.0678  0.2714
  405MPD2    N1 6056   0.912   4.011  14.597 -0.1688 -0.1235 -0.2369
  405MPD2    H7 6057   0.909   3.991  14.696 -1.2247  1.4394  0.0498
  406TMC3    C1 6058   0.314   4.398  14.061  0.2592  0.0182  0.3195
  406TMC3    C2 6059   0.284   4.263  14.064  0.3150  0.3106 -0.4015
  406TMC3    C3 6060   0.371   4.177  14.125  0.4219 -0.0147 -0.0831
  406TMC3    C4 6061   0.425   4.445  14.127 -0.3164  0.5214 -0.0230
  406TMC3    C5 6062   0.496   4.360  14.208  0.3065 -0.0755  0.0544
  406TMC3    C6 6063   0.469   4.226  14.212 -0.3356  0.2826  0.3209
  406TMC3     C 6064   0.204   4.484  14.082  0.2337  0.0827 -0.4350
  406TMC3     O 6065   0.222   4.603  14.075  0.1811  0.4498 -0.3981
  406TMC3     H 6066   0.194   4.225  14.017  0.7268 -1.5021  0.2979
  406TMC3    H1 6067   0.437   4.552  14.139  0.2477  0.1198  3.0916
  406TMC3    H2 6068   0.510   4.152  14.280 -2.4446  1.3061  2.6983
  406TMC3    C7 6069   0.602   4.412  14.288  0.0627 -0.4865 -0.7012
  406TMC3    C8 6070   0.318   4.045  14.157  0.5226 -1.1954  0.4193
  406TMC3    O1 6071   0.580   4.521  14.342 -0.0836  0.1688 -0.2826
  406TMC3    O2 6072   0.197   4.036  14.157  0.1558  0.2031  0.4312
  407MPD2     C 6073   3.054   0.574   9.403 -0.3013 -0.7444 -0.9491
  407MPD2    C1 6074   3.191   0.597   9.399  0.2507 -0.1587 -0.0877
  407MPD2    C2 6075   3.244   0.671   9.506 -0.3302 -0.7878 -0.0310
  407MPD2    C3 6076   3.160   0.701   9.620  0.0853 -0.5461 -0.5448
  407MPD2    C4 6077   3.026   0.676   9.612 -0.9599  0.1008  0.1227
  407MPD2    C5 6078   2.974   0.610   9.505 -0.0416  0.2157 -0.0100
  407MPD2     H 6079   3.347   0.703   9.506 -0.6999  0.4138  1.7132
  407MPD2    H1 6080   2.960   0.705   9.694 -0.8498 -0.0523  0.2671
  407MPD2    H2 6081   3.007   0.526   9.318 -1.8273 -1.9317  0.5662
  407MPD2    H3 6082   2.866   0.608   9.494  0.1493  0.5234 -2.0838
  407MPD2     N 6083   3.211   0.759   9.740  0.8430 -0.3723  0.7272
  407MPD2    H5 6084   3.141   0.794   9.803 -0.6581  0.0250 -1.1517
  407MPD2    N1 6085   3.257   0.556   9.281  0.3811  0.1986  0.1084
  407MPD2    H7 6086   3.353   0.587   9.278 -0.0094  1.2424 -1.7652
  408TMC3    C1 6087   3.337   0.417   9.112 -0.3567  0.0790  0.3563
  408TMC3    C2 6088   3.433   0.514   9.082 -0.4152  0.4366 -0.7390
  408TMC3    C3 6089   3.548   0.468   9.026  0.0147  0.6957  0.4474
  408TMC3    C4 6090   3.354   0.284   9.096 -0.4549 -1.0200  1.3533
  408TMC3    C5 6091   3.473   0.247   9.036 -0.2522 -0.7642  0.0508
  408TMC3    C6 6092   3.567   0.336   9.008  0.3795  0.0012 -0.5542
  408TMC3     C 6093   3.228   0.455   9.199  0.1111 -0.0704  0.0223
  408TMC3     O 6094   3.138   0.369   9.209  0.0491 -0.4445  0.3334
  408TMC3     H 6095   3.426   0.620   9.102 -0.2751  0.0622  1.3205
  408TMC3    H1 6096   3.271   0.216   9.110  0.3662 -2.7982 -2.3867
  408TMC3    H2 6097   3.657   0.307   8.954 -1.1913 -0.9254 -2.6500
  408TMC3    C7 6098   3.533   0.122   9.085 -0.5957 -0.2246  0.3898
  408TMC3    C8 6099   3.666   0.556   8.996 -0.3633  0.4296  0.3308
  408TMC3    O1 6100   3.631   0.087   9.023  0.3691 -0.2316 -0.3926
  408TMC3    O2 6101   3.778   0.504   9.000 -0.2414  0.0661 -0.3481
  409MPD2     C 6102   2.623   1.421  16.474  0.1358  0.2833  0.1939
  409MPD2    C1 6103   2.683   1.463  16.592 -0.5429  0.1885  0.2029
  409MPD2    C2 6104   2.790   1.547  16.592  0.5566  0.4175  0.1781
  409MPD2    C3 6105   2.853   1.579  16.470  0.0179 -0.5684  0.5465
  409MPD2    C4 6106   2.797   1.533  16.346  0.4557 -0.0922  0.1378
  409MPD2    C5 6107   2.682   1.456  16.354 -0.5899 -0.1695  0.4177
  409MPD2     H 6108   2.835   1.573  16.687  1.7459 -0.6968 -0.0975
  409MPD2    H1 6109   2.849   1.559  16.255  1.9572  0.3756  1.1437
  409MPD2    H2 6110   2.539   1.353  16.467  0.2410  0.0536  1.1245
  409MPD2    H3 6111   2.637   1.419  16.262  0.4354  1.2357 -0.6528
  409MPD2     N 6112   2.976   1.651  16.461 -0.3430  0.9054 -0.1446
  409MPD2    H5 6113   3.006   1.696  16.375  0.4183  0.9854  0.1649
  409MPD2    N1 6114   2.635   1.435  16.731  0.4782  0.0189 -0.4106
  409MPD2    H7 6115   2.687   1.480  16.805  0.0198  0.8553 -0.6002
  410TMC3    C1 6116   3.167   1.772  16.546  0.7401  0.1848  0.6080
  410TMC3    C2 6117   3.265   1.782  16.643  0.0302 -0.7344 -0.9039
  410TMC3    C3 6118   3.319   1.904  16.675  0.0913 -0.1700  0.6690
  410TMC3    C4 6119   3.123   1.887  16.473 -0.1843 -0.4547 -0.6801
  410TMC3    C5 6120   3.181   2.005  16.509 -0.6467  0.1684 -0.4742
  410TMC3    C6 6121   3.286   2.013  16.606 -0.0068 -0.4296 -0.1695
  410TMC3     C 6122   3.062   1.675  16.571 -0.5486 -0.0950 -0.1664
  410TMC3     O 6123   3.066   1.609  16.677  0.0931  0.1281 -0.2534
  410TMC3     H 6124   3.281   1.695  16.706 -0.4265 -0.4567 -0.4062
  410TMC3    H1 6125   3.028   1.892  16.421  0.0339  1.6285 -0.8715
  410TMC3    H2 6126   3.312   2.110  16.647 -1.7833  0.2263 -0.5955
  410TMC3    C7 6127   3.101   2.126  16.465 -0.2910 -0.4244  0.5319
  410TMC3    C8 6128   3.402   1.920  16.797  0.9431  0.4740 -0.8374
  410TMC3    O1 6129   2.983   2.107  16.440 -0.0644 -0.0655 -0.0788
  410TMC3    O2 6130   3.447   2.027  16.836  0.0931  0.1741 -0.1651
  411MPD2     C 6131   3.394   2.505  14.385 -0.0402  0.4404 -0.5754
  411MPD2    C1 6132   3.266   2.534  14.334  0.7986 -0.3478 -0.7640
  411MPD2    C2 6133   3.169   2.431  14.319  0.4196 -0.0950 -0.2494
  411MPD2    C3 6134   3.192   2.299  14.353  0.3226  0.0418 -0.5193
  411MPD2    C4 6135   3.321   2.267  14.390 -0.5251 -0.2014 -0.5623
  411MPD2    C5 6136   3.414   2.370  14.400 -0.1033 -0.0351  0.2433
  411MPD2     H 6137   3.071   2.460  14.284  0.2302 -0.0898  0.2906
  411MPD2    H1 6138   3.351   2.163  14.394 -1.3212 -0.3754  0.7080
  411MPD2    H2 6139   3.466   2.582  14.407  0.5141 -0.2824  0.1380
  411MPD2    H3 6140   3.513   2.345  14.438 -0.1898 -1.9374 -0.7799
  411MPD2     N 6141   3.102   2.188  14.329 -0.3325  0.1858  0.0446
  411MPD2    H5 6142   3.153   2.109  14.290 -0.6333  0.1854 -0.3390
  411MPD2    N1 6143   3.232   2.667  14.295 -0.2910 -0.3474  0.6990
  411MPD2    H7 6144   3.289   2.743  14.330 -0.2723 -0.3707  0.7193
  412TMC3    C1 6145   2.909   2.109  14.224 -0.7116 -0.2116  0.5536
  412TMC3    C2 6146   2.802   2.042  14.267  0.3812 -0.5425  0.4227
  412TMC3    C3 6147   2.743   1.956  14.175 -0.2263 -0.1645  0.1581
  412TMC3    C4 6148   2.961   2.096  14.098 -0.2302  0.3102  0.2092
  412TMC3    C5 6149   2.901   2.012  14.004  0.0273  1.0204  0.0778
  412TMC3    C6 6150   2.799   1.935  14.049 -0.0006 -0.1369  0.0745
  412TMC3     C 6151   2.962   2.200  14.315 -0.0039 -0.8945 -0.3187
  412TMC3     O 6152   2.891   2.259  14.395 -0.0089  0.3611 -0.1598
  412TMC3     H 6153   2.761   2.061  14.366  0.9130  1.2099  0.3088
  412TMC3    H1 6154   3.031   2.176  14.073 -1.6164  0.4342 -3.3017
  412TMC3    H2 6155   2.748   1.861  13.989 -2.7805  0.7012  1.3887
  412TMC3    C7 6156   2.848   2.079  13.886  0.3658 -0.3278  0.1337
  412TMC3    C8 6157   2.604   1.946  14.179 -0.1967 -0.1709 -0.2778
  412TMC3    O1 6158   2.731   2.043  13.850  0.2143 -0.1673  0.1613
  412TMC3    O2 6159   2.558   1.949  14.293  0.3135 -0.0198 -0.2475
  413MPD2     C 6160   0.122   0.886  15.346 -0.1827  0.6900  0.4949
  413MPD2    C1 6161   0.021   0.866  15.262 -0.5072 -0.9724 -0.0357
  413MPD2    C2 6162   0.025   0.745  15.185  0.5326  0.6072 -0.1787
  413MPD2    C3 6163   0.119   0.645  15.200  0.4832  0.8200 -0.0844
  413MPD2    C4 6164   0.223   0.675  15.289 -0.3296 -0.5125  0.5742
  413MPD2    C5 6165   0.214   0.794  15.355 -0.2435  0.1684  0.4552
  413MPD2     H 6166   4.671   0.723  15.112 -1.9780  0.9719  2.3541
  413MPD2    H1 6167   0.304   0.604  15.298 -1.7842 -2.3126 -0.4255
  413MPD2    H2 6168   0.127   0.973  15.412  0.3307  1.8252 -1.0445
  413MPD2    H3 6169   0.295   0.824  15.421  0.8776 -1.8365 -0.0093
  413MPD2     N 6170   0.096   0.527  15.135 -0.1326  0.0757 -0.0143
  413MPD2    H5 6171   0.018   0.517  15.071  0.0652  0.7807 -0.3585
  413MPD2    N1 6172   4.639   0.962  15.269 -0.5460 -0.7037 -1.0012
  413MPD2    H7 6173   4.659   1.042  15.329  0.9279 -0.7333 -1.4541
  414TMC3    C1 6174   0.132   0.295  15.082  0.3011  0.3134  0.6728
  414TMC3    C2 6175   0.176   0.170  15.122  0.3764  0.3887 -0.1420
  414TMC3    C3 6176   0.148   0.058  15.052  0.5294 -0.0318 -0.0010
  414TMC3    C4 6177   0.057   0.318  14.970 -1.3775  0.9489 -0.5915
  414TMC3    C5 6178   0.037   0.203  14.895 -0.3765  0.5270 -0.4885
  414TMC3    C6 6179   0.074   0.078  14.935  0.1901  0.0645 -0.3807
  414TMC3     C 6180   0.171   0.411  15.159  0.2018  0.0740  0.1983
  414TMC3     O 6181   0.273   0.387  15.223 -0.0596  0.1763 -0.3871
  414TMC3     H 6182   0.238   0.165  15.211  0.9858  1.5601 -0.5107
  414TMC3    H1 6183   0.039   0.416  14.926 -2.9350  0.3334 -1.3268
  414TMC3    H2 6184   0.045   4.715  14.875 -2.4156  0.7699 -0.1329
  414TMC3    C7 6185   4.668   0.225  14.780  0.2074  0.3414  0.2067
  414TMC3    C8 6186   0.258   4.688  15.031 -0.0423  0.7441 -0.2983
  414TMC3    O1 6187   4.560   0.287  14.797  0.2178 -0.1742 -0.0239
  414TMC3    O2 6188   0.232   4.582  14.980  0.2200 -0.5660 -0.2851
  415TMC3    C1 6189   0.492   3.309   9.885 -0.1399 -0.7403 -0.1291
  415TMC3    C2 6190   0.466   3.411   9.798 -0.3449  0.1966  0.3503
  415TMC3    C3 6191   0.364   3.383   9.708  0.3267  0.2924 -0.8120
  415TMC3    C4 6192   0.429   3.185   9.886 -0.6065 -0.1713  0.4566
  415TMC3    C5 6193   0.331   3.161   9.787  0.7109  1.0460  0.1948
  415TMC3    C6 6194   0.299   3.261   9.703  0.4103 -0.2884 -0.5320
  415TMC3     C 6195   0.548   3.339  10.010  0.3597 -0.3680 -0.5270
  415TMC3     O 6196   0.506   3.279  10.109  0.0645  0.3528 -0.0839
  415TMC3     H 6197   0.478   3.514   9.828  1.5253 -0.3847  1.5970
  415TMC3    H1 6198   0.463   3.101   9.946  0.3989 -0.3298 -0.3346
  415TMC3    H2 6199   0.223   3.246   9.627 -0.3340 -0.5295  0.2540
  415TMC3    C7 6200   0.259   3.033   9.772  0.5356 -0.2417 -0.5550
  415TMC3    C8 6201   0.356   3.471   9.599  0.3057  0.1683 -0.1875
  415TMC3    O1 6202   0.237   2.999   9.655  0.2469 -0.1928  0.2236
  415TMC3    O2 6203   0.253   3.474   9.530  0.1649 -0.2189  0.3174
  416MPD2     C 6204   1.392   2.066  11.850 -0.5448 -0.1030 -0.0092
  416MPD2    C1 6205   1.460   2.116  11.744 -0.2364 -0.4923 -0.3692
  416MPD2    C2 6206   1.571   2.049  11.691 -0.2648  0.4117  0.2558
  416MPD2    C3 6207   1.611   1.940  11.758  0.1538  0.8237 -0.3082
  416MPD2    C4 6208   1.546   1.890  11.867 -0.0660 -0.3327 -0.1804
  416MPD2    C5 6209   1.446   1.962  11.923 -0.6546  0.3318  0.7838
  416MPD2     H 6210   1.625   2.074  11.601  0.3145 -0.2689  0.4168
  416MPD2    H1 6211   1.592   1.822  11.938  1.0780  0.0861 -0.5196
  416MPD2    H2 6212   1.318   2.131  11.895  1.1984  0.8739  1.4292
  416MPD2    H3 6213   1.408   1.932  12.020 -2.7625  1.4329  0.3099
  416MPD2     N 6214   1.714   1.852  11.706 -0.3737  0.0286 -0.2784
  416MPD2    H5 6215   1.731   1.767  11.759 -0.1617  0.7849  0.8529
  416MPD2    N1 6216   1.424   2.242  11.693  0.8469  0.6172  0.4603
  416MPD2    H7 6217   1.362   2.297  11.751 -1.8159  0.6306 -2.3821
  417TMC3    C1 6218   1.424   2.427  11.553 -0.3236  0.1964 -0.2907
  417TMC3    C2 6219   1.410   2.509  11.660 -0.4482  0.1075  0.6275
  417TMC3    C3 6220   1.405   2.643  11.635  0.3994 -0.5149 -0.6122
  417TMC3    C4 6221   1.456   2.479  11.433 -0.1958 -0.0562  0.1607
  417TMC3    C5 6222   1.451   2.614  11.407  0.5145  0.5042 -0.2548
  417TMC3    C6 6223   1.425   2.699  11.513 -0.3451 -0.2208  0.0793
  417TMC3     C 6224   1.457   2.283  11.568 -0.4037  0.8377  0.3392
  417TMC3     O 6225   1.493   2.223  11.466 -0.4887 -0.5959  0.4721
  417TMC3     H 6226   1.418   2.473  11.762 -2.3903 -0.0520  0.7091
  417TMC3    H1 6227   1.502   2.413  11.362 -2.8142 -0.1789 -1.4353
  417TMC3    H2 6228   1.432   2.806  11.496 -1.8326 -0.2908 -0.9615
  417TMC3    C7 6229   1.509   2.677  11.284 -0.4496 -0.4245  0.2428
  417TMC3    C8 6230   1.403   2.737  11.745  0.7346 -0.4758 -0.5524
  417TMC3    O1 6231   1.515   2.801  11.281 -0.1800 -0.3114 -0.5483
  417TMC3    O2 6232   1.470   2.839  11.735 -0.0542  0.7580  1.0165
  418TMC3    C1 6233   0.727   3.563   0.464 -0.1561  0.2418  0.0822
  418TMC3    C2 6234   0.600   3.584   0.402 -0.0357  0.0353  0.5937
  418TMC3    C3 6235   0.506   3.486   0.411 -0.4419 -0.3018  0.1141
  418TMC3    C4 6236   0.749   3.442   0.534 -0.6022  0.7664 -0.3541
  418TMC3    C5 6237   0.651   3.344   0.540  0.2387  0.1341 -0.2484
  418TMC3    C6 6238   0.530   3.365   0.469 -0.5259  0.3221 -0.8496
  418TMC3     C 6239   0.840   3.591   0.376 -0.6768 -0.0658 -0.7018
  418TMC3     O 6240   0.819   3.689   0.308 -0.1050  0.1152 -0.1297
  418TMC3     H 6241   0.590   3.662   0.328 -0.9508  0.2823  0.9729
  418TMC3    H1 6242   0.844   3.426   0.584  0.5364  0.2115 -2.6994
  418TMC3    H2 6243   0.458   3.284   0.475 -1.8439  1.6859  1.8540
  418TMC3    C7 6244   0.683   3.206   0.574 -0.1534  0.1390  0.4552
  418TMC3    C8 6245   0.400   3.493   0.311  0.2254 -0.0179 -0.3617
  418TMC3    O1 6246   0.633   3.123   0.498  0.0258 -0.2711  0.2276
  418TMC3    O2 6247   0.359   3.603   0.275 -0.1431  0.2353  0.1584
  419MPD2     C 6248   4.505   2.053  12.713  0.8546 -0.0661 -0.2986
  419MPD2    C1 6249   4.389   2.129  12.692  0.2356 -0.2499 -0.7591
  419MPD2    C2 6250   4.348   2.225  12.780 -0.2424  1.1512 -0.4059
  419MPD2    C3 6251   4.410   2.237  12.904  0.0358  0.5943  0.2388
  419MPD2    C4 6252   4.513   2.155  12.935  0.3155 -0.1070  0.6300
  419MPD2    C5 6253   4.564   2.068  12.838 -0.1856  0.7003  0.1886
  419MPD2     H 6254   4.265   2.288  12.749 -0.0023  2.7216  2.1376
  419MPD2    H1 6255   4.569   2.154  13.028 -1.8572  0.5867  1.9415
  419MPD2    H2 6256   4.550   1.985  12.642  2.5004  0.9327 -0.2198
  419MPD2    H3 6257   4.661   2.026  12.862 -0.4729 -0.9082 -1.4465
  419MPD2     N 6258   4.354   2.336  12.996  0.2866  0.0334 -0.9757
  419MPD2    H5 6259   4.272   2.384  12.960  1.4912  1.8108 -1.3022
  419MPD2    N1 6260   4.317   2.105  12.581  0.1348  0.1563 -0.7826
  419MPD2    H7 6261   4.235   2.164  12.571 -1.0781 -1.1091  1.7656
  420TMC3    C1 6262   4.312   2.459  13.187 -0.4255  0.1945 -0.4749
  420TMC3    C2 6263   4.219   2.524  13.116 -0.1910 -0.3061 -0.2470
  420TMC3    C3 6264   4.103   2.554  13.185 -0.7076  0.1803 -0.7874
  420TMC3    C4 6265   4.311   2.440  13.323 -0.0098 -0.0663  0.3072
  420TMC3    C5 6266   4.196   2.471  13.385 -0.1341 -0.2583 -0.6359
  420TMC3    C6 6267   4.083   2.524  13.320 -0.5938 -0.5204  0.2313
  420TMC3     C 6268   4.390   2.354  13.125  0.4922 -0.2598 -0.0309
  420TMC3     O 6269   4.477   2.295  13.187 -0.3681  0.5050  0.2473
  420TMC3     H 6270   4.225   2.543  13.010  0.1590  0.8763 -0.0179
  420TMC3    H1 6271   4.391   2.383  13.368 -0.0317 -1.4926 -1.4841
  420TMC3    H2 6272   3.986   2.545  13.362 -0.2334 -2.7849  2.1987
  420TMC3    C7 6273   4.186   2.419  13.518  0.4867  0.1402 -0.1511
  420TMC3    C8 6274   4.003   2.627  13.103  0.4709  0.1383  0.3968
  420TMC3    O1 6275   4.284   2.371  13.574  0.2712  0.8595 -0.0933
  420TMC3    O2 6276   4.028   2.700  13.003 -0.1155  0.5341  0.0750
  421TMC3    C1 6277   1.040   3.988  13.741 -0.3200  0.5285 -0.2454
  421TMC3    C2 6278   1.093   4.065  13.844  0.7553 -0.3150 -0.5231
  421TMC3    C3 6279   1.226   4.041  13.875 -0.2616 -0.5820 -0.2837
  421TMC3    C4 6280   1.108   3.894  13.666  0.0914  0.3202 -0.6253
  421TMC3    C5 6281   1.242   3.878  13.703 -0.1544  0.2866  0.0868
  421TMC3    C6 6282   1.302   3.945  13.806 -0.4081 -0.1507 -0.4531
  421TMC3     C 6283   0.911   4.036  13.691  0.4764  0.5474  0.9788
  421TMC3     O 6284   0.889   4.155  13.721 -0.0069  0.1670 -0.5078
  421TMC3     H 6285   1.031   4.133  13.901  1.4384 -0.7162  0.7075
  421TMC3    H1 6286   1.068   3.870  13.568 -2.8220 -0.8571  0.8807
  421TMC3    H2 6287   1.401   3.919  13.842 -0.6645  0.0481  0.3914
  421TMC3    C7 6288   1.325   3.781  13.635 -0.3232  0.3425 -0.2646
  421TMC3    C8 6289   1.294   4.100  13.983  0.0438 -0.1210 -0.2864
  421TMC3    O1 6290   1.447   3.795  13.640 -0.7219  0.3838 -0.0663
  421TMC3    O2 6291   1.417   4.105  13.973 -0.0786  0.2341  0.2948
  422TMC3    C1 6292   3.307   0.300  12.669  0.0194  0.9428  0.3255
  422TMC3    C2 6293   3.261   0.427  12.662  0.0345  0.8871 -0.1448
  422TMC3    C3 6294   3.137   0.457  12.717  0.3133  0.9509  0.1083
  422TMC3    C4 6295   3.232   0.197  12.711  0.1465 -0.7006 -0.0787
  422TMC3    C5 6296   3.116   0.224  12.778 -1.2677  0.4357 -0.0376
  422TMC3    C6 6297   3.064   0.351  12.773  0.1424 -0.7068  0.1171
  422TMC3     C 6298   3.413   0.268  12.567 -1.1938 -0.3288 -0.2251
  422TMC3     O 6299   3.444   0.350  12.484  0.7568  0.0158  0.4103
  422TMC3     H 6300   3.324   0.506  12.621 -0.0040  0.6810 -0.5969
  422TMC3    H1 6301   3.278   0.099  12.713 -0.6696 -1.1100 -1.4588
  422TMC3    H2 6302   2.996   0.366  12.856 -0.6326 -2.0087 -0.2886
  422TMC3    C7 6303   3.034   0.108  12.788  0.5527 -0.7186  0.4061
  422TMC3    C8 6304   3.116   0.592  12.761 -0.8098  0.4217  0.2415
  422TMC3    O1 6305   3.086   0.002  12.765 -0.3178 -0.2592  0.3395
  422TMC3    O2 6306   3.184   0.670  12.702  0.1959 -0.0384 -0.1452
  423MPD2     C 6307   3.940   1.510   0.189 -0.2349  0.7078  0.5411
  423MPD2    C1 6308   3.980   1.400   0.265  0.0024 -0.0740 -0.0828
  423MPD2    C2 6309   4.077   1.312   0.224 -0.9268 -0.4749 -0.1225
  423MPD2    C3 6310   4.135   1.334   0.106  0.2061 -0.5226  0.0127
  423MPD2    C4 6311   4.100   1.441   0.030 -0.1347 -0.4421  0.7943
  423MPD2    C5 6312   4.002   1.528   0.069 -0.0737 -0.1238 -0.4537
  423MPD2     H 6313   4.090   1.222   0.282  0.4848  0.0293  0.3385
  423MPD2    H1 6314   4.152   1.449  17.629  0.1901  0.8791  1.0752
  423MPD2    H2 6315   3.856   1.573   0.214  0.2268  1.5636 -0.0319
  423MPD2    H3 6316   3.978   1.598  17.685 -1.4282  1.7683  1.6950
  423MPD2     N 6317   4.205   1.228   0.040 -0.0552 -0.0854 -0.8539
  423MPD2    H5 6318   4.246   1.256  17.647  1.0677 -1.8248 -0.8892
  423MPD2    N1 6319   3.924   1.368   0.389 -0.2356  0.6461  0.0405
  423MPD2    H7 6320   3.972   1.296   0.442 -1.8216 -1.8927 -2.0118
  424TMC3    C1 6321   3.783   1.370   0.569  0.5984  0.5616 -1.0187
  424TMC3    C2 6322   3.879   1.299   0.642  0.2167 -0.0036 -0.3843
  424TMC3    C3 6323   3.853   1.288   0.775 -0.3882 -0.4751 -0.3740
  424TMC3    C4 6324   3.678   1.434   0.630 -0.3913 -0.6536  0.8963
  424TMC3    C5 6325   3.659   1.419   0.765 -0.6174  0.8230  0.2547
  424TMC3    C6 6326   3.750   1.348   0.838 -0.1562 -0.6676  0.7363
  424TMC3     C 6327   3.819   1.430   0.442  0.9492  0.8619  0.3582
  424TMC3     O 6328   3.737   1.502   0.387  0.0732 -0.3580 -0.1187
  424TMC3     H 6329   3.965   1.247   0.601 -0.7363 -2.1855  0.3503
  424TMC3    H1 6330   3.605   1.483   0.567  4.1517  2.6008 -1.8337
  424TMC3    H2 6331   3.756   1.363   0.945 -0.6137 -0.6634  0.7632
  424TMC3    C7 6332   3.543   1.487   0.823 -0.2420  0.3152 -0.7535
  424TMC3    C8 6333   3.930   1.197   0.849 -0.3301  0.5448 -0.3125
  424TMC3    O1 6334   3.487   1.571   0.749  0.0970  0.1738  0.5804
  424TMC3    O2 6335   3.873   1.144   0.942  0.6049 -0.7997 -0.1357
  425MPD2     C 6336   3.466   0.166  17.000 -0.5320 -0.2291 -0.3003
  425MPD2    C1 6337   3.386   0.064  17.046  0.5408 -0.3676 -0.6332
  425MPD2    C2 6338   3.262   0.099  17.100  0.2326 -0.0124 -0.4397
  425MPD2    C3 6339   3.227   0.235  17.129 -0.1209  0.1081 -0.0019
  425MPD2    C4 6340   3.315   0.329  17.095 -0.8440 -0.6717 -0.7987
  425MPD2    C5 6341   3.425   0.299  17.018 -0.1539  0.2986 -0.1385
  425MPD2     H 6342   3.186   0.029  17.134 -0.1542  0.8183  0.4308
  425MPD2    H1 6343   3.293   0.435  17.103  0.2953 -0.4853  0.0134
  425MPD2    H2 6344   3.558   0.150  16.944  0.6480 -0.6506  1.7622
  425MPD2    H3 6345   3.476   0.386  16.979  0.6937 -0.3202 -0.4098
  425MPD2     N 6346   3.105   0.261  17.196  0.0062  0.6739 -0.9624
  425MPD2    H5 6347   3.043   0.181  17.206 -2.8170  3.1613  1.4610
  425MPD2    N1 6348   3.427   4.658  17.028  0.4509  0.4036 -0.8563
  425MPD2    H7 6349   3.523   4.650  16.997  0.2612 -1.1997 -1.0507
  426TMC3    C1 6350   3.431   4.424  17.039  0.2487  0.3128  0.1548
  426TMC3    C2 6351   3.511   4.401  16.930 -0.3876 -0.3480 -0.5059
  426TMC3    C3 6352   3.582   4.281  16.934  0.0307  0.4396 -1.0612
  426TMC3    C4 6353   3.395   4.328  17.132 -0.8209 -0.5519 -0.5563
  426TMC3    C5 6354   3.477   4.219  17.141 -0.0946 -0.4050  0.9097
  426TMC3    C6 6355   3.556   4.191  17.033 -0.3821  0.2095  0.9152
  426TMC3     C 6356   3.361   4.546  17.066  0.1710  0.5561 -0.1195
  426TMC3     O 6357   3.268   4.539  17.142 -0.1597  0.3748  0.0111
  426TMC3     H 6358   3.524   4.470  16.848 -0.1460  2.2204  1.6935
  426TMC3    H1 6359   3.326   4.354  17.212  0.5311  1.7385 -0.1319
  426TMC3    H2 6360   3.620   4.103  17.036 -1.1942 -0.4375 -1.4835
  426TMC3    C7 6361   3.429   4.111  17.229  0.0050 -0.1916 -0.0020
  426TMC3    C8 6362   3.616   4.223  16.812 -0.7433 -0.6457  0.1541
  426TMC3    O1 6363   3.474   3.999  17.206  0.3535 -0.4916 -0.5676
  426TMC3    O2 6364   3.573   4.110  16.783  0.1410 -0.0591  0.0237
  427MPD2     C 6365   2.278   2.615  14.360  0.9219 -0.1872  0.2503
  427MPD2    C1 6366   2.232   2.490  14.400 -0.1324  0.7091  0.0226
  427MPD2    C2 6367   2.097   2.475  14.410 -0.5013  0.7129  0.4282
  427MPD2    C3 6368   2.009   2.584  14.385 -1.2214 -0.1264 -0.0084
  427MPD2    C4 6369   2.063   2.708  14.363 -0.0704 -0.0255 -0.1027
  427MPD2    C5 6370   2.195   2.725  14.350  0.5119 -0.1650 -0.2736
  427MPD2     H 6371   2.058   2.378  14.437  1.8292  0.1942  1.9900
  427MPD2    H1 6372   1.993   2.790  14.357  0.4338  0.4710  0.8547
  427MPD2    H2 6373   2.380   2.652  14.348 -0.0488  2.2316 -0.7163
  427MPD2    H3 6374   2.236   2.824  14.336  1.2230 -0.7855 -2.6928
  427MPD2     N 6375   1.867   2.574  14.389  0.6290  0.3990 -0.7922
  427MPD2    H5 6376   1.816   2.661  14.388  0.1918  0.1528 -0.1073
  427MPD2    N1 6377   2.319   2.383  14.440 -0.2432 -0.5679  0.3457
  427MPD2    H7 6378   2.277   2.308  14.493 -1.8429  1.1759  1.5408
  428TMC3    C1 6379   2.525   2.278  14.497 -0.0529 -0.4908  0.7955
  428TMC3    C2 6380   2.457   2.169  14.550  0.0095 -0.8395 -0.2739
  428TMC3    C3 6381   2.505   2.110  14.661  0.1172 -0.2031 -1.5781
  428TMC3    C4 6382   2.636   2.326  14.560  0.1504 -0.6548  0.5353
  428TMC3    C5 6383   2.683   2.265  14.672 -0.2354  0.4909  0.3542
  428TMC3    C6 6384   2.620   2.151  14.722  1.0524  0.6418 -0.4583
  428TMC3     C 6385   2.453   2.381  14.412 -1.0430  0.0336  0.1573
  428TMC3     O 6386   2.524   2.464  14.367 -0.3319  0.2041  0.2600
  428TMC3     H 6387   2.370   2.126  14.500 -0.7189 -0.6786  0.8449
  428TMC3    H1 6388   2.669   2.425  14.532 -0.6884 -1.2196 -2.3620
  428TMC3    H2 6389   2.653   2.106  14.815 -1.3204  0.0996  0.1251
  428TMC3    C7 6390   2.797   2.315  14.738  0.3211  0.1594  0.1525
  428TMC3    C8 6391   2.436   2.004  14.730  0.2903  0.3369 -0.1855
  428TMC3    O1 6392   2.814   2.266  14.847  0.0737 -0.1532 -0.1374
  428TMC3    O2 6393   2.507   1.914  14.770  0.4208  0.2388  0.4573
  429MPD2     C 6394   3.412   2.480  17.646 -0.3907  0.1429 -0.2987
  429MPD2    C1 6395   3.372   2.457  17.516  0.4733 -0.4347 -0.2604
  429MPD2    C2 6396   3.452   2.489  17.407 -0.6250 -0.9697  0.3670
  429MPD2    C3 6397   3.574   2.552  17.422 -0.5858 -0.1134 -0.3676
  429MPD2    C4 6398   3.617   2.576  17.554  0.4968 -0.1593 -0.2351
  429MPD2    C5 6399   3.535   2.537  17.658 -0.5773  0.4133 -0.4555
  429MPD2     H 6400   3.435   2.452  17.307 -0.2705 -0.0822 -0.0269
  429MPD2    H1 6401   3.711   2.619  17.585  1.4344 -2.0479 -0.4181
  429MPD2    H2 6402   3.353   2.460   0.040 -0.7897  2.7055  0.0063
  429MPD2    H3 6403   3.572   2.554   0.063  1.8904 -1.8201 -0.9949
  429MPD2     N 6404   3.641   2.591  17.305  0.3254 -0.5281 -0.3556
  429MPD2    H5 6405   3.612   2.551  17.216 -0.9706 -0.5435  0.0762
  429MPD2    N1 6406   3.245   2.414  17.472  0.2681  0.0638  0.9373
  429MPD2    H7 6407   3.235   2.414  17.371 -0.3430 -0.8543  0.9999
  430TMC3    C1 6408   3.830   2.670  17.192  0.0940  0.3817  0.0067
  430TMC3    C2 6409   3.889   2.773  17.130  0.2738  0.3162  0.0739
  430TMC3    C3 6410   3.943   2.754  17.005  0.0010 -0.2347  1.0282
  430TMC3    C4 6411   3.841   2.542  17.140 -0.3511 -0.3247 -0.1130
  430TMC3    C5 6412   3.929   2.525  17.037  0.6199 -0.4961  0.4492
  430TMC3    C6 6413   3.979   2.630  16.971 -0.3093 -0.1492  1.2000
  430TMC3     C 6414   3.744   2.683  17.306  0.0650 -0.7737  0.1556
  430TMC3     O 6415   3.770   2.763  17.393 -1.0641 -0.8593 -0.3872
  430TMC3     H 6416   3.871   2.873  17.169  0.6236  0.1037  0.7646
  430TMC3    H1 6417   3.804   2.456  17.194 -0.6594 -0.6529 -0.8457
  430TMC3    H2 6418   4.015   2.603  16.872 -1.2309  0.2772  0.7466
  430TMC3    C7 6419   3.949   2.389  16.996  0.5760  0.3933 -0.1536
  430TMC3    C8 6420   3.894   2.835  16.895  0.7104  0.0969 -0.4181
  430TMC3    O1 6421   3.870   2.313  17.039 -0.3042 -0.2617 -0.1494
  430TMC3    O2 6422   3.891   2.783  16.781 -0.2004 -0.3177  0.2870
  431MPD2     C 6423   4.121   2.827  12.383 -0.3770 -0.1039 -0.1705
  431MPD2    C1 6424   4.253   2.768  12.396  0.0944  0.1678  0.0203
  431MPD2    C2 6425   4.258   2.637  12.356  0.8232 -0.1597  0.1778
  431MPD2    C3 6426   4.142   2.557  12.325  0.3685 -0.1853 -0.0562
  431MPD2    C4 6427   4.023   2.613  12.351 -0.1189  0.5520 -0.2259
  431MPD2    C5 6428   4.006   2.753  12.373 -0.3128  0.3002 -0.3701
  431MPD2     H 6429   4.355   2.595  12.331  1.3865  1.7132 -0.7722
  431MPD2    H1 6430   3.930   2.559  12.336 -0.9145  1.8357  0.1402
  431MPD2    H2 6431   4.111   2.933  12.403  3.7904  0.3250 -0.3281
  431MPD2    H3 6432   3.914   2.808  12.382  0.8936  2.1794  0.4105
  431MPD2     N 6433   4.145   2.428  12.278  0.2819 -0.5608 -0.4679
  431MPD2    H5 6434   4.058   2.377  12.294 -0.5355  0.9065 -0.2288
  431MPD2    N1 6435   4.363   2.853  12.428  0.3643 -0.4051 -0.1443
  431MPD2    H7 6436   4.352   2.954  12.437  2.7766 -0.1996  0.4762
  432TMC3    C1 6437   4.241   2.229  12.211  0.1559 -0.3417 -0.1412
  432TMC3    C2 6438   4.311   2.169  12.117 -0.1601 -0.0374 -0.1006
  432TMC3    C3 6439   4.347   2.036  12.139 -0.2500  0.0885  0.2423
  432TMC3    C4 6440   4.227   2.176  12.334  0.9230  0.4988  0.1584
  432TMC3    C5 6441   4.268   2.048  12.357 -0.0205 -0.5192 -0.3396
  432TMC3    C6 6442   4.315   1.973  12.254 -0.1638  0.0499  0.6238
  432TMC3     C 6443   4.251   2.376  12.211 -0.3983 -0.5078  0.3534
  432TMC3     O 6444   4.354   2.428  12.166 -0.4366  0.3014 -0.4014
  432TMC3     H 6445   4.316   2.219  12.020  1.7915 -0.9761 -0.4772
  432TMC3    H1 6446   4.184   2.233  12.416 -1.2285  1.6195 -1.7437
  432TMC3    H2 6447   4.340   1.868  12.265  1.0414  0.2605 -0.1483
  432TMC3    C7 6448   4.353   2.027  12.471 -0.3077 -0.1613  0.3888
  432TMC3    C8 6449   4.386   1.949  12.026  0.4500 -0.2641  0.8254
  432TMC3    O1 6450   4.448   1.949  12.459 -0.1016 -0.0134 -0.2938
  432TMC3    O2 6451   4.323   1.848  12.025  0.1890  0.3629 -0.0805
  433MPD2     C 6452   2.940   1.234  10.807 -0.3650 -0.2873 -0.2047
  433MPD2    C1 6453   3.030   1.149  10.874  0.3068  0.4036 -0.0328
  433MPD2    C2 6454   3.059   1.173  11.008 -0.7176  1.1896  0.0968
  433MPD2    C3 6455   2.993   1.268  11.084 -0.6542 -0.1405 -0.5652
  433MPD2    C4 6456   2.884   1.332  11.018  0.0969  0.3515  0.4506
  433MPD2    C5 6457   2.865   1.320  10.889 -1.0412  0.1067 -0.3294
  433MPD2     H 6458   3.137   1.120  11.062 -1.7140  0.0589  0.4207
  433MPD2    H1 6459   2.818   1.401  11.069 -0.2549  0.0474  0.4123
  433MPD2    H2 6460   2.915   1.216  10.703 -1.3229  0.6844 -0.1478
  433MPD2    H3 6461   2.781   1.370  10.843  0.1902  0.4260 -2.2364
  433MPD2     N 6462   3.020   1.284  11.218  0.5313  0.1845 -0.2232
  433MPD2    H5 6463   3.104   1.241  11.255 -0.3757 -0.6794  0.8575
  433MPD2    N1 6464   3.086   1.035  10.801  0.3652 -0.1783  0.2861
  433MPD2    H7 6465   3.075   1.022  10.700 -1.1053  1.1026  0.2945
  434TMC3    C1 6466   3.214   0.830  10.778  0.2631 -0.0880 -0.1671
  434TMC3    C2 6467   3.257   0.713  10.839 -0.6851  0.2780  0.1018
  434TMC3    C3 6468   3.335   0.628  10.766  0.2889 -0.3053  0.1612
  434TMC3    C4 6469   3.220   0.849  10.646 -0.4287 -0.0432 -0.3722
  434TMC3    C5 6470   3.292   0.759  10.573  0.9936 -0.4292 -0.5804
  434TMC3    C6 6471   3.352   0.645  10.629 -0.1053 -0.1986 -0.1341
  434TMC3     C 6472   3.149   0.930  10.865  0.6025  0.1133 -0.3625
  434TMC3     O 6473   3.165   0.908  10.987  0.1348 -0.1053 -0.1106
  434TMC3     H 6474   3.239   0.692  10.944  0.8946 -1.0153  0.1024
  434TMC3    H1 6475   3.171   0.932  10.598  0.4814 -0.2198 -1.6012
  434TMC3    H2 6476   3.404   0.563  10.580 -1.2537 -0.2019 -1.3282
  434TMC3    C7 6477   3.285   0.772  10.429  0.0358  1.1664 -0.5455
  434TMC3    C8 6478   3.430   0.556  10.853 -0.2117 -0.4110  0.1197
  434TMC3    O1 6479   3.234   0.863  10.365  0.5494  0.7324 -0.0941
  434TMC3    O2 6480   3.407   0.538  10.969 -0.2668  0.4019  0.2091
  435MPD2     C 6481   0.285   1.188  15.394 -1.1999  0.2030 -0.6648
  435MPD2    C1 6482   0.261   1.189  15.529 -0.6961  0.2051  0.6877
  435MPD2    C2 6483   0.347   1.125  15.622 -0.2736  0.4126  0.1319
  435MPD2    C3 6484   0.467   1.067  15.574  0.3121 -0.3782  0.8057
  435MPD2    C4 6485   0.498   1.081  15.441 -0.2132  0.3500 -1.1293
  435MPD2    C5 6486   0.407   1.134  15.354 -0.5952 -0.4015  0.5100
  435MPD2     H 6487   0.320   1.117  15.727  0.3117  1.2394  0.3548
  435MPD2    H1 6488   0.588   1.045  15.392  1.2563 -0.3400  2.0996
  435MPD2    H2 6489   0.220   1.232  15.320 -3.0361  0.7933  1.3217
  435MPD2    H3 6490   0.431   1.148  15.250  0.8262 -0.0451  0.8887
  435MPD2     N 6491   0.547   0.992  15.669 -0.1301 -0.3581  0.2715
  435MPD2    H5 6492   0.498   0.982  15.758 -1.5608  1.1721 -0.3375
  435MPD2    N1 6493   0.142   1.246  15.587 -0.2030 -0.2709  0.1169
  435MPD2    H7 6494   0.153   1.276  15.683 -1.0610  0.6886 -0.0829
  436TMC3    C1 6495   4.539   1.296  15.824  0.3461 -0.1579  0.2480
  436TMC3    C2 6496   4.645   1.264  15.740 -0.3036  0.6164  0.9038
  436TMC3    C3 6497   4.634   1.286  15.606 -0.6895  0.3165  0.4012
  436TMC3    C4 6498   4.420   1.328  15.769 -0.3663 -0.3321 -0.0273
  436TMC3    C5 6499   4.412   1.317  15.631 -0.0936  0.5542  0.0226
  436TMC3    C6 6500   4.516   1.302  15.547 -0.3665 -0.0481  0.3785
  436TMC3     C 6501   4.579   1.368  15.952  0.3348  0.4438 -0.4067
  436TMC3     O 6502   4.693   1.401  15.957  0.5116 -0.3456  0.0820
  436TMC3     H 6503   0.015   1.236  15.786 -0.2196  1.4470  1.2411
  436TMC3    H1 6504   4.344   1.366  15.837  1.3082  1.6731  0.7200
  436TMC3    H2 6505   4.510   1.311  15.439  0.1768  1.0926  0.4456
  436TMC3    C7 6506   4.287   1.364  15.569  0.4521  0.3089 -0.4267
  436TMC3    C8 6507   0.022   1.254  15.520 -0.4552  0.7336  0.4772
  436TMC3    O1 6508   4.286   1.382  15.448  0.7257 -0.2277 -0.2970
  436TMC3    O2 6509   4.715   1.227  15.404  0.1383  0.0173  0.7250
  437TMC3    C1 6510   3.738   3.491  12.358  0.1435  0.0400 -0.0155
  437TMC3    C2 6511   3.619   3.546  12.390 -0.4747 -0.1631  0.0004
  437TMC3    C3 6512   3.598   3.675  12.352 -0.3796  0.4181  0.2284
  437TMC3    C4 6513   3.829   3.568  12.290 -0.4296  0.0099 -0.3501
  437TMC3    C5 6514   3.805   3.700  12.267 -0.5126  0.2578  0.1952
  437TMC3    C6 6515   3.686   3.755  12.293 -0.1890 -0.1577  0.1561
  437TMC3     C 6516   3.779   3.382  12.447  0.6585 -0.5386  0.1876
  437TMC3     O 6517   3.702   3.339  12.530 -0.1198 -0.0128 -0.4053
  437TMC3     H 6518   3.537   3.496  12.440  1.2955 -1.0585  2.0026
  437TMC3    H1 6519   3.928   3.527  12.271 -0.8476 -1.3373  0.3211
  437TMC3    H2 6520   3.670   3.860  12.271 -2.5934 -0.6321 -0.3378
  437TMC3    C7 6521   3.914   3.788  12.247  0.1255 -0.3796 -0.0258
  437TMC3    C8 6522   3.481   3.736  12.411  0.2474 -0.2347  0.2608
  437TMC3    O1 6523   3.890   3.883  12.177  0.2022  0.1912  0.1022
  437TMC3    O2 6524   3.388   3.659  12.412 -0.4660  0.0987 -0.0144
  438MPD2     C 6525   1.021   3.906  16.685 -0.1413 -0.3217  0.6309
  438MPD2    C1 6526   0.999   3.781  16.736  0.5386 -0.0715  0.3224
  438MPD2    C2 6527   0.922   3.773  16.845  0.7530  0.7242 -1.0400
  438MPD2    C3 6528   0.875   3.883  16.911  0.3065 -0.4312  0.3371
  438MPD2    C4 6529   0.909   4.012  16.867 -0.5349 -0.5854  0.4566
  438MPD2    C5 6530   0.987   4.017  16.757 -0.4631  0.1780 -0.1471
  438MPD2     H 6531   0.891   3.679  16.888 -1.8662  2.0457 -0.0310
  438MPD2    H1 6532   0.878   4.102  16.920 -0.1578  1.2961 -2.5342
  438MPD2    H2 6533   1.069   3.926  16.590 -0.8658  0.4139  0.4218
  438MPD2    H3 6534   0.992   4.113  16.708 -0.2415  0.1662 -0.1493
  438MPD2     N 6535   0.804   3.854  17.029  0.3592  0.3756 -0.2646
  438MPD2    H5 6536   0.780   3.761  17.060  0.0411  0.2451 -0.9089
  438MPD2    N1 6537   1.058   3.666  16.686 -0.2524 -0.8292 -0.1654
  438MPD2    H7 6538   1.055   3.587  16.750  1.0734  1.8596  3.2251
  439TMC3    C1 6539   1.220   3.529  16.591 -0.1590 -0.0905  0.2195
  439TMC3    C2 6540   1.261   3.471  16.473 -0.0648 -0.0923 -0.3254
  439TMC3    C3 6541   1.334   3.358  16.480 -0.1457  0.5545 -0.1484
  439TMC3    C4 6542   1.247   3.477  16.715  0.1710  0.2370 -0.4211
  439TMC3    C5 6543   1.305   3.351  16.718  0.0340 -0.3422 -0.8542
  439TMC3    C6 6544   1.353   3.297  16.601  0.5893  0.3322  0.1497
  439TMC3     C 6545   1.153   3.654  16.582  0.1882  0.9023  0.0432
  439TMC3     O 6546   1.149   3.714  16.472  0.6707  0.6199 -0.1700
  439TMC3     H 6547   1.218   3.507  16.380 -2.4441  1.8950  1.5646
  439TMC3    H1 6548   1.223   3.535  16.803  1.2023 -1.2345  0.8338
  439TMC3    H2 6549   1.389   3.195  16.596 -1.9178 -0.5302 -0.1841
  439TMC3    C7 6550   1.362   3.292  16.839 -0.2222 -0.5833 -0.2809
  439TMC3    C8 6551   1.418   3.313  16.370 -0.2477 -0.2760  0.2356
  439TMC3    O1 6552   1.428   3.191  16.832  0.5340  0.0328 -0.0308
  439TMC3    O2 6553   1.463   3.200  16.382 -0.0026 -0.0262  0.0912
  440MPD2     C 6554   4.719   4.413  14.726  0.2732  1.4568 -0.1176
  440MPD2    C1 6555   0.011   4.360  14.851 -0.7134  0.5424  0.0688
  440MPD2    C2 6556   0.121   4.280  14.878  0.0435  0.5663 -0.4262
  440MPD2    C3 6557   0.212   4.241  14.780 -0.2592  0.2910 -0.4349
  440MPD2    C4 6558   0.199   4.303  14.653  0.4849 -0.5544  0.0071
  440MPD2    C5 6559   0.096   4.389  14.626 -0.0673  0.1776  0.0624
  440MPD2     H 6560   0.142   4.238  14.976 -0.2972 -2.0734 -1.4874
  440MPD2    H1 6561   0.259   4.277  14.567  1.3182 -0.4395  0.5528
  440MPD2    H2 6562   4.635   4.476  14.699 -0.4721  0.5501  0.0996
  440MPD2    H3 6563   0.080   4.437  14.531 -0.7264 -1.4399 -0.6368
  440MPD2     N 6564   0.328   4.170  14.819  0.4284 -0.3982 -0.6429
  440MPD2    H5 6565   0.347   4.166  14.919  0.8600  1.9797 -0.6151
  440MPD2    N1 6566   4.652   4.392  14.965  0.5779 -0.1350  0.3234
  440MPD2    H7 6567   4.681   4.361  15.057 -0.3720  1.6688  1.2404
  441TMC3    C1 6568   0.542   4.076  14.822  0.1005  0.3550  0.2905
  441TMC3    C2 6569   0.644   4.169  14.826  0.4313 -0.2519 -0.5219
  441TMC3    C3 6570   0.723   4.164  14.938  0.0258 -0.0232  0.1597
  441TMC3    C4 6571   0.513   3.985  14.923 -0.2840 -0.6352  0.3221
  441TMC3    C5 6572   0.603   3.980  15.025 -0.6667 -0.7997  0.0819
  441TMC3    C6 6573   0.710   4.069  15.038 -0.7388  0.0845 -0.1112
  441TMC3     C 6574   0.431   4.131  14.739 -0.0528  0.3759 -0.2562
  441TMC3     O 6575   0.466   4.164  14.626 -0.3644 -0.1910 -0.1093
  441TMC3     H 6576   0.638   4.249  14.752  0.1809  1.3430  1.2375
  441TMC3    H1 6577   0.424   3.924  14.923  1.1032 -2.6502 -0.5603
  441TMC3    H2 6578   0.777   4.072  15.123 -0.3221  1.3102 -0.4865
  441TMC3    C7 6579   0.554   3.916  15.149 -0.4843  0.6144 -0.0604
  441TMC3    C8 6580   0.768   4.288  14.994  1.0030 -0.5277  0.1238
  441TMC3    O1 6581   0.430   3.925  15.160  0.3031 -0.6336  0.4403
  441TMC3    O2 6582   0.851   4.280  15.082  0.6190 -0.1855 -0.5044
  442MPD2     C 6583   3.146   4.600  16.384 -0.4332 -0.6901  0.4330
  442MPD2    C1 6584   3.032   4.543  16.419 -0.0297  0.5501 -0.9243
  442MPD2    C2 6585   3.021   4.403  16.408  0.2712  0.0155  0.3135
  442MPD2    C3 6586   3.128   4.321  16.362  0.4187 -0.4618 -0.5435
  442MPD2    C4 6587   3.234   4.386  16.315 -0.8460  0.5446  0.3108
  442MPD2    C5 6588   3.240   4.527  16.318 -0.0685 -0.1420  0.0985
  442MPD2     H 6589   2.920   4.369  16.430 -0.9389  2.9059 -0.8345
  442MPD2    H1 6590   3.304   4.330  16.255 -1.0506  0.6412 -0.0166
  442MPD2    H2 6591   3.157   4.708  16.379  0.1197 -0.7475  0.3924
  442MPD2    H3 6592   3.323   4.584  16.280  1.3895 -1.9546  0.5606
  442MPD2     N 6593   3.119   4.182  16.338 -0.4870 -0.0063  0.8139
  442MPD2    H5 6594   3.194   4.137  16.286  0.3006  1.5470  0.5761
  442MPD2    N1 6595   2.918   4.613  16.463 -0.5431  0.0933  0.3779
  442MPD2    H7 6596   2.841   4.555  16.493 -1.9258  1.1140 -1.1344
  443TMC3    C1 6597   2.781   0.064  16.536 -0.8486 -0.0235  0.1809
  443TMC3    C2 6598   2.749   0.194  16.529  0.4710 -1.1162 -0.1433
  443TMC3    C3 6599   2.634   0.236  16.575  0.5698  0.3939 -0.9840
  443TMC3    C4 6600   2.712   4.701  16.617  0.2224  0.1068 -0.3368
  443TMC3    C5 6601   2.607   0.035  16.682  0.7389  0.6525  0.0623
  443TMC3    C6 6602   2.563   0.163  16.665 -0.0406 -0.0006  0.0226
  443TMC3     C 6603   2.897   0.028  16.468 -0.7710  0.8495 -0.3628
  443TMC3     O 6604   2.973   0.117  16.442  0.3890  0.2035 -0.5311
  443TMC3     H 6605   2.805   0.269  16.473 -0.2488 -0.3430  0.1810
  443TMC3    H1 6606   2.734   4.595  16.614 -0.0018  0.0001  1.4309
  443TMC3    H2 6607   2.465   0.195  16.699 -0.8512 -1.6167 -0.7655
  443TMC3    C7 6608   2.518   4.672  16.760 -0.3622 -0.1990  0.1683
  443TMC3    C8 6609   2.594   0.369  16.554 -0.5667  0.6718  0.4082
  443TMC3    O1 6610   2.507   4.562  16.707 -0.1337  0.0097 -0.3387
  443TMC3    O2 6611   2.555   0.422  16.659 -0.5373 -0.5156  0.1608
  444MPD2     C 6612   3.109   4.120  16.977  0.3725 -0.0117  0.1032
  444MPD2    C1 6613   3.057   4.001  17.026  0.5925 -0.2892  0.0229
  444MPD2    C2 6614   3.133   3.888  16.999 -0.1961  0.0331  1.2001
  444MPD2    C3 6615   3.250   3.885  16.917 -0.3513  0.2214 -0.0386
  444MPD2    C4 6616   3.290   4.009  16.876 -0.2859  0.2885 -0.0028
  444MPD2    C5 6617   3.225   4.124  16.901  0.4066 -0.5674 -0.1391
  444MPD2     H 6618   3.088   3.794  17.031 -1.2533  0.6319  1.4643
  444MPD2    H1 6619   3.386   4.019  16.826 -0.1692  0.8977  0.3286
  444MPD2    H2 6620   3.073   4.222  16.990 -0.7010 -0.3435 -0.2463
  444MPD2    H3 6621   3.265   4.221  16.875 -0.6537 -0.2907 -0.7382
  444MPD2     N 6622   3.300   3.764  16.862 -0.2504  0.1197 -0.4667
  444MPD2    H5 6623   3.249   3.677  16.876  0.2015  0.2176  1.8300
  444MPD2    N1 6624   2.933   3.999  17.094  0.2026 -0.2434  0.0466
  444MPD2    H7 6625   2.891   3.911  17.121 -0.9246  0.4403  0.5487
  445TMC3    C1 6626   3.409   3.631  16.717 -0.0838  0.5624  0.5848
  445TMC3    C2 6627   3.300   3.593  16.646  0.1548 -0.2465  0.5137
  445TMC3    C3 6628   3.325   3.524  16.529 -0.6182 -0.5613 -0.3037
  445TMC3    C4 6629   3.539   3.597  16.667  0.1229 -0.1974  0.1008
  445TMC3    C5 6630   3.562   3.527  16.549  0.2054 -0.2022 -1.1878
  445TMC3    C6 6631   3.452   3.488  16.477 -0.2152 -0.0845  0.4419
  445TMC3     C 6632   3.410   3.755  16.790  0.6084  0.1342  0.3201
  445TMC3     O 6633   3.513   3.817  16.805 -0.2424  0.4824  0.8068
  445TMC3     H 6634   3.207   3.647  16.662  1.0352  1.9340 -1.8029
  445TMC3    H1 6635   3.627   3.644  16.708  1.1288 -2.6448  0.7511
  445TMC3    H2 6636   3.461   3.431  16.386  0.9463 -0.6725  0.9336
  445TMC3    C7 6637   3.689   3.471  16.528 -0.4065  0.0546  0.6070
  445TMC3    C8 6638   3.203   3.481  16.465  0.3809 -0.2453 -0.3564
  445TMC3    O1 6639   3.789   3.531  16.568  0.6380  0.8228 -0.5541
  445TMC3    O2 6640   3.108   3.486  16.540 -0.4228  0.1941  0.2252
  446MPD2     C 6641   3.081   0.562  11.428 -0.1018 -0.1198 -0.1874
  446MPD2    C1 6642   3.043   0.610  11.300  0.5653  0.6591  0.5420
  446MPD2    C2 6643   3.128   0.692  11.232 -0.5170 -0.0614 -0.1569
  446MPD2    C3 6644   3.249   0.730  11.286  0.2246 -0.2116 -0.2952
  446MPD2    C4 6645   3.285   0.668  11.406  0.5192 -0.1962  0.5154
  446MPD2    C5 6646   3.199   0.586  11.474  0.6928  0.7263  0.9884
  446MPD2     H 6647   3.091   0.719  11.134 -1.4157 -0.5908  0.0359
  446MPD2    H1 6648   3.386   0.678  11.443  0.1439  1.7012  1.0134
  446MPD2    H2 6649   3.025   0.484  11.479 -0.5505  1.5976  1.9407
  446MPD2    H3 6650   3.230   0.556  11.573 -0.0282  0.6194  1.1860
  446MPD2     N 6651   3.337   0.814  11.213  0.4699  0.3585  0.2339
  446MPD2    H5 6652   3.305   0.841  11.121 -1.1482 -0.2619  0.6177
  446MPD2    N1 6653   2.914   0.569  11.248  0.5554 -0.3399  0.1846
  446MPD2    H7 6654   2.896   0.589  11.150  0.5267  1.1348  0.4857
  447TMC3    C1 6655   3.539   0.942  11.166  0.7660  0.3631  0.4381
  447TMC3    C2 6656   3.548   0.909  11.032 -0.0538 -0.3298 -0.0124
  447TMC3    C3 6657   3.668   0.930  10.967 -0.3510 -0.2632 -0.5921
  447TMC3    C4 6658   3.655   0.988  11.228 -0.1359 -0.1185 -0.7257
  447TMC3    C5 6659   3.767   1.020  11.157 -0.7784  0.0615  0.1277
  447TMC3    C6 6660   3.784   0.976  11.027  0.1586  0.1932  0.8528
  447TMC3     C 6661   3.469   0.846  11.253 -0.1949 -0.2236  0.6671
  447TMC3     O 6662   3.518   0.832  11.363  0.2650 -0.4502  0.7210
  447TMC3     H 6663   3.459   0.863  10.990 -0.8183  0.0100  1.2021
  447TMC3    H1 6664   3.644   1.008  11.334  2.2489  0.4395 -0.5824
  447TMC3    H2 6665   3.872   1.005  10.972  1.0526 -1.1336  1.5929
  447TMC3    C7 6666   3.890   1.065  11.222 -0.5499 -0.4506 -1.0872
  447TMC3    C8 6667   3.657   0.909  10.829  0.7862  0.4829  0.0465
  447TMC3    O1 6668   3.994   1.045  11.161  0.4780  0.1351  0.5294
  447TMC3    O2 6669   3.543   0.903  10.780 -0.1430 -0.0623 -0.0425
  448TMC3    C1 6670   1.577   0.453  17.017 -0.3831  0.6920 -0.0226
  448TMC3    C2 6671   1.505   0.362  16.955  0.2371  0.6110 -0.2466
  448TMC3    C3 6672   1.509   0.232  17.013  0.0216 -0.0231  0.0911
  448TMC3    C4 6673   1.646   0.433  17.132  0.4459 -0.3429 -0.6643
  448TMC3    C5 6674   1.670   0.312  17.180  0.1543  0.2097 -0.4481
  448TMC3    C6 6675   1.599   0.205  17.122 -0.3790  0.0988 -0.6229
  448TMC3     C 6676   1.573   0.580  16.970 -0.0255  0.3140  1.1062
  448TMC3     O 6677   1.470   0.616  16.914 -0.1163  0.2549  0.0503
  448TMC3     H 6678   1.466   0.370  16.854 -3.8479 -2.4832  1.0642
  448TMC3    H1 6679   1.678   0.517  17.194  1.8885 -0.4787 -1.2214
  448TMC3    H2 6680   1.614   0.103  17.155 -1.3453 -0.8418 -3.0542
  448TMC3    C7 6681   1.779   0.297  17.274  0.0697 -0.1558 -0.4791
  448TMC3    C8 6682   1.429   0.121  16.951  0.1106  0.2128  0.9302
  448TMC3    O1 6683   1.866   0.382  17.278  0.5896  0.2742  0.2889
  448TMC3    O2 6684   1.449   0.007  16.991 -0.0041 -0.1324 -0.8963
  449MPD2     C 6685   2.997   3.868  13.507  0.0122 -1.1330 -0.9045
  449MPD2    C1 6686   2.903   3.791  13.443 -0.4722  0.3203 -0.3458
  449MPD2    C2 6687   2.774   3.792  13.489 -0.6777 -0.4915 -0.5016
  449MPD2    C3 6688   2.740   3.866  13.598 -0.2680 -0.7258  0.2439
  449MPD2    C4 6689   2.829   3.949  13.659 -0.0368  0.2820  0.2823
  449MPD2    C5 6690   2.960   3.941  13.619 -0.2668 -0.5188  0.0374
  449MPD2     H 6691   2.701   3.720  13.454  1.0217 -1.2727 -2.4030
  449MPD2    H1 6692   2.790   4.014  13.737  1.4228  1.6083 -0.0780
  449MPD2    H2 6693   3.098   3.886  13.471  0.8882  0.5551  2.4563
  449MPD2    H3 6694   3.037   3.997  13.672  0.5940 -0.1343 -1.6135
  449MPD2     N 6695   2.607   3.855  13.640 -0.1328  0.4216 -0.3094
  449MPD2    H5 6696   2.549   3.785  13.596  0.0143 -0.6865  1.2682
  449MPD2    N1 6697   2.930   3.698  13.337  0.2798  0.0435  1.0642
  449MPD2    H7 6698   2.852   3.643  13.304  0.8098  0.5340 -1.0527
  450TMC3    C1 6699   3.057   3.546  13.215 -0.2145  0.2624 -0.1495
  450TMC3    C2 6700   3.145   3.460  13.264 -0.4149  0.1173 -0.0787
  450TMC3    C3 6701   3.113   3.327  13.265  0.1424 -0.1923 -0.0868
  450TMC3    C4 6702   2.931   3.502  13.178  0.4579  0.6543 -0.0065
  450TMC3    C5 6703   2.895   3.380  13.207 -0.4568 -0.5307  0.5059
  450TMC3    C6 6704   2.990   3.285  13.241  0.2538 -0.0516 -0.1968
  450TMC3     C 6705   3.059   3.669  13.292  0.1359 -1.0343  0.5575
  450TMC3     O 6706   3.162   3.725  13.322  0.1955  0.8150 -0.2346
  450TMC3     H 6707   3.240   3.490  13.308  0.3153 -0.6120 -1.1501
  450TMC3    H1 6708   2.857   3.564  13.126  0.9143  0.2821 -1.1045
  450TMC3    H2 6709   2.962   3.181  13.254  1.2920  0.1024  3.2193
  450TMC3    C7 6710   2.767   3.376  13.283  0.5703 -0.3177  0.1583
  450TMC3    C8 6711   3.224   3.232  13.261 -0.4468  0.6465  0.0339
  450TMC3    O1 6712   2.716   3.487  13.284 -0.1792 -0.3324  0.3475
  450TMC3    O2 6713   3.196   3.115  13.284 -0.0730  0.7113  0.2440
  451MPD2     C 6714   4.528   2.723   1.033 -0.5877  0.3680 -0.0501
  451MPD2    C1 6715   4.422   2.679   1.113 -0.1194 -0.1197 -0.3809
  451MPD2    C2 6716   4.390   2.547   1.100  0.3016 -0.6891  0.2696
  451MPD2    C3 6717   4.457   2.457   1.018 -0.3441 -0.5145  0.4394
  451MPD2    C4 6718   4.563   2.504   0.940  0.1596  0.2885  0.5641
  451MPD2    C5 6719   4.591   2.641   0.948 -0.4905 -0.2273 -0.6672
  451MPD2     H 6720   4.300   2.510   1.146 -1.4543  1.2728 -1.5834
  451MPD2    H1 6721   4.635   2.440   0.889 -0.0246  2.3238 -2.2723
  451MPD2    H2 6722   4.560   2.826   1.039 -1.5823  0.7702 -1.7020
  451MPD2    H3 6723   4.684   2.669   0.901 -0.4919 -1.5285 -1.4293
  451MPD2     N 6724   4.422   2.321   1.007  0.0580  0.4528 -0.4927
  451MPD2    H5 6725   4.477   2.264   0.944 -0.0970 -0.6312  0.3553
  451MPD2    N1 6726   4.350   2.770   1.199  0.7129 -0.5525 -0.6028
  451MPD2    H7 6727   4.392   2.860   1.218 -0.6877  0.0807 -0.5164
  452TMC3    C1 6728   4.342   2.107   1.053 -0.0355  0.1340 -0.0979
  452TMC3    C2 6729   4.307   2.029   1.159  0.5876 -0.1125 -0.4678
  452TMC3    C3 6730   4.254   1.907   1.130 -0.1537  0.2863 -0.0256
  452TMC3    C4 6731   4.336   2.067   0.924 -0.7026 -0.5886  0.3211
  452TMC3    C5 6732   4.282   1.944   0.903  0.0209 -0.1675 -0.0697
  452TMC3    C6 6733   4.245   1.867   1.001 -0.3171 -0.3485  0.6257
  452TMC3     C 6734   4.336   2.247   1.077 -0.3786 -0.1977 -1.0845
  452TMC3     O 6735   4.273   2.276   1.180 -0.1568 -0.7367  0.5073
  452TMC3     H 6736   4.303   2.060   1.263  0.0701 -2.2421  0.1561
  452TMC3    H1 6737   4.356   2.137   0.844 -1.6643  0.2145  0.7905
  452TMC3    H2 6738   4.214   1.766   0.976  1.8621 -0.8865  0.1323
  452TMC3    C7 6739   4.246   1.920   0.762 -0.2273  0.1240  0.2080
  452TMC3    C8 6740   4.201   1.825   1.236  0.3792  0.9874  0.1507
  452TMC3    O1 6741   4.303   1.992   0.679 -0.3137 -0.5598 -0.6472
  452TMC3    O2 6742   4.274   1.800   1.331  0.2322  0.2947 -0.0963
  453TMC3    C1 6743   0.806   4.674  11.712  0.0484 -0.5583 -0.2872
  453TMC3    C2 6744   0.748   4.557  11.683 -0.4225  0.1991  0.3411
  453TMC3    C3 6745   0.639   4.558  11.598  0.8652  0.7059  0.7382
  453TMC3    C4 6746   0.744   0.067  11.678  0.3123 -0.8993 -0.0383
  453TMC3    C5 6747   0.639   0.069  11.590  0.6006  0.5779 -0.1345
  453TMC3    C6 6748   0.586   4.674  11.549  0.6397 -0.7698  0.9678
  453TMC3     C 6749   0.941   4.688  11.777  0.8132 -0.9229 -0.0461
  453TMC3     O 6750   0.972   0.071  11.826  0.6153  0.3395  0.0873
  453TMC3     H 6751   0.789   4.464  11.721  0.6252  0.6350  0.2618
  453TMC3    H1 6752   0.797   0.160  11.692 -3.5101  1.0535  1.5629
  453TMC3    H2 6753   0.507   4.681  11.475  0.9031 -0.1126  0.7526
  453TMC3    C7 6754   0.645   0.172  11.491  0.0427  0.9601 -0.7896
  453TMC3    C8 6755   0.581   4.435  11.562  0.1916 -0.1658 -0.0676
  453TMC3    O1 6756   0.627   0.284  11.538 -0.6470  0.4289  0.1993
  453TMC3    O2 6757   0.467   4.436  11.523 -0.7058  0.0091  0.0048
  454MPD2     C 6758   4.085   3.763  15.604 -0.7808  0.0386 -0.1193
  454MPD2    C1 6759   3.994   3.677  15.664 -0.0626 -0.4331 -0.3110
  454MPD2    C2 6760   3.988   3.667  15.806 -0.4930 -0.1045 -0.0511
  454MPD2    C3 6761   4.057   3.760  15.884  0.3553  0.0710 -0.4807
  454MPD2    C4 6762   4.131   3.857  15.819 -0.8587  0.2591  0.0486
  454MPD2    C5 6763   4.156   3.844  15.685 -0.7293 -0.4874 -0.7581
  454MPD2     H 6764   3.912   3.607  15.854  0.3197  0.7156  2.2298
  454MPD2    H1 6765   4.193   3.930  15.871  1.5839 -1.9441  0.2234
  454MPD2    H2 6766   4.102   3.759  15.497 -1.3411 -1.1778 -0.1622
  454MPD2    H3 6767   4.233   3.908  15.644 -1.8321 -0.3685 -2.6123
  454MPD2     N 6768   4.031   3.767  16.018  0.3166  0.6521 -0.5162
  454MPD2    H5 6769   4.048   3.853  16.070 -0.6216  0.2004  0.5283
  454MPD2    N1 6770   3.907   3.591  15.589 -0.0116 -0.5242 -0.1002
  454MPD2    H7 6771   3.843   3.530  15.638  2.4904 -2.7688  0.4127
  455TMC3    C1 6772   3.882   3.672  16.175  0.4249  1.1155 -0.0246
  455TMC3    C2 6773   3.866   3.782  16.248 -0.0067  0.2563  0.2945
  455TMC3    C3 6774   3.735   3.799  16.292  0.7935 -0.3183 -0.0200
  455TMC3    C4 6775   3.790   3.578  16.149 -0.2003  0.3517 -0.2159
  455TMC3    C5 6776   3.663   3.600  16.189  0.3448  0.1304 -0.2300
  455TMC3    C6 6777   3.633   3.712  16.261 -0.2870 -0.0509  0.2067
  455TMC3     C 6778   4.000   3.655  16.092 -0.2115  0.3952  0.4125
  455TMC3     O 6779   4.040   3.546  16.061  0.6241 -0.4290  0.1928
  455TMC3     H 6780   3.951   3.840  16.282  0.6868 -1.6181  1.7709
  455TMC3    H1 6781   3.826   3.494  16.091 -0.5965 -0.3264  0.5212
  455TMC3    H2 6782   3.533   3.727  16.302 -1.1039  1.3729 -2.3565
  455TMC3    C7 6783   3.560   3.517  16.130  0.2038  0.0998  0.9118
  455TMC3    C8 6784   3.714   3.906  16.384  0.0298 -0.0226  0.0529
  455TMC3    O1 6785   3.445   3.552  16.146 -0.2645  0.0543 -0.2318
  455TMC3    O2 6786   3.651   3.878  16.486 -0.3743 -0.0187  0.2376
  456MPD2     C 6787   1.582   3.911  15.883 -0.0690 -0.3090 -0.7862
  456MPD2    C1 6788   1.630   3.842  15.993 -0.3505  0.1054 -0.1275
  456MPD2    C2 6789   1.588   3.882  16.118 -0.6532  0.0714  0.1957
  456MPD2    C3 6790   1.498   3.988  16.136  0.0417  0.6299 -0.0223
  456MPD2    C4 6791   1.463   4.064  16.023 -0.6729 -0.9172  0.4689
  456MPD2    C5 6792   1.497   4.016  15.900  0.2053 -0.5570  0.8748
  456MPD2     H 6793   1.622   3.819  16.199  0.3704  1.1452  0.5986
  456MPD2    H1 6794   1.392   4.146  16.027  0.6312  0.1665  1.3779
  456MPD2    H2 6795   1.605   3.875  15.783  0.2257 -1.0751 -0.4471
  456MPD2    H3 6796   1.459   4.064  15.810  0.5874  2.8125  2.5248
  456MPD2     N 6797   1.458   4.016  16.268  0.5021 -0.2234 -0.2146
  456MPD2    H5 6798   1.491   3.950  16.338  1.0104  1.5465  1.2016
  456MPD2    N1 6799   1.731   3.741  15.967  0.1753  0.3171 -0.0307
  456MPD2    H7 6800   1.746   3.722  15.868 -0.9983 -0.7124 -0.0054
  457TMC3    C1 6801   1.341   4.116  16.441  0.2066  0.3297  0.1562
  457TMC3    C2 6802   1.323   4.244  16.493 -0.6928  0.1747  0.2273
  457TMC3    C3 6803   1.303   4.259  16.629 -0.3796 -0.0724  0.2878
  457TMC3    C4 6804   1.340   3.999  16.517 -0.2010  0.4842  0.0879
  457TMC3    C5 6805   1.330   4.022  16.658  0.9435  0.1311  0.2257
  457TMC3    C6 6806   1.315   4.148  16.708  0.0748  0.1537 -0.2578
  457TMC3     C 6807   1.372   4.117  16.301  0.4152  0.3214  0.0336
  457TMC3     O 6808   1.344   4.215  16.234 -0.4178  0.0346  0.0855
  457TMC3     H 6809   1.332   4.330  16.428  1.9547 -0.4350 -0.1929
  457TMC3    H1 6810   1.349   3.899  16.479 -1.4310  0.1097  0.7507
  457TMC3    H2 6811   1.298   4.166  16.814 -0.7511 -0.0181 -0.3610
  457TMC3    C7 6812   1.356   3.921  16.759  0.1947 -0.2108  0.1898
  457TMC3    C8 6813   1.327   4.392  16.682  0.3737  0.1274 -0.7302
  457TMC3    O1 6814   1.307   3.947  16.871  0.2815  0.2136  0.4233
  457TMC3    O2 6815   1.376   4.399  16.796 -0.5520 -0.0812 -0.0188
  458MPD2     C 6816   4.406   3.800  12.118 -0.1489  1.0677 -0.4936
  458MPD2    C1 6817   4.393   3.706  12.222 -0.2532  0.1163  0.3600
  458MPD2    C2 6818   4.271   3.691  12.285 -0.4294  0.4731  0.0466
  458MPD2    C3 6819   4.159   3.763  12.237 -0.2572 -0.0907 -0.5853
  458MPD2    C4 6820   4.178   3.864  12.147 -0.1666  0.0142  0.0226
  458MPD2    C5 6821   4.301   3.880  12.088  0.3324  0.9592  0.4248
  458MPD2     H 6822   4.256   3.623  12.368  1.0240  0.1724  0.0613
  458MPD2    H1 6823   4.103   3.931  12.108  0.5164  0.8289  0.1121
  458MPD2    H2 6824   4.497   3.813  12.060 -0.1701 -1.5555 -1.1553
  458MPD2    H3 6825   4.318   3.958  12.015 -1.4730  0.5259 -0.4758
  458MPD2     N 6826   4.034   3.731  12.288  0.4024  0.2013 -0.0089
  458MPD2    H5 6827   4.017   3.665  12.363 -0.1803  0.8306  0.4202
  458MPD2    N1 6828   4.510   3.631  12.258 -0.1475  0.4568 -0.2734
  458MPD2    H7 6829   4.593   3.648  12.202 -0.2215 -1.7328 -1.0541
  459TMC3    C1 6830   4.643   3.486  12.390  0.1004  0.5261 -0.1231
  459TMC3    C2 6831   0.022   3.567  12.353  0.0097  0.1872  0.1737
  459TMC3    C3 6832   0.123   3.585  12.445 -0.3435  0.3719 -0.8479
  459TMC3    C4 6833   4.650   3.411  12.506 -0.1162 -0.0959  0.0351
  459TMC3    C5 6834   0.038   3.415  12.577 -0.3935  1.0306 -0.5568
  459TMC3    C6 6835   0.139   3.508  12.560 -0.0050  0.4472 -0.6217
  459TMC3     C 6836   4.514   3.542  12.366 -0.3394  0.6243 -0.3002
  459TMC3     O 6837   4.421   3.497  12.434  0.1358  0.0609 -0.3051
  459TMC3     H 6838   0.032   3.619  12.258 -0.1312  1.4779  0.8550
  459TMC3    H1 6839   4.568   3.347  12.535  1.3694 -2.3531 -0.7450
  459TMC3    H2 6840   0.217   3.526  12.632  0.4411 -2.0170 -0.4723
  459TMC3    C7 6841   0.011   3.369  12.710 -0.0345 -0.0578 -0.6066
  459TMC3    C8 6842   0.239   3.667  12.410 -0.0956 -0.0534  0.0335
  459TMC3    O1 6843   4.681   3.260  12.729 -0.1720 -0.1224  0.1860
  459TMC3    O2 6844   0.342   3.634  12.469  0.0822 -0.4789  0.6028
  460MPD2     C 6845   3.902   0.764  10.597 -0.0638 -0.1818 -0.3961
  460MPD2    C1 6846   3.788   0.834  10.630  0.2104 -0.1926  0.2221
  460MPD2    C2 6847   3.690   0.851  10.528 -0.6684  0.5961  0.8516
  460MPD2    C3 6848   3.709   0.803  10.403 -0.2065 -0.0076  0.6438
  460MPD2    C4 6849   3.829   0.744  10.375 -0.1657 -0.3144  0.2602
  460MPD2    C5 6850   3.927   0.721  10.468 -0.4911  0.0694 -0.1715
  460MPD2     H 6851   3.609   0.922  10.548  1.1711  2.5787  1.2853
  460MPD2    H1 6852   3.865   0.712  10.278 -0.8354  1.1996 -0.4900
  460MPD2    H2 6853   3.976   0.740  10.672  1.1494  2.6012 -0.6865
  460MPD2    H3 6854   4.024   0.683  10.441  0.6282 -0.2661  4.2341
  460MPD2     N 6855   3.612   0.837  10.308  0.4775 -0.0114  0.3708
  460MPD2    H5 6856   3.542   0.908  10.329  1.0011  0.6049  0.0413
  460MPD2    N1 6857   3.774   0.881  10.766 -0.1949  0.3552  0.2847
  460MPD2    H7 6858   3.849   0.862  10.831 -0.0279 -0.5528 -0.1668
  461TMC3    C1 6859   3.491   0.836  10.106  0.5523  0.2126  0.3494
  461TMC3    C2 6860   3.466   0.766   9.992  1.1536 -0.5810  0.4203
  461TMC3    C3 6861   3.365   0.814   9.915  0.0087 -0.8615 -0.7017
  461TMC3    C4 6862   3.421   0.947  10.145 -0.8079 -0.0793 -0.6318
  461TMC3    C5 6863   3.321   0.992  10.057 -0.3761  0.1737 -0.2911
  461TMC3    C6 6864   3.298   0.935   9.939 -0.5820  0.1755 -0.0656
  461TMC3     C 6865   3.606   0.785  10.181 -0.4103  0.1678 -0.2111
  461TMC3     O 6866   3.672   0.693  10.138 -0.4683  0.0305 -0.1118
  461TMC3     H 6867   3.513   0.673   9.962  1.3462  0.2672 -1.9044
  461TMC3    H1 6868   3.443   0.996  10.239 -0.7298 -2.9431  0.8432
  461TMC3    H2 6869   3.232   0.977   9.865  0.1265  0.7899 -0.3498
  461TMC3    C7 6870   3.245   1.109  10.089  0.3078 -0.7763  0.4580
  461TMC3    C8 6871   3.347   0.756   9.780 -0.7279 -0.1146 -0.7428
  461TMC3    O1 6872   3.217   1.178   9.990  0.2479 -0.3404 -0.1455
  461TMC3    O2 6873   3.441   0.697   9.731  0.1697 -0.2244 -0.3855
  462TMC3    C1 6874   3.096   1.806  17.091  0.6280  1.2703  0.0680
  462TMC3    C2 6875   3.007   1.728  17.024 -0.9435 -0.2283 -0.4735
  462TMC3    C3 6876   3.003   1.595  17.073  0.0746 -0.0276  0.4936
  462TMC3    C4 6877   3.184   1.766  17.190 -0.0092  0.1581  0.4803
  462TMC3    C5 6878   3.177   1.633  17.226  0.3748 -0.5624 -0.4607
  462TMC3    C6 6879   3.076   1.556  17.180 -0.3025  0.3793 -0.5783
  462TMC3     C 6880   3.123   1.941  17.043 -0.6448  0.0452 -0.3404
  462TMC3     O 6881   3.228   2.001  17.079 -0.0900  0.5687  0.3079
  462TMC3     H 6882   2.975   1.755  16.924 -2.0694  0.3927  0.0594
  462TMC3    H1 6883   3.261   1.833  17.229  1.8355 -1.7998  0.2080
  462TMC3    H2 6884   3.060   1.459  17.225  0.0483  0.9284  0.7283
  462TMC3    C7 6885   3.213   1.610  17.363  0.0442  0.1428 -0.3490
  462TMC3    C8 6886   2.959   1.491  16.982 -0.2778 -0.5412  0.1383
  462TMC3    O1 6887   3.223   1.493  17.391  0.3985 -0.3607  0.2305
  462TMC3    O2 6888   2.867   1.513  16.906  0.8488 -0.2367  0.1788
  463MPD2     C 6889   4.197   0.700   1.637  0.1445 -0.6645 -0.4122
  463MPD2    C1 6890   4.084   0.751   1.567 -0.6095 -0.9788 -0.4538
  463MPD2    C2 6891   4.102   0.866   1.494 -0.5885 -0.6195  0.3389
  463MPD2    C3 6892   4.231   0.921   1.489  0.0757  0.0412  0.9125
  463MPD2    C4 6893   4.336   0.870   1.557  0.3450  0.1470 -0.2241
  463MPD2    C5 6894   4.319   0.758   1.638 -0.2984 -0.1099  0.4069
  463MPD2     H 6895   4.027   0.906   1.427 -0.2478  1.0553  0.9591
  463MPD2    H1 6896   4.435   0.905   1.530  1.5625 -0.4763  3.4568
  463MPD2    H2 6897   4.192   0.607   1.692 -1.0425 -1.0775 -1.1955
  463MPD2    H3 6898   4.406   0.726   1.693 -1.3970 -5.9677 -1.2487
  463MPD2     N 6899   4.271   1.036   1.405 -0.1604 -0.8211  0.0589
  463MPD2    H5 6900   4.370   1.047   1.388 -0.1278 -1.2617 -0.0281
  463MPD2    N1 6901   3.953   0.698   1.575  0.4136  0.6791 -0.7113
  463MPD2    H7 6902   3.890   0.733   1.504 -1.6792  1.1231  1.3492
  464TMC3    C1 6903   3.779   0.568   1.629 -0.0394 -0.1848 -0.1312
  464TMC3    C2 6904   3.692   0.663   1.578 -0.1864 -0.4505 -0.1202
  464TMC3    C3 6905   3.579   0.610   1.525  0.3797  0.8214  0.3812
  464TMC3    C4 6906   3.752   0.430   1.637  1.2138 -0.1639 -0.5148
  464TMC3    C5 6907   3.631   0.392   1.591  0.2294 -0.3867  0.2040
  464TMC3    C6 6908   3.547   0.481   1.530  0.0109 -1.2263  0.4045
  464TMC3     C 6909   3.917   0.597   1.661 -0.6477 -0.4635  0.3030
  464TMC3     O 6910   3.973   0.541   1.750 -0.1291 -0.2894 -0.1303
  464TMC3     H 6911   3.708   0.770   1.584 -0.7427 -0.4580  1.6337
  464TMC3    H1 6912   3.812   0.359   1.693  1.6110 -1.0391 -2.0470
  464TMC3    H2 6913   3.460   0.451   1.472  0.6166 -0.4812 -0.8841
  464TMC3    C7 6914   3.618   0.248   1.582 -0.6986 -0.0546 -0.4937
  464TMC3    C8 6915   3.485   0.709   1.492 -0.4471  0.3579 -0.4268
  464TMC3    O1 6916   3.625   0.194   1.690 -0.1707 -0.8679  0.3771
  464TMC3    O2 6917   3.513   0.801   1.413  0.0980  0.2664 -0.2653
  465MPD2     C 6918   0.986   4.405  17.094  0.1224  0.0671 -0.4604
  465MPD2    C1 6919   0.849   4.388  17.121 -0.2314 -0.3113 -0.1810
  465MPD2    C2 6920   0.765   4.362  17.011  0.5060  0.1464  0.4346
  465MPD2    C3 6921   0.821   4.357  16.880 -0.1985  0.2857 -0.5062
  465MPD2    C4 6922   0.956   4.361  16.858 -0.1445 -0.4563 -0.3128
  465MPD2    C5 6923   1.040   4.388  16.970  0.5156 -0.0598 -0.2206
  465MPD2     H 6924   0.658   4.355  17.025  0.2847  1.5683 -0.5705
  465MPD2    H1 6925   1.000   4.343  16.761  0.1303 -2.5737  0.2218
  465MPD2    H2 6926   1.060   4.420  17.171  0.4092 -0.8964 -0.5490
  465MPD2    H3 6927   1.147   4.398  16.956  0.6351  0.1395  0.8462
  465MPD2     N 6928   0.724   4.345  16.775 -0.2530  0.4289  0.6156
  465MPD2    H5 6929   0.631   4.325  16.808 -1.0590  1.3281 -1.1003
  465MPD2    N1 6930   0.787   4.385  17.252 -0.3955  0.3952 -0.8104
  465MPD2    H7 6931   0.688   4.364  17.255 -0.0013 -1.6714 -2.6086
  466TMC3    C1 6932   0.423   4.273  16.530  0.4590  0.2782  0.0523
  466TMC3    C2 6933   0.415   4.342  16.411  0.3294  0.2037 -0.4975
  466TMC3    C3 6934   0.520   4.408  16.379  0.3374 -0.2489 -0.4992
  466TMC3    C4 6935   0.536   4.271  16.608 -0.3412 -0.1199  0.9516
  466TMC3    C5 6936   0.648   4.324  16.556 -0.0580  0.1705 -0.1265
  466TMC3    C6 6937   0.641   4.396  16.437 -0.2986 -0.0474 -0.1293
  466TMC3     C 6938   0.298   4.228  16.588  0.5142  0.6148  0.3725
  466TMC3     O 6939   0.294   4.185  16.704 -0.0769  0.3840 -0.1593
  466TMC3     H 6940   0.326   4.356  16.352 -0.1298 -0.9976 -0.0893
  466TMC3    H1 6941   0.542   4.199  16.688  0.1506 -0.4781  0.5896
  466TMC3    H2 6942   0.731   4.446  16.405  1.2345 -1.7803  1.4987
  466TMC3    C7 6943   0.755   4.366  16.640  0.4951  0.6998  0.0965
  466TMC3    C8 6944   0.496   4.532  16.311 -0.8100 -0.0298 -0.8039
  466TMC3    O1 6945   0.850   4.428  16.591  0.2483  0.3779 -0.3795
  466TMC3    O2 6946   0.590   4.578  16.248  0.5522  0.2466  0.1561
  467TMC3    C1 6947   1.691   2.634  13.618  0.1237  0.3673 -0.1164
  467TMC3    C2 6948   1.624   2.677  13.507 -0.6973 -0.6976 -0.4220
  467TMC3    C3 6949   1.492   2.704  13.521 -0.1285 -0.6749 -0.5284
  467TMC3    C4 6950   1.625   2.620  13.734  0.0784  0.5469 -0.5139
  467TMC3    C5 6951   1.494   2.649  13.738 -0.4907  0.4103  0.6411
  467TMC3    C6 6952   1.419   2.693  13.635  0.0201 -0.6056  0.4292
  467TMC3     C 6953   1.826   2.683  13.632 -0.7846  0.7726  0.2603
  467TMC3     O 6954   1.855   2.721  13.744  0.2002 -0.0681 -0.1171
  467TMC3     H 6955   1.676   2.709  13.418 -0.0321  0.9297  0.5535
  467TMC3    H1 6956   1.680   2.576  13.816 -1.1694  0.4529  0.2802
  467TMC3    H2 6957   1.313   2.711  13.635  0.3534  1.2887 -0.0531
  467TMC3    C7 6958   1.438   2.625  13.870  0.1883  0.1769 -0.0794
  467TMC3    C8 6959   1.440   2.795  13.420  0.3266  0.6983 -0.1244
  467TMC3    O1 6960   1.521   2.588  13.956 -0.4040  0.2657 -0.6505
  467TMC3    O2 6961   1.374   2.893  13.453 -0.4912  0.4041 -0.2413
  468MPD2     C 6962   0.482   0.975  10.618 -0.5689  0.2207  0.5664
  468MPD2    C1 6963   0.609   0.933  10.662  0.8826  0.2378  0.2436
  468MPD2    C2 6964   0.634   0.803  10.688 -0.5375  0.3273 -0.1171
  468MPD2    C3 6965   0.535   0.705  10.679 -0.1690 -0.0564 -0.1197
  468MPD2    C4 6966   0.413   0.740  10.641  0.7849  0.1087  0.9539
  468MPD2    C5 6967   0.381   0.877  10.615 -0.0424  0.0954  0.3288
  468MPD2     H 6968   0.734   0.779  10.722 -1.3231 -2.1098  0.5322
  468MPD2    H1 6969   0.328   0.674  10.633  0.5538  0.2529  2.2198
  468MPD2    H2 6970   0.466   1.077  10.586 -1.0437 -0.3065 -0.8608
  468MPD2    H3 6971   0.281   0.908  10.590 -0.1253 -0.7702 -0.4137
  468MPD2     N 6972   0.570   0.566  10.693 -0.0465  0.4448  0.2968
  468MPD2    H5 6973   0.494   0.499  10.698  1.4459 -1.1569  1.9395
  468MPD2    N1 6974   0.720   1.019  10.672 -0.2740 -0.0793 -0.4991
  468MPD2    H7 6975   0.808   0.974  10.694  0.2622  1.0253 -0.4160
  469TMC3    C1 6976   0.861   1.212  10.685  0.4670 -0.1142 -0.6219
  469TMC3    C2 6977   0.950   1.139  10.769  0.1128  0.5889  0.4780
  469TMC3    C3 6978   1.041   1.213  10.833 -0.6709 -0.1988 -0.3443
  469TMC3    C4 6979   0.872   1.346  10.665  0.3313 -0.4822 -0.8191
  469TMC3    C5 6980   0.979   1.417  10.723  0.0673  0.3779  0.1773
  469TMC3    C6 6981   1.060   1.341  10.807 -0.4426 -0.1029 -0.0761
  469TMC3     C 6982   0.732   1.154  10.648 -0.0369  1.2170 -0.3342
  469TMC3     O 6983   0.644   1.227  10.613  0.5130  0.2109 -0.3258
  469TMC3     H 6984   0.930   1.035  10.792  1.7292 -0.4157 -2.6150
  469TMC3    H1 6985   0.792   1.380  10.600  0.7533  1.2747 -0.4202
  469TMC3    H2 6986   1.149   1.386  10.850 -0.8717 -1.2267  2.0220
  469TMC3    C7 6987   1.027   1.551  10.694 -0.0221  0.4373  0.3093
  469TMC3    C8 6988   1.124   1.166  10.942  0.0165 -0.1469 -0.5359
  469TMC3    O1 6989   1.149   1.577  10.707 -0.2883 -0.2709 -0.0726
  469TMC3    O2 6990   1.183   1.062  10.927  0.4859 -0.0483 -0.5649
  470TMC3    C1 6991   2.794   1.822   0.906 -0.3319  0.6514  0.0357
  470TMC3    C2 6992   2.897   1.911   0.934  0.6305  0.2552  0.1870
  470TMC3    C3 6993   2.940   1.925   1.062  0.0505  0.1267 -0.5490
  470TMC3    C4 6994   2.722   1.767   1.007 -0.0441  0.7915 -0.0807
  470TMC3    C5 6995   2.757   1.798   1.133 -0.0511 -0.2669  0.1817
  470TMC3    C6 6996   2.873   1.872   1.171  0.0323  0.8475  0.1566
  470TMC3     C 6997   2.739   1.802   0.773 -0.5501 -0.0634 -0.6160
  470TMC3     O 6998   2.634   1.741   0.772  0.0025  0.2797 -0.2091
  470TMC3     H 6999   2.939   1.975   0.858  0.2341  1.1589  0.7351
  470TMC3    H1 7000   2.640   1.697   0.998 -2.3776  3.3243  1.3224
  470TMC3    H2 7001   2.918   1.884   1.269  0.1150 -1.0021  0.3389
  470TMC3    C7 7002   2.662   1.765   1.239 -0.3778  0.7355  0.2495
  470TMC3    C8 7003   3.014   2.048   1.092  0.3994 -1.1976 -0.1013
  470TMC3    O1 7004   2.554   1.718   1.195 -0.4163  0.0260  0.1788
  470TMC3    O2 7005   2.988   2.091   1.204  0.1557  0.3283  0.0985
  471MPD2     C 7006   3.565   3.193  16.753 -0.1793 -0.8774  0.2240
  471MPD2    C1 7007   3.581   3.065  16.710  0.8063  0.2507 -0.2826
  471MPD2    C2 7008   3.681   2.985  16.764  0.2225 -0.1730 -0.3690
  471MPD2    C3 7009   3.755   3.035  16.870  0.4384  0.2804 -0.3175
  471MPD2    C4 7010   3.727   3.161  16.924 -0.1645  0.3833  0.1046
  471MPD2    C5 7011   3.633   3.238  16.866 -0.1678 -0.2971  0.0270
  471MPD2     H 7012   3.706   2.892  16.713  2.4838  0.5020 -0.4708
  471MPD2    H1 7013   3.777   3.195  17.014 -0.2011 -1.7786  0.9173
  471MPD2    H2 7014   3.489   3.255  16.706  0.8439 -0.5479 -0.9774
  471MPD2    H3 7015   3.628   3.337  16.912 -1.4680 -0.4160  0.1224
  471MPD2     N 7016   3.855   2.957  16.939 -0.8997 -0.1516 -0.3750
  471MPD2    H5 7017   3.886   3.000  17.026 -1.8813  0.0953 -0.1395
  471MPD2    N1 7018   3.511   3.005  16.607 -0.3759 -0.1658 -0.3984
  471MPD2    H7 7019   3.526   2.905  16.601 -1.2971 -0.3933  1.0622
  472TMC3    C1 7020   3.379   2.988  16.419 -0.1790 -0.5928  0.1285
  472TMC3    C2 7021   3.272   3.032  16.341  0.3730 -0.0907 -0.3447
  472TMC3    C3 7022   3.262   2.986  16.212 -0.1080 -0.1736 -0.2107
  472TMC3    C4 7023   3.472   2.895  16.369 -0.6643  0.3634 -0.1271
  472TMC3    C5 7024   3.444   2.829  16.255 -0.0705  0.1462 -0.0063
  472TMC3    C6 7025   3.350   2.885  16.171 -0.1068  0.6065  0.3247
  472TMC3     C 7026   3.424   3.074  16.527 -0.1330 -0.0349 -0.3658
  472TMC3     O 7027   3.401   3.194  16.511 -0.7808 -0.4257  0.4133
  472TMC3     H 7028   3.193   3.099  16.372  0.2209 -1.3257  1.9309
  472TMC3    H1 7029   3.551   2.853  16.430 -1.2417  0.8603  0.9794
  472TMC3    H2 7030   3.348   2.853  16.067 -1.5109 -1.6765  1.0447
  472TMC3    C7 7031   3.421   2.688  16.284 -0.1130  0.0587 -0.0045
  472TMC3    C8 7032   3.126   2.968  16.149  0.0567  0.5492  1.0721
  472TMC3    O1 7033   3.486   2.630  16.371  0.2410  0.4310 -0.2095
  472TMC3    O2 7034   3.123   2.939  16.031  0.3982 -0.1247 -0.9588
  473MPD2     C 7035   3.370   0.400  13.916  0.3862  0.4217 -0.6854
  473MPD2    C1 7036   3.324   0.499  13.827 -0.2634 -0.6187 -0.3180
  473MPD2    C2 7037   3.358   0.627  13.859  0.0675 -0.4891 -0.5842
  473MPD2    C3 7038   3.394   0.663  13.990  0.2453  0.0068  0.5207
  473MPD2    C4 7039   3.425   0.563  14.078 -0.2166 -0.0787 -0.1392
  473MPD2    C5 7040   3.428   0.437  14.034 -0.0741  0.2619  0.0154
  473MPD2     H 7041   3.346   0.702  13.782  2.3577 -0.7647 -1.2031
  473MPD2    H1 7042   3.446   0.593  14.180 -0.3581  3.2352 -1.0845
  473MPD2    H2 7043   3.374   0.294  13.894  1.3828  1.0521 -3.4934
  473MPD2    H3 7044   3.475   0.366  14.101 -1.7917  0.5575  1.5057
  473MPD2     N 7045   3.394   0.799  14.035  0.2291  0.1371 -0.4488
  473MPD2    H5 7046   3.426   0.817  14.130 -4.4344  2.0937  0.7172
  473MPD2    N1 7047   3.260   0.463  13.704  0.1823 -0.3476 -0.2480
  473MPD2    H7 7048   3.244   0.546  13.648  1.6042 -2.6703 -4.0263
  474TMC3    C1 7049   3.396   1.038  14.033 -0.6338 -0.4631 -0.5498
  474TMC3    C2 7050   3.347   1.151  13.962  0.5971 -0.3623 -0.4923
  474TMC3    C3 7051   3.379   1.272  14.019  1.0157 -0.0710 -0.5138
  474TMC3    C4 7052   3.474   1.048  14.143 -0.3620 -0.0189  0.3469
  474TMC3    C5 7053   3.494   1.172  14.201  0.5810  0.6480 -0.7095
  474TMC3    C6 7054   3.450   1.281  14.137  0.9746  0.2452  0.0297
  474TMC3     C 7055   3.370   0.913  13.959  0.0348  0.4055 -0.0110
  474TMC3     O 7056   3.328   0.915  13.845 -0.0205  0.7950 -0.1407
  474TMC3     H 7057   3.276   1.146  13.880  0.4058 -4.1533 -0.0623
  474TMC3    H1 7058   3.517   0.957  14.184  0.2810  0.5698  0.9706
  474TMC3    H2 7059   3.461   1.376  14.188 -0.7801  1.0126 -1.0084
  474TMC3    C7 7060   3.584   1.185  14.314  0.2454 -0.4945  0.5869
  474TMC3    C8 7061   3.297   1.384  13.980 -0.3699  0.3010  0.2346
  474TMC3    O1 7062   3.640   1.293  14.345 -0.0948  0.0470  0.2176
  474TMC3    O2 7063   3.186   1.344  13.946  0.9507  0.4491  0.4829
  475MPD2     C 7064   1.912   3.257  10.277  0.4198 -0.0694  0.1472
  475MPD2    C1 7065   1.934   3.392  10.310  0.2468  0.5496 -0.0424
  475MPD2    C2 7066   1.846   3.470  10.371 -0.6584  0.3417  0.6089
  475MPD2    C3 7067   1.724   3.408  10.398  0.5785 -1.2898  0.4747
  475MPD2    C4 7068   1.695   3.277  10.364 -0.9412  0.8914  0.0294
  475MPD2    C5 7069   1.786   3.200  10.294 -0.2987 -0.6083 -0.0626
  475MPD2     H 7070   1.872   3.570  10.403  0.1371  0.0836  0.7762
  475MPD2    H1 7071   1.593   3.243  10.375  0.3108 -2.5451  1.0755
  475MPD2    H2 7072   1.989   3.196  10.232  0.9017  2.3448 -2.2717
  475MPD2    H3 7073   1.760   3.099  10.265 -0.7141 -0.3378 -0.6315
  475MPD2     N 7074   1.626   3.496  10.454 -0.2901 -0.0784 -0.6265
  475MPD2    H5 7075   1.652   3.594  10.455  0.4678 -0.2873 -0.2270
  475MPD2    N1 7076   2.052   3.458  10.268 -0.7276 -0.0121  0.1207
  475MPD2    H7 7077   2.067   3.548  10.311 -0.6556  0.3688 -0.6964
  476TMC3    C1 7078   2.183   3.537  10.083 -0.5797 -0.1903 -0.1495
  476TMC3    C2 7079   2.159   3.558   9.950 -0.0895  0.1313 -0.0204
  476TMC3    C3 7080   2.209   3.674   9.889 -0.0236  0.6014 -0.1242
  476TMC3    C4 7081   2.265   3.624  10.159  0.7489  0.0061 -0.3469
  476TMC3    C5 7082   2.308   3.734  10.095 -0.1484  0.7329  0.0102
  476TMC3    C6 7083   2.279   3.764   9.965 -0.6613 -0.1615 -0.0907
  476TMC3     C 7084   2.115   3.424  10.152  0.2209  0.5808  0.0402
  476TMC3     O 7085   2.118   3.312  10.101  0.4036  0.1745 -0.3814
  476TMC3     H 7086   2.103   3.485   9.892 -0.0404  1.6531 -1.9644
  476TMC3    H1 7087   2.304   3.601  10.258  1.3967 -2.2674 -1.1340
  476TMC3    H2 7088   2.298   3.860   9.919  0.4249 -1.0531 -1.4747
  476TMC3    C7 7089   2.381   3.832  10.166 -0.0842 -0.0738  0.5058
  476TMC3    C8 7090   2.118   3.731   9.786  0.6311 -0.3460  0.8444
  476TMC3    O1 7091   2.451   3.898  10.089  0.7302  0.8499 -0.2971
  476TMC3    O2 7092   2.171   3.812   9.709  0.1233 -0.0136  0.7187
  477MPD2     C 7093   4.333   0.310  11.685  0.7023 -0.3214  0.8119
  477MPD2    C1 7094   4.203   0.283  11.719  0.0601  0.5284  0.0995
  477MPD2    C2 7095   4.182   0.210  11.834  0.7099 -0.0831 -0.5333
  477MPD2    C3 7096   4.284   0.167  11.916 -0.2101  0.6795  0.1230
  477MPD2    C4 7097   4.416   0.197  11.881 -0.2520 -0.3524  1.0865
  477MPD2    C5 7098   4.435   0.267  11.769  0.7576 -0.0194  0.3164
  477MPD2     H 7099   4.079   0.181  11.853  0.2483  1.8923 -0.0040
  477MPD2    H1 7100   4.496   0.158  11.943  1.2123  0.8960 -0.0171
  477MPD2    H2 7101   4.351   0.362  11.592  0.8780 -1.3362  0.2846
  477MPD2    H3 7102   4.537   0.280  11.735 -0.2774 -0.1907 -2.8481
  477MPD2     N 7103   4.266   0.084  12.025  0.5958 -0.9146 -0.4871
  477MPD2    H5 7104   4.346   0.037  12.065  1.3262 -1.9543 -3.1593
  477MPD2    N1 7105   4.099   0.329  11.634  0.1830  0.5620 -0.3013
  477MPD2    H7 7106   4.128   0.370  11.546  0.8227 -0.1631 -0.4304
  478TMC3    C1 7107   3.886   0.417  11.577 -0.1359  0.3766  0.9182
  478TMC3    C2 7108   3.770   0.477  11.608  0.7317  0.4684 -0.1805
  478TMC3    C3 7109   3.727   0.591  11.537  0.6422  0.0779  0.2875
  478TMC3    C4 7110   3.946   0.460  11.460 -0.4450 -0.1968 -0.1152
  478TMC3    C5 7111   3.895   0.564  11.389 -0.0646 -0.2956  0.4425
  478TMC3    C6 7112   3.784   0.628  11.422 -1.2174  0.2412  0.2701
  478TMC3     C 7113   3.968   0.344  11.673  0.6510  0.0237  0.3592
  478TMC3     O 7114   3.922   0.327  11.786 -0.6380  0.1277  0.0428
  478TMC3     H 7115   3.717   0.444  11.697 -0.2959 -2.5991 -1.9338
  478TMC3    H1 7116   4.021   0.400  11.410  1.4423  1.7789  0.2978
  478TMC3    H2 7117   3.743   0.710  11.365  1.8669  1.1783 -0.5746
  478TMC3    C7 7118   3.936   0.561  11.254  0.3041 -0.5573  0.7983
  478TMC3    C8 7119   3.729   0.695  11.637 -0.4425 -0.2183  0.2618
  478TMC3    O1 7120   4.053   0.532  11.229 -0.2812 -0.1654  0.1356
  478TMC3    O2 7121   3.788   0.664  11.742  0.1209 -0.3012 -0.1071
  479MPD2     C 7122   3.040   2.561  14.616  0.2896  0.4820  0.3629
  479MPD2    C1 7123   2.981   2.479  14.711  0.4784 -0.0203 -0.3277
  479MPD2    C2 7124   3.017   2.483  14.843 -0.0223  0.1373  0.3517
  479MPD2    C3 7125   3.112   2.565  14.891 -0.1057 -0.0431 -0.4207
  479MPD2    C4 7126   3.180   2.634  14.796  0.1310  0.3841  0.0613
  479MPD2    C5 7127   3.150   2.627  14.662 -0.0885 -0.5514  0.1007
  479MPD2     H 7128   2.978   2.407  14.909 -2.3267  2.2542  1.4647
  479MPD2    H1 7129   3.264   2.692  14.832  1.6136 -1.1758 -0.9062
  479MPD2    H2 7130   3.020   2.553  14.510  0.7200  0.0630  0.3114
  479MPD2    H3 7131   3.214   2.676  14.589 -1.5027 -1.1233 -1.4935
  479MPD2     N 7132   3.161   2.568  15.024  0.1780 -0.5883  0.0644
  479MPD2    H5 7133   3.253   2.609  15.037  0.4282 -1.5200  1.1955
  479MPD2    N1 7134   2.871   2.403  14.668  0.4316 -0.4114 -0.0998
  479MPD2    H7 7135   2.840   2.425  14.574  2.4287 -1.8096 -1.0827
  480TMC3    C1 7136   2.796   2.337  15.240 -0.1499 -0.3461  0.6353
  480TMC3    C2 7137   2.694   2.401  15.175  0.3862  0.3650  0.3815
  480TMC3    C3 7138   2.731   2.511  15.101  0.1559  0.6668  0.0338
  480TMC3    C4 7139   2.925   2.363  15.211  0.9330  0.3958 -0.2409
  480TMC3    C5 7140   2.957   2.467  15.137 -0.0966 -0.4520 -0.5244
  480TMC3    C6 7141   2.857   2.551  15.090  0.0430  0.2274  0.4950
  480TMC3     C 7142   2.769   2.297  15.377  0.0533 -0.7132 -0.8363
  480TMC3     O 7143   2.652   2.271  15.406  0.3806 -0.3732  0.3144
  480TMC3     H 7144   2.592   2.369  15.194  0.3079  0.3849 -0.0050
  480TMC3    H1 7145   3.010   2.307  15.249 -2.0162 -3.9970 -0.1637
  480TMC3    H2 7146   2.892   2.639  15.038  0.6428 -0.4379 -0.2407
  480TMC3    C7 7147   3.100   2.511  15.139  0.1733  0.3047 -0.9027
  480TMC3    C8 7148   2.638   2.549  14.997  0.1441 -0.3946 -0.0457
  480TMC3    O1 7149   3.145   2.499  15.251  0.3710 -0.2008  0.0770
  480TMC3    O2 7150   2.526   2.508  15.000 -0.4638 -0.0124  0.5140
  481MPD2     C 7151   4.681   1.908  14.195  0.9805  0.2340 -0.2107
  481MPD2    C1 7152   4.568   1.838  14.216  0.1627 -0.1381 -0.2853
  481MPD2    C2 7153   4.536   1.807  14.344 -0.0423  0.8219  0.5504
  481MPD2    C3 7154   4.614   1.852  14.452 -0.0077  0.2944 -0.3042
  481MPD2    C4 7155   4.722   1.933  14.430 -0.3777 -0.5896  0.2714
  481MPD2    C5 7156   0.034   1.956  14.297 -0.3243  0.0399  0.3844
  481MPD2     H 7157   4.442   1.755  14.355 -0.5125  0.6277 -4.4503
  481MPD2    H1 7158   0.048   1.988  14.509 -0.5519  1.3715 -0.9740
  481MPD2    H2 7159   4.710   1.928  14.092  2.8256 -0.4422  0.1715
  481MPD2    H3 7160   0.104   2.037  14.280 -1.5823  1.4577  1.9430
  481MPD2     N 7161   4.589   1.813  14.588 -0.5778  0.3636  0.4726
  481MPD2    H5 7162   4.657   1.841  14.658  0.3185 -1.1005  0.1969
  481MPD2    N1 7163   4.484   1.812  14.101 -0.0332 -0.7811  0.3736
  481MPD2    H7 7164   4.502   1.869  14.020 -2.1692  3.1928  2.7132
  482TMC3    C1 7165   4.287   1.744  13.981 -0.3127 -0.4138  0.0003
  482TMC3    C2 7166   4.236   1.629  13.944  0.7731 -0.1860  0.5198
  482TMC3    C3 7167   4.107   1.622  13.901 -0.1909 -0.2068  0.3345
  482TMC3    C4 7168   4.213   1.861  13.975 -0.2002 -0.2937  0.1843
  482TMC3    C5 7169   4.080   1.848  13.939  0.6481 -0.1926 -0.1500
  482TMC3    C6 7170   4.023   1.728  13.896 -0.6755  0.0316  0.2659
  482TMC3     C 7171   4.380   1.721  14.095 -0.5139 -0.4026  0.6177
  482TMC3     O 7172   4.363   1.622  14.170 -0.2504  0.1938 -0.2467
  482TMC3     H 7173   4.299   1.542  13.959  0.7372 -0.7118 -2.3788
  482TMC3    H1 7174   4.250   1.957  14.009 -0.4779 -0.3495  0.6484
  482TMC3    H2 7175   3.918   1.722  13.871 -0.1260 -0.5090 -1.9585
  482TMC3    C7 7176   3.989   1.960  13.933 -0.7570 -0.7111  0.1404
  482TMC3    C8 7177   4.076   1.505  13.823  0.3158 -0.6672  0.1104
  482TMC3    O1 7178   3.874   1.927  13.918  0.5877 -0.0805  0.1290
  482TMC3    O2 7179   4.177   1.440  13.789  0.3155 -0.3491 -0.6549
  483TMC3    C1 7180   2.549   0.638   1.369  0.2085 -0.2412 -0.5850
  483TMC3    C2 7181   2.567   0.751   1.288 -0.5488  0.4905 -0.2094
  483TMC3    C3 7182   2.670   0.754   1.197 -0.1164  0.3663 -0.4887
  483TMC3    C4 7183   2.643   0.539   1.372  0.3263 -0.3756  0.5646
  483TMC3    C5 7184   2.753   0.551   1.298 -0.6543 -0.3325  0.2365
  483TMC3    C6 7185   2.770   0.655   1.206 -0.5278 -0.4937 -0.7559
  483TMC3     C 7186   2.427   0.613   1.422  0.1711 -0.3316 -0.9608
  483TMC3     O 7187   2.370   0.705   1.476  0.2364 -0.0650 -0.2539
  483TMC3     H 7188   2.506   0.840   1.287  1.9830  2.1623 -4.1048
  483TMC3    H1 7189   2.624   0.453   1.434  3.1057  0.3195  2.4315
  483TMC3    H2 7190   2.841   0.647   1.125  0.4953 -0.2961  0.1193
  483TMC3    C7 7191   2.865   0.473   1.340 -0.0313 -1.0170  0.1948
  483TMC3    C8 7192   2.688   0.851   1.085  0.8307 -0.2555 -0.3418
  483TMC3    O1 7193   2.839   0.388   1.420  0.3782  0.3083 -0.1804
  483TMC3    O2 7194   2.775   0.823   1.006 -0.1516  0.7917  0.6020
  484MPD2     C 7195   0.255   3.971  12.210  0.0656  0.1053  0.8548
  484MPD2    C1 7196   0.301   3.858  12.267  0.4897  0.6392  0.8640
  484MPD2    C2 7197   0.439   3.835  12.274 -0.4096 -0.1334  0.4521
  484MPD2    C3 7198   0.525   3.933  12.218 -0.0827 -0.3676  0.1146
  484MPD2    C4 7199   0.478   4.043  12.157 -0.5165  0.2041 -0.0956
  484MPD2    C5 7200   0.337   4.060  12.151  0.4828 -0.4601 -0.5542
  484MPD2     H 7201   0.487   3.753  12.327  1.3559  1.1619  0.8698
  484MPD2    H1 7202   0.547   4.110  12.108  0.3397 -0.5771  0.0448
  484MPD2    H2 7203   0.148   3.989  12.210 -0.3583 -2.3108 -2.3627
  484MPD2    H3 7204   0.283   4.135  12.093  0.7915  0.2310  0.0442
  484MPD2     N 7205   0.667   3.913  12.212 -0.9054  0.3979 -0.6696
  484MPD2    H5 7206   0.721   3.991  12.178 -0.0026 -0.0962 -0.3623
  484MPD2    N1 7207   0.207   3.776  12.331 -0.2580  0.3172  0.0151
  484MPD2    H7 7208   0.109   3.785  12.310 -0.6435  1.2297  2.1798
  485TMC3    C1 7209   0.875   3.803  12.199 -0.5994 -1.3797  1.0278
  485TMC3    C2 7210   0.977   3.754  12.271  0.2073  0.0413  0.3616
  485TMC3    C3 7211   1.100   3.759  12.215  0.0566  0.1782 -0.0273
  485TMC3    C4 7212   0.888   3.854  12.077  0.6950  0.6563  0.7953
  485TMC3    C5 7213   1.012   3.860  12.019 -0.3939  1.0655  0.6256
  485TMC3    C6 7214   1.120   3.831  12.098 -0.2430 -0.3016  0.1191
  485TMC3     C 7215   0.743   3.809  12.254  0.3919 -0.0974  0.0384
  485TMC3     O 7216   0.711   3.707  12.311 -0.5822  1.0434 -0.5057
  485TMC3     H 7217   0.957   3.707  12.367 -0.3747 -0.6572 -0.0970
  485TMC3    H1 7218   0.801   3.885  12.021  1.2001  0.2415 -0.2105
  485TMC3    H2 7219   1.216   3.824  12.048 -0.1324 -0.1007  0.3039
  485TMC3    C7 7220   1.015   3.782  11.898  0.4076 -0.0149 -0.5389
  485TMC3    C8 7221   1.191   3.641  12.238 -0.9823  0.0411 -0.1258
  485TMC3    O1 7222   0.925   3.704  11.885  0.6589 -0.2730  0.0006
  485TMC3    O2 7223   1.259   3.606  12.142  0.5767 -0.0346 -0.0866
  486MPD2     C 7224   2.873   2.813  12.865  0.6470  0.1844 -0.4073
  486MPD2    C1 7225   2.762   2.781  12.799  0.6657  0.4391  0.2923
  486MPD2    C2 7226   2.649   2.860  12.821  0.0393  0.4333 -0.3323
  486MPD2    C3 7227   2.654   2.983  12.888  0.6491 -0.1313 -0.9108
  486MPD2    C4 7228   2.772   3.020  12.944  0.0282  0.6319  0.3059
  486MPD2    C5 7229   2.883   2.934  12.930  0.2436 -0.0052  0.0225
  486MPD2     H 7230   2.554   2.814  12.799 -0.8567  1.2327  1.8304
  486MPD2    H1 7231   2.790   3.113  12.998  0.5683  0.2725  0.7385
  486MPD2    H2 7232   2.966   2.758  12.859  1.1400  0.9021  0.5294
  486MPD2    H3 7233   2.975   2.959  12.980  0.8976 -0.2274 -1.0701
  486MPD2     N 7234   2.539   3.060  12.899  0.0370 -0.2718  0.3141
  486MPD2    H5 7235   2.459   3.027  12.846  0.3728 -0.8373  0.1537
  486MPD2    N1 7236   2.755   2.664  12.718 -0.4744 -0.0037  0.3299
  486MPD2    H7 7237   2.834   2.601  12.719  0.8881  1.7706  3.4640
  487TMC3    C1 7238   2.640   2.502  12.584  0.9645 -0.3533 -0.1115
  487TMC3    C2 7239   2.540   2.477  12.497 -0.1819  0.5616  0.1772
  487TMC3    C3 7240   2.498   2.350  12.487 -0.0580 -0.8068 -0.3114
  487TMC3    C4 7241   2.700   2.407  12.653 -0.2884 -0.5919 -0.1595
  487TMC3    C5 7242   2.657   2.277  12.638  1.0353 -0.1423 -0.1738
  487TMC3    C6 7243   2.556   2.248  12.553 -0.4814 -0.2063 -0.3345
  487TMC3     C 7244   2.654   2.642  12.624  0.2948 -0.5453 -0.1395
  487TMC3     O 7245   2.560   2.711  12.587  0.6169  0.3023  0.7075
  487TMC3     H 7246   2.488   2.559  12.448 -1.3072 -1.0104 -1.2378
  487TMC3    H1 7247   2.786   2.419  12.717 -1.0695  1.0175  0.5885
  487TMC3    H2 7248   2.554   2.147  12.514  0.9433  0.1052 -1.2007
  487TMC3    C7 7249   2.603   2.245  12.765  0.0241  0.7109 -0.0766
  487TMC3    C8 7250   2.349   2.339  12.483 -1.0962 -0.0667 -0.6058
  487TMC3    O1 7251   2.648   2.297  12.868 -0.0434  0.4988 -0.0609
  487TMC3    O2 7252   2.293   2.436  12.530 -0.4055  0.1715 -0.0730
  488MPD2     C 7253   2.477   3.973  16.267 -0.3320  0.2232  0.0556
  488MPD2    C1 7254   2.509   4.074  16.348  0.3644  0.3008  0.6951
  488MPD2    C2 7255   2.471   4.071  16.483 -0.3810 -0.5894 -0.2589
  488MPD2    C3 7256   2.393   3.967  16.531 -0.1229  0.5419  0.1262
  488MPD2    C4 7257   2.351   3.867  16.446 -0.1804  0.2513  0.1678
  488MPD2    C5 7258   2.398   3.872  16.314 -0.8636  0.4205 -0.0418
  488MPD2     H 7259   2.499   4.158  16.541  1.4801  0.3810 -2.5701
  488MPD2    H1 7260   2.287   3.783  16.473 -0.3561  0.8196  1.4996
  488MPD2    H2 7261   2.482   3.985  16.159  1.5481 -0.0968  0.1074
  488MPD2    H3 7262   2.362   3.793  16.250 -1.7429  1.9835 -1.4854
  488MPD2     N 7263   2.350   3.977  16.666  0.0791  0.3735  0.0177
  488MPD2    H5 7264   2.398   4.042  16.727 -0.7076  1.2063 -0.2447
  488MPD2    N1 7265   2.583   4.193  16.308 -0.5430  0.0903  0.6453
  488MPD2    H7 7266   2.577   4.269  16.375 -0.3269  0.8984 -0.2440
  489TMC3    C1 7267   2.210   3.948  16.858 -0.3960  0.7473 -0.4866
  489TMC3    C2 7268   2.299   4.029  16.927  0.1636  0.1089  0.2950
  489TMC3    C3 7269   2.254   4.112  17.024 -0.4987  0.1380 -0.4208
  489TMC3    C4 7270   2.077   3.958  16.884 -0.8609 -1.2374  0.6477
  489TMC3    C5 7271   2.037   4.010  17.002 -0.5228  0.3092 -0.4642
  489TMC3    C6 7272   2.123   4.094  17.067  0.6079  0.7915  0.1688
  489TMC3     C 7273   2.243   3.910  16.719  0.4143  0.3900  0.4909
  489TMC3     O 7274   2.153   3.846  16.663  0.0477  0.2542 -0.4790
  489TMC3     H 7275   2.406   4.024  16.914  0.3754 -0.4826  2.2582
  489TMC3    H1 7276   2.005   3.901  16.826 -0.9223 -1.0342  0.5244
  489TMC3    H2 7277   2.073   4.152  17.144  0.4138 -1.4911  1.7573
  489TMC3    C7 7278   1.904   3.976  17.050 -0.7276 -0.0084 -0.3874
  489TMC3    C8 7279   2.284   4.251  16.987  0.6328 -0.2821 -0.1276
  489TMC3    O1 7280   1.815   3.953  16.972 -0.2943  0.0580 -0.1950
  489TMC3    O2 7281   2.348   4.263  16.882 -0.0954 -0.7012  0.1418
  490MPD2     C 7282   3.854   3.145   0.173  0.1859 -0.5990  0.7729
  490MPD2    C1 7283   3.734   3.209   0.146 -0.1755  0.3211  0.3011
  490MPD2    C2 7284   3.709   3.339   0.191  0.0370  1.2150  0.0589
  490MPD2    C3 7285   3.797   3.406   0.277  0.3132 -0.3850  0.3924
  490MPD2    C4 7286   3.898   3.336   0.326 -0.2652 -0.3056  0.2588
  490MPD2    C5 7287   3.925   3.207   0.272  0.6240 -0.0802 -0.3623
  490MPD2     H 7288   3.616   3.381   0.157 -0.4973  0.1614  0.2142
  490MPD2    H1 7289   3.965   3.375   0.402 -0.0198 -1.2921  0.5625
  490MPD2    H2 7290   3.890   3.047   0.142  1.2591  0.7988 -2.4372
  490MPD2    H3 7291   4.010   3.145   0.301  0.1666 -0.2307  0.6754
  490MPD2     N 7292   3.789   3.543   0.309 -0.2200  0.3232 -0.0470
  490MPD2    H5 7293   3.876   3.586   0.337 -0.3309  0.4530  0.0945
  490MPD2    N1 7294   3.628   3.146   0.072 -0.2363  0.3534 -0.4030
  490MPD2    H7 7295   3.535   3.187   0.070 -1.1269 -1.8206 -3.8467
  491TMC3    C1 7296   3.514   2.970  17.674 -0.7040 -0.0924  0.9471
  491TMC3    C2 7297   3.417   2.980   0.076  0.3687 -0.5113 -0.0518
  491TMC3    C3 7298   3.304   2.901   0.063 -0.2754 -0.1291 -0.0764
  491TMC3    C4 7299   3.509   2.882  17.576 -0.0838 -0.5794  0.3267
  491TMC3    C5 7300   3.391   2.818  17.562 -0.1527 -0.1478  1.1320
  491TMC3    C6 7301   3.291   2.813  17.661 -0.5821 -0.9444  0.4029
  491TMC3     C 7302   3.645   3.019   0.012 -0.4631 -0.0960 -0.8971
  491TMC3     O 7303   3.748   2.963  17.678 -0.2672 -0.1467 -0.1889
  491TMC3     H 7304   3.416   3.054   0.156 -0.5714  0.7224 -1.2001
  491TMC3    H1 7305   3.585   2.887  17.498 -1.3830 -0.9862 -0.9694
  491TMC3    H2 7306   3.209   2.742  17.656  0.5947 -2.2094 -0.7789
  491TMC3    C7 7307   3.324   2.797  17.433  0.0297 -0.4791  0.0047
  491TMC3    C8 7308   3.204   2.889   0.167 -0.5068  0.5517  0.4047
  491TMC3    O1 7309   3.214   2.745  17.445  0.4426  0.3121  0.3554
  491TMC3    O2 7310   3.095   2.859   0.126  0.1696  0.5916 -0.2422
  492MPD2     C 7311   4.112   3.715  11.415  0.0811  0.2576  0.0709
  492MPD2    C1 7312   4.011   3.685  11.327 -1.1704  0.2246 -0.1297
  492MPD2    C2 7313   3.900   3.621  11.373  0.7775  0.0012  0.0081
  492MPD2    C3 7314   3.901   3.571  11.505 -0.3909  0.6534 -0.6720
  492MPD2    C4 7315   4.001   3.594  11.587 -0.4918  0.0004 -0.2371
  492MPD2    C5 7316   4.103   3.670  11.545 -0.3293 -0.0652  0.3325
  492MPD2     H 7317   3.808   3.617  11.316  0.6779  1.4965  0.0848
  492MPD2    H1 7318   4.006   3.555  11.688  2.0770  0.3641 -0.2113
  492MPD2    H2 7319   4.190   3.787  11.395  2.3142 -2.4244 -0.9008
  492MPD2    H3 7320   4.173   3.704  11.621  1.1461 -0.4404 -0.8752
  492MPD2     N 7321   3.797   3.496  11.559  0.7232 -0.6970  0.6379
  492MPD2    H5 7322   3.815   3.462  11.652 -0.9440  0.0057  1.2137
  492MPD2    N1 7323   4.013   3.743  11.205 -0.0235  0.0221 -0.0916
  492MPD2    H7 7324   4.088   3.810  11.192  0.7981 -0.4590  2.2162
  493TMC3    C1 7325   3.984   3.767  10.971 -0.1708  0.3021  0.5759
  493TMC3    C2 7326   4.068   3.875  10.966  0.6057  0.6822 -0.5328
  493TMC3    C3 7327   4.072   3.952  10.849  0.3264 -0.7290 -0.5136
  493TMC3    C4 7328   3.926   3.719  10.859  0.4301 -0.0089  0.2362
  493TMC3    C5 7329   3.941   3.793  10.745  0.6224 -0.1949 -0.7488
  493TMC3    C6 7330   4.015   3.914  10.727 -0.3866  0.5227 -0.7870
  493TMC3     C 7331   3.945   3.699  11.096  0.0762 -0.4616 -0.4979
  493TMC3     O 7332   3.880   3.600  11.086  0.3971 -0.1945 -0.1556
  493TMC3     H 7333   4.113   3.919  11.054 -1.3606 -1.1144  1.3968
  493TMC3    H1 7334   3.868   3.629  10.846 -0.2020  0.1067  2.4224
  493TMC3    H2 7335   4.004   3.968  10.634  0.8029 -0.4258 -1.4710
  493TMC3    C7 7336   3.873   3.743  10.629 -0.2441  0.1214 -0.2097
  493TMC3    C8 7337   4.151   4.075  10.848  0.1136  0.8158  0.1486
  493TMC3    O1 7338   3.790   3.656  10.647 -0.3907 -0.2619 -0.6554
  493TMC3    O2 7339   4.178   4.114  10.961  0.5196 -1.1177 -0.0345
  494TMC3    C1 7340   3.354   0.779   0.319  0.2406 -0.4619  0.6071
  494TMC3    C2 7341   3.363   0.650   0.374 -1.0975  0.1945 -0.2591
  494TMC3    C3 7342   3.423   0.551   0.297  0.1650 -0.9657  0.1946
  494TMC3    C4 7343   3.415   0.818   0.206 -0.0265  0.1378  0.1783
  494TMC3    C5 7344   3.481   0.717   0.138  0.1420 -0.0005  0.9068
  494TMC3    C6 7345   3.488   0.586   0.177 -0.4997 -0.7470 -0.8225
  494TMC3     C 7346   3.297   0.880   0.415 -0.1627 -0.3959  0.9545
  494TMC3     O 7347   3.229   0.833   0.506 -0.0000  0.1529 -0.4328
  494TMC3     H 7348   3.332   0.631   0.476 -0.4492 -2.2181 -0.5134
  494TMC3    H1 7349   3.416   0.920   0.168 -0.8041  1.1315  2.8004
  494TMC3    H2 7350   3.554   0.513   0.132 -1.1401 -0.0751 -2.8407
  494TMC3    C7 7351   3.574   0.759   0.038  0.2176 -0.0529 -0.4721
  494TMC3    C8 7352   3.442   0.416   0.352  0.4307 -0.2678  1.1074
  494TMC3    O1 7353   3.601   0.680  17.642  0.1772  0.2263  0.2681
  494TMC3    O2 7354   3.455   0.406   0.473  0.5106  0.3430  0.1770
  495TMC3    C1 7355   3.077   2.835  14.236 -0.7669  0.2391  0.8438
  495TMC3    C2 7356   2.999   2.866  14.133  0.3880 -0.3837  0.9467
  495TMC3    C3 7357   2.884   2.933  14.153 -0.5813 -0.6663  0.5518
  495TMC3    C4 7358   3.049   2.865  14.360  0.1416 -0.1158 -0.9240
  495TMC3    C5 7359   2.941   2.943  14.381  0.1922 -0.6221  0.5734
  495TMC3    C6 7360   2.853   2.975  14.282 -0.0444 -0.6074 -0.5381
  495TMC3     C 7361   3.125   2.697  14.225 -0.0734  0.1195  0.4873
  495TMC3     O 7362   3.051   2.631  14.156 -0.0797  0.1743  0.8062
  495TMC3     H 7363   3.036   2.831  14.038 -2.1691  2.6306 -1.1588
  495TMC3    H1 7364   3.101   2.820  14.444 -0.3642 -2.4118 -1.8157
  495TMC3    H2 7365   2.757   3.018  14.307 -0.7531 -2.4139 -0.1907
  495TMC3    C7 7366   2.879   2.907  14.504  0.2297 -0.3359  0.7117
  495TMC3    C8 7367   2.776   2.865  14.093  0.3816  0.0963  0.4573
  495TMC3    O1 7368   2.955   2.889  14.598  0.1444 -0.0774  0.2531
  495TMC3    O2 7369   2.672   2.927  14.072 -0.4497  0.2696  0.4865
  496MPD2     C 7370   4.517   2.770  15.669 -0.2510  0.2378  0.6872
  496MPD2    C1 7371   4.563   2.703  15.563 -0.1444  0.4354  0.3672
  496MPD2    C2 7372   4.480   2.636  15.480 -0.1959  0.6837 -0.3240
  496MPD2    C3 7373   4.347   2.643  15.497 -0.2853  0.2872  0.1377
  496MPD2    C4 7374   4.303   2.699  15.609 -0.3750 -0.7097  0.2308
  496MPD2    C5 7375   4.383   2.757  15.701  0.4586 -0.2721  0.0692
  496MPD2     H 7376   4.526   2.580  15.400 -2.1323 -0.6850 -0.4935
  496MPD2    H1 7377   4.197   2.700  15.631 -0.6239 -0.6418 -0.9672
  496MPD2    H2 7378   4.585   2.828  15.731 -1.3470 -0.3518  2.4530
  496MPD2    H3 7379   4.329   2.812  15.778  1.6756  0.8645  0.1113
  496MPD2     N 7380   4.256   2.587  15.410 -0.1117  0.5660  0.0494
  496MPD2    H5 7381   4.158   2.601  15.433 -0.8332  0.0671 -2.7044
  496MPD2    N1 7382   4.701   2.707  15.548  0.0717 -0.0252 -0.2232
  496MPD2    H7 7383   0.023   2.744  15.631 -4.6733 -0.5591  2.6146
  497TMC3    C1 7384   4.194   2.404  15.287  0.0109 -0.2917  0.7072
  497TMC3    C2 7385   4.215   2.335  15.172 -0.0454  0.2553  0.1421
  497TMC3    C3 7386   4.233   2.199  15.173 -0.3012 -0.7278 -0.7183
  497TMC3    C4 7387   4.187   2.329  15.402 -0.5550 -0.3341  0.5296
  497TMC3    C5 7388   4.228   2.202  15.402  0.3087 -0.0104  0.0908
  497TMC3    C6 7389   4.251   2.129  15.286  0.2890  0.6314 -0.0636
  497TMC3     C 7390   4.288   2.516  15.297 -0.0179  0.0454  0.0066
  497TMC3     O 7391   4.394   2.495  15.237 -0.1408 -0.5864 -0.1070
  497TMC3     H 7392   4.226   2.393  15.081  1.2455 -0.8477 -0.4112
  497TMC3    H1 7393   4.154   2.376  15.493 -1.0282 -0.0663  0.2197
  497TMC3    H2 7394   4.270   2.023  15.289  0.9560  0.7315 -1.1028
  497TMC3    C7 7395   4.282   2.148  15.528  0.5854  0.1086 -0.4702
  497TMC3    C8 7396   4.217   2.124  15.053 -1.1655  0.0714 -0.2129
  497TMC3    O1 7397   4.285   2.029  15.554  0.2441 -0.2396  0.2633
  497TMC3    O2 7398   4.207   2.002  15.061 -0.0757 -0.6547  0.5094
  498MPD2     C 7399   0.555   3.853   9.326  0.3250  0.0907 -0.1267
  498MPD2    C1 7400   0.658   3.774   9.373  1.0005 -0.7455 -0.1926
  498MPD2    C2 7401   0.636   3.671   9.458  0.0212 -0.0167  0.4241
  498MPD2    C3 7402   0.502   3.634   9.482  0.5513  0.0173 -0.0359
  498MPD2    C4 7403   0.400   3.705   9.431 -0.4545 -0.0961 -0.0001
  498MPD2    C5 7404   0.429   3.808   9.341 -0.1258 -0.5059  0.3735
  498MPD2     H 7405   0.717   3.614   9.500  0.8856 -1.0896 -2.6904
  498MPD2    H1 7406   0.294   3.685   9.443 -0.9049  0.8732 -2.3017
  498MPD2    H2 7407   0.570   3.937   9.258 -2.5882 -0.2840 -1.2457
  498MPD2    H3 7408   0.352   3.856   9.283 -1.4516 -0.9454  1.7575
  498MPD2     N 7409   0.481   3.535   9.580 -0.2762  0.9541 -0.1162
  498MPD2    H5 7410   0.560   3.499   9.633 -0.1015 -0.3533 -1.2534
  498MPD2    N1 7411   0.795   3.806   9.340 -0.0323 -0.3055  0.1718
  498MPD2    H7 7412   0.863   3.735   9.364  1.1093  1.6961  2.8813
  499TMC3    C1 7413   0.959   3.901   9.221 -0.2326 -0.0193 -0.2493
  499TMC3    C2 7414   1.003   3.774   9.216 -0.3052  0.0512  0.1165
  499TMC3    C3 7415   1.138   3.755   9.240 -0.3095 -0.5575  0.4236
  499TMC3    C4 7416   1.031   4.015   9.245  0.1442 -0.4934  0.1656
  499TMC3    C5 7417   1.163   3.986   9.271  0.0586  0.3015  0.1614
  499TMC3    C6 7418   1.219   3.863   9.264  0.3828 -0.5478 -0.0615
  499TMC3     C 7419   0.829   3.915   9.279  0.0488  0.0189  0.0450
  499TMC3     O 7420   0.772   4.023   9.267 -0.6824 -0.1531  0.4815
  499TMC3     H 7421   0.938   3.690   9.193  0.7218 -0.1873 -1.9452
  499TMC3    H1 7422   0.981   4.110   9.263  0.5792 -0.3051  0.3758
  499TMC3    H2 7423   1.327   3.853   9.269  0.3124 -0.0959  2.6759
  499TMC3    C7 7424   1.240   4.103   9.316  0.5705  0.7739  0.2902
  499TMC3    C8 7425   1.188   3.632   9.178 -0.4078 -0.3229 -0.9507
  499TMC3    O1 7426   1.218   4.210   9.258  0.4305 -0.0629  0.1694
  499TMC3    O2 7427   1.110   3.562   9.114  0.4666 -0.4473  0.5672
  500MPD2     C 7428   2.962   4.452  10.387  0.1369  0.1498 -0.0258
  500MPD2    C1 7429   2.964   4.557  10.304  0.3996 -0.2842 -0.5145
  500MPD2    C2 7430   2.849   4.626  10.286  0.1329 -0.0240  0.4614
  500MPD2    C3 7431   2.737   4.600  10.351  0.8756 -0.5743 -0.0926
  500MPD2    C4 7432   2.733   4.491  10.433  0.0828 -0.2119 -0.1201
  500MPD2    C5 7433   2.845   4.414  10.447  0.3974  0.0966  0.6603
  500MPD2     H 7434   2.841   4.708  10.216  1.3394  1.4016  1.9974
  500MPD2    H1 7435   2.646   4.467  10.493  0.2769  0.3572  0.3873
  500MPD2    H2 7436   3.044   4.382  10.398 -0.6549 -0.8265 -0.3980
  500MPD2    H3 7437   2.840   4.325  10.509  1.2042 -0.1156  0.4185
  500MPD2     N 7438   2.619   4.683  10.340 -1.5283 -0.6013 -0.0919
  500MPD2    H5 7439   2.540   4.648  10.393 -0.8675 -0.3892  1.0425
  500MPD2    N1 7440   3.082   4.599  10.233  0.0698  0.3438  0.0794
  500MPD2    H7 7441   3.072   4.675  10.166  0.4840  0.2122 -0.1323
  501TMC3    C1 7442   3.322   4.615  10.196  0.0533 -0.0513  0.3689
  501TMC3    C2 7443   3.311   0.009  10.129  0.1400 -0.6621 -0.4002
  501TMC3    C3 7444   3.420   0.088  10.100 -0.4126  0.7675  0.1627
  501TMC3    C4 7445   3.452   4.570  10.234 -0.1599 -0.4363 -0.3855
  501TMC3    C5 7446   3.559   4.651  10.213  0.1862 -0.7983  0.4346
  501TMC3    C6 7447   3.540   0.053  10.151  0.0654  0.1005 -0.3351
  501TMC3     C 7448   3.211   4.546  10.261 -0.7441 -0.0079 -0.6271
  501TMC3     O 7449   3.248   4.474  10.354  0.0108 -0.0930 -0.4037
  501TMC3     H 7450   3.209   0.041  10.107 -0.7850 -2.2005  1.6616
  501TMC3    H1 7451   3.464   4.472  10.278 -0.0119 -1.2510 -2.2112
  501TMC3    H2 7452   3.619   0.125  10.134 -0.6874  0.7859 -0.8912
  501TMC3    C7 7453   3.660   4.643  10.315 -0.4752  0.0344  0.5430
  501TMC3    C8 7454   3.401   0.224  10.132 -0.0546  0.1819 -0.0269
  501TMC3    O1 7455   3.675   4.531  10.366  0.3670  0.4402  0.1480
  501TMC3    O2 7456   3.485   0.282  10.199 -0.2034 -0.1687  0.0139
  502TMC3    C1 7457   2.445   3.153  15.174  0.2000 -0.6556  0.1536
  502TMC3    C2 7458   2.425   3.281  15.122  0.2875 -0.7656  0.6510
  502TMC3    C3 7459   2.307   3.322  15.063  0.5023 -0.3041  0.3813
  502TMC3    C4 7460   2.342   3.070  15.177 -0.2997 -0.1781  0.6861
  502TMC3    C5 7461   2.215   3.119  15.150  0.3335 -0.8374  1.0210
  502TMC3    C6 7462   2.201   3.237  15.083  0.4105 -0.6538 -0.3284
  502TMC3     C 7463   2.550   3.127  15.266 -0.0481 -0.4737  0.2779
  502TMC3     O 7464   2.651   3.194  15.261  0.4854  0.7302  0.6845
  502TMC3     H 7465   2.496   3.360  15.142 -0.6505  0.1422  0.4332
  502TMC3    H1 7466   2.340   2.968  15.213 -1.5838  0.1815  1.6619
  502TMC3    H2 7467   2.107   3.257  15.032  1.0554  2.2199 -0.4215
  502TMC3    C7 7468   2.110   3.021  15.136  0.1294 -0.6482  0.1650
  502TMC3    C8 7469   2.279   3.464  15.046  0.1027  0.3677  0.0069
  502TMC3    O1 7470   2.143   2.906  15.151  0.1541  0.2671  0.1610
  502TMC3    O2 7471   2.372   3.531  14.997  0.1961 -0.4665  0.0532
  503MPD2     C 7472   4.145   4.252  16.671 -0.0374  0.1995  0.3834
  503MPD2    C1 7473   4.173   4.300  16.796 -0.9437 -0.2392 -0.2104
  503MPD2    C2 7474   4.190   4.207  16.893  0.1444 -0.1359 -0.2676
  503MPD2    C3 7475   4.207   4.070  16.864  0.8701  0.1934  0.1808
  503MPD2    C4 7476   4.177   4.029  16.736  0.3086  0.3838 -0.5479
  503MPD2    C5 7477   4.150   4.121  16.640  0.3234  0.0046 -0.7814
  503MPD2     H 7478   4.205   4.253  16.990 -0.4007  0.2663 -0.3761
  503MPD2    H1 7479   4.159   3.927  16.705  2.4811 -0.4064  0.8202
  503MPD2    H2 7480   4.125   4.321  16.589  2.8302  2.0095  1.1911
  503MPD2    H3 7481   4.103   4.085  16.549  0.5545 -0.7326 -0.6083
  503MPD2     N 7482   4.251   3.980  16.969 -0.4621  0.1104 -0.7285
  503MPD2    H5 7483   4.269   4.011  17.064 -1.5218  0.4445 -0.6370
  503MPD2    N1 7484   4.172   4.435  16.829 -0.2638 -0.2260  0.6452
  503MPD2    H7 7485   4.178   4.460  16.928  0.5624  0.7467  0.3569
  504TMC3    C1 7486   4.375   3.800  17.051 -0.1684  0.1486  0.6896
  504TMC3    C2 7487   4.367   3.857  17.172 -0.4987 -0.3407 -0.2739
  504TMC3    C3 7488   4.463   3.830  17.263  0.2466  0.5473  0.5102
  504TMC3    C4 7489   4.467   3.705  17.013  0.4991 -0.0835  0.2391
  504TMC3    C5 7490   4.574   3.700  17.097  0.3967 -0.2202 -0.1642
  504TMC3    C6 7491   4.572   3.759  17.229 -0.1743  0.5644  0.9763
  504TMC3     C 7492   4.298   3.857  16.941  0.9214  0.3495 -0.9071
  504TMC3     O 7493   4.304   3.795  16.839 -0.0530  0.1076  0.0985
  504TMC3     H 7494   4.283   3.919  17.203 -1.0291  0.3078 -2.9721
  504TMC3    H1 7495   4.463   3.670  16.911  1.8375  0.1470  0.1075
  504TMC3    H2 7496   4.651   3.736  17.300  2.2787  2.2073 -1.2032
  504TMC3    C7 7497   4.690   3.626  17.043  0.2038 -0.1553 -0.0658
  504TMC3    C8 7498   4.427   3.850  17.403 -0.3294 -0.2868 -0.0095
  504TMC3    O1 7499   4.691   3.602  16.922 -0.5143  0.3031  0.2922
  504TMC3    O2 7500   4.386   3.962  17.429  0.0951  0.4265 -0.0957
  505MPD2     C 7501   0.089   2.903  10.711  0.2884  0.2925 -0.1255
  505MPD2    C1 7502   0.209   2.828  10.720 -0.0775  0.1024  0.6617
  505MPD2    C2 7503   0.322   2.893  10.771 -0.7321  0.0645 -0.2182
  505MPD2    C3 7504   0.318   3.027  10.814 -0.1173  0.1324 -0.5455
  505MPD2    C4 7505   0.194   3.089  10.815  0.7144 -0.5767 -0.1682
  505MPD2    C5 7506   0.087   3.028  10.763 -0.2050 -0.2053 -0.4695
  505MPD2     H 7507   0.424   2.858  10.768 -0.5471  0.6974 -1.3180
  505MPD2    H1 7508   0.186   3.192  10.848 -1.6085  0.1157 -2.9711
  505MPD2    H2 7509   4.723   2.867  10.661 -0.5379  1.4694  0.5006
  505MPD2    H3 7510   4.711   3.072  10.774 -0.1842  0.4104 -2.8505
  505MPD2     N 7511   0.439   3.096  10.851 -0.2168  0.5817  0.2929
  505MPD2    H5 7512   0.522   3.037  10.848 -1.2456 -0.6879 -3.5613
  505MPD2    N1 7513   0.215   2.699  10.662 -0.2894 -0.3491 -0.3843
  505MPD2    H7 7514   0.130   2.673  10.614 -0.2745 -0.5357 -0.3065
  506TMC3    C1 7515   0.312   2.499  10.580  0.0685 -0.0967 -0.5181
  506TMC3    C2 7516   0.241   2.523  10.463 -0.3765  0.1375  0.3158
  506TMC3    C3 7517   0.284   2.455  10.352  0.7069 -0.0123 -0.8015
  506TMC3    C4 7518   0.424   2.422  10.580  0.3891 -0.6136 -0.6744
  506TMC3    C5 7519   0.476   2.377  10.459  0.4081  0.3550 -0.5184
  506TMC3    C6 7520   0.408   2.395  10.345  0.1399  0.2212  0.0390
  506TMC3     C 7521   0.324   2.611  10.672 -0.1973 -0.5176 -0.4755
  506TMC3     O 7522   0.437   2.625  10.716 -0.2793  0.1987  0.4444
  506TMC3     H 7523   0.152   2.584  10.456 -0.2726 -0.0439 -2.6068
  506TMC3    H1 7524   0.465   2.398  10.677 -1.4012  0.3474  0.3172
  506TMC3    H2 7525   0.448   2.349  10.255 -0.4099 -4.3401  2.1120
  506TMC3    C7 7526   0.601   2.435  10.431  0.2403 -0.0654 -0.1366
  506TMC3    C8 7527   0.225   2.466  10.223  0.5386 -0.1409 -0.5281
  506TMC3    O1 7528   0.642   2.422  10.315  0.3310  0.0807  0.2607
  506TMC3    O2 7529   0.232   2.365  10.152  0.1398  0.1554  0.2440
  507TMC3    C1 7530   0.732   3.698  14.689  0.2361  0.6584 -0.3410
  507TMC3    C2 7531   0.701   3.613  14.579  0.2961  0.1997 -0.2990
  507TMC3    C3 7532   0.784   3.609  14.468  0.8701 -0.1994 -0.3378
  507TMC3    C4 7533   0.838   3.782  14.679  0.0439 -0.1463 -0.1701
  507TMC3    C5 7534   0.919   3.778  14.565  0.1159  1.3442  0.7642
  507TMC3    C6 7535   0.896   3.685  14.465 -0.5511  0.4747  0.2293
  507TMC3     C 7536   0.676   3.658  14.819 -0.4937  0.3521  0.1350
  507TMC3     O 7537   0.732   3.691  14.923  0.5399 -0.2999  0.0435
  507TMC3     H 7538   0.627   3.535  14.592 -1.4325  2.2809  2.5222
  507TMC3    H1 7539   0.853   3.851  14.761 -1.3458  0.5408 -0.4857
  507TMC3    H2 7540   0.957   3.675  14.376 -0.1391  0.5674  0.5012
  507TMC3    C7 7541   0.950   3.906  14.516  0.4601  0.5893  1.2926
  507TMC3    C8 7542   0.723   3.601  14.343  0.3625  0.9863 -0.4925
  507TMC3    O1 7543   0.986   3.919  14.399  0.4129  0.8686  0.6825
  507TMC3    O2 7544   0.784   3.656  14.250  0.4695  0.1679 -0.2374
  508MPD2     C 7545   1.376   1.356  15.859  0.3136  0.4938  0.2531
  508MPD2    C1 7546   1.432   1.468  15.901  0.5130  0.1087 -0.6151
  508MPD2    C2 7547   1.444   1.575  15.808 -0.1748  0.4456 -0.1495
  508MPD2    C3 7548   1.402   1.573  15.679  0.6701 -0.0907  0.1331
  508MPD2    C4 7549   1.332   1.454  15.637  0.1001 -1.0974 -0.0481
  508MPD2    C5 7550   1.320   1.353  15.731 -0.5969  0.0749  0.5236
  508MPD2     H 7551   1.475   1.663  15.862  1.1332  0.1152 -0.3704
  508MPD2    H1 7552   1.308   1.439  15.532  0.5183  1.0590 -0.4640
  508MPD2    H2 7553   1.359   1.272  15.925  0.8321  1.2792  1.3910
  508MPD2    H3 7554   1.272   1.260  15.701 -3.2384  1.3843  0.6594
  508MPD2     N 7555   1.426   1.688  15.599  0.1626 -0.1667  0.2103
  508MPD2    H5 7556   1.469   1.769  15.643 -0.4520  0.7034 -0.7808
  508MPD2    N1 7557   1.493   1.462  16.023 -0.4277  0.4554 -0.4860
  508MPD2    H7 7558   1.468   1.392  16.092  0.9775  0.7035  0.2821
  509TMC3    C1 7559   1.341   1.972  15.237 -0.2838 -0.3833  0.3799
  509TMC3    C2 7560   1.443   2.056  15.264  0.1973 -0.4849  0.3691
  509TMC3    C3 7561   1.518   2.021  15.374 -0.4686  0.0552  0.5075
  509TMC3    C4 7562   1.297   1.875  15.318 -0.0453  0.0144  0.7525
  509TMC3    C5 7563   1.372   1.851  15.431 -0.1277  0.3836 -0.1532
  509TMC3    C6 7564   1.489   1.917  15.456  0.0011  0.3026 -0.1805
  509TMC3     C 7565   1.235   2.019  15.163  0.0776 -0.3789 -0.1211
  509TMC3     O 7566   1.125   2.000  15.210 -0.1440 -0.0050  0.2701
  509TMC3     H 7567   1.472   2.143  15.207  1.4280 -1.1480 -0.0133
  509TMC3    H1 7568   1.209   1.812  15.307 -0.9839  1.4177  0.2323
  509TMC3    H2 7569   1.556   1.875  15.530  0.9676  1.2863 -0.5008
  509TMC3    C7 7570   1.368   1.711  15.476  0.1874  0.6067 -0.5566
  509TMC3    C8 7571   1.651   2.073  15.384  0.1459 -0.0599  0.2038
  509TMC3    O1 7572   1.298   1.630  15.413  0.2001  0.0339  0.0099
  509TMC3    O2 7573   1.697   2.080  15.498 -0.8552 -0.1675 -0.6545
  510MPD2     C 7574   4.132   3.159  14.447  0.1457 -0.3531  0.2101
  510MPD2    C1 7575   4.182   3.075  14.546 -0.3161 -0.2897  0.1371
  510MPD2    C2 7576   4.325   3.062  14.552  0.8941 -0.3420 -0.2755
  510MPD2    C3 7577   4.401   3.128  14.458 -0.5680 -0.3697  0.0646
  510MPD2    C4 7578   4.351   3.201  14.356  0.1498  0.0137  0.2130
  510MPD2    C5 7579   4.212   3.219  14.354 -0.1230 -0.6166 -0.3754
  510MPD2     H 7580   4.372   3.005  14.631  1.6601 -0.6395 -0.9443
  510MPD2    H1 7581   4.404   3.255  14.278  1.0492  0.7242  1.3134
  510MPD2    H2 7582   4.027   3.161  14.422 -0.3728 -0.8887  2.3243
  510MPD2    H3 7583   4.160   3.270  14.273  1.9274 -0.8298 -1.8471
  510MPD2     N 7584   4.541   3.109  14.463 -0.0731  0.1213  0.1827
  510MPD2    H5 7585   4.577   3.025  14.506 -1.7378  0.7238  2.7719
  510MPD2    N1 7586   4.090   3.012  14.631 -0.1308  0.3451 -0.0009
  510MPD2    H7 7587   3.994   3.046  14.635 -0.7133 -0.9400 -3.0977
  511TMC3    C1 7588   4.027   2.863  14.812  0.3491 -0.9150 -0.3377
  511TMC3    C2 7589   3.917   2.940  14.844  0.4731  0.2778 -0.1717
  511TMC3    C3 7590   3.815   2.873  14.906  0.1812 -0.2075  0.1127
  511TMC3    C4 7591   4.046   2.735  14.859  0.5274  0.7648  0.4513
  511TMC3    C5 7592   3.943   2.673  14.916  0.5114  0.2951  0.5280
  511TMC3    C6 7593   3.822   2.735  14.932  0.6037 -0.2286  0.2543
  511TMC3     C 7594   4.121   2.909  14.714  0.4209  0.4279 -0.0692
  511TMC3     O 7595   4.226   2.852  14.707 -0.1058 -0.2975  0.1855
  511TMC3     H 7596   3.913   3.048  14.838 -2.1808  0.2713  1.5485
  511TMC3    H1 7597   4.125   2.672  14.820  0.3786  1.0040 -0.2413
  511TMC3    H2 7598   3.739   2.689  14.984 -0.8909  2.7445  0.4945
  511TMC3    C7 7599   3.963   2.527  14.932  0.6656  0.6774 -0.3996
  511TMC3    C8 7600   3.713   2.958  14.972 -0.1757  0.4860 -0.3604
  511TMC3    O1 7601   4.074   2.483  14.898 -0.1046  0.1735 -0.2736
  511TMC3    O2 7602   3.645   2.899  15.062  0.1637  0.3070 -0.4346
  512TMC3    C1 7603   2.895   2.457  13.107 -0.7516 -0.1175  0.5465
  512TMC3    C2 7604   2.976   2.445  13.219  1.1235  0.1317 -0.3503
  512TMC3    C3 7605   3.082   2.357  13.218 -0.1473 -0.0988 -0.3775
  512TMC3    C4 7606   2.915   2.370  13.003 -0.8915  0.2634 -0.1910
  512TMC3    C5 7607   3.016   2.275  13.010  0.0166  0.2698 -0.0382
  512TMC3    C6 7608   3.099   2.267  13.116  0.0747  0.2420  0.2355
  512TMC3     C 7609   2.781   2.549  13.128 -0.1455  0.0316 -0.1646
  512TMC3     O 7610   2.799   2.637  13.212 -0.2263 -0.3170  0.2741
  512TMC3     H 7611   2.958   2.505  13.307  1.9866  1.1081 -0.8348
  512TMC3    H1 7612   2.872   2.390  12.905  0.5386 -2.8396 -1.4807
  512TMC3    H2 7613   3.192   2.211  13.114  1.3262  2.2784  1.6960
  512TMC3    C7 7614   3.054   2.203  12.890 -0.0932 -0.4265  0.0679
  512TMC3    C8 7615   3.189   2.360  13.310  0.5121  0.2638  0.5407
  512TMC3    O1 7616   3.015   2.239  12.782 -0.1879  0.2453 -0.2754
  512TMC3    O2 7617   3.234   2.253  13.354  0.1371  0.5684 -0.1528
  513MPD2     C 7618   0.158   2.251  12.336 -0.0131 -0.0553  0.1736
  513MPD2    C1 7619   0.258   2.337  12.365  0.3660 -0.3129 -0.1187
  513MPD2    C2 7620   0.320   2.331  12.487 -0.0652 -0.1587 -0.6658
  513MPD2    C3 7621   0.274   2.251  12.585  0.1208 -0.1740 -0.1882
  513MPD2    C4 7622   0.163   2.168  12.561 -0.7537 -0.4272 -0.7001
  513MPD2    C5 7623   0.118   2.171  12.432 -0.3708 -0.5564 -0.3784
  513MPD2     H 7624   0.407   2.391  12.514 -0.3376  0.5036 -1.2610
  513MPD2    H1 7625   0.114   2.102  12.632 -0.9537  1.7795  1.2405
  513MPD2    H2 7626   0.121   2.241  12.235  1.0504 -2.4032  0.0027
  513MPD2    H3 7627   0.036   2.103  12.413  0.4333 -1.8292  0.7436
  513MPD2     N 7628   0.315   2.274  12.716 -0.3202  1.0272 -0.0072
  513MPD2    H5 7629   0.374   2.356  12.731 -0.0637  0.8541 -0.0737
  513MPD2    N1 7630   0.295   2.429  12.261  0.3768  0.8758  0.6700
  513MPD2    H7 7631   0.255   2.416  12.169 -1.3946 -0.7406  1.6834
  514TMC3    C1 7632   0.380   2.641  12.178 -0.1533  0.1926  0.0396
  514TMC3    C2 7633   0.260   2.668  12.132 -0.4652  0.6755  0.6996
  514TMC3    C3 7634   0.223   2.807  12.131 -0.3854 -0.2586  0.0070
  514TMC3    C4 7635   0.463   2.736  12.222 -0.5076 -0.0312 -0.1576
  514TMC3    C5 7636   0.419   2.867  12.229 -0.3775  0.0167  0.7059
  514TMC3    C6 7637   0.300   2.906  12.179  0.1080  0.5971  0.6542
  514TMC3     C 7638   0.377   2.539  12.285 -0.0500  0.0068 -0.2411
  514TMC3     O 7639   0.427   2.576  12.390  0.1163 -0.1524  0.6380
  514TMC3     H 7640   0.202   2.582  12.100 -0.2751  0.4233  1.0445
  514TMC3    H1 7641   0.557   2.707  12.269 -0.1567  0.8959 -0.2862
  514TMC3    H2 7642   0.273   3.011  12.185  0.6067  0.8745 -1.9473
  514TMC3    C7 7643   0.466   2.938  12.348  0.7252  0.5812 -1.0829
  514TMC3    C8 7644   0.134   2.857  12.028  0.0420 -0.0178 -0.5108
  514TMC3    O1 7645   0.451   3.062  12.348  0.2171  0.3659 -0.0974
  514TMC3    O2 7646   0.101   2.972  12.039  0.0600  0.0234 -0.2440
  515MPD2     C 7647   2.542   3.976  15.024 -0.1574 -0.7587 -0.6736
  515MPD2    C1 7648   2.606   4.028  14.916 -0.1142  0.6521  0.2204
  515MPD2    C2 7649   2.700   4.124  14.938  0.3202  0.5034 -0.3132
  515MPD2    C3 7650   2.734   4.170  15.066  0.0790  0.1548 -1.1064
  515MPD2    C4 7651   2.662   4.119  15.169  0.5159 -0.5363 -0.0045
  515MPD2    C5 7652   2.569   4.029  15.143  0.0699  0.1102  0.0757
  515MPD2     H 7653   2.758   4.153  14.850  1.5846  1.1228  0.7193
  515MPD2    H1 7654   2.687   4.150  15.269  0.4420  0.6939 -0.3718
  515MPD2    H2 7655   2.464   3.901  15.022 -0.7223 -0.1625 -1.0361
  515MPD2    H3 7656   2.514   4.000  15.232  1.1573 -0.0952  0.6711
  515MPD2     N 7657   2.848   4.251  15.091 -0.8048 -0.7071 -0.7234
  515MPD2    H5 7658   2.855   4.277  15.189 -1.8755  0.0078 -0.8423
  515MPD2    N1 7659   2.575   3.991  14.787  0.3554  0.1859 -0.2092
  515MPD2    H7 7660   2.640   4.019  14.714  1.2838 -1.2632  0.0478
  516TMC3    C1 7661   2.458   3.893  14.611 -0.6590 -0.0550  0.6522
  516TMC3    C2 7662   2.478   3.991  14.516 -0.1646 -0.3284  0.0458
  516TMC3    C3 7663   2.482   3.949  14.390 -0.2855  0.5721 -0.3096
  516TMC3    C4 7664   2.407   3.771  14.582 -0.0809  0.0512 -0.0727
  516TMC3    C5 7665   2.407   3.733  14.452 -0.3017 -0.2041  0.6663
  516TMC3    C6 7666   2.442   3.822  14.350  0.1002 -0.1206 -0.4726
  516TMC3     C 7667   2.460   3.927  14.747  0.5311  0.1309  1.2953
  516TMC3     O 7668   2.367   3.888  14.818  0.5211 -0.1599 -0.8714
  516TMC3     H 7669   2.513   4.087  14.553  1.3521  0.2500 -2.9072
  516TMC3    H1 7670   2.352   3.716  14.658  0.4999  0.5733  0.7330
  516TMC3    H2 7671   2.448   3.795  14.245  0.8033  1.2692 -0.7776
  516TMC3    C7 7672   2.425   3.592  14.426  0.3354 -0.0732 -0.3742
  516TMC3    C8 7673   2.535   4.030  14.285  0.2625  1.0627 -0.1555
  516TMC3    O1 7674   2.416   3.558  14.307  0.2932 -0.2474  0.5912
  516TMC3    O2 7675   2.565   3.969  14.181  0.0473 -0.2178 -0.0456
  517MPD2     C 7676   2.858   0.535   0.250  0.2851 -0.3349  0.5073
  517MPD2    C1 7677   2.885   0.618   0.145 -0.3542  0.0987  0.2716
  517MPD2    C2 7678   2.932   0.750   0.168 -0.0562 -0.5429 -0.4515
  517MPD2    C3 7679   2.936   0.798   0.296  1.1678  0.2555  1.1783
  517MPD2    C4 7680   2.907   0.712   0.400  0.4481  0.0044  0.2693
  517MPD2    C5 7681   2.870   0.582   0.376  0.1829 -0.1602 -0.0703
  517MPD2     H 7682   2.951   0.814   0.083 -1.9982  1.1470  0.3817
  517MPD2    H1 7683   2.887   0.755   0.498  0.6121  0.9554 -0.1149
  517MPD2    H2 7684   2.814   0.436   0.237 -2.5180  1.0447 -0.5129
  517MPD2    H3 7685   2.836   0.522   0.460  0.8810  0.7048  0.8288
  517MPD2     N 7686   2.954   0.932   0.333  0.6733 -0.4620  0.0578
  517MPD2    H5 7687   2.950   0.957   0.431  1.6700 -2.6695  0.6581
  517MPD2    N1 7688   2.879   0.578   0.007 -0.4659  0.2094 -0.2372
  517MPD2    H7 7689   2.922   0.632  17.627  0.4598  0.7009  0.6601
  518TMC3    C1 7690   2.816   0.426  17.531  0.2539  0.1740 -0.0742
  518TMC3    C2 7691   2.715   0.346  17.482  0.1963 -0.4082 -0.0087
  518TMC3    C3 7692   2.732   0.291  17.356  0.6029 -0.3522 -0.4644
  518TMC3    C4 7693   2.937   0.446  17.463  0.2407 -0.0629  0.3156
  518TMC3    C5 7694   2.949   0.375  17.344 -0.5567  0.6172 -0.6962
  518TMC3    C6 7695   2.849   0.301  17.291 -0.0031  0.4964 -0.1553
  518TMC3     C 7696   2.810   0.466  17.672 -0.6789  0.1725 -0.4313
  518TMC3     O 7697   2.718   0.406   0.032  0.8901 -0.2106  0.9522
  518TMC3     H 7698   2.619   0.345  17.532 -0.4422  2.7955 -1.1728
  518TMC3    H1 7699   3.021   0.499  17.506  1.6695 -0.4559 -2.0111
  518TMC3    H2 7700   2.856   0.275  17.186 -2.9845  1.4959 -0.5928
  518TMC3    C7 7701   3.074   0.376  17.266  0.5841  0.3704  0.3374
  518TMC3    C8 7702   2.653   0.174  17.314 -0.2498  0.2599 -0.2459
  518TMC3    O1 7703   3.134   0.483  17.273  0.2833 -0.4488  0.0606
  518TMC3    O2 7704   2.708   0.108  17.228 -0.2724  0.1417 -0.0703
  519MPD2     C 7705   4.440   4.221  14.049 -0.2642 -0.1206 -0.3609
  519MPD2    C1 7706   4.404   4.187  13.920 -0.6237 -0.3195  0.0561
  519MPD2    C2 7707   4.430   4.056  13.871 -0.1648 -0.6151  0.3780
  519MPD2    C3 7708   4.475   3.957  13.951  0.0018 -0.7610 -0.7879
  519MPD2    C4 7709   4.522   3.991  14.076 -0.4716 -0.7181  0.6699
  519MPD2    C5 7710   4.504   4.119  14.125 -0.6581  0.1730  0.2454
  519MPD2     H 7711   4.405   4.033  13.768  1.6200 -0.0735 -0.1741
  519MPD2    H1 7712   4.569   3.924  14.146  0.7681 -0.5734 -0.0163
  519MPD2    H2 7713   4.425   4.323  14.085 -0.3969 -0.3250  0.1581
  519MPD2    H3 7714   4.546   4.138  14.223  1.3237  0.2519 -0.6216
  519MPD2     N 7715   4.468   3.821  13.919  0.0961  0.2816  0.3697
  519MPD2    H5 7716   4.520   3.754  13.976 -2.3403 -0.0583  2.1798
  519MPD2    N1 7717   4.316   4.269  13.848 -0.0632  0.4074  0.4042
  519MPD2    H7 7718   4.270   4.350  13.891 -1.8724 -0.5801  0.3443
  520TMC3    C1 7719   4.420   3.647  13.771 -0.2723 -0.1754  0.1277
  520TMC3    C2 7720   4.361   3.627  13.651  0.3235  1.7017 -0.4551
  520TMC3    C3 7721   4.422   3.557  13.553  0.2621 -0.0606 -0.6580
  520TMC3    C4 7722   4.545   3.603  13.796  0.3993 -0.3178 -0.0514
  520TMC3    C5 7723   4.611   3.542  13.695 -0.6668  0.1533 -0.2293
  520TMC3    C6 7724   4.555   3.528  13.574  0.7329  0.0079  0.0251
  520TMC3     C 7725   4.381   3.772  13.827 -0.5325  0.5866  0.3709
  520TMC3     O 7726   4.275   3.827  13.794  0.4118 -0.2149 -0.5827
  520TMC3     H 7727   4.265   3.669  13.627 -0.0620 -0.1484 -2.1354
  520TMC3    H1 7728   4.598   3.629  13.886 -0.5613 -1.0671  0.7324
  520TMC3    H2 7729   4.612   3.494  13.489 -0.8272 -0.0305 -1.0161
  520TMC3    C7 7730   0.026   3.509  13.710 -0.6696  0.3471  0.9827
  520TMC3    C8 7731   4.381   3.602  13.422  0.2937  1.0443 -0.2287
  520TMC3    O1 7732   0.067   3.392  13.699 -0.8021 -0.3074 -0.1437
  520TMC3    O2 7733   4.471   3.647  13.353 -0.5793  0.3332 -0.9176
  521MPD2     C 7734   0.340   1.917  17.395 -0.6238  0.4151 -0.8702
  521MPD2    C1 7735   0.304   1.849  17.274 -0.0989  0.6086  0.4846
  521MPD2    C2 7736   0.400   1.792  17.189 -0.2564 -0.4716  0.3938
  521MPD2    C3 7737   0.526   1.777  17.232 -0.4922  0.5733  0.2423
  521MPD2    C4 7738   0.560   1.831  17.356 -0.1152 -0.2471  0.9415
  521MPD2    C5 7739   0.471   1.899  17.432  0.1198  0.0095 -0.0663
  521MPD2     H 7740   0.388   1.741  17.094 -2.5927 -0.1264  0.5164
  521MPD2    H1 7741   0.659   1.820  17.400 -0.6500  0.3469  2.2786
  521MPD2    H2 7742   0.277   1.970  17.466 -0.6682 -0.5319 -0.1955
  521MPD2    H3 7743   0.503   1.945  17.525  1.6671 -0.9816 -0.1130
  521MPD2     N 7744   0.621   1.705  17.159  0.1889 -0.2688  0.2774
  521MPD2    H5 7745   0.580   1.643  17.090 -0.6765  0.5337  0.0666
  521MPD2    N1 7746   0.168   1.852  17.237 -0.0639 -0.3194 -0.4389
  521MPD2    H7 7747   0.106   1.890  17.307  0.2309  1.5263 -1.1950
  522TMC3    C1 7748   0.825   1.603  17.088  0.2120  0.1055 -0.0722
  522TMC3    C2 7749   0.959   1.582  17.100  0.3999  0.4678 -0.0955
  522TMC3    C3 7750   1.022   1.479  17.027  0.2567 -0.4426 -0.5117
  522TMC3    C4 7751   0.756   1.537  16.990  0.1849  0.1856 -0.0016
  522TMC3    C5 7752   0.821   1.452  16.909 -0.3392  0.1091  0.4678
  522TMC3    C6 7753   0.957   1.425  16.919  0.6460  1.0622  0.2788
  522TMC3     C 7754   0.753   1.689  17.185  0.6756 -0.7468 -0.3896
  522TMC3     O 7755   0.832   1.738  17.265  0.1398 -0.2397 -0.4278
  522TMC3     H 7756   1.015   1.652  17.161 -1.1606  0.2988  1.5100
  522TMC3    H1 7757   0.649   1.545  16.976 -0.1049  0.7500  2.4323
  522TMC3    H2 7758   0.996   1.361  16.841 -1.8294  1.1949 -1.0498
  522TMC3    C7 7759   0.753   1.403  16.791  0.3882 -0.4683  0.3016
  522TMC3    C8 7760   1.162   1.458  17.045 -0.0120  0.2764 -0.2465
  522TMC3    O1 7761   0.789   1.294  16.747 -0.0592  0.0788  0.6837
  522TMC3    O2 7762   1.210   1.478  17.155  0.3794  0.3831  0.1108
  523MPD2     C 7763   3.197   1.236  10.434 -0.5051 -0.4676 -0.1015
  523MPD2    C1 7764   3.192   1.246  10.294 -0.0300  0.0750  0.4776
  523MPD2    C2 7765   3.178   1.370  10.233  0.2112 -0.3197  0.1699
  523MPD2    C3 7766   3.127   1.474  10.309 -0.2553 -0.3783  0.6014
  523MPD2    C4 7767   3.121   1.464  10.446 -0.5248 -0.2884  0.1639
  523MPD2    C5 7768   3.159   1.345  10.508 -0.2853 -0.2976 -0.0762
  523MPD2     H 7769   3.178   1.375  10.125  0.3103  1.7629  0.2576
  523MPD2    H1 7770   3.087   1.553  10.498  2.8965  1.6551 -0.9791
  523MPD2    H2 7771   3.228   1.146  10.486  0.7854  2.1213  3.6857
  523MPD2    H3 7772   3.156   1.332  10.616  0.9477 -0.0934 -0.0198
  523MPD2     N 7773   3.091   1.600  10.262 -0.7265 -0.1519 -0.0425
  523MPD2    H5 7774   3.059   1.668  10.331 -0.8876  0.1216 -0.3847
  523MPD2    N1 7775   3.232   1.130  10.227 -0.1158  0.0772 -0.0512
  523MPD2    H7 7776   3.252   1.050  10.286 -0.3943 -0.3147 -0.4844
  524TMC3    C1 7777   3.040   1.768  10.102  0.6206  0.6136  0.1903
  524TMC3    C2 7778   3.013   1.789   9.967 -0.4488  0.1256 -0.1722
  524TMC3    C3 7779   2.935   1.888   9.926 -0.0578  0.2619  0.4314
  524TMC3    C4 7780   2.986   1.845  10.201  0.0364 -0.0414  0.4168
  524TMC3    C5 7781   2.897   1.942  10.153 -0.5399 -0.1239  0.1880
  524TMC3    C6 7782   2.866   1.961  10.019 -0.0807  0.0397  0.5766
  524TMC3     C 7783   3.101   1.637  10.128  0.1070  0.7161 -0.0338
  524TMC3     O 7784   3.146   1.570  10.031  0.6337  0.2171 -0.0388
  524TMC3     H 7785   3.071   1.733   9.894  0.6547 -0.8330  1.4484
  524TMC3    H1 7786   3.023   1.846  10.302  1.0402  2.0786  0.0127
  524TMC3    H2 7787   2.780   2.024   9.997 -0.2024 -0.0775  0.7202
  524TMC3    C7 7788   2.856   2.041  10.247 -0.2598  0.2366  0.6957
  524TMC3    C8 7789   2.919   1.917   9.780 -0.3242  1.5452 -0.4409
  524TMC3    O1 7790   2.844   2.000  10.363 -0.2117 -0.1550 -0.2689
  524TMC3    O2 7791   2.953   1.827   9.702 -0.4093 -0.5883  0.5030
  525MPD2     C 7792   1.057   3.450  14.216 -0.1073  0.3645 -0.2803
  525MPD2    C1 7793   1.175   3.459  14.296 -0.3457 -0.1414  0.4525
  525MPD2    C2 7794   1.255   3.576  14.283 -0.1802  0.7326  0.5219
  525MPD2    C3 7795   1.225   3.679  14.200  0.7021 -0.2900 -0.2891
  525MPD2    C4 7796   1.112   3.668  14.122  0.1840 -0.8469 -0.8347
  525MPD2    C5 7797   1.027   3.560  14.132  0.4325 -0.2291  0.4808
  525MPD2     H 7798   1.336   3.578  14.354  1.4489  0.7483 -1.3482
  525MPD2    H1 7799   1.086   3.753  14.061  1.7271  1.0750  1.1855
  525MPD2    H2 7800   1.006   3.355  14.203 -1.4246  1.0858 -0.3755
  525MPD2    H3 7801   0.948   3.553  14.057  1.5249  4.6359 -1.0799
  525MPD2     N 7802   1.298   3.798  14.206 -0.9020 -0.2160 -0.2876
  525MPD2    H5 7803   1.240   3.879  14.184  0.2814  1.6944  3.6698
  525MPD2    N1 7804   1.214   3.364  14.397  0.0319  0.2531  0.2835
  525MPD2    H7 7805   1.308   3.366  14.434  0.1416 -0.8750  0.0832
  526TMC3    C1 7806   1.230   3.163  14.518 -0.1010  0.4120  0.3929
  526TMC3    C2 7807   1.164   3.062  14.590  0.5495  1.2338 -0.0103
  526TMC3    C3 7808   1.247   2.977  14.660  0.1644 -0.7593  0.2490
  526TMC3    C4 7809   1.369   3.168  14.504  0.0056 -0.6064 -0.0095
  526TMC3    C5 7810   1.450   3.081  14.579 -0.1583 -0.1216  0.3215
  526TMC3    C6 7811   1.383   2.979  14.649 -0.3744 -0.2727 -0.4952
  526TMC3     C 7812   1.149   3.253  14.437 -0.7209 -0.6173  0.5882
  526TMC3     O 7813   1.036   3.217  14.413 -0.0500 -0.3487  0.2500
  526TMC3     H 7814   1.056   3.066  14.595  0.5019 -1.8131  1.1301
  526TMC3    H1 7815   1.408   3.225  14.421 -0.3230  2.1085  1.6994
  526TMC3    H2 7816   1.450   2.908  14.696 -2.0740 -1.6131 -0.1047
  526TMC3    C7 7817   1.580   3.050  14.519 -0.3228  0.0927 -0.5541
  526TMC3    C8 7818   1.214   2.970  14.803  0.9297 -0.4351  0.6597
  526TMC3    O1 7819   1.621   2.938  14.532  0.3226 -0.3827  0.7300
  526TMC3    O2 7820   1.312   2.967  14.877  0.4059 -0.3430 -0.0510
  527MPD2     C 7821   3.161   1.551   1.168 -0.0349 -0.0598  0.0627
  527MPD2    C1 7822   3.235   1.440   1.194 -0.1041 -0.1775 -0.1184
  527MPD2    C2 7823   3.344   1.403   1.115 -1.2391  0.1537  0.2220
  527MPD2    C3 7824   3.377   1.478   1.009 -0.3606  0.4305 -0.1873
  527MPD2    C4 7825   3.307   1.588   0.979 -0.0491  0.2352 -0.1222
  527MPD2    C5 7826   3.196   1.616   1.051  0.0744 -0.8528  0.7794
  527MPD2     H 7827   3.399   1.312   1.133 -0.1373  0.4424 -1.6743
  527MPD2    H1 7828   3.327   1.647   0.890  0.6527  1.2202  0.6899
  527MPD2    H2 7829   3.071   1.580   1.221  0.3559  3.2337 -1.0940
  527MPD2    H3 7830   3.137   1.705   1.031  2.2986  0.9994  2.4056
  527MPD2     N 7831   3.498   1.435   0.942  0.1244 -0.3374 -0.3326
  527MPD2    H5 7832   3.540   1.346   0.967 -1.2966 -0.8857  0.0870
  527MPD2    N1 7833   3.214   1.345   1.299  0.4992  0.3726  0.1262
  527MPD2    H7 7834   3.272   1.263   1.290 -0.5451 -0.5353  1.6656
  528TMC3    C1 7835   3.137   1.235   1.489 -0.5078  0.1327  0.1599
  528TMC3    C2 7836   3.258   1.186   1.514 -0.3155  0.0351 -0.9013
  528TMC3    C3 7837   3.260   1.114   1.629  0.3165  0.4261 -0.4037
  528TMC3    C4 7838   3.025   1.203   1.562  0.2382 -0.3027  0.2785
  528TMC3    C5 7839   3.031   1.104   1.656 -0.1100 -0.3438  0.3807
  528TMC3    C6 7840   3.157   1.062   1.695 -0.4907 -0.1413  0.5821
  528TMC3     C 7841   3.119   1.346   1.402 -0.1852 -0.1100  0.4241
  528TMC3     O 7842   3.018   1.419   1.419  0.0640  0.2486 -0.4332
  528TMC3     H 7843   3.349   1.224   1.469 -0.2460 -0.4875 -1.1980
  528TMC3    H1 7844   2.931   1.242   1.524 -0.4307 -2.8451 -0.6706
  528TMC3    H2 7845   3.170   1.006   1.787  0.4221 -0.9304 -0.0330
  528TMC3    C7 7846   2.912   1.039   1.713  0.0290 -0.4296  0.2725
  528TMC3    C8 7847   3.400   1.084   1.671 -0.1418 -0.3178  0.2421
  528TMC3    O1 7848   2.931   0.943   1.784 -0.1079 -0.3888  0.4294
  528TMC3    O2 7849   3.493   1.148   1.618 -0.1865 -0.8307  0.3607
  529MPD2     C 7850   2.028   4.033   0.798 -0.1507 -0.6395  0.1036
  529MPD2    C1 7851   1.917   4.103   0.850 -0.1900 -0.1307 -0.4108
  529MPD2    C2 7852   1.861   4.211   0.786 -0.2264 -0.3454  0.1224
  529MPD2    C3 7853   1.916   4.245   0.665  0.5573 -0.0918  0.5386
  529MPD2    C4 7854   2.008   4.157   0.600  0.2046  0.5773  0.0739
  529MPD2    C5 7855   2.063   4.055   0.670 -0.7261 -0.7713 -0.1682
  529MPD2     H 7856   1.789   4.280   0.830 -0.7141 -1.2500  0.7398
  529MPD2    H1 7857   2.037   4.174   0.496 -3.7805 -0.9214 -1.2701
  529MPD2    H2 7858   2.057   3.942   0.849 -2.2007 -0.0928  2.2698
  529MPD2    H3 7859   2.131   3.982   0.626 -0.9772  0.4002 -2.4845
  529MPD2     N 7860   1.860   4.348   0.585  0.6498 -0.2217  0.1522
  529MPD2    H5 7861   1.918   4.365   0.503 -0.0427 -0.4340 -0.3874
  529MPD2    N1 7862   1.864   4.076   0.985  0.3860  0.3655  1.0403
  529MPD2    H7 7863   1.789   4.133   1.022 -0.8017 -0.0360 -0.7708
  530TMC3    C1 7864   1.816   3.975   1.187 -0.4813  0.1643  0.4247
  530TMC3    C2 7865   1.866   3.923   1.303 -0.4256  1.0425 -0.5464
  530TMC3    C3 7866   1.788   3.944   1.421  0.3052 -0.2324  0.4964
  530TMC3    C4 7867   1.708   4.053   1.187  0.2178 -0.1255 -0.6268
  530TMC3    C5 7868   1.639   4.084   1.303 -0.3388  1.0214  0.0616
  530TMC3    C6 7869   1.676   4.025   1.417 -0.5970  0.1758 -0.6853
  530TMC3     C 7870   1.911   3.988   1.077  0.0131  0.7353 -0.3854
  530TMC3     O 7871   2.010   3.914   1.067  0.6653  0.2272 -0.0723
  530TMC3     H 7872   1.961   3.870   1.302 -0.9647  0.0409  0.3966
  530TMC3    H1 7873   1.652   4.064   1.095  0.5745  2.2957 -0.5574
  530TMC3    H2 7874   1.618   4.040   1.507  2.0322 -1.4022  1.2724
  530TMC3    C7 7875   1.516   4.150   1.296  0.2912  0.9129  0.7791
  530TMC3    C8 7876   1.826   3.880   1.553  0.4175 -0.0136 -0.7840
  530TMC3    O1 7877   1.499   4.210   1.191 -0.1220 -0.0240  0.5643
  530TMC3    O2 7878   1.757   3.921   1.650 -0.2537 -0.1314  0.1649
  531MPD2     C 7879   0.582   2.901  12.847 -0.2434  0.0548  0.1433
  531MPD2    C1 7880   0.548   2.773  12.798 -0.4106 -0.2742  1.0295
  531MPD2    C2 7881   0.533   2.755  12.663 -0.5047  0.9567  0.0060
  531MPD2    C3 7882   0.534   2.859  12.578  0.7421  0.6131 -0.3670
  531MPD2    C4 7883   0.559   2.991  12.630 -0.2182 -0.3741 -0.1230
  531MPD2    C5 7884   0.591   3.008  12.763  0.2207 -0.6283  0.5253
  531MPD2     H 7885   0.515   2.661  12.612  1.3187  0.6291 -0.0305
  531MPD2    H1 7886   0.551   3.083  12.573 -1.7675  0.0128  0.6884
  531MPD2    H2 7887   0.598   2.931  12.950 -0.9535  2.2446 -0.3813
  531MPD2    H3 7888   0.615   3.104  12.807 -0.9924 -0.2427  0.3525
  531MPD2     N 7889   0.498   2.845  12.441 -0.8203  0.1130  0.2664
  531MPD2    H5 7890   0.475   2.751  12.412 -0.4429  0.5680 -1.4771
  531MPD2    N1 7891   0.532   2.670  12.888 -0.0071 -0.5605 -0.2596
  531MPD2    H7 7892   0.550   2.683  12.987 -0.2669  0.6743 -0.3726
  532TMC3    C1 7893   0.457   2.468  12.968  0.2950  0.0745 -0.5328
  532TMC3    C2 7894   0.350   2.389  12.934  0.2138 -0.2992 -0.1211
  532TMC3    C3 7895   0.355   2.252  12.943 -0.3380 -0.9364 -0.7387
  532TMC3    C4 7896   0.572   2.412  13.010 -0.6924 -0.4404 -0.1270
  532TMC3    C5 7897   0.580   2.277  13.026 -0.7633  0.4358  0.2273
  532TMC3    C6 7898   0.469   2.200  12.988  0.1483  0.0142  0.0463
  532TMC3     C 7899   0.477   2.550  12.848 -0.7638  0.4516  0.0950
  532TMC3     O 7900   0.451   2.502  12.739  0.6736 -0.6356 -0.0003
  532TMC3     H 7901   0.269   2.448  12.894 -0.1836  0.9614  2.5806
  532TMC3    H1 7902   0.660   2.473  13.031 -0.5605 -0.7880  0.3459
  532TMC3    H2 7903   0.474   2.092  12.981  2.2322  0.1701 -0.8055
  532TMC3    C7 7904   0.714   2.231  13.046  0.4319 -0.1788 -0.2004
  532TMC3    C8 7905   0.297   2.189  12.823  0.2802  0.1162  0.1899
  532TMC3    O1 7906   0.800   2.309  13.084 -0.0153  0.3749  0.5639
  532TMC3    O2 7907   0.272   2.071  12.826 -0.0053  0.5839 -0.3727
  533TMC3    C1 7908   1.418   3.948  14.327 -0.0391  0.0617  0.2016
  533TMC3    C2 7909   1.540   4.011  14.316 -0.0348  0.4000 -0.0444
  533TMC3    C3 7910   1.573   4.071  14.428  0.5926 -0.0183  0.7095
  533TMC3    C4 7911   1.327   3.955  14.424  0.5092  0.6079  0.3446
  533TMC3    C5 7912   1.373   4.022  14.537 -0.4894  0.5339 -0.0383
  533TMC3    C6 7913   1.495   4.082  14.543 -0.3160 -0.4896 -0.6061
  533TMC3     C 7914   1.420   3.814  14.269  0.1404  0.3360 -0.0376
  533TMC3     O 7915   1.509   3.736  14.289  0.2456 -0.0566  0.8715
  533TMC3     H 7916   1.610   3.971  14.244  2.5109  0.9162  2.1539
  533TMC3    H1 7917   1.245   3.887  14.443  1.3247 -0.8723 -1.4573
  533TMC3    H2 7918   1.532   4.129  14.633  1.2501  1.1021 -2.0759
  533TMC3    C7 7919   1.302   3.997  14.659  0.1498  0.1387 -0.6439
  533TMC3    C8 7920   1.718   4.080  14.448  0.0596  0.1019  0.0166
  533TMC3    O1 7921   1.230   3.901  14.657  0.0257 -0.1473  0.0158
  533TMC3    O2 7922   1.744   4.086  14.570 -0.0007 -0.3049 -0.0659
  534MPD2     C 7923   3.544   4.696   1.543  0.4379  0.8858 -0.4920
  534MPD2    C1 7924   3.556   0.063   1.439  1.0942  0.5299 -0.1094
  534MPD2    C2 7925   3.535   0.018   1.311  0.7936  0.2281 -0.3789
  534MPD2    C3 7926   3.502   4.612   1.282  0.2699 -0.3205  0.6837
  534MPD2    C4 7927   3.488   4.524   1.385 -0.0616 -0.6237  0.0138
  534MPD2    C5 7928   3.516   4.569   1.514 -0.0240 -0.0361 -0.2718
  534MPD2     H 7929   3.563   0.082   1.228 -0.0319  2.8148  1.3648
  534MPD2    H1 7930   3.462   4.419   1.376 -1.5341 -0.4253  1.9560
  534MPD2    H2 7931   3.549   4.714   1.650 -0.0307  1.0735 -0.4980
  534MPD2    H3 7932   3.515   4.493   1.591  1.0560  0.2253  0.0035
  534MPD2     N 7933   3.476   4.561   1.153 -0.4170  0.0586  0.2774
  534MPD2    H5 7934   3.472   4.460   1.142  1.1186 -0.0895  1.0454
  534MPD2    N1 7935   3.593   0.199   1.460 -0.0053 -0.5537 -0.0164
  534MPD2    H7 7936   3.606   0.259   1.379 -2.3152 -2.2429 -1.6279
  535TMC3    C1 7937   3.419   4.565   0.924  0.2932  0.2634 -0.1528
  535TMC3    C2 7938   3.387   4.429   0.928  0.3915 -0.2842  0.0539
  535TMC3    C3 7939   3.311   4.370   0.831  0.0746  0.0667 -0.0870
  535TMC3    C4 7940   3.385   4.637   0.813 -0.0234 -0.1141  0.4002
  535TMC3    C5 7941   3.325   4.570   0.709  0.1875  0.1677  0.8835
  535TMC3    C6 7942   3.287   4.438   0.715 -0.9102 -0.2137 -0.1724
  535TMC3     C 7943   3.465   4.636   1.037  0.0698 -0.7223 -0.0995
  535TMC3     O 7944   3.471   0.035   1.027 -0.5901  0.0183  0.6260
  535TMC3     H 7945   3.392   4.378   1.024 -2.1489 -0.9710 -0.1979
  535TMC3    H1 7946   3.397   0.022   0.811  0.9661 -0.2431 -0.9157
  535TMC3    H2 7947   3.233   4.388   0.636 -5.0575  0.1708  2.3757
  535TMC3    C7 7948   3.287   4.640   0.588 -0.3586 -0.0361  0.1238
  535TMC3    C8 7949   3.270   4.232   0.849  0.0741 -0.1535  0.3154
  535TMC3    O1 7950   3.233   4.564   0.510  0.3284 -0.4358 -0.2883
  535TMC3    O2 7951   3.168   4.195   0.789 -0.5006 -0.2333 -0.2361
  536MPD2     C 7952   2.120   2.879  16.781  0.5953 -0.2751  0.9478
  536MPD2    C1 7953   2.243   2.864  16.718 -0.5563 -0.3823  0.3925
  536MPD2    C2 7954   2.259   2.919  16.592  0.0757 -0.4840  0.8459
  536MPD2    C3 7955   2.145   2.980  16.529 -0.3035 -0.1637 -0.1685
  536MPD2    C4 7956   2.035   3.001  16.604 -0.7069  0.5723 -0.0098
  536MPD2    C5 7957   2.022   2.947  16.727 -0.1412  0.6748 -0.1397
  536MPD2     H 7958   2.350   2.896  16.538  0.6155 -0.6548  1.8220
  536MPD2    H1 7959   1.955   3.056  16.555 -0.0493 -0.4839 -2.2813
  536MPD2    H2 7960   2.109   2.849  16.884 -1.1110  1.6779  1.3126
  536MPD2    H3 7961   1.930   2.953  16.784 -0.2725  0.8441 -0.3702
  536MPD2     N 7962   2.139   3.019  16.392 -0.2154  0.5745  0.2823
  536MPD2    H5 7963   2.051   3.050  16.352  1.0382  1.4125 -1.8173
  536MPD2    N1 7964   2.350   2.808  16.784  0.5980  0.5758 -0.0442
  536MPD2    H7 7965   2.329   2.770  16.876  1.3588 -0.3804 -0.2736
  537TMC3    C1 7966   2.583   2.781  16.851 -0.5852  0.3600 -0.1440
  537TMC3    C2 7967   2.715   2.816  16.822  0.1572 -0.4963 -0.5298
  537TMC3    C3 7968   2.798   2.793  16.932 -0.0628 -0.4129  0.6820
  537TMC3    C4 7969   2.539   2.728  16.973 -0.7122 -0.2302  0.0513
  537TMC3    C5 7970   2.628   2.698  17.076 -0.4290 -0.3571  0.6290
  537TMC3    C6 7971   2.761   2.741  17.059  0.1570 -0.3498  0.4857
  537TMC3     C 7972   2.486   2.808  16.750  0.6628  0.6336  1.0899
  537TMC3     O 7973   2.537   2.866  16.658 -0.3276 -0.2152 -0.3520
  537TMC3     H 7974   2.752   2.847  16.725 -1.1582 -0.3677 -0.9870
  537TMC3    H1 7975   2.442   2.685  16.994 -0.6736  0.5202  1.7843
  537TMC3    H2 7976   2.834   2.727  17.138 -1.1408 -0.5026  1.6542
  537TMC3    C7 7977   2.590   2.613  17.192 -0.9960  0.3050  0.5736
  537TMC3    C8 7978   2.938   2.826  16.909  0.2082  0.2972  0.1226
  537TMC3    O1 7979   2.488   2.547  17.183 -0.4794 -0.0228 -0.1845
  537TMC3    O2 7980   2.962   2.897  16.809 -0.3189 -0.8041 -0.0221
  538TMC3    C1 7981   4.003   1.518  11.156  0.8193  0.1989  0.5161
  538TMC3    C2 7982   4.006   1.437  11.043 -0.1560 -0.5958 -0.2255
  538TMC3    C3 7983   3.890   1.373  11.017  0.1142 -0.0881 -0.0054
  538TMC3    C4 7984   3.896   1.527  11.243  0.2987 -0.0164 -0.2617
  538TMC3    C5 7985   3.788   1.452  11.211 -0.3954  0.4861  0.1500
  538TMC3    C6 7986   3.785   1.376  11.102  0.5997 -0.3308  0.3682
  538TMC3     C 7987   4.094   1.628  11.149  0.2474 -0.4990  0.3695
  538TMC3     O 7988   4.050   1.742  11.181  0.6814 -0.3128  0.2649
  538TMC3     H 7989   4.086   1.438  10.971  0.5652  1.4815  0.6029
  538TMC3    H1 7990   3.899   1.606  11.317 -1.5317 -1.2216  1.0838
  538TMC3    H2 7991   3.690   1.341  11.065  1.3351  0.5106 -2.3544
  538TMC3    C7 7992   3.664   1.493  11.259 -0.2963  0.5813  0.2793
  538TMC3    C8 7993   3.853   1.330  10.880 -0.4443 -0.6181  0.0250
  538TMC3    O1 7994   3.561   1.481  11.192 -0.7654 -0.2519 -0.4692
  538TMC3    O2 7995   3.768   1.245  10.872 -0.1286 -0.1087 -0.0111
  539MPD2     C 7996   3.703   0.952  11.797  0.1408 -0.3751 -0.1919
  539MPD2    C1 7997   3.632   0.925  11.684 -0.2965 -0.3685  0.4713
  539MPD2    C2 7998   3.532   1.021  11.644 -0.6846 -0.3700 -0.2033
  539MPD2    C3 7999   3.498   1.135  11.719 -0.3660 -0.8536  0.2033
  539MPD2    C4 8000   3.566   1.149  11.836  0.0215 -0.2658 -0.3708
  539MPD2    C5 8001   3.672   1.061  11.873  0.4245  0.5292  0.1934
  539MPD2     H 8002   3.475   0.990  11.557 -1.8932 -1.0637  0.8499
  539MPD2    H1 8003   3.556   1.242  11.890  1.6635 -0.0889 -0.3762
  539MPD2    H2 8004   3.786   0.890  11.828  0.2794 -0.7229 -1.2868
  539MPD2    H3 8005   3.731   1.081  11.962  1.9167  3.1995 -1.3820
  539MPD2     N 8006   3.398   1.236  11.693 -0.0883  0.0648  0.3820
  539MPD2    H5 8007   3.383   1.293  11.776 -0.4880  1.1977 -0.4680
  539MPD2    N1 8008   3.656   0.810  11.605 -0.5477  0.5178 -0.0292
  539MPD2    H7 8009   3.612   0.814  11.513 -0.6626  0.0754  0.0061
  540TMC3    C1 8010   3.225   1.344  11.571  0.1567  0.1248  1.1146
  540TMC3    C2 8011   3.166   1.352  11.450  1.2835  0.4875  0.3368
  540TMC3    C3 8012   3.034   1.383  11.439  0.0345 -0.7695 -0.1452
  540TMC3    C4 8013   3.146   1.357  11.682  0.9156 -0.1606  0.0722
  540TMC3    C5 8014   3.013   1.381  11.673  0.0204 -0.3752 -0.2069
  540TMC3    C6 8015   2.957   1.400  11.552  0.0296 -0.1010  0.5964
  540TMC3     C 8016   3.333   1.253  11.573  1.1796 -0.1927  1.2457
  540TMC3     O 8017   3.350   1.186  11.474  0.0678  0.8242 -0.3246
  540TMC3     H 8018   3.222   1.342  11.358  1.7806 -3.2046  1.0424
  540TMC3    H1 8019   3.198   1.371  11.776  1.2237 -0.6423 -0.0222
  540TMC3    H2 8020   2.852   1.422  11.536  0.7270  1.5455 -1.7787
  540TMC3    C7 8021   2.936   1.347  11.791  0.3136 -0.2890 -0.2068
  540TMC3    C8 8022   2.953   1.362  11.314  0.4565  0.2545  0.6254
  540TMC3    O1 8023   2.815   1.331  11.763  0.0155 -0.0419 -0.1064
  540TMC3    O2 8024   2.838   1.398  11.303 -0.1109  0.5719  0.1064
  541MPD2     C 8025   1.837   2.820  13.135 -0.6486  0.8895  0.2793
  541MPD2    C1 8026   1.840   2.739  13.018  0.6752 -0.2935  0.3495
  541MPD2    C2 8027   1.852   2.798  12.900 -0.1125  0.2667 -0.2185
  541MPD2    C3 8028   1.846   2.940  12.893 -0.5524 -0.4982  0.1830
  541MPD2    C4 8029   1.858   3.017  13.005  0.2979  0.2542  0.3730
  541MPD2    C5 8030   1.856   2.956  13.130 -0.4207  0.3586 -0.3579
  541MPD2     H 8031   1.854   2.735  12.812 -0.4187  0.7755 -0.5919
  541MPD2    H1 8032   1.842   3.124  13.006  2.2494  0.5652 -0.0757
  541MPD2    H2 8033   1.818   2.786  13.236 -1.2976 -0.1898 -0.2062
  541MPD2    H3 8034   1.861   3.014  13.221 -1.4513  0.0459 -0.1036
  541MPD2     N 8035   1.824   3.015  12.772  0.6994 -0.5994 -0.4221
  541MPD2    H5 8036   1.809   3.115  12.786 -1.6282 -1.2508  1.5995
  541MPD2    N1 8037   1.807   2.600  13.017 -0.6092 -0.2114 -0.1985
  541MPD2    H7 8038   1.845   2.553  12.936  1.3427 -0.7045  1.0081
  542TMC3    C1 8039   1.766   3.039  12.537 -0.0298 -0.2190  0.6392
  542TMC3    C2 8040   1.711   2.979  12.428 -0.3570  0.2912 -0.0728
  542TMC3    C3 8041   1.671   3.062  12.323 -0.4065 -0.6517  0.0200
  542TMC3    C4 8042   1.773   3.172  12.552 -0.0263 -0.1317 -0.7136
  542TMC3    C5 8043   1.711   3.244  12.450 -0.3524 -0.2477  0.0410
  542TMC3    C6 8044   1.677   3.192  12.329 -0.2856  0.1971 -0.0156
  542TMC3     C 8045   1.802   2.950  12.647  0.4904 -0.4691 -0.0316
  542TMC3     O 8046   1.827   2.832  12.620 -0.0806 -0.3187  0.1234
  542TMC3     H 8047   1.732   2.873  12.420  0.1869  0.2497  1.9372
  542TMC3    H1 8048   1.820   3.215  12.639  0.1018 -2.2640  0.2789
  542TMC3    H2 8049   1.641   3.251  12.246  1.6014  0.1756 -0.8360
  542TMC3    C7 8050   1.729   3.394  12.457 -0.4244  0.0760  0.6355
  542TMC3    C8 8051   1.598   3.002  12.214  0.4206 -0.4164  0.2336
  542TMC3    O1 8052   1.810   3.433  12.536 -0.0060 -0.2690  0.0959
  542TMC3    O2 8053   1.606   3.062  12.104 -0.4436 -0.1512  0.1440
  543TMC3    C1 8054   0.737   3.877  17.249  0.5733  0.4715 -0.3101
  543TMC3    C2 8055   0.723   3.745  17.243 -0.0566  0.5244 -0.2264
  543TMC3    C3 8056   0.768   3.667  17.342  0.3738 -0.1522 -0.5383
  543TMC3    C4 8057   0.812   3.933  17.351 -0.2602  0.3974  0.1904
  543TMC3    C5 8058   0.866   3.854  17.442  0.1149 -0.3594 -0.2851
  543TMC3    C6 8059   0.847   3.719  17.444  0.2678  0.2504  0.7157
  543TMC3     C 8060   0.757   3.944  17.123 -0.2102 -0.8370  0.3030
  543TMC3     O 8061   0.775   4.065  17.134 -0.0652 -0.6042  0.1585
  543TMC3     H 8062   0.643   3.716  17.176  0.5630  0.7000 -1.0438
  543TMC3    H1 8063   0.839   4.038  17.344  0.3986  0.1842 -0.4210
  543TMC3    H2 8064   0.900   3.659  17.518  0.2949 -0.8134 -0.1617
  543TMC3    C7 8065   0.944   3.927  17.544  0.2111 -0.0547  0.2760
  543TMC3    C8 8066   0.767   3.525  17.310 -0.2185 -0.1546 -0.7219
  543TMC3    O1 8067   0.956   3.875  17.655  0.3776 -0.6973  0.0870
  543TMC3    O2 8068   0.748   3.507  17.190 -0.8100 -0.0923 -0.8442
  544MPD2     C 8069   1.038   3.109  17.391  0.4030  0.4504  0.3166
  544MPD2    C1 8070   0.969   3.137  17.277  0.3025  0.2582 -0.1749
  544MPD2    C2 8071   0.888   3.248  17.283  0.0829  0.2875 -0.0250
  544MPD2    C3 8072   0.863   3.320  17.406  0.1720  0.6408 -0.5836
  544MPD2    C4 8073   0.919   3.275  17.517 -0.6606 -0.1697 -0.0528
  544MPD2    C5 8074   1.014   3.179  17.509 -0.2900  0.6106 -1.0364
  544MPD2     H 8075   0.827   3.286  17.201  1.3932  0.0892 -1.0807
  544MPD2    H1 8076   0.904   3.318  17.616 -1.3135 -0.9763  0.1992
  544MPD2    H2 8077   1.103   3.022  17.397  3.5360  2.7693 -0.6064
  544MPD2    H3 8078   1.076   3.156  17.595  0.5198 -0.7850 -1.9894
  544MPD2     N 8079   0.800   3.445  17.414  0.2760  0.0186 -0.3383
  544MPD2    H5 8080   0.810   3.483  17.507 -4.1853 -1.9472  0.9876
  544MPD2    N1 8081   1.001   3.076  17.156  0.7500  0.0849 -0.2368
  544MPD2    H7 8082   1.064   2.997  17.148  0.1207 -0.3113 -1.2139
  545TMC3    C1 8083   1.033   3.041  16.932  0.2418 -0.0313 -0.5187
  545TMC3    C2 8084   1.054   3.088  16.807 -0.4494 -0.0440  0.1622
  545TMC3    C3 8085   1.063   3.004  16.704 -0.3126 -0.6015  0.5806
  545TMC3    C4 8086   1.014   2.906  16.944 -0.7658 -0.0468 -0.7262
  545TMC3    C5 8087   1.031   2.825  16.838 -0.2300 -0.7190 -0.0697
  545TMC3    C6 8088   1.054   2.873  16.710 -0.3173 -0.3858 -0.3248
  545TMC3     C 8089   0.976   3.121  17.030 -0.2070 -0.4394 -0.2822
  545TMC3     O 8090   0.900   3.211  16.991  1.0086 -0.8081 -0.2485
  545TMC3     H 8091   1.052   3.195  16.789 -0.7374 -0.3373 -1.5396
  545TMC3    H1 8092   0.985   2.871  17.042  1.7353 -0.6731 -0.2118
  545TMC3    H2 8093   1.070   2.807  16.625 -1.6943  1.6908 -2.2000
  545TMC3    C7 8094   1.049   2.688  16.857  0.6187  0.5382 -0.4624
  545TMC3    C8 8095   1.073   3.045  16.561  0.1107 -0.2075 -0.8667
  545TMC3    O1 8096   0.994   2.616  16.774  0.3432  0.2150  0.3599
  545TMC3    O2 8097   1.136   2.975  16.481 -0.6969 -0.4316 -0.1889
  546MPD2     C 8098   2.510   3.348  17.494  0.0309 -0.6196 -0.0491
  546MPD2    C1 8099   2.415   3.402  17.406 -0.1580 -0.1536 -1.1303
  546MPD2    C2 8100   2.436   3.525  17.348 -0.1777 -0.0999  0.9484
  546MPD2    C3 8101   2.553   3.594  17.385 -0.1603 -0.1284  0.2216
  546MPD2    C4 8102   2.651   3.538  17.469  0.6043 -0.0743 -0.3321
  546MPD2    C5 8103   2.621   3.420  17.533  0.0327 -0.3996  0.1728
  546MPD2     H 8104   2.371   3.558  17.268  2.4239 -2.9102 -2.2906
  546MPD2    H1 8105   2.749   3.575  17.495  0.2799  0.2727  0.4258
  546MPD2    H2 8106   2.488   3.262  17.556  2.2840 -1.1288  0.0608
  546MPD2    H3 8107   2.691   3.373  17.600 -0.9404 -0.3924  1.2018
  546MPD2     N 8108   2.585   3.725  17.335 -0.2908  0.6249  0.2440
  546MPD2    H5 8109   2.674   3.768  17.360 -0.1710  0.4305  0.1537
  546MPD2    N1 8110   2.297   3.322  17.384 -0.4537 -0.4953  0.7457
  546MPD2    H7 8111   2.291   3.230  17.426 -0.1391 -0.5554  0.6571
  547TMC3    C1 8112   2.068   3.290  17.369 -0.4036  0.6933  0.5283
  547TMC3    C2 8113   1.971   3.297  17.272 -0.3638 -0.6365 -0.8592
  547TMC3    C3 8114   1.874   3.196  17.268 -0.0162  0.0216 -0.0021
  547TMC3    C4 8115   2.086   3.178  17.441  0.0969 -0.2096  0.5678
  547TMC3    C5 8116   2.003   3.074  17.429 -0.0518 -0.6408  0.0318
  547TMC3    C6 8117   1.888   3.088  17.354  0.0172  0.6881  0.3613
  547TMC3     C 8118   2.182   3.370  17.334 -0.2879  0.1860 -0.1907
  547TMC3     O 8119   2.153   3.457  17.256  0.1717 -0.0326 -0.5809
  547TMC3     H 8120   1.953   3.388  17.217  1.6330  0.4917  0.3537
  547TMC3    H1 8121   2.157   3.180  17.523 -0.5050 -2.3344  1.1451
  547TMC3    H2 8122   1.811   3.015  17.371 -0.3753  1.3114  1.2408
  547TMC3    C7 8123   1.983   2.999  17.546 -0.2249  0.7718  0.4239
  547TMC3    C8 8124   1.748   3.216  17.193  0.0010  0.2040  0.9910
  547TMC3    O1 8125   1.983   3.076  17.643 -0.3070 -0.5465 -0.2417
  547TMC3    O2 8126   1.752   3.222  17.070  0.0990  0.4483 -0.1673
  548MPD2     C 8127   2.696   4.315  12.001  0.3817  0.0748 -0.4531
  548MPD2    C1 8128   2.695   4.261  12.130 -0.2469 -0.1214 -0.1125
  548MPD2    C2 8129   2.784   4.162  12.165  0.1773 -0.1266 -0.2068
  548MPD2    C3 8130   2.866   4.106  12.062  0.1983 -0.1201  0.9928
  548MPD2    C4 8131   2.856   4.148  11.935 -0.1455 -0.1861  0.2480
  548MPD2    C5 8132   2.779   4.258  11.904  0.3608 -0.0038  0.6462
  548MPD2     H 8133   2.767   4.115  12.261  0.8716  0.6646  0.3011
  548MPD2    H1 8134   2.912   4.105  11.853 -1.0731  0.3929 -0.6969
  548MPD2    H2 8135   2.620   4.387  11.970  0.2061 -0.0537 -0.3195
  548MPD2    H3 8136   2.768   4.291  11.801  1.1305  0.3594  0.6803
  548MPD2     N 8137   2.934   3.992  12.108  0.1230  0.4845 -0.8044
  548MPD2    H5 8138   2.900   3.960  12.198 -0.0115  0.2518 -0.9393
  548MPD2    N1 8139   2.582   4.306  12.212  0.7221 -0.0810 -0.4647
  548MPD2    H7 8140   2.504   4.355  12.171  0.0359  0.9847  2.0946
  549TMC3    C1 8141   2.465   4.334  12.411 -0.4959  1.0115  0.4641
  549TMC3    C2 8142   2.391   4.443  12.374 -0.3014 -0.4696 -0.0066
  549TMC3    C3 8143   2.278   4.481  12.437 -0.0437 -0.3039  0.1697
  549TMC3    C4 8144   2.419   4.260  12.521  0.3622  0.1407  0.3746
  549TMC3    C5 8145   2.302   4.298  12.577  0.0998 -1.0558  0.6264
  549TMC3    C6 8146   2.224   4.407  12.541  0.9318  0.6591  0.4783
  549TMC3     C 8147   2.581   4.279  12.347 -0.6699  0.3760  1.3382
  549TMC3     O 8148   2.664   4.219  12.418 -0.4382  0.1683 -0.3366
  549TMC3     H 8149   2.434   4.517  12.307 -2.2049  1.2216  0.6174
  549TMC3    H1 8150   2.475   4.176  12.560 -0.8841 -2.1731 -2.7439
  549TMC3    H2 8151   2.137   4.441  12.596  0.8906  1.4030 -0.0515
  549TMC3    C7 8152   2.263   4.231  12.701 -0.2325  0.4406 -0.0602
  549TMC3    C8 8153   2.200   4.601  12.397 -0.1523 -0.1113 -0.1854
  549TMC3    O1 8154   2.194   4.298  12.776  0.4436 -0.2778 -0.2465
  549TMC3    O2 8155   2.078   4.589  12.394 -0.2118 -0.5899 -0.5439
  550TMC3    C1 8156   0.722   1.924  12.220 -0.2305  0.7435  0.2321
  550TMC3    C2 8157   0.651   1.992  12.316 -0.4377 -0.8060 -0.1446
  550TMC3    C3 8158   0.561   2.084  12.285 -0.9311 -0.3226  0.0120
  550TMC3    C4 8159   0.669   1.936  12.089 -0.1832  0.0204  0.6882
  550TMC3    C5 8160   0.557   2.013  12.068  0.5060 -0.0987  0.3806
  550TMC3    C6 8161   0.497   2.091  12.162  0.2428  0.1879 -0.0348
  550TMC3     C 8162   0.827   1.833  12.262 -0.2232  0.4291  0.6475
  550TMC3     O 8163   0.824   1.790  12.379  0.5812  0.2301  0.7760
  550TMC3     H 8164   0.698   1.989  12.413  0.5532 -0.3489 -0.6063
  550TMC3    H1 8165   0.715   1.879  12.008 -1.6858  1.1487 -0.9417
  550TMC3    H2 8166   0.433   2.174  12.134  1.1958  0.5350 -1.1777
  550TMC3    C7 8167   0.529   2.061  11.935 -0.0003 -0.6724  0.3429
  550TMC3    C8 8168   0.605   2.212  12.315  0.8837 -0.4373  0.5401
  550TMC3    O1 8169   0.413   2.099  11.913 -0.4931  0.1562  0.0595
  550TMC3    O2 8170   0.627   2.282  12.216  0.1150  0.6325 -0.2152
  551TMC3    C1 8171   3.512   0.242  13.456  0.2764  0.4412  0.0147
  551TMC3    C2 8172   3.616   0.274  13.374 -0.2125  0.0229 -0.1954
  551TMC3    C3 8173   3.744   0.287  13.422 -0.2216 -0.6949 -0.7761
  551TMC3    C4 8174   3.543   0.214  13.589 -0.4194 -0.0024  0.6974
  551TMC3    C5 8175   3.674   0.233  13.630 -0.6381 -0.1252  0.1101
  551TMC3    C6 8176   3.777   0.269  13.551  0.0276 -0.6395  0.0805
  551TMC3     C 8177   3.404   0.174  13.390 -0.2254  0.0243  0.0839
  551TMC3     O 8178   3.412   0.163  13.273 -0.6420 -0.5636  0.1273
  551TMC3     H 8179   3.608   0.279  13.266  2.0598 -0.8586 -0.4122
  551TMC3    H1 8180   3.464   0.208  13.663  1.7297  0.5401  3.0002
  551TMC3    H2 8181   3.873   0.292  13.595  0.0628 -1.2133  0.3020
  551TMC3    C7 8182   3.677   0.283  13.763 -0.9953 -0.0830  0.3548
  551TMC3    C8 8183   3.855   0.308  13.326  0.6793 -0.4458  0.4649
  551TMC3    O1 8184   3.619   0.211  13.843 -0.0307  0.5892  0.6128
  551TMC3    O2 8185   3.971   0.284  13.349 -1.1999 -0.6876  0.4666
  552MPD2     C 8186   0.481   2.104  13.784 -0.7776  0.3134  0.0644
  552MPD2    C1 8187   0.503   1.997  13.868 -0.1868 -0.3034 -0.1935
  552MPD2    C2 8188   0.597   2.004  13.967 -0.3921  0.2543 -0.1098
  552MPD2    C3 8189   0.684   2.111  13.980 -0.5098 -0.8636 -0.5091
  552MPD2    C4 8190   0.666   2.215  13.890 -0.2677 -0.6147  0.5393
  552MPD2    C5 8191   0.568   2.217  13.799 -0.9134 -0.3508  0.5492
  552MPD2     H 8192   0.616   1.914  14.025 -0.8198  0.3018  0.1031
  552MPD2    H1 8193   0.723   2.307  13.895  0.4899 -0.8463 -3.8598
  552MPD2    H2 8194   0.417   2.105  13.697 -0.5505  0.8178 -0.1028
  552MPD2    H3 8195   0.542   2.307  13.745 -0.7547 -0.8332 -0.3248
  552MPD2     N 8196   0.775   2.109  14.086 -0.5502  0.2531  0.4282
  552MPD2    H5 8197   0.780   2.019  14.133  0.5198  1.5701  2.8541
  552MPD2    N1 8198   0.433   1.873  13.846  0.4649  0.2257 -0.7146
  552MPD2    H7 8199   0.446   1.799  13.914 -0.9587  1.3354  0.7521
  553TMC3    C1 8200   0.324   1.699  13.734 -0.6540  0.4708 -0.4038
  553TMC3    C2 8201   0.220   1.663  13.659  0.0165  0.2905 -0.2502
  553TMC3    C3 8202   0.212   1.532  13.614 -0.2814  0.5368  0.2146
  553TMC3    C4 8203   0.433   1.609  13.747 -0.6233  0.0921  0.9341
  553TMC3    C5 8204   0.413   1.478  13.708 -0.3031  0.4556 -0.0941
  553TMC3    C6 8205   0.300   1.436  13.643 -0.2011  0.4919  0.0818
  553TMC3     C 8206   0.343   1.839  13.743 -0.6652  0.5356  0.4330
  553TMC3     O 8207   0.285   1.906  13.660 -0.4864  0.0903 -0.5802
  553TMC3     H 8208   0.141   1.734  13.637  2.3134  1.6309 -4.1024
  553TMC3    H1 8209   0.524   1.639  13.798 -0.3107  1.5309 -0.4700
  553TMC3    H2 8210   0.284   1.331  13.622  1.2560 -0.2952  2.8031
  553TMC3    C7 8211   0.528   1.411  13.654 -0.1811 -0.3639  0.1765
  553TMC3    C8 8212   0.166   1.532  13.482  0.1734 -0.0489  0.2097
  553TMC3    O1 8213   0.522   1.332  13.559  0.2069 -0.3089 -0.3168
  553TMC3    O2 8214   0.081   1.614  13.441  0.3727  0.1333 -0.1281
  554TMC3    C1 8215   2.422   0.996  11.720  0.0063 -0.5200  0.2679
  554TMC3    C2 8216   2.362   0.958  11.606  0.4885 -0.1090  0.2060
  554TMC3    C3 8217   2.292   1.054  11.542  0.1609  0.0950 -0.1325
  554TMC3    C4 8218   2.421   1.124  11.768 -0.8820  0.1235  0.1169
  554TMC3    C5 8219   2.359   1.218  11.693 -0.0938 -0.1629  0.5234
  554TMC3    C6 8220   2.295   1.188  11.577 -0.1884 -0.2593 -0.0927
  554TMC3     C 8221   2.444   0.881  11.810 -0.0422 -0.1300  0.1655
  554TMC3     O 8222   2.383   0.782  11.778  0.8117  0.2557 -0.2048
  554TMC3     H 8223   2.373   0.860  11.561  0.8143  1.1226 -2.3740
  554TMC3    H1 8224   2.471   1.149  11.861  0.0531  1.0300 -0.6299
  554TMC3    H2 8225   2.271   1.263  11.503 -0.3398  0.4277  0.6535
  554TMC3    C7 8226   2.394   1.352  11.715 -0.0277  0.0373 -0.4996
  554TMC3    C8 8227   2.288   1.039  11.404 -0.3917  0.8578  0.1840
  554TMC3    O1 8228   2.499   1.369  11.770 -0.3020  0.2342 -0.0098
  554TMC3    O2 8229   2.339   1.129  11.338  0.2483  0.2857  0.0323
  555TMC3    C1 8230   1.456   0.466  15.032  0.5570 -0.5309 -0.3788
  555TMC3    C2 8231   1.455   0.569  15.114 -0.6781 -0.8264 -0.0937
  555TMC3    C3 8232   1.418   0.554  15.239 -0.2483  0.1899  0.2598
  555TMC3    C4 8233   1.420   0.342  15.073 -0.4211  0.1702 -0.2382
  555TMC3    C5 8234   1.390   0.333  15.207 -0.1348 -0.1034 -0.1061
  555TMC3    C6 8235   1.392   0.434  15.297  0.5882 -0.5846 -0.6843
  555TMC3     C 8236   1.527   0.471  14.906  0.1426  0.5197 -0.4657
  555TMC3     O 8237   1.605   0.562  14.888 -0.3427  0.4007  0.9230
  555TMC3     H 8238   1.482   0.667  15.075  0.8772 -1.5597 -0.8363
  555TMC3    H1 8239   1.418   0.255  15.009 -2.3646 -0.2399  0.3814
  555TMC3    H2 8240   1.356   0.425  15.399 -0.4667 -0.0671 -1.0061
  555TMC3    C7 8241   1.404   0.199  15.256  0.2882 -0.2324 -0.0535
  555TMC3    C8 8242   1.442   0.670  15.320 -0.9831  0.0184  0.2866
  555TMC3    O1 8243   1.344   0.104  15.204  0.2102  0.3599 -0.1552
  555TMC3    O2 8244   1.441   0.777  15.262 -0.3467  0.2872  0.1144
  556MPD2     C 8245   0.017   2.243  10.507  0.1030 -0.0061 -0.0310
  556MPD2    C1 8246   4.622   2.230  10.571  0.8169 -0.3026  0.0086
  556MPD2    C2 8247   4.533   2.152  10.505  0.5349  0.3828 -0.3321
  556MPD2    C3 8248   4.550   2.088  10.387 -0.0190 -0.3237  0.5766
  556MPD2    C4 8249   4.670   2.109  10.323 -0.1609  0.4767 -0.0498
  556MPD2    C5 8250   0.044   2.179  10.382  0.3339  0.1980 -0.2149
  556MPD2     H 8251   4.435   2.142  10.551  1.2393 -0.6873  0.9074
  556MPD2    H1 8252   4.696   2.059  10.230 -0.3864  2.0482 -0.9582
  556MPD2    H2 8253   0.100   2.299  10.548 -0.1012  1.0276 -1.0264
  556MPD2    H3 8254   0.146   2.174  10.346  0.3148  0.6737 -0.3371
  556MPD2     N 8255   4.449   2.009  10.325 -0.0453 -0.7985 -0.0534
  556MPD2    H5 8256   4.371   1.978  10.381 -1.0020 -1.2480 -1.6483
  556MPD2    N1 8257   4.594   2.292  10.699 -0.0556 -0.1852  0.1152
  556MPD2    H7 8258   4.515   2.269  10.759  0.1601  1.7868  1.1662
  557TMC3    C1 8259   4.336   1.873  10.168 -0.5566 -0.5184 -0.9791
  557TMC3    C2 8260   4.284   1.858  10.041 -0.2155  0.2211 -0.1605
  557TMC3    C3 8261   4.166   1.787  10.026  0.6694  0.0097 -0.2967
  557TMC3    C4 8262   4.298   1.788  10.268 -0.3837  0.1058  0.4724
  557TMC3    C5 8263   4.194   1.704  10.253  0.4915 -0.3791 -0.2085
  557TMC3    C6 8264   4.118   1.706  10.140  0.1455  0.1637  0.1843
  557TMC3     C 8265   4.442   1.971  10.196 -0.1041  0.5714 -0.4915
  557TMC3     O 8266   4.503   2.022  10.101  0.1821  0.3401 -1.0558
  557TMC3     H 8267   4.316   1.933   9.969 -2.0355  2.3883  1.2792
  557TMC3    H1 8268   4.361   1.763  10.353 -1.1827 -1.8856  0.4816
  557TMC3    H2 8269   4.031   1.644  10.122  1.0918 -1.4120  1.0929
  557TMC3    C7 8270   4.157   1.618  10.366 -0.2271 -0.8493 -0.2357
  557TMC3    C8 8271   4.066   1.864   9.962  0.2484 -0.7253 -0.0062
  557TMC3    O1 8272   4.195   1.652  10.476  0.3736 -0.0186  0.7176
  557TMC3    O2 8273   4.032   1.971  10.011 -0.6300 -0.0643  0.5503
  558TMC3    C1 8274   2.481   0.127  10.231 -0.2616  0.1077 -0.1343
  558TMC3    C2 8275   2.370   0.080  10.305  0.2710 -0.6045 -0.3428
  558TMC3    C3 8276   2.251   0.089  10.251  0.3658  0.4307 -0.3272
  558TMC3    C4 8277   2.471   0.209  10.126  0.3816 -0.2933  0.0915
  558TMC3    C5 8278   2.344   0.235  10.087  0.1554  0.4996  0.2736
  558TMC3    C6 8279   2.234   0.176  10.147 -0.0561  0.6896  0.0574
  558TMC3     C 8280   2.615   0.083  10.267  0.5542 -0.3766 -0.4334
  558TMC3     O 8281   2.703   0.146  10.218 -0.0025 -0.2552 -0.0567
  558TMC3     H 8282   2.381   0.013  10.389 -0.5727 -1.9821 -1.3347
  558TMC3    H1 8283   2.558   0.239  10.069  2.2192  1.2140  3.6209
  558TMC3    H2 8284   2.132   0.199  10.116  0.0061 -1.5873 -1.8468
  558TMC3    C7 8285   2.342   0.295   9.951 -0.0350  0.0309 -0.3876
  558TMC3    C8 8286   2.131   0.038  10.319 -0.8282 -0.4101 -0.3707
  558TMC3    O1 8287   2.438   0.366   9.916  0.5772 -0.2005  0.0716
  558TMC3    O2 8288   2.021   0.072  10.275 -0.0283  0.5810 -0.0906
  559MPD2     C 8289   2.409   0.478  10.402  0.2562  0.3747  0.6358
  559MPD2    C1 8290   2.324   0.407  10.485  0.4308 -0.1617 -0.4359
  559MPD2    C2 8291   2.362   0.383  10.618  0.0048 -1.2875  0.5805
  559MPD2    C3 8292   2.479   0.427  10.663 -0.7016  0.3542  0.0376
  559MPD2    C4 8293   2.569   0.491  10.577  0.1724  0.3220 -0.4447
  559MPD2    C5 8294   2.532   0.514  10.446 -0.1007  0.4518 -0.2616
  559MPD2     H 8295   2.290   0.346  10.690 -2.4796 -0.0277 -1.2432
  559MPD2    H1 8296   2.666   0.524  10.612 -0.1030  1.7036 -1.0075
  559MPD2    H2 8297   2.375   0.499  10.301  1.6598 -0.3908  0.0161
  559MPD2    H3 8298   2.609   0.545  10.375 -0.3531 -1.3982 -1.3507
  559MPD2     N 8299   2.508   0.415  10.803  0.2917 -0.3677  0.3689
  559MPD2    H5 8300   2.427   0.388  10.857  0.1316  1.5907  1.0996
  559MPD2    N1 8301   2.193   0.393  10.428 -0.5379  1.2359 -0.3835
  559MPD2    H7 8302   2.181   0.448  10.343  1.0504 -0.1979 -1.5281
  560TMC3    C1 8303   2.619   0.409  11.009 -0.1704 -0.0539 -0.8683
  560TMC3    C2 8304   2.569   0.288  11.047  0.1148  0.0568 -0.1769
  560TMC3    C3 8305   2.593   0.245  11.173 -0.4895 -0.2258 -0.1128
  560TMC3    C4 8306   2.694   0.485  11.099 -0.1486  0.4598  0.1984
  560TMC3    C5 8307   2.726   0.429  11.222 -0.2816 -0.0346 -0.3711
  560TMC3    C6 8308   2.667   0.313  11.267  0.2372 -0.6674  0.2867
  560TMC3     C 8309   2.632   0.442  10.875  0.6782 -0.3568  0.2184
  560TMC3     O 8310   2.743   0.476  10.833  0.7815  0.2150  0.0191
  560TMC3     H 8311   2.485   0.249  10.991  0.3665 -2.7769  1.4319
  560TMC3    H1 8312   2.726   0.586  11.076  2.0551 -0.2408  0.2048
  560TMC3    H2 8313   2.681   0.277  11.368 -1.2882 -0.4022  0.5946
  560TMC3    C7 8314   2.816   0.494  11.314  0.3925  0.1097  0.4610
  560TMC3    C8 8315   2.505   0.139  11.211 -0.5975 -0.3489 -0.0908
  560TMC3    O1 8316   2.806   0.476  11.434 -0.4376  0.1902  0.1027
  560TMC3    O2 8317   2.485   0.061  11.117  0.4318  0.5086  0.3792
  561TMC3    C1 8318   0.121   4.269  11.354  0.3667 -0.1598 -0.6881
  561TMC3    C2 8319   0.090   4.203  11.465 -0.4312 -0.3429 -0.0546
  561TMC3    C3 8320   0.078   4.270  11.577 -0.2199  0.3922  0.5113
  561TMC3    C4 8321   0.129   4.402  11.352  1.0132  0.0570 -0.9032
  561TMC3    C5 8322   0.118   4.474  11.467 -0.0780 -0.0898  0.9827
  561TMC3    C6 8323   0.091   4.405  11.583 -0.4823 -0.1532 -0.8890
  561TMC3     C 8324   0.097   4.203  11.219  0.3265  0.4378 -0.2313
  561TMC3     O 8325   0.012   4.112  11.209  0.3992  0.2629  0.3854
  561TMC3     H 8326   0.084   4.094  11.470  1.9760 -0.4643  0.2839
  561TMC3    H1 8327   0.145   4.451  11.257  0.4985  2.1505  0.0909
  561TMC3    H2 8328   0.083   4.467  11.671 -2.0162  1.1030 -1.8896
  561TMC3    C7 8329   0.176   4.607  11.482 -0.8417  0.3318  0.4612
  561TMC3    C8 8330   0.049   4.203  11.698  0.7818  0.0713 -0.5480
  561TMC3    O1 8331   0.134   4.677  11.572  0.4338  0.8904  0.2224
  561TMC3    O2 8332   0.073   4.085  11.698 -0.2309 -0.2707  0.2478
  562TMC3    C1 8333   1.187   1.011  16.053  0.2282 -0.0795  0.4416
  562TMC3    C2 8334   1.113   1.111  16.005  0.1885 -0.2077  0.7233
  562TMC3    C3 8335   1.044   1.094  15.893  0.2412 -0.0650  0.4068
  562TMC3    C4 8336   1.198   0.890  15.988 -0.4951  0.1574  0.8415
  562TMC3    C5 8337   1.139   0.877  15.867 -0.2402  0.3542  0.5041
  562TMC3    C6 8338   1.059   0.978  15.814 -0.3847 -0.8898 -0.5136
  562TMC3     C 8339   1.251   1.025  16.190 -0.7071  0.8387  0.4373
  562TMC3     O 8340   1.276   1.143  16.218  0.4656  0.0848  0.2450
  562TMC3     H 8341   1.097   1.197  16.069 -0.5683  1.4553 -1.6695
  562TMC3    H1 8342   1.274   0.826  16.032  0.8898  1.2719  0.0655
  562TMC3    H2 8343   0.991   0.956  15.732 -0.7932 -0.0260 -0.4034
  562TMC3    C7 8344   1.145   0.761  15.781  0.3151 -0.2281 -0.4612
  562TMC3    C8 8345   0.933   1.178  15.875 -0.0066 -0.1212  0.0193
  562TMC3    O1 8346   1.093   0.769  15.672  0.7433 -0.5597 -0.6288
  562TMC3    O2 8347   0.884   1.219  15.978  0.1030  0.2967  0.3046
  563MPD2     C 8348   3.631   2.422  15.517 -0.3556  0.3761 -0.1400
  563MPD2    C1 8349   3.570   2.322  15.590 -0.3208 -0.2601  0.3391
  563MPD2    C2 8350   3.624   2.198  15.576 -0.0243 -0.6756 -0.6954
  563MPD2    C3 8351   3.735   2.175  15.504  0.3080 -0.0565 -0.0930
  563MPD2    C4 8352   3.789   2.276  15.430 -0.5904  0.3732  0.1937
  563MPD2    C5 8353   3.735   2.396  15.436 -0.9931 -0.5716  0.0095
  563MPD2     H 8354   3.593   2.116  15.639  0.4148  0.4718  0.9990
  563MPD2    H1 8355   3.873   2.260  15.363 -0.1461  1.2872  0.5484
  563MPD2    H2 8356   3.606   2.526  15.532 -1.9586 -0.1599  0.9583
  563MPD2    H3 8357   3.790   2.475  15.386 -1.8901  1.2484  1.8863
  563MPD2     N 8358   3.789   2.041  15.513  0.2923 -0.4735 -0.2154
  563MPD2    H5 8359   3.744   1.979  15.580  0.7312 -0.0432  0.4911
  563MPD2    N1 8360   3.457   2.341  15.665 -0.7822  0.1535  0.1324
  563MPD2    H7 8361   3.441   2.438  15.691 -1.4596 -0.1904  0.9546
  564TMC3    C1 8362   3.280   2.283  15.808 -0.3948 -0.1272  0.0313
  564TMC3    C2 8363   3.169   2.204  15.797 -0.6709  0.9778 -0.0409
  564TMC3    C3 8364   3.137   2.130  15.913  0.0877  0.7047 -0.3378
  564TMC3    C4 8365   3.351   2.303  15.918  0.7137 -0.5971  0.2438
  564TMC3    C5 8366   3.318   2.232  16.026  0.8689  0.9694  0.2483
  564TMC3    C6 8367   3.207   2.149  16.028  0.3360  0.5664 -0.7804
  564TMC3     C 8368   3.367   2.248  15.695  0.5466  0.4462  0.2738
  564TMC3     O 8369   3.348   2.134  15.657 -0.0695 -0.2713 -0.4191
  564TMC3     H 8370   3.117   2.189  15.703  1.4728 -0.3403 -0.9997
  564TMC3    H1 8371   3.452   2.341  15.905  1.0602 -1.7397 -0.4083
  564TMC3    H2 8372   3.203   2.077  16.110  0.9482  1.8801  0.3925
  564TMC3    C7 8373   3.428   2.143  16.059  0.5716  0.0212  0.5123
  564TMC3    C8 8374   3.084   1.992  15.899 -0.1260 -0.0394  0.2205
  564TMC3    O1 8375   3.450   2.130  16.178  0.2951  0.2668 -0.0012
  564TMC3    O2 8376   3.085   1.916  15.996 -0.0877  0.1448 -0.1244
  565TMC3    C1 8377   4.545   3.439  10.242  0.2145 -0.5739  0.1775
  565TMC3    C2 8378   4.536   3.389  10.370 -0.2462 -0.3103  0.1327
  565TMC3    C3 8379   4.448   3.289  10.387  0.6101 -0.3027  0.1228
  565TMC3    C4 8380   4.485   3.384  10.137  0.3083  0.4297 -0.0810
  565TMC3    C5 8381   4.401   3.277  10.159 -0.0708 -0.7167  0.2056
  565TMC3    C6 8382   4.392   3.222  10.287  0.1009  0.3628 -0.7488
  565TMC3     C 8383   4.582   3.574  10.218  0.2149  0.6959 -0.0219
  565TMC3     O 8384   4.523   3.641  10.136  0.3038 -0.0036 -0.1648
  565TMC3     H 8385   4.578   3.438  10.456 -0.5713 -0.0936  0.1717
  565TMC3    H1 8386   4.502   3.431  10.041 -0.1387 -1.9553 -1.3305
  565TMC3    H2 8387   4.314   3.151  10.308  0.4112  0.0544 -0.6394
  565TMC3    C7 8388   4.350   3.213  10.040  0.6126 -0.4971 -0.6586
  565TMC3    C8 8389   4.447   3.223  10.520 -1.0018 -0.0121 -0.6783
  565TMC3    O1 8390   4.368   3.278   9.938 -0.0791 -0.1705 -0.5208
  565TMC3    O2 8391   4.503   3.277  10.611  0.2871 -0.0811  0.1898
  566MPD2     C 8392   0.940   4.488  14.067 -0.0935 -0.2521  0.0031
  566MPD2    C1 8393   1.019   4.580  14.007 -0.2951 -0.2948 -0.7153
  566MPD2    C2 8394   0.964   4.668  13.920 -0.2953  0.2517 -0.4174
  566MPD2    C3 8395   0.829   4.657  13.902  0.5794 -0.4183  0.7420
  566MPD2    C4 8396   0.755   4.554  13.952 -0.4053 -0.1350  0.1218
  566MPD2    C5 8397   0.808   4.463  14.032  0.4451  0.7563  0.1045
  566MPD2     H 8398   1.021   0.020  13.866 -2.4183  0.1675 -2.7625
  566MPD2    H1 8399   0.649   4.540  13.932 -0.4610  0.5532 -0.0498
  566MPD2    H2 8400   0.979   4.440  14.155  0.5056 -0.8406 -0.5850
  566MPD2    H3 8401   0.752   4.385  14.081  0.8410  1.5390  1.8027
  566MPD2     N 8402   0.774   0.028  13.812  0.2909 -0.7499 -0.6358
  566MPD2    H5 8403   0.844   0.096  13.784 -0.0215  0.0689  0.5956
  566MPD2    N1 8404   1.152   4.583  14.051  0.7739  0.6701  0.6271
  566MPD2    H7 8405   1.170   4.532  14.137  2.2965  0.4519  0.1865
  567TMC3    C1 8406   1.365   4.690  14.075 -0.2867 -0.0232  0.5917
  567TMC3    C2 8407   1.466   0.037  14.009  0.2154  0.3040 -0.4782
  567TMC3    C3 8408   1.570   0.091  14.072  0.2082 -0.3854  0.0561
  567TMC3    C4 8409   1.360   4.692  14.213 -1.1354  0.3301  0.7001
  567TMC3    C5 8410   1.471   0.017  14.273  0.1966 -0.5665 -0.1245
  567TMC3    C6 8411   1.581   0.082  14.207 -0.2074 -0.3910 -0.5170
  567TMC3     C 8412   1.243   4.669  13.996 -0.0999 -0.2398  0.1043
  567TMC3     O 8413   1.229   0.006  13.889  0.3458  0.2233 -0.0085
  567TMC3     H 8414   1.461   0.030  13.901  1.2913  1.1428 -0.5705
  567TMC3    H1 8415   1.276   4.641  14.258 -0.4993  0.1673  1.6964
  567TMC3    H2 8416   1.650   0.140  14.268 -0.5289  0.6744 -1.1574
  567TMC3    C7 8417   1.484   0.013  14.415 -0.7398  0.4197  0.9414
  567TMC3    C8 8418   1.581   0.228  14.021 -0.3943  0.5451  0.0219
  567TMC3    O1 8419   1.599   0.037  14.460  0.2211 -0.2730 -0.4876
  567TMC3    O2 8420   1.541   0.313  14.098 -0.3234 -1.0987 -0.1501
  568MPD2     C 8421   3.305   0.535  16.173  0.3990 -0.0873 -0.9208
  568MPD2    C1 8422   3.214   0.597  16.252  0.0733 -0.0284  0.0043
  568MPD2    C2 8423   3.168   0.725  16.220 -0.6300  1.1186  1.2211
  568MPD2    C3 8424   3.224   0.793  16.114 -0.0091  0.1313 -0.1271
  568MPD2    C4 8425   3.312   0.730  16.033 -0.0237  0.0636  0.2424
  568MPD2    C5 8426   3.343   0.597  16.060 -0.5330  0.1114 -0.5165
  568MPD2     H 8427   3.107   0.778  16.291 -2.7245 -1.1324  1.0877
  568MPD2    H1 8428   3.358   0.775  15.946 -1.6826  0.0586 -0.6446
  568MPD2    H2 8429   3.334   0.432  16.190 -1.0769 -0.2126  0.8228
  568MPD2    H3 8430   3.410   0.537  15.999  0.7334  3.8310 -2.7123
  568MPD2     N 8431   3.187   0.933  16.093  0.2383 -0.1276  0.4424
  568MPD2    H5 8432   3.133   0.986  16.161 -3.6826 -1.4269 -1.6246
  568MPD2    N1 8433   3.165   0.522  16.364  0.2372  0.1131 -0.1231
  568MPD2    H7 8434   3.177   0.421  16.360  0.8678  0.1627  0.6397
  569TMC3    C1 8435   3.174   1.143  15.993 -0.2565 -0.1028 -0.3323
  569TMC3    C2 8436   3.162   1.197  16.123  0.1828 -0.7417 -0.6533
  569TMC3    C3 8437   3.075   1.295  16.134  0.1678 -0.5913 -0.5435
  569TMC3    C4 8438   3.098   1.182  15.886  0.4038  0.2379  0.4677
  569TMC3    C5 8439   3.001   1.266  15.909 -0.3738 -0.3088  0.2979
  569TMC3    C6 8440   2.986   1.327  16.031  0.0926  0.2264  0.7756
  569TMC3     C 8441   3.223   1.009  15.980  0.2480 -0.4449 -0.7434
  569TMC3     O 8442   3.297   0.995  15.886  0.0493  0.5851 -0.0739
  569TMC3     H 8443   3.226   1.178  16.208 -1.6483  2.1620  1.3738
  569TMC3    H1 8444   3.108   1.129  15.792  0.5994  1.3101 -0.1045
  569TMC3    H2 8445   2.904   1.396  16.045  1.0814  1.5491  0.0488
  569TMC3    C7 8446   2.982   1.354  15.800  0.2713  0.3217 -0.0648
  569TMC3    C8 8447   3.140   1.425  16.161  0.7551 -0.0236  0.3413
  569TMC3    O1 8448   2.978   1.299  15.688  0.2761 -0.4753  0.1848
  569TMC3    O2 8449   3.092   1.512  16.091 -0.3947  0.2892 -0.3097
  570TMC3    C1 8450   2.738   4.325  16.201  0.2960 -0.4091 -0.2011
  570TMC3    C2 8451   2.855   4.334  16.128 -0.3182 -0.2211 -0.2242
  570TMC3    C3 8452   2.889   4.453  16.069  0.2632 -0.1786  0.1099
  570TMC3    C4 8453   2.649   4.438  16.217 -0.4477  0.3118  0.2796
  570TMC3    C5 8454   2.694   4.556  16.159  0.7101  0.2516 -0.1141
  570TMC3    C6 8455   2.808   4.563  16.084 -0.5535 -0.4891  0.1563
  570TMC3     C 8456   2.668   4.200  16.204 -0.3551  0.5397  0.5723
  570TMC3     O 8457   2.706   4.117  16.123  0.1255  0.1240 -0.8424
  570TMC3     H 8458   2.909   4.241  16.115 -0.0412 -0.1822  0.6679
  570TMC3    H1 8459   2.551   4.423  16.261 -0.7310  1.1967 -0.0429
  570TMC3    H2 8460   2.850   4.655  16.045  0.4255 -0.1472  2.0634
  570TMC3    C7 8461   2.623   4.675  16.189 -0.5027  0.7610 -0.2280
  570TMC3    C8 8462   3.021   4.461  16.018 -0.5407 -0.2904  0.1770
  570TMC3    O1 8463   2.566   4.671  16.296  0.1834  0.1389 -0.4392
  570TMC3    O2 8464   3.069   4.574  16.021  0.1501 -0.3188 -0.0395
  571MPD2     C 8465   0.673   1.172  17.120 -0.6698 -0.1460  0.5023
  571MPD2    C1 8466   0.603   1.274  17.187 -0.8726 -0.0139  0.1657
  571MPD2    C2 8467   0.674   1.351  17.274  0.5275 -0.6951 -0.3002
  571MPD2    C3 8468   0.805   1.323  17.303  0.5102  0.3755  0.6272
  571MPD2    C4 8469   0.873   1.221  17.237  0.0459  0.3657 -0.2005
  571MPD2    C5 8470   0.806   1.148  17.143  0.8614  0.1850 -0.1054
  571MPD2     H 8471   0.623   1.433  17.322 -0.1631  0.3574 -2.8411
  571MPD2    H1 8472   0.980   1.204  17.238  0.2963  1.9966  0.5195
  571MPD2    H2 8473   0.617   1.116  17.047  0.9610  1.1700 -1.7362
  571MPD2    H3 8474   0.862   1.082  17.079 -0.3575 -0.2261 -0.7547
  571MPD2     N 8475   0.874   1.394  17.408  0.3683  0.5966 -0.6223
  571MPD2    H5 8476   0.973   1.373  17.409  0.2889  0.3716  1.9470
  571MPD2    N1 8477   0.467   1.289  17.154  0.0833 -0.2683  0.0156
  571MPD2    H7 8478   0.430   1.207  17.107  2.2631 -2.8764  2.8022
  572TMC3    C1 8479   0.932   1.551  17.562 -0.4399 -0.1456 -0.4476
  572TMC3    C2 8480   0.933   1.565  17.693  0.2703  0.1221  0.8320
  572TMC3    C3 8481   1.049   1.616   0.057  0.0126 -0.0629 -0.0264
  572TMC3    C4 8482   1.040   1.587  17.485 -0.2998 -0.0022  0.1184
  572TMC3    C5 8483   1.147   1.655  17.545 -0.4048 -0.3603  0.5357
  572TMC3    C6 8484   1.164   1.648  17.680 -0.7300  0.3716 -0.1102
  572TMC3     C 8485   0.825   1.477  17.500  0.0000  0.2451  0.5759
  572TMC3     O 8486   0.711   1.471  17.547 -0.6958  0.0818  0.1700
  572TMC3     H 8487   0.840   1.535   0.045  1.0766 -1.2820  1.5152
  572TMC3    H1 8488   1.024   1.581  17.378  0.0696 -1.7610  0.1569
  572TMC3    H2 8489   1.243   1.704   0.033 -2.8756  1.6211  1.9946
  572TMC3    C7 8490   1.222   1.754  17.466  0.1852 -0.6577 -0.4317
  572TMC3    C8 8491   1.037   1.689   0.180  0.4528  0.7680 -0.1939
  572TMC3    O1 8492   1.172   1.767  17.354 -0.6318 -0.1454  0.0322
  572TMC3    O2 8493   1.136   1.745   0.227  0.3677 -0.6077  0.3300
  573MPD2     C 8494   2.164   2.168   0.256 -1.0142 -0.0205 -0.2214
  573MPD2    C1 8495   2.042   2.226   0.256  0.1432 -0.3295 -0.0745
  573MPD2    C2 8496   1.998   2.261   0.132  0.1763 -0.3813  0.7879
  573MPD2    C3 8497   2.080   2.251   0.020  0.1026 -0.4503 -0.1367
  573MPD2    C4 8498   2.208   2.218   0.038 -0.3409  0.5091 -0.4339
  573MPD2    C5 8499   2.249   2.171   0.155  0.3801  0.3993 -0.4525
  573MPD2     H 8500   1.895   2.292   0.118  0.9174  0.9073 -1.7283
  573MPD2    H1 8501   2.280   2.216  17.652 -0.6117 -1.7299 -0.6237
  573MPD2    H2 8502   2.203   2.134   0.351  1.1837  0.0749 -1.0769
  573MPD2    H3 8503   2.352   2.140   0.168  1.3770  3.1264 -1.7015
  573MPD2     N 8504   2.048   2.296  17.581  0.5055 -0.1198 -0.7128
  573MPD2    H5 8505   2.121   2.292  17.511  0.7232 -1.2998 -0.4152
  573MPD2    N1 8506   1.970   2.246   0.376  0.9033 -0.3789  0.6572
  573MPD2    H7 8507   2.010   2.216   0.464  1.8593 -0.1255  0.3083
  574TMC3    C1 8508   1.902   2.331  17.391 -0.1300  0.9089 -0.3856
  574TMC3    C2 8509   1.779   2.295  17.344 -0.2983  0.7498 -0.1524
  574TMC3    C3 8510   1.727   2.359  17.239 -0.1457  0.0775  0.3529
  574TMC3    C4 8511   1.964   2.444  17.345 -0.5059  0.5864 -0.2287
  574TMC3    C5 8512   1.920   2.495  17.232  0.4812  0.5498  0.0129
  574TMC3    C6 8513   1.800   2.456  17.175 -0.3159  0.4607  0.4291
  574TMC3     C 8514   1.916   2.305  17.535 -0.2957  0.2207 -0.6766
  574TMC3     O 8515   1.814   2.287  17.600  0.2735 -0.6080 -0.6079
  574TMC3     H 8516   1.726   2.213  17.390  0.5073  0.8022  0.8632
  574TMC3    H1 8517   2.047   2.473  17.408 -1.3821  1.0964  0.6832
  574TMC3    H2 8518   1.760   2.525  17.101  1.6618 -1.2405 -2.1995
  574TMC3    C7 8519   1.983   2.612  17.174 -0.2458 -0.0756 -0.4164
  574TMC3    C8 8520   1.599   2.325  17.180  0.4750  0.1625  0.0919
  574TMC3    O1 8521   1.927   2.672  17.084  0.3291  0.0168  0.3833
  574TMC3    O2 8522   1.555   2.212  17.202 -0.8639  0.2885 -0.1231
  575TMC3    C1 8523   4.464   3.234  11.393  0.8336 -0.0524  0.6049
  575TMC3    C2 8524   4.431   3.123  11.462 -0.3452  0.6907 -0.2499
  575TMC3    C3 8525   4.452   3.007  11.406  0.1567  0.3769 -0.2050
  575TMC3    C4 8526   4.492   3.221  11.264 -0.5612 -0.4003  0.2660
  575TMC3    C5 8527   4.515   3.104  11.207  0.7796  0.4411  0.2637
  575TMC3    C6 8528   4.499   2.992  11.275 -0.0928 -0.1158 -0.2209
  575TMC3     C 8529   4.441   3.356  11.462  0.4552 -0.0664  0.6373
  575TMC3     O 8530   4.362   3.352  11.556  0.7427  0.0488  0.4289
  575TMC3     H 8531   4.403   3.132  11.566  1.0437  0.8423  0.1070
  575TMC3    H1 8532   4.493   3.312  11.205 -1.7046  1.4132  3.0249
  575TMC3    H2 8533   4.522   2.892  11.239  1.0859  0.6739 -1.6660
  575TMC3    C7 8534   4.525   3.100  11.059 -0.4905  0.3121 -0.2180
  575TMC3    C8 8535   4.410   2.881  11.472  0.6550 -0.0463  0.7103
  575TMC3    O1 8536   4.523   3.209  11.005  0.1199 -0.6708  0.1591
  575TMC3    O2 8537   4.390   2.796  11.393 -0.2496 -0.3879  0.7794
  576MPD2     C 8538   3.874   4.705  12.789  0.6958 -0.2465 -0.1854
  576MPD2    C1 8539   3.919   0.065  12.693  0.2179 -0.8291  0.7420
  576MPD2    C2 8540   3.870   0.197  12.693  0.1729 -0.1263  0.9316
  576MPD2    C3 8541   3.776   0.238  12.787  0.0298 -0.1150  1.0746
  576MPD2    C4 8542   3.732   0.155  12.880  0.5098  0.1308 -0.6480
  576MPD2    C5 8543   3.778   0.024  12.876  0.1242 -0.4606 -0.4573
  576MPD2     H 8544   3.905   0.273  12.624 -1.0207  0.4273  0.9436
  576MPD2    H1 8545   3.662   0.192  12.954 -0.4266  0.7681 -1.8441
  576MPD2    H2 8546   3.904   4.601  12.793 -1.1984 -0.7475  1.2278
  576MPD2    H3 8547   3.750   4.675  12.951 -0.4658  2.0405  1.7489
  576MPD2     N 8548   3.728   0.371  12.769  0.4698  0.0611  0.0750
  576MPD2    H5 8549   3.774   0.416  12.690 -1.2752 -0.5526 -1.2818
  576MPD2    N1 8550   4.016   0.032  12.594  0.2638  0.5272 -0.0342
  576MPD2    H7 8551   4.040   0.117  12.544 -0.8287  1.6773  1.3947
  577TMC3    C1 8552   4.145   4.638  12.435  0.0128  0.7054 -0.0437
  577TMC3    C2 8553   4.238   4.533  12.422 -0.4374  0.5979 -0.0915
  577TMC3    C3 8554   4.280   4.493  12.296  0.5566  0.4880 -1.1652
  577TMC3    C4 8555   4.110   4.715  12.331  0.1550 -0.3525  0.1049
  577TMC3    C5 8556   4.163   4.684  12.208  0.8512  0.3219 -0.0086
  577TMC3    C6 8557   4.247   4.578  12.187 -0.2592 -0.5288  0.3542
  577TMC3     C 8558   4.070   4.635  12.557  0.6700  0.1704  0.4503
  577TMC3     O 8559   4.043   4.522  12.599  0.3460  0.5718  0.0151
  577TMC3     H 8560   4.263   4.466  12.503  2.7172  1.0097 -0.7330
  577TMC3    H1 8561   4.038   0.072  12.342 -0.5413 -1.1158  1.1439
  577TMC3    H2 8562   4.272   4.558  12.083 -1.4273 -0.7031  0.1046
  577TMC3    C7 8563   4.148   0.053  12.096  0.1170  0.8331  0.7605
  577TMC3    C8 8564   4.360   4.382  12.280  0.3254 -0.0102  0.8085
  577TMC3    O1 8565   4.039   0.114  12.085  0.5697 -0.3314  0.6216
  577TMC3    O2 8566   4.354   4.290  12.359 -0.9080 -0.4945  0.4039
  578MPD2     C 8567   2.048   4.154   1.554  0.1756 -0.3155 -0.5346
  578MPD2    C1 8568   2.073   4.150   1.419  0.2905 -0.3794 -0.3550
  578MPD2    C2 8569   2.159   4.051   1.369 -0.6276  0.1887  0.7296
  578MPD2    C3 8570   2.235   3.978   1.456 -0.6933  0.9494 -0.9150
  578MPD2    C4 8571   2.218   3.995   1.593 -0.6447 -0.3985  0.1027
  578MPD2    C5 8572   2.121   4.081   1.643  0.0759 -0.1762  0.1714
  578MPD2     H 8573   2.164   4.035   1.262 -0.9982  2.0767  0.4192
  578MPD2    H1 8574   2.277   3.950   1.672 -0.4933 -0.5558 -0.0966
  578MPD2    H2 8575   1.973   4.215   1.601 -0.1136  0.6041 -2.1915
  578MPD2    H3 8576   2.106   4.091   1.750  2.5532 -0.6403  0.5679
  578MPD2     N 8577   2.332   3.898   1.393  0.6082 -0.0080  0.6307
  578MPD2    H5 8578   2.335   3.886   1.293 -1.3546  1.5537  0.3951
  578MPD2    N1 8579   2.013   4.251   1.336 -0.3083 -0.4176  0.7457
  578MPD2    H7 8580   1.949   4.319   1.378 -1.7866 -0.1628 -1.9355
  579TMC3    C1 8581   2.547   3.819   1.348 -0.9257 -0.2670  0.1225
  579TMC3    C2 8582   2.670   3.877   1.354  0.2131  0.2569 -0.3702
  579TMC3    C3 8583   2.746   3.874   1.238 -0.0042  0.1836 -0.8616
  579TMC3    C4 8584   2.501   3.749   1.241 -0.2326 -0.6932  0.0602
  579TMC3    C5 8585   2.580   3.743   1.128 -1.2280 -0.6485  0.4191
  579TMC3    C6 8586   2.703   3.806   1.124  0.1151  0.0407  0.2394
  579TMC3     C 8587   2.458   3.875   1.448 -0.0615  0.0219  0.4302
  579TMC3     O 8588   2.504   3.903   1.561 -0.2565 -0.2987  0.3013
  579TMC3     H 8589   2.702   3.937   1.438 -0.8959 -0.7685  0.7718
  579TMC3    H1 8590   2.407   3.696   1.248 -0.1672 -0.7385  0.5968
  579TMC3    H2 8591   2.755   3.810   1.029 -0.5124  2.5375  0.0063
  579TMC3    C7 8592   2.548   3.661   1.013  0.5591 -0.1345 -0.3906
  579TMC3    C8 8593   2.883   3.918   1.246  0.2473  0.5700  0.5717
  579TMC3    O1 8594   2.644   3.625   0.938  0.6454  0.2799 -0.1979
  579TMC3    O2 8595   2.918   3.961   1.352 -0.6311  0.1992 -0.4707
  580TMC3    C1 8596   1.822   3.735  11.923 -0.2296 -0.2514 -0.1320
  580TMC3    C2 8597   1.821   3.682  11.796  0.2711  0.4689 -0.4082
  580TMC3    C3 8598   1.882   3.559  11.772  0.3986  0.2122 -0.1881
  580TMC3    C4 8599   1.854   3.655  12.031  0.2302  0.7041  0.6447
  580TMC3    C5 8600   1.901   3.528  11.999 -0.1705  0.3834 -0.4860
  580TMC3    C6 8601   1.922   3.479  11.877  0.3713 -0.2424 -0.0832
  580TMC3     C 8602   1.879   3.868  11.921  0.4741  0.4134 -0.8822
  580TMC3     O 8603   1.963   3.886  11.833  0.4759  0.2267  0.8750
  580TMC3     H 8604   1.780   3.747  11.719  1.5528 -0.4363 -1.8733
  580TMC3    H1 8605   1.851   3.690  12.134  0.3072  1.3276  0.4332
  580TMC3    H2 8606   1.980   3.389  11.861  1.1941  0.6716 -2.3481
  580TMC3    C7 8607   1.966   3.465  12.110  0.0938  0.2591 -0.1457
  580TMC3    C8 8608   1.976   3.558  11.663  0.1950 -0.2221  0.4498
  580TMC3    O1 8609   2.013   3.542  12.193 -0.2779  0.6295 -0.7590
  580TMC3    O2 8610   1.938   3.600  11.555  0.3851  0.5856  0.0427
  581MPD2     C 8611   0.167   3.190  14.811  0.4113 -1.1087 -0.4821
  581MPD2    C1 8612   0.033   3.198  14.824 -0.0538  0.6715 -0.6621
  581MPD2    C2 8613   4.692   3.299  14.759 -0.1026 -0.3324  0.3193
  581MPD2    C3 8614   0.049   3.393  14.685  0.7032  0.4220  0.0069
  581MPD2    C4 8615   0.177   3.369  14.663 -0.8776  0.0056  0.8194
  581MPD2    C5 8616   0.245   3.273  14.736 -0.0517  0.1804 -0.0220
  581MPD2     H 8617   4.584   3.303  14.752 -0.0427  2.1687  0.6059
  581MPD2    H1 8618   0.234   3.437  14.601 -1.5493 -0.0432  0.1562
  581MPD2    H2 8619   0.218   3.115  14.871  1.4871 -0.5047 -0.6290
  581MPD2    H3 8620   0.350   3.252  14.722 -0.3021 -0.5549 -0.7957
  581MPD2     N 8621   4.707   3.508  14.624  0.9238 -0.1640 -0.5981
  581MPD2    H5 8622   0.033   3.557  14.551 -1.6269  0.7556 -1.7117
  581MPD2    N1 8623   4.691   3.101  14.908  0.2513  0.3250  0.1322
  581MPD2    H7 8624   0.027   3.037  14.960  2.1278 -0.4458 -2.9336
  582TMC3    C1 8625   4.525   2.986  15.045  0.0338  0.0573  0.2373
  582TMC3    C2 8626   4.590   2.985  15.167 -0.0814  0.1278  0.1999
  582TMC3    C3 8627   4.519   2.959  15.284 -0.3444  0.7771  0.1893
  582TMC3    C4 8628   4.399   2.945  15.047 -0.3168 -0.1303  0.1210
  582TMC3    C5 8629   4.334   2.892  15.148  0.3273 -0.1822 -0.2361
  582TMC3    C6 8630   4.395   2.905  15.267  0.4536  0.5626  0.3686
  582TMC3     C 8631   4.554   3.086  14.938  0.1098 -0.5312  0.8759
  582TMC3     O 8632   4.464   3.152  14.888  0.1863  0.6425  0.5077
  582TMC3     H 8633   4.677   3.050  15.174  0.5221 -0.5833 -0.6496
  582TMC3    H1 8634   4.351   2.946  14.949 -0.1983 -0.6065  0.0536
  582TMC3    H2 8635   4.346   2.878  15.360  0.1019 -0.5882 -0.1441
  582TMC3    C7 8636   4.188   2.911  15.158 -0.2494  0.1561  0.3207
  582TMC3    C8 8637   4.539   3.028  15.409  0.4191  0.2338 -0.3870
  582TMC3    O1 8638   4.116   2.821  15.201  0.4401  0.0048 -0.4046
  582TMC3    O2 8639   4.443   3.041  15.482 -0.7287  0.4070  0.5341
  583MPD2     C 8640   4.359   0.246  16.553  0.2992 -0.0733 -0.2684
  583MPD2    C1 8641   4.319   0.369  16.503 -0.4293  0.3667 -0.2880
  583MPD2    C2 8642   4.243   0.456  16.587 -0.3019 -0.6139 -0.1761
  583MPD2    C3 8643   4.207   0.421  16.716  0.7818 -0.7052  0.5686
  583MPD2    C4 8644   4.246   0.296  16.759  0.3781 -0.1737 -0.0534
  583MPD2    C5 8645   4.316   0.213  16.677 -0.5092 -0.0797 -0.8676
  583MPD2     H 8646   4.215   0.553  16.548  0.9311  0.1206  0.7729
  583MPD2    H1 8647   4.229   0.260  16.860  0.8017 -0.9532 -0.2620
  583MPD2    H2 8648   4.417   0.174  16.495 -0.0590  0.4964 -1.3432
  583MPD2    H3 8649   4.359   0.116  16.702  1.1261  0.0957 -2.9965
  583MPD2     N 8650   4.138   0.525  16.791  0.2415 -0.0233  0.0871
  583MPD2    H5 8651   4.095   0.604  16.745 -1.5546 -1.4034 -0.6258
  583MPD2    N1 8652   4.357   0.425  16.380  0.2919 -0.4562  0.2852
  583MPD2    H7 8653   4.330   0.522  16.367 -0.5006 -1.2281 -3.5349
  584TMC3    C1 8654   4.036   0.645  16.976 -0.0014 -0.1536  0.0337
  584TMC3    C2 8655   4.032   0.753  16.899  0.0507  0.1123 -0.9617
  584TMC3    C3 8656   4.009   0.878  16.956 -1.1574 -0.1780 -0.2545
  584TMC3    C4 8657   4.007   0.654  17.106 -0.1730 -0.1686 -0.3518
  584TMC3    C5 8658   3.978   0.778  17.166 -0.4755  0.0343 -0.1043
  584TMC3    C6 8659   3.988   0.892  17.092  0.7107 -0.8838  0.8811
  584TMC3     C 8660   4.103   0.525  16.923 -0.3407 -0.2041 -0.8010
  584TMC3     O 8661   4.122   0.440  17.011 -0.4100  0.1327 -0.4048
  584TMC3     H 8662   4.051   0.751  16.793  2.3941 -2.4283 -0.5050
  584TMC3    H1 8663   4.011   0.569  17.173  0.6739 -1.5993 -2.1935
  584TMC3    H2 8664   3.934   0.979  17.126 -0.5949 -1.2624 -0.2360
  584TMC3    C7 8665   3.936   0.775  17.305 -0.5661 -0.2545 -0.3773
  584TMC3    C8 8666   4.026   0.999  16.871 -0.1707 -0.3253  0.1344
  584TMC3    O1 8667   3.878   0.674  17.354  0.6285 -0.2176  0.2841
  584TMC3    O2 8668   4.011   0.988  16.750 -0.0802  0.3531 -0.2168
  585MPD2     C 8669   3.232   4.392   0.269  0.7649 -0.1470 -0.9030
  585MPD2    C1 8670   3.271   4.388   0.138  0.3175 -1.0587  0.2019
  585MPD2    C2 8671   3.371   4.293   0.099 -0.1445 -0.1992  0.4346
  585MPD2    C3 8672   3.411   4.200   0.195 -0.6236 -0.1649 -0.1503
  585MPD2    C4 8673   3.359   4.200   0.322  0.2948 -0.6931 -0.4787
  585MPD2    C5 8674   3.274   4.299   0.355  0.1329 -0.9089 -0.1498
  585MPD2     H 8675   3.416   4.282   0.002 -1.2185 -0.7153 -0.0151
  585MPD2    H1 8676   3.392   4.136   0.403 -1.4092 -1.4397 -0.3764
  585MPD2    H2 8677   3.156   4.462   0.300  0.8124 -0.0611 -0.9795
  585MPD2    H3 8678   3.230   4.305   0.454 -0.0858  0.2961 -0.3186
  585MPD2     N 8679   3.493   4.089   0.170  0.7440 -0.2571  0.0615
  585MPD2    H5 8680   3.516   4.025   0.246 -0.3723  0.4888  1.0368
  585MPD2    N1 8681   3.205   4.477   0.045  0.5611 -0.1299  0.7511
  585MPD2    H7 8682   3.119   4.524   0.074 -0.4830 -1.2916 -0.4633
  586TMC3    C1 8683   3.659   3.943   0.081 -0.2302 -0.0008 -0.4697
  586TMC3    C2 8684   3.782   3.958   0.028 -0.4577 -0.1917  0.1726
  586TMC3    C3 8685   3.877   3.873   0.080  0.4776 -0.6140  0.0929
  586TMC3    C4 8686   3.627   3.840   0.174  0.2859  0.4525 -0.3315
  586TMC3    C5 8687   3.726   3.758   0.222  0.2657  0.4002 -0.4921
  586TMC3    C6 8688   3.854   3.781   0.181 -0.8799 -1.0532 -0.3526
  586TMC3     C 8689   3.561   4.058   0.055 -0.2697  0.2055  0.3019
  586TMC3     O 8690   3.569   4.120  17.644  0.2226  0.9042  0.0855
  586TMC3     H 8691   3.786   4.022  17.636  1.3347 -1.5277 -0.7293
  586TMC3    H1 8692   3.524   3.829   0.203  0.5512  2.2869  1.2663
  586TMC3    H2 8693   3.932   3.711   0.209  2.8619  2.6553 -1.5167
  586TMC3    C7 8694   3.686   3.623   0.260  0.7076  0.7614 -0.3853
  586TMC3    C8 8695   3.980   3.837  17.687 -0.1836 -0.0627  1.0696
  586TMC3    O1 8696   3.574   3.599   0.221 -0.2666 -0.3418 -0.3633
  586TMC3    O2 8697   4.079   3.796   0.048 -0.2773 -0.0955  0.0740
  587TMC3    C1 8698   1.036   2.835  15.688  0.8281  0.5530 -0.1764
  587TMC3    C2 8699   1.024   2.857  15.823  0.3338 -0.2870 -0.7885
  587TMC3    C3 8700   1.122   2.805  15.897  0.9416  0.0139  0.0432
  587TMC3    C4 8701   1.147   2.768  15.628  0.1361  0.2211  0.5953
  587TMC3    C5 8702   1.242   2.720  15.710  0.5249  0.4852  0.6361
  587TMC3    C6 8703   1.226   2.729  15.847  0.3374  0.4347 -0.3312
  587TMC3     C 8704   0.914   2.834  15.609  0.3812  0.4266 -0.6134
  587TMC3     O 8705   0.924   2.836  15.487 -0.7354  0.0152 -0.4056
  587TMC3     H 8706   0.944   2.913  15.870  0.2324 -0.1040 -1.1779
  587TMC3    H1 8707   1.151   2.770  15.519 -1.8792  0.4728  0.5406
  587TMC3    H2 8708   1.305   2.709  15.918 -0.1023 -2.4472 -0.6790
  587TMC3    C7 8709   1.351   2.644  15.653  0.9020 -0.3191  0.4633
  587TMC3    C8 8710   1.096   2.773  16.038  0.1687  1.1383  0.2063
  587TMC3    O1 8711   1.453   2.654  15.716 -0.1892  0.0056  0.2964
  587TMC3    O2 8712   1.148   2.668  16.078 -0.0799  0.2060 -0.2431
  588TMC3    C1 8713   3.734   0.672   9.435  0.4812 -0.5832 -0.6085
  588TMC3    C2 8714   3.729   0.538   9.440 -0.6737 -0.0706  0.6090
  588TMC3    C3 8715   3.806   0.476   9.535  0.2239  0.8003  0.2624
  588TMC3    C4 8716   3.820   0.739   9.520 -0.3765  0.1356  0.4373
  588TMC3    C5 8717   3.880   0.675   9.625  0.0342  0.2060 -0.2394
  588TMC3    C6 8718   3.882   0.543   9.634  0.6572  0.3674  0.2337
  588TMC3     C 8719   3.613   0.739   9.387  0.2147 -0.0006 -0.1819
  588TMC3     O 8720   3.523   0.673   9.341 -0.2001 -0.0078  0.2109
  588TMC3     H 8721   3.652   0.483   9.387 -1.5986  1.9086 -0.1029
  588TMC3    H1 8722   3.843   0.844   9.500  0.3780 -0.4181 -1.6015
  588TMC3    H2 8723   3.930   0.494   9.717  0.6249  0.4642  0.3091
  588TMC3    C7 8724   3.899   0.737   9.751 -1.0945  0.1167 -0.0362
  588TMC3    C8 8725   3.807   0.329   9.520 -0.1278  0.2578  0.5636
  588TMC3    O1 8726   3.959   0.677   9.839 -0.3057  0.2214 -0.4406
  588TMC3    O2 8727   3.746   0.281   9.427 -0.7633 -0.5527  0.1400
  589TMC3    C1 8728   2.894   2.765   1.515  0.3429  0.5769  0.5598
  589TMC3    C2 8729   3.001   2.825   1.573 -0.1517 -1.0220  0.4871
  589TMC3    C3 8730   3.128   2.775   1.533  0.6247 -0.1118  0.0619
  589TMC3    C4 8731   2.916   2.674   1.412  0.1034 -0.3806  0.3902
  589TMC3    C5 8732   3.039   2.632   1.378 -0.1223 -0.4577 -0.3360
  589TMC3    C6 8733   3.154   2.677   1.446  0.5168  0.1881  0.0557
  589TMC3     C 8734   2.761   2.811   1.549  0.2509 -0.3630  0.2672
  589TMC3     O 8735   2.669   2.794   1.465  0.3856  0.2034  0.2710
  589TMC3     H 8736   3.003   2.910   1.640 -0.5569 -0.7635  0.1654
  589TMC3    H1 8737   2.830   2.646   1.352 -1.0533  1.7533  1.0655
  589TMC3    H2 8738   3.253   2.635   1.433  1.0032  1.0147  1.0697
  589TMC3    C7 8739   3.046   2.522   1.281 -0.0093  0.5523 -0.1938
  589TMC3    C8 8740   3.232   2.812   1.630  0.3575 -0.1264  0.5883
  589TMC3    O1 8741   2.937   2.469   1.258 -0.2658  1.0540 -0.0001
  589TMC3    O2 8742   3.191   2.844   1.738  0.0378 -0.0409  0.4831
  590MPD2     C 8743   2.177   1.689  16.613  0.6660 -0.0049 -0.6338
  590MPD2    C1 8744   2.152   1.644  16.482  0.1759 -0.2043 -0.4075
  590MPD2    C2 8745   2.258   1.647  16.388  0.4401  0.2306 -0.4552
  590MPD2    C3 8746   2.378   1.703  16.418 -0.0164  0.0962  0.5739
  590MPD2    C4 8747   2.393   1.753  16.545  0.3644 -0.5705  0.1877
  590MPD2    C5 8748   2.297   1.748  16.641 -0.2448  0.1289  0.4622
  590MPD2     H 8749   2.244   1.620  16.284  2.5996  1.4589 -1.0704
  590MPD2    H1 8750   2.494   1.778  16.574  0.7923 -2.7109  0.5943
  590MPD2    H2 8751   2.100   1.682  16.689  0.8332  1.2230 -0.3400
  590MPD2    H3 8752   2.319   1.779  16.743  3.0283 -0.3999 -0.0811
  590MPD2     N 8753   2.474   1.733  16.313  0.0670  0.3350 -0.0859
  590MPD2    H5 8754   2.466   1.693  16.220 -1.2937 -2.2640  1.1573
  590MPD2    N1 8755   2.025   1.588  16.465  0.2903 -0.1880 -0.6706
  590MPD2    H7 8756   1.957   1.605  16.537  0.9859  0.4019 -0.1563
  591TMC3    C1 8757   2.646   1.847  16.207 -0.6357  0.3598 -0.1316
  591TMC3    C2 8758   2.654   1.741  16.117 -0.0289  0.0887  0.7810
  591TMC3    C3 8759   2.710   1.763  16.000 -0.5818 -0.8328 -0.4641
  591TMC3    C4 8760   2.695   1.969  16.185 -0.0301  0.4070 -0.0306
  591TMC3    C5 8761   2.717   1.995  16.057 -0.9326  0.1767 -0.2375
  591TMC3    C6 8762   2.736   1.892  15.961 -0.3000  0.1896  0.2231
  591TMC3     C 8763   2.573   1.828  16.332  0.2361 -0.5052 -0.0853
  591TMC3     O 8764   2.572   1.924  16.407  0.1152  0.1857 -0.3463
  591TMC3     H 8765   2.616   1.643  16.144 -1.6181  0.5499  0.2075
  591TMC3    H1 8766   2.685   2.051  16.256 -2.8152 -0.8928  1.0581
  591TMC3    H2 8767   2.788   1.912  15.869  2.6268  1.5562  2.1882
  591TMC3    C7 8768   2.758   2.126  16.026  0.4512  0.9058 -0.2860
  591TMC3    C8 8769   2.708   1.660  15.898  0.4725 -0.3728 -0.4222
  591TMC3    O1 8770   2.803   2.187  16.123  0.0319  0.2335 -0.6706
  591TMC3    O2 8771   2.705   1.545  15.946  0.1376  0.5663 -0.0444
  592MPD2     C 8772   3.094   3.392  11.113 -0.0410 -0.5011 -0.0632
  592MPD2    C1 8773   3.078   3.411  11.248  0.2830  0.9112 -0.0287
  592MPD2    C2 8774   2.975   3.352  11.318  0.1164  0.9226  0.0061
  592MPD2    C3 8775   2.891   3.256  11.261  0.1567 -0.1085  0.0485
  592MPD2    C4 8776   2.905   3.241  11.125  0.2366  0.2097  0.1824
  592MPD2    C5 8777   3.000   3.310  11.052 -0.1313  0.0634  0.5510
  592MPD2     H 8778   2.968   3.372  11.425 -0.5444  1.9808 -0.2303
  592MPD2    H1 8779   2.843   3.172  11.069  1.4175 -0.5056 -0.2321
  592MPD2    H2 8780   3.166   3.442  11.049  0.1939 -2.6554 -1.4930
  592MPD2    H3 8781   3.005   3.289  10.946 -1.1604 -1.0592  0.7291
  592MPD2     N 8782   2.793   3.197  11.340 -0.4133  0.1142 -0.2014
  592MPD2    H5 8783   2.779   3.223  11.437  1.7462  0.2386  0.0918
  592MPD2    N1 8784   3.171   3.500  11.307 -0.5224  0.0524  0.3035
  592MPD2    H7 8785   3.229   3.556  11.246  0.4347 -1.9913 -0.6497
  593TMC3    C1 8786   3.278   3.643  11.471  0.0127 -0.3351 -0.2982
  593TMC3    C2 8787   3.282   3.681  11.602 -0.9378  0.0562 -0.0300
  593TMC3    C3 8788   3.392   3.760  11.639  0.1715 -0.4522  0.1271
  593TMC3    C4 8789   3.377   3.678  11.385 -0.5132 -0.3411  0.3546
  593TMC3    C5 8790   3.483   3.757  11.427 -0.0386 -0.1494 -0.0926
  593TMC3    C6 8791   3.492   3.801  11.557 -0.2948 -0.4376  0.3731
  593TMC3     C 8792   3.171   3.542  11.436 -0.6261  0.3263  0.2097
  593TMC3     O 8793   3.101   3.512  11.532  0.2349  0.1063 -0.0647
  593TMC3     H 8794   3.198   3.658  11.666 -0.7371 -0.3613  0.0845
  593TMC3    H1 8795   3.376   3.647  11.281 -0.4083 -0.6142  0.4345
  593TMC3    H2 8796   3.563   3.876  11.591  0.2633 -0.0283 -1.6834
  593TMC3    C7 8797   3.569   3.812  11.333  0.8135 -0.3842  0.8123
  593TMC3    C8 8798   3.366   3.790  11.784 -0.0669 -0.4194  0.1352
  593TMC3    O1 8799   3.660   3.883  11.375  0.0959 -0.0511  0.2701
  593TMC3    O2 8800   3.315   3.702  11.854 -0.2786  0.0853  0.2935
  594MPD2     C 8801   1.472   2.118  13.841 -0.0545 -0.4748  0.5715
  594MPD2    C1 8802   1.471   2.163  13.975 -0.2084 -0.1389 -0.4971
  594MPD2    C2 8803   1.586   2.222  14.022  0.7403 -0.9465  0.1841
  594MPD2    C3 8804   1.691   2.247  13.939 -0.6563  0.0133  0.5989
  594MPD2    C4 8805   1.688   2.207  13.809  0.1880  0.1035  0.6466
  594MPD2    C5 8806   1.576   2.137  13.766 -1.0386  0.4605  0.0135
  594MPD2     H 8807   1.597   2.250  14.126 -2.6399 -2.4035  0.9538
  594MPD2    H1 8808   1.768   2.234  13.741 -0.4397  0.8546  0.2015
  594MPD2    H2 8809   1.384   2.067  13.804 -0.5016  0.2069  0.6906
  594MPD2    H3 8810   1.577   2.108  13.662 -0.0715 -0.0085  0.1478
  594MPD2     N 8811   1.791   2.339  13.991 -0.8348  0.6423  0.4285
  594MPD2    H5 8812   1.769   2.387  14.078 -1.2092  0.9426  0.1683
  594MPD2    N1 8813   1.358   2.126  14.055  0.3153 -0.2985  0.0809
  594MPD2    H7 8814   1.281   2.090  14.001  1.2442  0.1900 -1.5864
  595TMC3    C1 8815   2.125   2.653  13.989  0.5891 -0.5584  0.0285
  595TMC3    C2 8816   2.088   2.523  13.966  0.2241  0.3245  0.1258
  595TMC3    C3 8817   1.959   2.495  14.002  1.1248  0.3840 -0.2694
  595TMC3    C4 8818   2.043   2.745  14.047 -0.2031  0.4265 -0.4322
  595TMC3    C5 8819   1.917   2.710  14.076 -0.2162  0.2871  0.4152
  595TMC3    C6 8820   1.871   2.588  14.050  0.7307  0.1144  0.2457
  595TMC3     C 8821   2.272   2.678  13.991 -0.1776  0.2784  0.0916
  595TMC3     O 8822   2.311   2.792  14.005  0.0319 -0.3210 -0.0456
  595TMC3     H 8823   2.133   2.459  13.891 -3.2268 -1.4453 -0.4162
  595TMC3    H1 8824   2.097   2.837  14.068  1.2804 -0.7774  1.0110
  595TMC3    H2 8825   1.769   2.569  14.081 -0.1133  3.2893 -0.5883
  595TMC3    C7 8826   1.836   2.814  14.139  0.1639 -0.0203  0.2800
  595TMC3    C8 8827   1.907   2.372  13.932  0.2051  0.2218 -0.0279
  595TMC3    O1 8828   1.732   2.778  14.187 -0.0171  0.3664 -0.1006
  595TMC3    O2 8829   1.962   2.320  13.839 -0.0573  0.4066 -0.1281
  596MPD2     C 8830   0.490   0.160  16.709  0.6583  0.1341  0.0854
  596MPD2    C1 8831   0.474   0.265  16.624  0.3641  0.4109  0.4280
  596MPD2    C2 8832   0.533   0.261  16.501  0.2434 -0.4909 -0.1257
  596MPD2    C3 8833   0.602   0.150  16.459 -0.0662  0.0007  0.4936
  596MPD2    C4 8834   0.606   0.043  16.542  0.1555 -0.6090  0.4645
  596MPD2    C5 8835   0.556   0.049  16.675 -0.3849 -0.2927  0.1103
  596MPD2     H 8836   0.526   0.346  16.434 -1.5620  0.0383  0.7228
  596MPD2    H1 8837   0.662   4.677  16.516  0.2071 -0.7352  1.0077
  596MPD2    H2 8838   0.457   0.156  16.813 -0.2362  1.2979 -0.1569
  596MPD2    H3 8839   0.572   4.693  16.747 -0.1395  0.5035  0.9175
  596MPD2     N 8840   0.660   0.143  16.332  0.0139 -0.2020 -0.0912
  596MPD2    H5 8841   0.664   0.047  16.300 -2.0288 -1.0110  2.0870
  596MPD2    N1 8842   0.417   0.388  16.648 -0.8420 -0.0132  0.0339
  596MPD2    H7 8843   0.406   0.446  16.566 -0.9019  1.5477  1.1483
  597TMC3    C1 8844   0.305   0.564  16.745  0.0483  0.2484 -0.2374
  597TMC3    C2 8845   0.396   0.643  16.681 -0.6667  0.2558 -0.8283
  597TMC3    C3 8846   0.371   0.781  16.678 -0.4712  0.8060 -1.0534
  597TMC3    C4 8847   0.192   0.603  16.796  0.4192  0.6973  0.0216
  597TMC3    C5 8848   0.171   0.736  16.797 -0.0739 -0.1873  0.1547
  597TMC3    C6 8849   0.255   0.826  16.738 -0.3141 -0.0484  0.0232
  597TMC3     C 8850   0.347   0.428  16.763  0.2572 -0.3299 -0.0198
  597TMC3     O 8851   0.314   0.370  16.865 -0.3067 -0.2521  0.2970
  597TMC3     H 8852   0.495   0.607  16.655 -0.0727  2.1877 -1.2807
  597TMC3    H1 8853   0.133   0.531  16.851  0.5785  0.1823 -0.4790
  597TMC3    H2 8854   0.249   0.934  16.741  0.6759  0.0663 -2.1616
  597TMC3    C7 8855   0.049   0.776  16.860  0.0251  0.7375 -0.3829
  597TMC3    C8 8856   0.480   0.868  16.668  0.4474  0.1559 -0.3719
  597TMC3    O1 8857   0.008   0.695  16.940  0.0406  0.0392 -0.2179
  597TMC3    O2 8858   0.475   0.979  16.721  0.4645 -0.0019 -0.5993
  598TMC3    C1 8859   3.393   1.799  15.333 -0.2617 -0.2987 -0.2887
  598TMC3    C2 8860   3.287   1.725  15.278 -0.4394  0.1688  0.3158
  598TMC3    C3 8861   3.252   1.758  15.153  0.0460  0.0118  0.5176
  598TMC3    C4 8862   3.456   1.901  15.268  0.6384 -0.0092  0.6593
  598TMC3    C5 8863   3.414   1.931  15.139 -0.1117  0.2608 -0.2144
  598TMC3    C6 8864   3.311   1.863  15.080  0.6400 -0.3336  0.6365
  598TMC3     C 8865   3.438   1.755  15.458 -0.0234 -0.4996 -0.0732
  598TMC3     O 8866   3.520   1.816  15.527 -0.1022 -0.2647  0.0155
  598TMC3     H 8867   3.218   1.665  15.336  0.4527 -0.5222  0.6623
  598TMC3    H1 8868   3.532   1.958  15.320  0.8399  1.3996 -1.1508
  598TMC3    H2 8869   3.279   1.887  14.980 -2.1323 -2.5625  1.0024
  598TMC3    C7 8870   3.520   1.967  15.044 -0.2551  0.4821 -0.4084
  598TMC3    C8 8871   3.144   1.692  15.090  0.8350  0.0269 -0.8358
  598TMC3    O1 8872   3.543   1.893  14.949 -0.3004  0.1331  0.3386
  598TMC3    O2 8873   3.071   1.627  15.165 -0.7052 -0.1033 -0.9032
  599MPD2     C 8874   3.685   3.852  15.822 -0.0817  0.4089 -0.7820
  599MPD2    C1 8875   3.570   3.800  15.772  0.3672 -0.2392  0.0642
  599MPD2    C2 8876   3.450   3.815  15.842  0.4260 -0.4559  0.1016
  599MPD2    C3 8877   3.447   3.875  15.963 -0.4451 -0.8265 -1.1305
  599MPD2    C4 8878   3.563   3.939  16.008 -0.2005 -0.3925  0.2450
  599MPD2    C5 8879   3.676   3.932  15.935  0.1523  0.0981  0.0895
  599MPD2     H 8880   3.359   3.766  15.811  1.4592 -2.1712 -0.2309
  599MPD2    H1 8881   3.568   3.999  16.098  0.6919  0.2979 -0.2593
  599MPD2    H2 8882   3.774   3.832  15.763 -0.0573  0.1376 -0.6520
  599MPD2    H3 8883   3.766   3.979  15.973  0.4000  1.0519 -1.6475
  599MPD2     N 8884   3.333   3.884  16.050 -0.1371  0.1735  0.4900
  599MPD2    H5 8885   3.347   3.942  16.133  0.1907 -0.9243  1.2073
  599MPD2    N1 8886   3.585   3.729  15.646  0.3510  0.3201 -0.6256
  599MPD2    H7 8887   3.674   3.731  15.597  1.1798 -0.2738  0.8503
  600TMC3    C1 8888   3.124   3.830  16.140  1.3127 -0.1645  0.4136
  600TMC3    C2 8889   3.030   3.735  16.165 -0.2069  0.2094  0.2713
  600TMC3    C3 8890   2.943   3.752  16.270  0.1869 -0.4726 -0.3739
  600TMC3    C4 8891   3.129   3.946  16.212 -0.2497  0.3022  0.5584
  600TMC3    C5 8892   3.031   3.966  16.312 -0.2031  0.5993  0.5491
  600TMC3    C6 8893   2.944   3.867  16.350 -0.1757  0.1355  0.0702
  600TMC3     C 8894   3.219   3.814  16.035  0.6639  0.1442  0.8490
  600TMC3     O 8895   3.200   3.723  15.958  0.4320 -0.2903  0.2210
  600TMC3     H 8896   3.000   3.659  16.093  0.0947  0.6501 -0.3176
  600TMC3    H1 8897   3.176   4.032  16.167 -0.3470 -0.5390 -1.1360
  600TMC3    H2 8898   2.856   3.878  16.412 -1.3948 -0.2879 -1.5848
  600TMC3    C7 8899   3.014   4.096  16.373 -0.5190 -0.5371 -0.1350
  600TMC3    C8 8900   2.830   3.657  16.278 -0.5388 -0.0366  0.2848
  600TMC3    O1 8901   2.912   4.133  16.427 -0.1089  0.6086  0.4858
  600TMC3    O2 8902   2.805   3.596  16.175 -0.0116  0.3156 -0.4631
  601MPD2     C 8903   1.374   2.236  17.469  0.2935  0.4188 -0.0521
  601MPD2    C1 8904   1.265   2.175  17.415  0.1391  0.3529 -0.1329
  601MPD2    C2 8905   1.250   2.040  17.422  0.3546 -0.2189  0.4004
  601MPD2    C3 8906   1.342   1.962  17.502  0.1411  0.5566  0.1598
  601MPD2    C4 8907   1.451   2.026  17.547  0.0719 -0.0201  0.4775
  601MPD2    C5 8908   1.466   2.158  17.531  0.2809 -0.0070 -0.6082
  601MPD2     H 8909   1.162   1.997  17.376 -0.1608 -0.1436  1.3286
  601MPD2    H1 8910   1.525   1.962  17.593 -0.4644 -0.6019  0.5362
  601MPD2    H2 8911   1.396   2.341  17.458  1.4809  0.3033  1.1413
  601MPD2    H3 8912   1.557   2.208  17.561  1.1612 -0.9539 -1.6931
  601MPD2     N 8913   1.312   1.827  17.536  0.0037  0.2151  0.1723
  601MPD2    H5 8914   1.365   1.779  17.608 -0.2591 -0.6111 -0.1867
  601MPD2    N1 8915   1.161   2.246  17.355 -0.4772  0.5351 -0.2677
  601MPD2    H7 8916   1.079   2.197  17.321 -1.3843  0.9763  1.2574
  602TMC3    C1 8917   1.034   2.432  17.294  0.4672  0.3548 -0.2539
  602TMC3    C2 8918   1.002   2.562  17.326 -0.1876 -0.4495 -0.8290
  602TMC3    C3 8919   0.917   2.628  17.241 -0.2014 -0.2506  0.0502
  602TMC3    C4 8920   1.000   2.365  17.179 -0.0530 -0.3104 -0.0735
  602TMC3    C5 8921   0.909   2.435  17.099  0.0537  0.1554  0.3799
  602TMC3    C6 8922   0.867   2.563  17.130  0.3228  0.2735  0.4483
  602TMC3     C 8923   1.154   2.382  17.369 -0.0132 -0.2723  0.6466
  602TMC3     O 8924   1.221   2.469  17.425 -0.3833  0.0999 -0.3018
  602TMC3     H 8925   1.030   2.615  17.417  0.1480 -1.1483 -0.5275
  602TMC3    H1 8926   1.040   2.270  17.146  1.3291  0.4416 -0.5374
  602TMC3    H2 8927   0.804   2.622  17.064 -0.8767 -2.1832 -0.6366
  602TMC3    C7 8928   0.831   2.362  16.998 -1.8449 -0.0766 -0.0410
  602TMC3    C8 8929   0.846   2.742  17.294 -0.1315 -0.0936 -0.1312
  602TMC3    O1 8930   0.877   2.260  16.957  0.3621  0.3075 -0.1166
  602TMC3    O2 8931   0.898   2.822  17.370  0.0980 -0.3502  0.2104
  603TMC3    C1 8932   4.121   2.829  10.951  0.2759 -0.3796 -0.2096
  603TMC3    C2 8933   4.071   2.820  11.071  0.0582  0.3422  0.5993
  603TMC3    C3 8934   4.058   2.939  11.143 -0.4292 -0.6566 -0.5550
  603TMC3    C4 8935   4.152   2.939  10.888  0.0047 -0.1528 -0.1348
  603TMC3    C5 8936   4.156   3.050  10.965 -0.0639 -0.4330  0.0396
  603TMC3    C6 8937   4.126   3.051  11.104 -0.2639  0.4372  0.3887
  603TMC3     C 8938   4.099   2.708  10.864  0.0355 -0.2475  0.0484
  603TMC3     O 8939   4.063   2.729  10.747 -0.0966 -0.2504 -0.1588
  603TMC3     H 8940   4.036   2.725  11.111  1.4574 -0.2355  0.4624
  603TMC3    H1 8941   4.204   2.939  10.794  0.3489  2.2821  0.0489
  603TMC3    H2 8942   4.127   3.146  11.156  0.6930  0.3884  0.4589
  603TMC3    C7 8943   4.150   3.177  10.896 -0.4396 -0.0391 -0.0981
  603TMC3    C8 8944   4.063   2.921  11.283 -0.1383  0.0031  0.8821
  603TMC3    O1 8945   4.160   3.281  10.961  0.1028  0.4598 -0.4285
  603TMC3    O2 8946   4.097   2.809  11.310  0.2068  0.1734  0.2024
  604MPD2     C 8947   4.496   1.610  16.396 -0.5333  0.1130  0.5626
  604MPD2    C1 8948   4.377   1.554  16.352  0.3357  0.6372 -0.3267
  604MPD2    C2 8949   4.373   1.484  16.235 -0.5650  0.9199  0.5331
  604MPD2    C3 8950   4.488   1.458  16.158  0.0517  0.1270 -1.2436
  604MPD2    C4 8951   4.606   1.514  16.201 -0.0797  0.6466 -0.3900
  604MPD2    C5 8952   4.611   1.579  16.324 -0.0161  0.2231 -0.5684
  604MPD2     H 8953   4.282   1.440  16.196  0.7456 -0.5577 -0.8209
  604MPD2    H1 8954   4.704   1.513  16.155 -1.1025  0.6535 -2.5507
  604MPD2    H2 8955   4.495   1.682  16.477  2.1486 -1.4442  1.9629
  604MPD2    H3 8956   4.707   1.616  16.359 -0.2775  0.1821  0.1788
  604MPD2     N 8957   4.473   1.388  16.036  0.3005 -0.4989 -0.7718
  604MPD2    H5 8958   4.385   1.351  16.000 -0.6329  1.4116 -0.4464
  604MPD2    N1 8959   4.261   1.594  16.419 -0.4291 -0.1610 -0.0036
  604MPD2    H7 8960   4.269   1.661  16.495  1.9882  0.3347 -0.6955
  605TMC3    C1 8961   4.041   1.635  16.465  0.2456 -0.1974 -0.0558
  605TMC3    C2 8962   4.088   1.713  16.564  0.4896 -0.4897 -0.7415
  605TMC3    C3 8963   4.079   1.847  16.547 -0.0514 -0.6295 -0.0080
  605TMC3    C4 8964   3.948   1.675  16.372  0.3208  0.0674  0.2366
  605TMC3    C5 8965   3.940   1.814  16.365  0.2238 -0.5809  0.3744
  605TMC3    C6 8966   4.005   1.899  16.448 -0.9680  0.1699  0.3469
  605TMC3     C 8967   4.133   1.550  16.400  0.3012  0.5959 -0.2909
  605TMC3     O 8968   4.087   1.477  16.314  0.2672  0.3892 -0.1139
  605TMC3     H 8969   4.158   1.673  16.637 -0.7224  0.6654  1.0474
  605TMC3    H1 8970   3.913   1.608  16.294  1.4178  0.8273 -0.9052
  605TMC3    H2 8971   4.006   2.002  16.413  0.0763 -0.9508 -2.9610
  605TMC3    C7 8972   3.839   1.871  16.268 -0.6385 -0.0039 -0.1430
  605TMC3    C8 8973   4.204   1.915  16.568  0.3302  0.6845  0.0235
  605TMC3    O1 8974   3.793   1.983  16.286 -0.3395  0.0267  0.3178
  605TMC3    O2 8975   4.305   1.849  16.591 -0.1195  0.1328 -0.5082
  606TMC3    C1 8976   0.752   0.010  17.579 -0.0224 -0.0561  0.3654
  606TMC3    C2 8977   0.866   0.012  17.649  0.1250  0.0797 -0.0206
  606TMC3    C3 8978   0.854   4.703   0.088  0.0254 -0.7137  0.4171
  606TMC3    C4 8979   0.637   4.680  17.624 -0.3110 -1.0187 -0.6331
  606TMC3    C5 8980   0.621   4.649   0.060 -0.3786 -0.3739 -0.3353
  606TMC3    C6 8981   0.730   4.674   0.141 -0.3681 -0.3200  0.1519
  606TMC3     C 8982   0.765   0.020  17.432  0.3028 -0.7275 -0.4203
  606TMC3     O 8983   0.666   4.705  17.371 -0.1851  0.5034  0.6436
  606TMC3     H 8984   0.958   0.037  17.598 -0.1976  3.6925  1.1395
  606TMC3    H1 8985   0.554   4.670  17.555 -0.3430  0.1200 -0.7452
  606TMC3    H2 8986   0.721   4.651   0.246  1.0372 -1.0243  0.1249
  606TMC3    C7 8987   0.560   4.519   0.089 -0.4212 -0.4724  0.4469
  606TMC3    C8 8988   0.967   0.006   0.176  0.1596 -0.2524  0.4885
  606TMC3    O1 8989   0.603   4.454   0.184  0.4487 -0.2093  0.1751
  606TMC3    O2 8990   1.078   0.012   0.118  0.0344  0.1871 -0.2112
  607MPD2     C 8991   3.071   3.001  11.501  0.1021 -0.0683 -0.5281
  607MPD2    C1 8992   3.076   3.084  11.615 -0.2782 -0.6079  0.1717
  607MPD2    C2 8993   3.005   3.047  11.729 -0.1214 -0.0626 -0.5041
  607MPD2    C3 8994   2.943   2.920  11.739 -0.2311 -0.0196  0.8060
  607MPD2    C4 8995   2.939   2.846  11.631 -0.3872  0.1544 -0.3992
  607MPD2    C5 8996   2.995   2.890  11.510 -0.8326 -0.0147  0.2797
  607MPD2     H 8997   3.017   3.100  11.823 -1.4677 -0.6237 -0.0136
  607MPD2    H1 8998   2.877   2.757  11.637 -0.8361  0.5013  0.2404
  607MPD2    H2 8999   3.118   3.027  11.407 -1.9292  1.7833 -1.0355
  607MPD2    H3 9000   3.002   2.829  11.420  0.3359  0.0153  0.3524
  607MPD2     N 9001   2.914   2.877  11.870  0.3188  0.3999 -0.5797
  607MPD2    H5 9002   2.953   2.937  11.942 -0.3090  0.8853 -0.6446
  607MPD2    N1 9003   3.169   3.189  11.625 -0.3278 -0.6153 -0.1968
  607MPD2    H7 9004   3.162   3.240  11.712  0.4610 -2.7077  1.0928
  608TMC3    C1 9005   3.368   3.308  11.597 -0.1307 -0.1893 -0.0546
  608TMC3    C2 9006   3.362   3.350  11.730  0.4357 -0.2382  0.1448
  608TMC3    C3 9007   3.467   3.424  11.786 -0.4833 -0.1390  0.7155
  608TMC3    C4 9008   3.483   3.330  11.526  0.5398 -0.5291 -0.0502
  608TMC3    C5 9009   3.589   3.393  11.584  1.0499  0.4787  0.3335
  608TMC3    C6 9010   3.572   3.443  11.711 -0.3283  0.0818 -0.2222
  608TMC3     C 9011   3.269   3.221  11.542 -0.1523  0.3451 -0.2342
  608TMC3     O 9012   3.291   3.169  11.432 -0.3776  0.3847 -0.2116
  608TMC3     H 9013   3.266   3.339  11.779  0.4093  3.3394  0.8979
  608TMC3    H1 9014   3.482   3.289  11.426 -2.7230 -1.6807  0.4541
  608TMC3    H2 9015   3.658   3.492  11.756  0.3320 -0.4180 -0.9309
  608TMC3    C7 9016   3.686   3.449  11.494 -0.1575 -0.1237  0.0533
  608TMC3    C8 9017   3.496   3.421  11.929  0.3376 -0.1874  0.0174
  608TMC3    O1 9018   3.664   3.442  11.377 -0.3487  0.7483 -0.6903
  608TMC3    O2 9019   3.611   3.438  11.973 -0.1600  0.2972 -0.3372
  609TMC3    C1 9020   2.424   3.176   8.984 -0.4629 -0.0649 -0.9469
  609TMC3    C2 9021   2.460   3.287   8.915  0.3820  0.0382 -0.7054
  609TMC3    C3 9022   2.591   3.333   8.913 -0.6120 -0.1387  0.3041
  609TMC3    C4 9023   2.522   3.108   9.047  0.1170 -0.0176  0.1509
  609TMC3    C5 9024   2.656   3.153   9.052  0.3811 -0.3808  0.5685
  609TMC3    C6 9025   2.694   3.271   8.986  0.5830  0.6768  0.5223
  609TMC3     C 9026   2.291   3.113   8.970  1.1213  0.1004 -0.3994
  609TMC3     O 9027   2.272   3.008   9.028  0.7711 -0.3780  0.4717
  609TMC3     H 9028   2.385   3.336   8.855  0.3161  1.7178  0.7535
  609TMC3    H1 9029   2.496   3.017   9.100  0.1638  0.9559  1.8243
  609TMC3    H2 9030   2.795   3.309   8.997  0.7825  0.8236 -1.9912
  609TMC3    C7 9031   2.751   3.075   9.124  0.8210  0.3201  0.8888
  609TMC3    C8 9032   2.624   3.445   8.825 -0.3595 -0.2805  0.4429
  609TMC3    O1 9033   2.720   3.017   9.227  0.1818 -0.3143 -0.0094
  609TMC3    O2 9034   2.533   3.492   8.759 -0.0146  0.2244  0.2640
  610TMC3    C1 9035   3.437   2.689  12.487 -0.9528 -0.0198 -0.3007
  610TMC3    C2 9036   3.513   2.706  12.380 -0.3157 -0.1550 -1.0345
  610TMC3    C3 9037   3.614   2.803  12.381  0.3979  0.0491  0.7940
  610TMC3    C4 9038   3.458   2.770  12.600 -0.1920  0.2279  0.7110
  610TMC3    C5 9039   3.567   2.855  12.603  0.5137  0.3780 -0.3710
  610TMC3    C6 9040   3.648   2.867  12.497 -0.3390  0.2527 -0.4734
  610TMC3     C 9041   3.322   2.604  12.487  0.1252 -0.2554 -0.8110
  610TMC3     O 9042   3.214   2.661  12.516 -0.6443  0.0098  0.4643
  610TMC3     H 9043   3.509   2.639  12.294 -0.1008 -0.9251 -0.4509
  610TMC3    H1 9044   3.378   2.765  12.673 -0.2355  0.4937  0.6835
  610TMC3    H2 9045   3.736   2.931  12.499  1.6161 -2.4290  0.5050
  610TMC3    C7 9046   3.641   2.871  12.731  0.3738  0.1469  0.0240
  610TMC3    C8 9047   3.641   2.861  12.250 -0.2586  0.2041 -0.1148
  610TMC3    O1 9048   3.762   2.886  12.727  0.3621  0.0471 -0.1280
  610TMC3    O2 9049   3.752   2.920  12.240  0.8638  0.0106 -0.2651
  611MPD2     C 9050   3.178   3.381   9.836  0.0589 -0.5087  0.0185
  611MPD2    C1 9051   3.217   3.298   9.936  0.0214 -0.6644 -0.0520
  611MPD2    C2 9052   3.350   3.275   9.955 -0.0116  0.1281 -0.1811
  611MPD2    C3 9053   3.445   3.344   9.881 -0.0371 -1.1612 -0.4279
  611MPD2    C4 9054   3.405   3.424   9.782 -0.5640  0.0142 -0.3963
  611MPD2    C5 9055   3.271   3.438   9.757  0.0809  0.1579 -0.1808
  611MPD2     H 9056   3.380   3.212  10.038 -0.0570 -1.7116 -1.5688
  611MPD2    H1 9057   3.472   3.470   9.711 -0.1645 -0.4277 -0.3030
  611MPD2    H2 9058   3.076   3.411   9.813 -0.1432 -0.0955  1.4604
  611MPD2    H3 9059   3.245   3.506   9.676  2.5958  0.9543 -0.3338
  611MPD2     N 9060   3.588   3.340   9.908 -0.4702 -0.2112 -0.4319
  611MPD2    H5 9061   3.647   3.391   9.843 -2.2837  0.6727 -1.3882
  611MPD2    N1 9062   3.114   3.240  10.010  0.1206  0.3766 -0.6688
  611MPD2    H7 9063   3.025   3.263   9.968  0.1427 -0.0146 -0.9193
  612TMC3    C1 9064   3.793   3.272   9.991 -0.1869  0.2392  0.5436
  612TMC3    C2 9065   3.862   3.296  10.103  0.2913  0.7434  0.5945
  612TMC3    C3 9066   3.989   3.352  10.095 -0.0335  0.2940  0.1646
  612TMC3    C4 9067   3.853   3.273   9.870  0.3652 -0.4613  0.2628
  612TMC3    C5 9068   3.982   3.322   9.865  0.6977  0.0091  0.1275
  612TMC3    C6 9069   4.049   3.372   9.974 -0.7511  0.4850 -0.1816
  612TMC3     C 9070   3.646   3.261  10.008  0.6912 -0.2832 -0.1833
  612TMC3     O 9071   3.605   3.217  10.118  0.0325  0.0937  0.0808
  612TMC3     H 9072   3.803   3.309  10.192 -0.8336 -0.5422  0.0446
  612TMC3    H1 9073   3.798   3.225   9.790 -2.1726 -0.6375  2.1228
  612TMC3    H2 9074   4.147   3.416   9.967 -1.1464  1.6369  1.4936
  612TMC3    C7 9075   4.039   3.348   9.734 -0.4661  0.9960 -0.7571
  612TMC3    C8 9076   4.049   3.413  10.212 -0.0099  0.0968 -0.5456
  612TMC3    O1 9077   3.951   3.357   9.646  0.0856  0.2565  0.0940
  612TMC3    O2 9078   4.132   3.503  10.197 -0.2581 -0.2264  0.7779
  613MPD2     C 9079   1.761   0.416  16.682 -0.2767  0.3886 -0.2940
  613MPD2    C1 9080   1.683   0.446  16.576  0.2932  0.4220 -0.1701
  613MPD2    C2 9081   1.600   0.349  16.521  0.5028  0.0504 -0.3475
  613MPD2    C3 9082   1.602   0.215  16.571  0.1755 -0.0499  0.7837
  613MPD2    C4 9083   1.684   0.191  16.677 -0.1887 -0.1622  0.7690
  613MPD2    C5 9084   1.761   0.289  16.735 -0.1086  0.6677  0.4776
  613MPD2     H 9085   1.532   0.368  16.438 -1.6380 -0.4827  1.2848
  613MPD2    H1 9086   1.711   0.090  16.707 -0.0920  0.3498  2.3862
  613MPD2    H2 9087   1.826   0.488  16.730 -0.8095  1.4082 -1.0976
  613MPD2    H3 9088   1.838   0.265  16.807 -0.3565 -1.9492 -0.1362
  613MPD2     N 9089   1.543   0.106  16.505  0.7272  0.1869  0.5534
  613MPD2    H5 9090   1.563   0.010  16.529 -0.4612 -0.7389 -2.1014
  613MPD2    N1 9091   1.691   0.578  16.521 -0.3977  0.3004  0.4371
  613MPD2    H7 9092   1.766   0.635  16.558  0.9051 -1.3328  0.3581
  614TMC3    C1 9093   1.687   0.737  16.347  0.6835  0.6604 -0.0516
  614TMC3    C2 9094   1.815   0.684  16.320 -0.2147 -0.4884  0.6252
  614TMC3    C3 9095   1.855   0.669  16.190  0.3351 -0.1704  0.3099
  614TMC3    C4 9096   1.610   0.788  16.244  0.9285 -0.2272  0.6702
  614TMC3    C5 9097   1.662   0.791  16.117  0.0106 -0.0751 -0.0540
  614TMC3    C6 9098   1.780   0.727  16.085  0.2104  0.3854 -0.0974
  614TMC3     C 9099   1.618   0.630  16.410 -0.2876  0.4462 -0.9627
  614TMC3     O 9100   1.515   0.584  16.360  0.3310 -0.7688  0.6803
  614TMC3     H 9101   1.875   0.628  16.390 -0.1493 -1.2839 -0.0550
  614TMC3    H1 9102   1.513   0.830  16.268  0.9168  0.2662 -0.2288
  614TMC3    H2 9103   1.811   0.722  15.981 -1.4449 -0.0130 -0.5668
  614TMC3    C7 9104   1.574   0.846  16.013  1.0039  0.4234 -0.2595
  614TMC3    C8 9105   1.860   0.521  16.160 -0.0989 -0.4789  0.1377
  614TMC3    O1 9106   1.499   0.937  16.040  0.2600 -0.0811  0.0789
  614TMC3    O2 9107   1.821   0.453  16.254 -0.7189  0.4867 -0.6227
  615MPD2     C 9108   1.230   1.622  16.249  0.2106  0.0539 -0.0667
  615MPD2    C1 9109   1.270   1.702  16.142  0.1035 -0.9021 -0.4884
  615MPD2    C2 9110   1.196   1.697  16.021 -0.3498  0.5993  0.7712
  615MPD2    C3 9111   1.091   1.608  16.007  1.5318 -0.4566  0.4952
  615MPD2    C4 9112   1.054   1.531  16.116  0.2980  0.4470  0.4582
  615MPD2    C5 9113   1.114   1.547  16.239 -0.2270  0.2259 -0.0677
  615MPD2     H 9114   1.225   1.763  15.940 -0.2292 -0.4147 -0.0100
  615MPD2    H1 9115   0.967   1.466  16.111  1.4534 -0.9696 -1.0183
  615MPD2    H2 9116   1.281   1.621  16.344 -0.8966  1.4345  0.5260
  615MPD2    H3 9117   1.068   1.488  16.318  2.4537  0.7308  1.8698
  615MPD2     N 9118   1.016   1.588  15.889  0.0176  0.2872  0.5151
  615MPD2    H5 9119   0.961   1.503  15.876 -0.0387  0.2794  0.8080
  615MPD2    N1 9120   1.380   1.788  16.148  0.1181 -0.0362  0.0069
  615MPD2    H7 9121   1.402   1.844  16.066  1.2137 -1.2191 -0.5179
  616TMC3    C1 9122   1.533   1.931  16.245  0.2021 -1.0394 -0.2268
  616TMC3    C2 9123   1.537   2.020  16.348  0.1409 -0.3243 -0.1767
  616TMC3    C3 9124   1.628   2.121  16.344 -0.1183 -0.4513 -0.6725
  616TMC3    C4 9125   1.618   1.937  16.141  0.7133  0.4318  0.3061
  616TMC3    C5 9126   1.700   2.048  16.134  0.2704  0.8792  0.4724
  616TMC3    C6 9127   1.697   2.143  16.232  0.5566 -0.6540 -0.0095
  616TMC3     C 9128   1.445   1.825  16.262  0.3420  0.4641  0.1653
  616TMC3     O 9129   1.433   1.791  16.377  0.0286  0.1905  0.4990
  616TMC3     H 9130   1.474   2.004  16.435  0.8402 -0.3784  0.3220
  616TMC3    H1 9131   1.624   1.851  16.076  1.5831  1.5645 -1.1171
  616TMC3    H2 9132   1.771   2.221  16.225  1.7212 -1.8824 -1.6025
  616TMC3    C7 9133   1.779   2.056  16.013 -0.4665  0.5013 -0.0006
  616TMC3    C8 9134   1.637   2.213  16.452 -0.5100  0.3590  0.1024
  616TMC3    O1 9135   1.756   1.960  15.939  0.2855 -0.1627  0.8025
  616TMC3    O2 9136   1.571   2.190  16.554 -0.1385 -0.1615  0.5234
  617MPD2     C 9137   4.137   0.016  13.572  0.1701 -0.2387  0.1486
  617MPD2    C1 9138   4.183   4.692  13.693 -0.3541  0.0929  0.2242
  617MPD2    C2 9139   4.090   4.668  13.792 -0.2841 -0.4043 -0.1451
  617MPD2    C3 9140   3.956   4.678  13.764 -0.0832  0.0704  0.5408
  617MPD2    C4 9141   3.913   0.003  13.641 -0.4942  0.2095 -0.8950
  617MPD2    C5 9142   4.003   0.036  13.551 -0.3143  0.2539  0.0788
  617MPD2     H 9143   4.124   4.615  13.880 -0.3007  3.6122  2.3223
  617MPD2    H1 9144   3.809   0.005  13.612 -0.9768  0.1890  0.8320
  617MPD2    H2 9145   4.202   0.049  13.492  0.5217  1.7374  1.2382
  617MPD2    H3 9146   3.969   0.067  13.453  0.6148  0.3146 -0.2178
  617MPD2     N 9147   3.858   4.630  13.854  0.3198 -0.0336 -0.5172
  617MPD2    H5 9148   3.761   4.632  13.826  0.0997 -0.4876  0.2057
  617MPD2    N1 9149   4.320   4.674  13.711 -0.3253  1.1697  0.3132
  617MPD2    H7 9150   4.373   4.706  13.631  1.6507 -1.3733  0.5863
  618TMC3    C1 9151   4.522   4.620  13.798 -0.0679 -0.1653  0.1773
  618TMC3    C2 9152   4.601   4.506  13.803 -0.0936 -0.0974  0.1372
  618TMC3    C3 9153   4.718   4.500  13.729  0.2267  0.0716 -0.2488
  618TMC3    C4 9154   4.565   4.722  13.712 -0.0004 -0.4812  0.0463
  618TMC3    C5 9155   4.681   4.718  13.655  0.4478 -0.1586  0.3107
  618TMC3    C6 9156   0.040   4.604  13.647  0.8574  0.4776  0.6217
  618TMC3     C 9157   4.380   4.612  13.818 -0.0593 -0.7558 -0.0430
  618TMC3     O 9158   4.342   4.543  13.918  0.2559 -0.4641  0.1668
  618TMC3     H 9159   4.572   4.423  13.867 -0.1737  0.3957  0.7478
  618TMC3    H1 9160   4.500   0.085  13.706  1.0768  0.2641 -0.8526
  618TMC3    H2 9161   0.119   4.598  13.573  2.0009 -1.5792  1.9958
  618TMC3    C7 9162   4.719   0.123  13.590 -0.8272  0.7534 -0.4108
  618TMC3    C8 9163   0.087   4.390  13.750 -0.2016 -0.1860 -0.0000
  618TMC3    O1 9164   4.633   0.208  13.567  0.2042 -0.3685 -0.6810
  618TMC3    O2 9165   0.043   4.290  13.803 -0.1752  0.4793  0.3126
  619MPD2     C 9166   1.029   1.176  13.639  0.1089 -0.0695 -0.1047
  619MPD2    C1 9167   0.926   1.131  13.568 -0.3355  0.1717  0.1948
  619MPD2    C2 9168   0.820   1.078  13.628 -0.2432  0.0898  0.0099
  619MPD2    C3 9169   0.827   1.067  13.768  0.0754  0.1649  0.3077
  619MPD2    C4 9170   0.934   1.126  13.840  0.7951 -0.1601  0.5759
  619MPD2    C5 9171   1.036   1.179  13.775  0.2879 -0.2447 -0.1056
  619MPD2     H 9172   0.735   1.039  13.573  0.4752 -1.3430 -0.1066
  619MPD2    H1 9173   0.954   1.109  13.945  0.2828 -0.7106  0.5851
  619MPD2    H2 9174   1.121   1.209  13.591  0.6804 -0.3186  0.8177
  619MPD2    H3 9175   1.128   1.213  13.821  0.0908 -1.1549  0.9652
  619MPD2     N 9176   0.724   1.001  13.838 -0.8494  0.3454  0.2702
  619MPD2    H5 9177   0.705   1.038  13.930  0.5832 -0.3066  0.8365
  619MPD2    N1 9178   0.921   1.141  13.424 -0.3583 -0.3195  0.0894
  619MPD2    H7 9179   0.831   1.124  13.380  0.5562 -0.0988 -1.8957
  620TMC3    C1 9180   0.984   1.221  13.212  0.9086  0.6500  0.1537
  620TMC3    C2 9181   0.852   1.198  13.187  0.5586 -0.9332  0.4487
  620TMC3    C3 9182   0.791   1.289  13.112 -0.3443 -0.0506  0.0277
  620TMC3    C4 9183   1.050   1.338  13.166  0.3359 -0.6554  0.0488
  620TMC3    C5 9184   0.988   1.424  13.093 -0.1334 -0.1524  0.4036
  620TMC3    C6 9185   0.857   1.405  13.063 -0.2818  0.3485 -0.2218
  620TMC3     C 9186   1.024   1.189  13.344 -0.4373  0.0985 -0.1146
  620TMC3     O 9187   1.141   1.200  13.373 -0.0190  0.7120  0.4292
  620TMC3     H 9188   0.804   1.101  13.198  0.5410 -0.8276  1.2855
  620TMC3    H1 9189   1.153   1.354  13.196  0.9713  1.0130 -3.0377
  620TMC3    H2 9190   0.799   1.461  12.991  1.2078  2.2460  0.0543
  620TMC3    C7 9191   1.023   1.566  13.102 -0.0824 -0.1114 -0.3941
  620TMC3    C8 9192   0.654   1.289  13.145  1.2232  0.5211  0.6973
  620TMC3    O1 9193   1.128   1.593  13.157  0.1081  0.3802 -0.0611
  620TMC3    O2 9194   0.604   1.216  13.232  0.2710  0.2852 -0.3708
  621MPD2     C 9195   1.494   1.218   9.806 -0.4696 -0.8283  0.1304
  621MPD2    C1 9196   1.551   1.206   9.931  0.0855  0.3387  0.1931
  621MPD2    C2 9197   1.659   1.283   9.964 -0.0239 -0.4808 -0.8786
  621MPD2    C3 9198   1.700   1.387   9.876  0.2774 -0.3695 -0.3646
  621MPD2    C4 9199   1.647   1.397   9.751 -0.2772 -0.1300 -0.3218
  621MPD2    C5 9200   1.548   1.311   9.718 -0.2375 -0.3733  0.3370
  621MPD2     H 9201   1.708   1.276  10.061 -1.4667 -1.3321 -0.2191
  621MPD2    H1 9202   1.672   1.475   9.680  0.7849 -0.0880  0.0854
  621MPD2    H2 9203   1.405   1.161   9.782 -1.0635  0.1135  0.1089
  621MPD2    H3 9204   1.508   1.303   9.617 -0.9019  2.8795  0.3518
  621MPD2     N 9205   1.807   1.463   9.931 -0.4782 -0.8201 -0.1379
  621MPD2    H5 9206   1.852   1.427  10.015 -0.2290  0.2447  0.1795
  621MPD2    N1 9207   1.517   1.111  10.028 -0.2430 -0.1632  1.0770
  621MPD2    H7 9208   1.567   1.114  10.117 -0.9304 -2.0389  1.5217
  622TMC3    C1 9209   1.394   0.962  10.155  0.6928 -0.6124 -0.1969
  622TMC3    C2 9210   1.364   1.066  10.246 -0.2978 -0.9474  0.4159
  622TMC3    C3 9211   1.275   1.043  10.344 -0.6178  0.1672  0.2808
  622TMC3    C4 9212   1.333   0.842  10.163 -0.5110  0.3045 -0.3534
  622TMC3    C5 9213   1.253   0.815  10.267 -0.5298 -0.3094 -0.2152
  622TMC3    C6 9214   1.216   0.917  10.358  0.7275  0.4465  0.7654
  622TMC3     C 9215   1.426   1.012  10.018  0.7275 -0.3093 -0.6954
  622TMC3     O 9216   1.359   0.982   9.922 -0.1014  0.1321  0.1594
  622TMC3     H 9217   1.395   1.164  10.211  0.3403 -1.9494 -1.8695
  622TMC3    H1 9218   1.353   0.767  10.089  1.5326  0.6669 -0.1547
  622TMC3    H2 9219   1.157   0.899  10.446 -0.9230 -1.7308 -0.7944
  622TMC3    C7 9220   1.227   0.681  10.304 -0.5271 -0.5074  0.3749
  622TMC3    C8 9221   1.195   1.153  10.394  0.0264 -0.0258 -0.2582
  622TMC3    O1 9222   1.200   0.655  10.424  0.2041 -0.0479  0.1004
  622TMC3    O2 9223   1.086   1.133  10.443 -0.3123 -0.0490 -0.2773
  623MPD2     C 9224   4.568   1.656  15.531 -0.4884 -0.0801 -0.9114
  623MPD2    C1 9225   4.487   1.713  15.624  0.3717 -0.3462  0.4111
  623MPD2    C2 9226   4.532   1.752  15.750  0.5857  0.0225  0.6549
  623MPD2    C3 9227   4.665   1.738  15.784  0.2859  0.1769  0.0753
  623MPD2    C4 9228   0.030   1.684  15.690  0.4222 -0.3960 -1.1893
  623MPD2    C5 9229   4.701   1.646  15.568  0.3514 -0.5764  0.0833
  623MPD2     H 9230   4.474   1.807  15.823 -2.1066 -0.7564 -0.9131
  623MPD2    H1 9231   0.132   1.655  15.711  0.3998  0.9439  0.7429
  623MPD2    H2 9232   4.524   1.631  15.435 -1.7242 -2.3226  0.2252
  623MPD2    H3 9233   0.046   1.598  15.500  0.1212 -0.2120 -0.4005
  623MPD2     N 9234   4.702   1.777  15.916  0.1712 -0.5565 -0.5340
  623MPD2    H5 9235   4.630   1.813  15.978  2.3675  1.5664  0.8039
  623MPD2    N1 9236   4.354   1.748  15.607 -0.1725 -0.0802  0.0389
  623MPD2    H7 9237   4.312   1.797  15.685  1.5745 -0.9067  1.4986
  624TMC3    C1 9238   0.240   1.801  16.303 -0.6269 -0.2196 -0.3810
  624TMC3    C2 9239   0.171   1.905  16.347  0.1903 -0.0458 -1.0477
  624TMC3    C3 9240   0.066   1.958  16.272  0.3853  0.5775 -0.1994
  624TMC3    C4 9241   0.212   1.740  16.190  0.2890  0.1917  0.2076
  624TMC3    C5 9242   0.103   1.783  16.119 -0.1618  0.2852 -0.4501
  624TMC3    C6 9243   0.026   1.889  16.160  0.0808  0.4805 -0.5543
  624TMC3     C 9244   0.330   1.738  16.393 -1.1855  0.1375 -0.1313
  624TMC3     O 9245   0.380   1.803  16.485  0.5423 -0.2173 -0.4090
  624TMC3     H 9246   0.190   1.941  16.448 -1.2590 -1.4661 -0.2662
  624TMC3    H1 9247   0.284   1.668  16.151  0.0904  0.4922 -0.7117
  624TMC3    H2 9248   4.657   1.916  16.109 -0.4878  0.6876  0.5832
  624TMC3    C7 9249   0.099   1.752  15.978  0.4474  0.1394  0.2122
  624TMC3    C8 9250   4.669   1.981  16.342 -0.0633  0.4178  0.6493
  624TMC3    O1 9251   0.191   1.691  15.929 -0.6194  0.1375 -0.4041
  624TMC3    O2 9252   4.583   1.903  16.316 -0.0937  0.2082  0.6276
  625MPD2     C 9253   0.136   2.643   0.132 -0.4199 -0.0980 -0.6436
  625MPD2    C1 9254   0.170   2.717   0.239  0.1239  0.2149  0.4517
  625MPD2    C2 9255   0.270   2.671   0.318 -0.9924 -0.1493  0.5153
  625MPD2    C3 9256   0.330   2.552   0.310 -0.4130 -0.1862 -0.1489
  625MPD2    C4 9257   0.288   2.473   0.204  0.0120  0.0819  0.3631
  625MPD2    C5 9258   0.195   2.522   0.112 -0.2100 -0.2692  0.1823
  625MPD2     H 9259   0.309   2.732   0.400  0.0833  0.0404 -0.1297
  625MPD2    H1 9260   0.339   2.384   0.168 -1.8393 -0.9523  0.2755
  625MPD2    H2 9261   0.055   2.667   0.063  1.0344  0.3458 -2.1812
  625MPD2    H3 9262   0.167   2.457   0.030  0.2283  0.9015 -0.8793
  625MPD2     N 9263   0.448   2.522   0.386 -0.1309  0.6977 -0.3740
  625MPD2    H5 9264   0.485   2.597   0.445 -1.6699  0.6372  0.6508
  625MPD2    N1 9265   0.118   2.848   0.265  0.6404 -0.3120  0.7662
  625MPD2    H7 9266   0.157   2.901   0.343 -3.4688  0.8132  2.0657
  626TMC3    C1 9267   4.714   3.051   0.255  0.5024  0.3543 -0.1331
  626TMC3    C2 9268   4.645   3.140   0.182 -0.2234 -0.0526  0.1880
  626TMC3    C3 9269   4.647   3.269   0.203  0.2310  0.0609 -0.0498
  626TMC3    C4 9270   0.066   3.100   0.352 -0.1434 -0.2953 -0.6664
  626TMC3    C5 9271   0.061   3.232   0.387  0.4777 -0.2978  0.3890
  626TMC3    C6 9272   4.709   3.320   0.313 -0.0274 -0.2873  1.1353
  626TMC3     C 9273   0.018   2.917   0.202 -0.1723 -0.5828 -0.7729
  626TMC3     O 9274   4.685   2.887   0.098  0.1866  0.2142  0.0718
  626TMC3     H 9275   4.611   3.109   0.084 -0.6155 -3.6687  1.4387
  626TMC3    H1 9276   0.099   3.036   0.432 -3.8988 -0.4338  0.7621
  626TMC3    H2 9277   4.710   3.428   0.321 -0.9211 -0.2039  0.0253
  626TMC3    C7 9278   0.121   3.267   0.515 -0.0565  0.3218 -0.4085
  626TMC3    C8 9279   4.573   3.354   0.113  0.4396 -0.1745  0.2515
  626TMC3    O1 9280   0.202   3.190   0.566  0.2917  0.3694  0.0808
  626TMC3    O2 9281   4.554   3.321  17.691  0.2205 -0.3343  0.0640
  627MPD2     C 9282   4.310   3.485  14.027  0.5821 -0.3301  0.3023
  627MPD2    C1 9283   4.236   3.556  14.118 -0.7211  0.1105 -0.4291
  627MPD2    C2 9284   4.098   3.541  14.121  0.3452 -0.2531 -0.5491
  627MPD2    C3 9285   4.030   3.455  14.031 -0.4170 -0.2312  0.1128
  627MPD2    C4 9286   4.110   3.387  13.935 -0.2119 -0.1767 -0.1453
  627MPD2    C5 9287   4.243   3.393  13.945 -0.0018  0.1031  0.2281
  627MPD2     H 9288   4.042   3.580  14.206  1.5170  0.8199 -0.2823
  627MPD2    H1 9289   4.058   3.323  13.863  2.4528 -0.5969 -1.6764
  627MPD2    H2 9290   4.418   3.480  14.027  0.6330  0.7375  0.5183
  627MPD2    H3 9291   4.305   3.334  13.878 -2.5041  0.7792 -2.6932
  627MPD2     N 9292   3.892   3.438  14.032  0.0195 -0.3353 -0.2508
  627MPD2    H5 9293   3.862   3.348  13.997 -0.5885  0.1601 -1.0025
  627MPD2    N1 9294   4.294   3.625  14.225 -0.3105  0.4546  0.0686
  627MPD2    H7 9295   4.231   3.660  14.297 -1.0767  0.2027 -0.4689
  628TMC3    C1 9296   4.443   3.727  14.371 -0.0919 -0.9265 -0.2524
  628TMC3    C2 9297   4.542   3.672  14.451 -0.8188 -0.4764  0.3501
  628TMC3    C3 9298   4.518   3.670  14.587 -0.3589  0.6371  0.0844
  628TMC3    C4 9299   4.335   3.789  14.420 -0.0147 -0.1937 -0.3205
  628TMC3    C5 9300   4.317   3.797  14.558  0.6402  1.3382  0.6232
  628TMC3    C6 9301   4.403   3.724  14.641  0.2540  0.0155 -0.1259
  628TMC3     C 9302   4.429   3.661  14.243  0.3834 -0.5786 -0.2218
  628TMC3     O 9303   4.524   3.646  14.164  0.0833 -0.5735 -0.4072
  628TMC3     H 9304   4.621   3.625  14.394 -0.2024  0.7474  0.2047
  628TMC3    H1 9305   4.255   3.832  14.362  1.5597  0.9052 -1.6946
  628TMC3    H2 9306   4.394   3.725  14.749  1.3940  2.9911 -0.0639
  628TMC3    C7 9307   4.211   3.881  14.626  0.8387 -0.0233 -0.2100
  628TMC3    C8 9308   4.593   3.568  14.676  0.2722 -0.8487  0.1013
  628TMC3    O1 9309   4.199   3.878  14.748  0.2848  0.6520 -0.1639
  628TMC3    O2 9310   4.542   3.544  14.786 -0.4096  0.5113 -0.3023
  629MPD2     C 9311   1.887   2.545  16.756  0.2312 -0.1473 -0.0033
  629MPD2    C1 9312   1.966   2.525  16.647 -0.0135 -0.6330  0.4203
  629MPD2    C2 9313   1.913   2.451  16.543 -0.0220  0.3027 -0.2146
  629MPD2    C3 9314   1.788   2.391  16.552 -0.0783 -0.0900  0.3533
  629MPD2    C4 9315   1.709   2.421  16.660  0.2156 -0.1772  0.5020
  629MPD2    C5 9316   1.754   2.510  16.755 -0.0356  0.0212 -0.5774
  629MPD2     H 9317   1.982   2.418  16.465 -1.0236 -2.4397  0.0555
  629MPD2    H1 9318   1.608   2.383  16.671  0.9393 -1.4307  2.8287
  629MPD2    H2 9319   1.917   2.618  16.831 -0.7821 -0.4628  0.7182
  629MPD2    H3 9320   1.686   2.530  16.837  1.5948  1.1248  0.4925
  629MPD2     N 9321   1.752   2.293  16.449 -0.1845  0.0357  0.7920
  629MPD2    H5 9322   1.822   2.280  16.376  0.6386  1.3409  1.3531
  629MPD2    N1 9323   2.098   2.571  16.657 -0.5794 -0.1590  0.3452
  629MPD2    H7 9324   2.139   2.596  16.747 -1.7686 -3.0862  1.7106
  630TMC3    C1 9325   2.330   2.555  16.578 -0.4827 -0.4271 -1.0125
  630TMC3    C2 9326   2.418   2.612  16.491  0.0811  0.2786 -0.1517
  630TMC3    C3 9327   2.551   2.568  16.496  0.3830  0.4414  0.5524
  630TMC3    C4 9328   2.366   2.448  16.655  0.6692  0.7055  0.4369
  630TMC3    C5 9329   2.497   2.404  16.659 -0.4182 -0.5892 -0.2423
  630TMC3    C6 9330   2.594   2.464  16.578  0.0870  0.2539 -0.1835
  630TMC3     C 9331   2.187   2.573  16.546  0.0575 -0.1419 -0.6475
  630TMC3     O 9332   2.163   2.598  16.427 -0.1081 -0.5150 -0.8234
  630TMC3     H 9333   2.398   2.697  16.426  0.6781 -1.2754 -2.3666
  630TMC3    H1 9334   2.287   2.419  16.723 -0.2290  0.5514 -0.6851
  630TMC3    H2 9335   2.700   2.447  16.597 -0.9433 -2.9628  2.7634
  630TMC3    C7 9336   2.511   2.290  16.749  0.2175 -0.2343 -0.3955
  630TMC3    C8 9337   2.649   2.660  16.452  0.4197  0.2910  0.0509
  630TMC3    O1 9338   2.487   2.301  16.871 -0.5359  0.7932  0.4220
  630TMC3    O2 9339   2.757   2.667  16.510  0.6516  0.0824  0.4055
  631MPD2     C 9340   0.221   2.139  15.681  0.0081 -0.3845  0.7404
  631MPD2    C1 9341   0.325   2.186  15.614  0.5437  0.3577  0.5741
  631MPD2    C2 9342   0.422   2.096  15.562  0.4951 -0.5688  0.2586
  631MPD2    C3 9343   0.423   1.967  15.616 -0.4311  0.3091  0.0893
  631MPD2    C4 9344   0.319   1.927  15.700  0.5403 -0.2006 -0.0759
  631MPD2    C5 9345   0.218   2.010  15.735 -0.0632  0.2339  0.3774
  631MPD2     H 9346   0.507   2.131  15.506 -0.1692  0.0460 -0.3682
  631MPD2    H1 9347   0.308   1.823  15.730 -0.5535 -0.3843 -1.1255
  631MPD2    H2 9348   0.133   2.199  15.704  0.2938 -0.3533  1.7220
  631MPD2    H3 9349   0.136   1.972  15.795  1.3984 -2.3303  0.7442
  631MPD2     N 9350   0.533   1.882  15.587 -0.1830 -0.1703  0.7310
  631MPD2    H5 9351   0.591   1.912  15.510 -0.1249 -0.9775  0.4653
  631MPD2    N1 9352   0.304   2.322  15.569 -0.0091 -0.1153  0.6837
  631MPD2    H7 9353   0.239   2.380  15.620 -1.9205 -1.1714 -0.5425
  632TMC3    C1 9354   0.348   2.523  15.447 -0.0543  0.3144  0.1325
  632TMC3    C2 9355   0.236   2.584  15.501 -0.7829  0.5602  0.4949
  632TMC3    C3 9356   0.188   2.699  15.446 -0.5331 -0.2256  0.9670
  632TMC3    C4 9357   0.420   2.576  15.342  0.2398 -0.2297 -0.2838
  632TMC3    C5 9358   0.365   2.686  15.283 -0.2401  0.1033 -0.0684
  632TMC3    C6 9359   0.254   2.744  15.336  0.7282  0.2613 -0.3544
  632TMC3     C 9360   0.388   2.382  15.480  0.7956  1.2937  0.5993
  632TMC3     O 9361   0.457   2.334  15.391 -0.1210  0.8057  0.0083
  632TMC3     H 9362   0.172   2.527  15.567 -2.2825  1.0038 -0.5855
  632TMC3    H1 9363   0.511   2.526  15.310  0.4789  1.0801 -1.6883
  632TMC3    H2 9364   0.223   2.843  15.304  1.8453  1.0316  0.9101
  632TMC3    C7 9365   0.434   2.746  15.174  0.2647  0.5475 -0.1456
  632TMC3    C8 9366   0.047   2.715  15.431  0.3362  0.0045  0.3554
  632TMC3    O1 9367   0.367   2.812  15.094  0.2761  0.2361  0.8848
  632TMC3    O2 9368   0.006   2.718  15.316  0.4202 -0.4406  0.2505
  633MPD2     C 9369   4.494   0.254  17.196 -0.2804  0.1546 -0.6214
  633MPD2    C1 9370   4.522   0.187  17.074  0.2977  0.6340 -0.0515
  633MPD2    C2 9371   4.525   0.048  17.068  0.1845  0.1204 -0.4209
  633MPD2    C3 9372   4.507   4.703  17.189 -0.0947 -0.5186  0.1895
  633MPD2    C4 9373   4.469   0.048  17.302  0.0352 -0.5322  0.6058
  633MPD2    C5 9374   4.469   0.185  17.302 -0.8547  0.2531 -0.1384
  633MPD2     H 9375   4.557   4.710  16.985  3.5984 -1.4827  2.0938
  633MPD2    H1 9376   4.454   4.723  17.398 -2.3724 -2.1217 -0.5774
  633MPD2    H2 9377   4.468   0.359  17.197 -1.0941 -0.0700  0.4060
  633MPD2    H3 9378   4.449   0.235  17.396 -0.2393 -0.9101  0.6109
  633MPD2     N 9379   4.518   4.559  17.194  0.1011 -0.1822  0.1080
  633MPD2    H5 9380   4.514   4.517  17.286 -0.9802  1.0595  0.6407
  633MPD2    N1 9381   4.548   0.253  16.954  0.2641  0.6579 -0.6448
  633MPD2    H7 9382   4.575   0.204  16.870 -1.4674  2.2037 -2.1201
  634TMC3    C1 9383   4.588   0.421  16.794 -0.4511 -0.4355  0.7606
  634TMC3    C2 9384   4.679   0.330  16.742 -0.0148 -0.4283  0.1540
  634TMC3    C3 9385   0.014   0.355  16.621 -0.4597 -0.6688  0.0207
  634TMC3    C4 9386   4.551   0.534  16.727 -0.1192  0.0184 -0.7885
  634TMC3    C5 9387   4.597   0.553  16.598  0.5069  0.0225 -0.4941
  634TMC3    C6 9388   4.699   0.464  16.547  0.3213 -0.5978  0.6724
  634TMC3     C 9389   4.531   0.390  16.929  0.7874 -0.2728  0.7839
  634TMC3     O 9390   4.478   0.479  16.995 -0.1586  0.2045  0.4407
  634TMC3     H 9391   0.005   0.258  16.807 -0.5508 -0.9132  0.0255
  634TMC3    H1 9392   4.511   0.617  16.785  3.5134  0.2207  1.3726
  634TMC3    H2 9393   0.025   0.485  16.452  1.5544  0.0562  1.4512
  634TMC3    C7 9394   4.576   0.674  16.520  0.0435 -0.0586  0.2221
  634TMC3    C8 9395   0.097   0.252  16.566 -0.3404  0.1446  0.2719
  634TMC3    O1 9396   4.624   0.681  16.408 -0.2227  0.1477 -0.7727
  634TMC3    O2 9397   0.113   0.145  16.626  0.4907  0.0653 -0.0060
  635TMC3    C1 9398   0.247   1.356  17.199  0.4712 -0.3886 -0.0666
  635TMC3    C2 9399   0.201   1.227  17.197 -0.6917 -0.6622  0.0273
  635TMC3    C3 9400   0.082   1.181  17.243  0.3706 -0.1308  0.0020
  635TMC3    C4 9401   0.161   1.455  17.235  0.4357  0.0650 -0.0340
  635TMC3    C5 9402   0.041   1.412  17.290 -0.8928  0.5039  0.0560
  635TMC3    C6 9403   0.015   1.276  17.310  0.4570  0.2567 -0.3949
  635TMC3     C 9404   0.385   1.388  17.199 -0.3681 -0.2191 -0.1970
  635TMC3     O 9405   0.420   1.497  17.238 -0.6215  0.3690  0.5173
  635TMC3     H 9406   0.272   1.146  17.181  2.8126  2.6325 -1.2214
  635TMC3    H1 9407   0.185   1.560  17.217  0.5885 -0.1028 -0.7984
  635TMC3    H2 9408   4.641   1.249  17.349  0.7450  1.7849  1.3765
  635TMC3    C7 9409   0.015   1.489  17.411 -0.7793  0.2108  0.2812
  635TMC3    C8 9410   0.070   1.043  17.280  0.2766  0.7879 -0.5647
  635TMC3    O1 9411   4.626   1.487  17.461 -0.7700 -0.0117  0.2628
  635TMC3    O2 9412   0.138   0.962  17.217 -0.2400 -0.6840  0.1882
  636MPD2     C 9413   1.213   0.479  15.671 -0.2676 -0.0302  0.1900
  636MPD2    C1 9414   1.230   0.517  15.805  0.0730  0.6590 -0.4076
  636MPD2    C2 9415   1.275   0.421  15.896 -0.6911 -0.2468  0.2744
  636MPD2    C3 9416   1.298   0.294  15.860  0.4624 -0.5455  0.7700
  636MPD2    C4 9417   1.282   0.253  15.729 -0.7734 -0.0802  0.9842
  636MPD2    C5 9418   1.233   0.345  15.638  0.4704  0.1691 -0.4170
  636MPD2     H 9419   1.284   0.450  16.000 -0.1592 -0.6994  0.3528
  636MPD2    H1 9420   1.301   0.153  15.691  1.2556  1.2942 -1.5779
  636MPD2    H2 9421   1.182   0.549  15.594  1.5378  0.8713  0.2788
  636MPD2    H3 9422   1.210   0.325  15.534  1.2563  0.3644 -0.6266
  636MPD2     N 9423   1.343   0.208  15.964 -0.2953  0.3773  0.2860
  636MPD2    H5 9424   1.336   0.250  16.056  1.2391 -0.6719  0.8922
  636MPD2    N1 9425   1.201   0.655  15.849  0.1653 -0.0098  0.5767
  636MPD2    H7 9426   1.205   0.667  15.950 -0.7270 -0.2450  0.6340
  637TMC3    C1 9427   1.453   0.020  16.065  0.3194 -0.3717 -0.3653
  637TMC3    C2 9428   1.406   0.060  16.182  0.5242  0.2599  0.5242
  637TMC3    C3 9429   1.474   0.020  16.292  0.6600 -0.1510 -0.5036
  637TMC3    C4 9430   1.576   4.697  16.052  1.0770 -0.6208  0.1399
  637TMC3    C5 9431   1.651   4.662  16.156  0.0809  0.3198  0.3715
  637TMC3    C6 9432   1.600   4.681  16.283 -0.2955  0.1048  0.1041
  637TMC3     C 9433   1.397   0.085  15.945  1.0528  0.4234 -0.1067
  637TMC3     O 9434   1.406   0.027  15.840  0.3137  0.2389  0.3323
  637TMC3     H 9435   1.304   0.097  16.186  0.2840 -0.4680  1.3849
  637TMC3    H1 9436   1.607   4.669  15.952 -2.2846  0.7084 -1.2737
  637TMC3    H2 9437   1.652   4.661  16.376  2.8865  0.3447 -1.6067
  637TMC3    C7 9438   1.788   4.722  16.154  0.0516 -0.1859 -0.2657
  637TMC3    C8 9439   1.453   0.122  16.398  0.6507  0.0191 -0.0883
  637TMC3    O1 9440   1.803   0.067  16.254  0.2057  0.2782  0.4303
  637TMC3    O2 9441   1.396   0.221  16.354  0.0754 -0.2987  0.5359
  638MPD2     C 9442   1.338   4.112  15.002  0.5628 -0.9166 -0.2668
  638MPD2    C1 9443   1.321   4.024  14.900  0.6414  0.0207  0.5357
  638MPD2    C2 9444   1.303   3.892  14.931  0.2780 -1.0169  0.0520
  638MPD2    C3 9445   1.298   3.850  15.059 -0.3863  0.1671 -0.4088
  638MPD2    C4 9446   1.310   3.944  15.163  0.2328 -0.1065  0.7185
  638MPD2    C5 9447   1.322   4.078  15.133  0.5544  0.8281  0.0847
  638MPD2     H 9448   1.302   3.821  14.849  0.8906 -0.6940 -0.2379
  638MPD2    H1 9449   1.286   3.919  15.266  1.0883  0.0317  0.9531
  638MPD2    H2 9450   1.358   4.217  14.981 -2.9097 -0.2367 -0.1426
  638MPD2    H3 9451   1.329   4.147  15.216 -1.5799 -0.7964  1.6355
  638MPD2     N 9452   1.258   3.719  15.081  0.2773 -0.3861  0.5100
  638MPD2    H5 9453   1.234   3.661  15.001  4.3901  0.5570 -1.3478
  638MPD2    N1 9454   1.349   4.064  14.768  0.2005  0.1227 -0.2779
  638MPD2    H7 9455   1.404   4.149  14.756  0.1936  0.0268 -0.9845
  639TMC3    C1 9456   1.213   3.513  15.191  0.3790 -0.0946  1.0260
  639TMC3    C2 9457   1.132   3.491  15.084  0.1474  0.3604 -0.4344
  639TMC3    C3 9458   1.167   3.387  15.011 -0.2964  0.2099 -0.7657
  639TMC3    C4 9459   1.327   3.433  15.218  0.1814  0.2800 -0.3022
  639TMC3    C5 9460   1.352   3.327  15.134  0.2957  0.1046 -0.1893
  639TMC3    C6 9461   1.273   3.299  15.029  0.2979  0.3222 -0.3138
  639TMC3     C 9462   1.253   3.650  15.201 -1.0017  1.0191 -0.0835
  639TMC3     O 9463   1.299   3.682  15.308  0.4065  0.5665  0.4130
  639TMC3     H 9464   1.064   3.569  15.051  1.3245  1.1998 -0.9087
  639TMC3    H1 9465   1.391   3.460  15.301  0.1920 -0.2959 -0.1259
  639TMC3    H2 9466   1.283   3.219  14.956  3.1897  1.6485 -1.3957
  639TMC3    C7 9467   1.484   3.264  15.148  0.1929 -0.1650  0.6366
  639TMC3    C8 9468   1.088   3.356  14.889  0.3766 -0.7263 -0.0421
  639TMC3    O1 9469   1.566   3.333  15.207  0.1246  0.5807  0.9505
  639TMC3    O2 9470   1.148   3.302  14.798 -0.8156 -0.1299  0.1369
  640MPD2     C 9471   1.738   2.807   9.497  0.8064  0.7243 -0.3142
  640MPD2    C1 9472   1.797   2.923   9.445 -0.4649 -0.4025  0.3069
  640MPD2    C2 9473   1.707   3.029   9.435  0.2578  0.1433  0.3539
  640MPD2    C3 9474   1.580   3.027   9.490 -0.2636  0.3331 -0.2202
  640MPD2    C4 9475   1.528   2.907   9.535  0.0123 -0.5251  0.4116
  640MPD2    C5 9476   1.609   2.796   9.536 -0.1717 -0.0129 -0.4395
  640MPD2     H 9477   1.736   3.124   9.393 -2.1455  0.6215 -0.2315
  640MPD2    H1 9478   1.426   2.893   9.570 -0.8252  0.3396 -1.6692
  640MPD2    H2 9479   1.795   2.717   9.479 -1.4260 -0.7490 -0.0291
  640MPD2    H3 9480   1.567   2.703   9.573 -0.9903  0.5932  0.1605
  640MPD2     N 9481   1.511   3.145   9.488 -0.2123 -0.1458 -0.1011
  640MPD2    H5 9482   1.570   3.228   9.483 -4.6205  2.9589 -1.3283
  640MPD2    N1 9483   1.934   2.934   9.415 -0.1812  0.2118  0.1789
  640MPD2    H7 9484   1.991   2.855   9.442  0.7021  0.9544  0.4658
  641TMC3    C1 9485   2.142   3.051   9.380  0.9590  0.5683 -0.0141
  641TMC3    C2 9486   2.219   2.955   9.440 -0.0686 -0.1003  0.6315
  641TMC3    C3 9487   2.356   2.976   9.444 -0.1118  0.2610 -0.0341
  641TMC3    C4 9488   2.200   3.158   9.315  0.5417  0.3781  0.0552
  641TMC3    C5 9489   2.336   3.172   9.323 -0.2661 -0.2753  0.8684
  641TMC3    C6 9490   2.421   3.087   9.387 -0.2188 -0.2319  0.1904
  641TMC3     C 9491   1.999   3.046   9.370  0.3580 -0.1150 -0.7171
  641TMC3     O 9492   1.951   3.154   9.326  0.1583  0.4405  0.6828
  641TMC3     H 9493   2.174   2.867   9.483 -0.2347  0.5797  1.8589
  641TMC3    H1 9494   2.138   3.246   9.305  1.1607  0.7372 -0.5461
  641TMC3    H2 9495   2.529   3.100   9.391 -0.0907 -1.9158  2.3723
  641TMC3    C7 9496   2.385   3.302   9.275 -0.0758 -0.0074  0.0096
  641TMC3    C8 9497   2.442   2.867   9.480  0.0399  0.2270  0.5105
  641TMC3    O1 9498   2.304   3.367   9.216 -0.5038 -1.2177 -0.5133
  641TMC3    O2 9499   2.557   2.871   9.434 -0.3132 -0.1308 -0.0536
  642TMC3    C1 9500   3.042   3.796  12.099  0.4930 -0.2744  0.1938
  642TMC3    C2 9501   3.045   3.797  12.234  0.0829 -0.5078  0.0715
  642TMC3    C3 9502   3.068   3.677  12.292 -0.0127 -0.4058  0.0391
  642TMC3    C4 9503   3.044   3.680  12.022 -0.1875 -0.6397  0.5010
  642TMC3    C5 9504   3.082   3.565  12.081 -0.1302  0.4057 -0.8118
  642TMC3    C6 9505   3.092   3.556  12.219  1.5032 -0.2823 -0.6546
  642TMC3     C 9506   3.006   3.912  12.027 -0.0494 -0.4838 -0.2237
  642TMC3     O 9507   3.050   3.924  11.911 -0.3860 -1.0296 -0.4473
  642TMC3     H 9508   3.039   3.885  12.296 -0.3840 -2.2179  2.4279
  642TMC3    H1 9509   3.037   3.676  11.914 -0.1470 -1.8670  0.5514
  642TMC3    H2 9510   3.110   3.459  12.265 -3.6424 -0.7743  0.2914
  642TMC3    C7 9511   3.032   3.444  12.023  0.6444  0.7119 -0.5271
  642TMC3    C8 9512   3.010   3.666  12.428 -0.4354  0.3282  0.4889
  642TMC3    O1 9513   3.063   3.416  11.909  0.1253  0.0430 -0.5039
  642TMC3    O2 9514   2.937   3.761  12.470 -0.4900  0.3024  0.4127
  643TMC3    C1 9515   1.869   2.980   0.713 -0.9780  0.1252  0.4375
  643TMC3    C2 9516   1.767   3.071   0.710 -0.4066  0.0721 -0.3173
  643TMC3    C3 9517   1.692   3.068   0.594 -0.1566 -0.0554  0.4952
  643TMC3    C4 9518   1.910   2.910   0.597 -0.4187 -0.5856  0.1250
  643TMC3    C5 9519   1.816   2.902   0.496  0.0472 -0.4063 -1.3528
  643TMC3    C6 9520   1.707   2.981   0.496  0.5742  0.4290  0.0013
  643TMC3     C 9521   1.968   3.002   0.819 -0.5532  0.4421 -0.2364
  643TMC3     O 9522   1.934   3.081   0.905 -0.4535 -0.2624  0.1251
  643TMC3     H 9523   1.742   3.144   0.786 -0.8600  1.9097 -2.2302
  643TMC3    H1 9524   1.998   2.848   0.593 -0.7505 -0.9659 -1.0299
  643TMC3    H2 9525   1.627   2.974   0.422  1.6661 -2.8774 -0.8814
  643TMC3    C7 9526   1.862   2.897   0.359  0.2053  0.8042  0.0165
  643TMC3    C8 9527   1.628   3.189   0.559 -0.1942  0.2946  0.0273
  643TMC3    O1 9528   1.809   2.978   0.280 -0.0636 -0.5446 -0.1098
  643TMC3    O2 9529   1.577   3.255   0.649  0.2175  0.2733  0.1740
  644MPD2     C 9530   2.156   3.080   9.777  0.1673  0.3250 -0.3362
  644MPD2    C1 9531   2.277   3.130   9.747  0.0797  0.3549 -0.0606
  644MPD2    C2 9532   2.290   3.250   9.681  0.3433 -0.6651 -0.3065
  644MPD2    C3 9533   2.177   3.318   9.636 -0.6586 -0.9115 -0.1788
  644MPD2    C4 9534   2.054   3.255   9.657 -0.1868  1.0842 -0.5117
  644MPD2    C5 9535   2.046   3.134   9.727  0.4167 -0.3265 -0.0944
  644MPD2     H 9536   2.381   3.304   9.660  0.1419 -0.1042  0.2569
  644MPD2    H1 9537   1.956   3.292   9.629  0.3015  1.9792 -0.9922
  644MPD2    H2 9538   2.144   2.987   9.832 -3.5549  1.8694  1.4901
  644MPD2    H3 9539   1.951   3.087   9.750  0.7288 -0.6902  0.4549
  644MPD2     N 9540   2.195   3.443   9.573 -0.7852  0.2371  0.7854
  644MPD2    H5 9541   2.281   3.495   9.585 -0.2330 -0.0411 -2.0232
  644MPD2    N1 9542   2.383   3.048   9.787  0.3334  0.5163 -0.1266
  644MPD2    H7 9543   2.356   2.962   9.834 -2.2169  2.0379  1.2101
  645TMC3    C1 9544   2.158   3.605   9.413 -0.4289  0.2701  0.3411
  645TMC3    C2 9545   2.285   3.655   9.439 -0.8738  0.5897 -0.1673
  645TMC3    C3 9546   2.309   3.786   9.396 -0.1937  0.7339 -0.1252
  645TMC3    C4 9547   2.065   3.668   9.335  0.5239  0.1929  0.6026
  645TMC3    C5 9548   2.101   3.794   9.290  0.7698  0.3018  0.4034
  645TMC3    C6 9549   2.215   3.853   9.324  0.8574  0.3950 -0.0014
  645TMC3     C 9550   2.105   3.495   9.488  0.1866 -0.3119 -0.8254
  645TMC3     O 9551   2.000   3.444   9.443  0.1517 -0.1310  0.1495
  645TMC3     H 9552   2.366   3.592   9.475  1.2778  2.6525 -1.3814
  645TMC3    H1 9553   1.965   3.627   9.337  0.0300  1.3375 -0.4606
  645TMC3    H2 9554   2.238   3.954   9.292 -2.0175  0.6804 -1.1099
  645TMC3    C7 9555   1.990   3.886   9.251 -0.4336 -0.2491 -0.3044
  645TMC3    C8 9556   2.423   3.864   9.437  0.5182  0.0350  0.4455
  645TMC3    O1 9557   2.013   3.997   9.294  0.5774 -0.4652 -0.3787
  645TMC3    O2 9558   2.453   3.961   9.371 -0.6588  0.4434 -0.1195
  646MPD2     C 9559   1.474   2.984  14.125 -1.0032  0.1522  0.0836
  646MPD2    C1 9560   1.389   2.918  14.214 -0.6203 -1.0622  0.2905
  646MPD2    C2 9561   1.257   2.945  14.222 -0.2719 -0.3033  0.3709
  646MPD2    C3 9562   1.200   3.033  14.129 -0.0921 -0.0771 -0.3970
  646MPD2    C4 9563   1.289   3.109  14.049  0.0230  0.6012  0.3058
  646MPD2    C5 9564   1.422   3.083  14.046  0.2779 -0.1330  0.0929
  646MPD2     H 9565   1.194   2.893  14.293  0.8960  0.7869  2.1994
  646MPD2    H1 9566   1.250   3.190  13.988 -0.0589  0.0413 -0.3878
  646MPD2    H2 9567   1.580   2.961  14.122 -1.4301 -1.6098 -1.5303
  646MPD2    H3 9568   1.483   3.144  13.981 -2.4633 -1.3664 -3.6093
  646MPD2     N 9569   1.058   3.057  14.140  0.1395  0.1134  0.2107
  646MPD2    H5 9570   1.013   3.036  14.228  2.1355 -0.8095  1.0103
  646MPD2    N1 9571   1.450   2.814  14.293 -0.2840 -0.0921 -0.1656
  646MPD2    H7 9572   1.539   2.792  14.249  0.2205  0.5666  0.5340
  647TMC3    C1 9573   1.458   2.609  14.427 -0.1645 -0.3563  1.0191
  647TMC3    C2 9574   1.382   2.506  14.475 -0.2824  1.1635 -0.7681
  647TMC3    C3 9575   1.449   2.385  14.494 -0.4804  0.0370 -0.1166
  647TMC3    C4 9576   1.591   2.591  14.390  0.1601 -0.1366 -1.3199
  647TMC3    C5 9577   1.653   2.474  14.417  0.0027 -0.6140  1.0461
  647TMC3    C6 9578   1.582   2.372  14.469 -0.3586 -0.4894 -0.1197
  647TMC3     C 9579   1.385   2.726  14.383 -0.1410  0.2170 -0.7772
  647TMC3     O 9580   1.272   2.730  14.426  0.1527 -0.2530  0.0976
  647TMC3     H 9581   1.278   2.520  14.499 -0.1436 -0.2213  0.6127
  647TMC3    H1 9582   1.648   2.679  14.362  0.2921 -0.4642 -2.0724
  647TMC3    H2 9583   1.630   2.278  14.491 -1.2192 -0.1546  3.1780
  647TMC3    C7 9584   1.798   2.453  14.395  0.6145  0.4487  0.3035
  647TMC3    C8 9585   1.398   2.304  14.599  0.0917  0.4627 -0.2999
  647TMC3    O1 9586   1.841   2.339  14.397  0.1386  0.0944  0.9712
  647TMC3    O2 9587   1.483   2.234  14.655 -0.7627  0.2159  0.0979
  648TMC3    C1 9588   0.691   0.212  16.110  0.1512 -0.5436 -0.0464
  648TMC3    C2 9589   0.725   0.088  16.072 -0.0470  0.2886 -0.9861
  648TMC3    C3 9590   0.704   0.048  15.948  1.0127  0.3818 -0.0182
  648TMC3    C4 9591   0.627   0.298  16.020 -1.5747  0.2521  0.2021
  648TMC3    C5 9592   0.618   0.261  15.894 -0.4000 -0.0126 -0.3755
  648TMC3    C6 9593   0.646   0.133  15.855  0.2869 -0.5333 -0.2880
  648TMC3     C 9594   0.668   0.251  16.246 -0.4456  0.6163 -0.6129
  648TMC3     O 9595   0.660   0.369  16.260  0.2977  0.0751  0.0432
  648TMC3     H 9596   0.791   0.046  16.146 -1.6901 -0.0177  0.3193
  648TMC3    H1 9597   0.586   0.393  16.050 -1.0098  0.3556  0.6684
  648TMC3    H2 9598   0.627   0.098  15.754  0.0906 -0.0577 -0.4174
  648TMC3    C7 9599   0.516   0.332  15.809  0.4364  1.3447 -0.7437
  648TMC3    C8 9600   0.766   4.645  15.910 -0.4452 -0.7583 -0.5978
  648TMC3    O1 9601   0.478   0.262  15.716 -0.3730 -0.2244 -0.0379
  648TMC3    O2 9602   0.803   4.641  15.794 -0.0546 -0.3170 -0.2371
  649TMC3    C1 9603   4.351   1.642  12.778 -0.2353  0.7934 -0.2358
  649TMC3    C2 9604   4.451   1.680  12.683  0.1860  0.5023 -0.4281
  649TMC3    C3 9605   4.583   1.653  12.720  0.3289  0.2485 -0.3021
  649TMC3    C4 9606   4.373   1.594  12.905  0.5515 -0.8654  0.1134
  649TMC3    C5 9607   4.511   1.564  12.922 -0.3419  0.2598 -0.5866
  649TMC3    C6 9608   4.615   1.604  12.842 -0.4871  0.0535 -0.3537
  649TMC3     C 9609   4.232   1.716  12.768  0.5267 -0.2292 -0.1906
  649TMC3     O 9610   4.159   1.730  12.870 -0.0523  0.5941  0.2184
  649TMC3     H 9611   4.432   1.739  12.594 -0.4642  0.7006 -0.1578
  649TMC3    H1 9612   4.293   1.573  12.974  1.1402 -0.6977  0.8449
  649TMC3    H2 9613   4.721   1.589  12.861 -0.7571  0.8229  1.7643
  649TMC3    C7 9614   4.531   1.494  13.047 -0.3147 -0.4987  0.7923
  649TMC3    C8 9615   4.703   1.705  12.643 -0.2383  0.1992  0.0694
  649TMC3    O1 9616   4.444   1.505  13.136  0.7144 -0.0080  0.0517
  649TMC3    O2 9617   0.090   1.707  12.698 -0.2880  0.3466  0.1453
  650TMC3    C1 9618   2.400   3.252  12.911  0.0808 -0.4576 -0.0884
  650TMC3    C2 9619   2.405   3.388  12.921 -0.1484  0.7463 -0.4681
  650TMC3    C3 9620   2.311   3.445  12.839  0.6683 -0.5848  0.0197
  650TMC3    C4 9621   2.307   3.179  12.835 -0.2446 -0.0959  0.0075
  650TMC3    C5 9622   2.216   3.249  12.759  0.3368 -0.6991 -0.1003
  650TMC3    C6 9623   2.224   3.388  12.745 -0.4482 -0.3145 -0.4875
  650TMC3     C 9624   2.525   3.192  12.949  0.2087  0.0691  0.1150
  650TMC3     O 9625   2.609   3.268  13.001  0.2868  0.5404 -0.4867
  650TMC3     H 9626   2.479   3.445  12.976 -0.5882  0.6000  0.2735
  650TMC3    H1 9627   2.307   3.071  12.829  1.7891 -0.1376  0.6890
  650TMC3    H2 9628   2.149   3.447  12.693 -0.8610  0.0537  0.5224
  650TMC3    C7 9629   2.141   3.178  12.660 -0.4659  0.0974  0.2659
  650TMC3    C8 9630   2.321   3.588  12.825  0.5916 -0.2672  0.5854
  650TMC3    O1 9631   2.114   3.063  12.689 -0.2132 -0.1094  0.0128
  650TMC3    O2 9632   2.279   3.620  12.718  0.0448  0.1155  0.0546
  651MPD2     C 9633   1.228   4.695  10.696  0.3558 -0.3794  0.4990
  651MPD2    C1 9634   1.201   0.103  10.673  0.2564 -0.1190  0.4161
  651MPD2    C2 9635   1.299   0.187  10.622 -0.6804  0.3145 -0.4764
  651MPD2    C3 9636   1.429   0.144  10.599  0.1131  0.5411 -0.0584
  651MPD2    C4 9637   1.455   0.010  10.625 -0.5279 -0.2062  0.2764
  651MPD2    C5 9638   1.357   4.654  10.666 -0.2156 -0.2243 -0.3936
  651MPD2     H 9639   1.276   0.293  10.615  0.4536  0.6134  0.2997
  651MPD2    H1 9640   1.550   4.682  10.619  0.3754  1.1290  3.0098
  651MPD2    H2 9641   1.160   4.619  10.734 -0.4375  1.7093  3.3108
  651MPD2    H3 9642   1.378   4.550  10.688 -1.2605 -0.0945  1.2344
  651MPD2     N 9643   1.529   0.237  10.566  0.3479 -0.1530  0.1564
  651MPD2    H5 9644   1.491   0.329  10.547 -0.9806 -0.9775 -1.1727
  651MPD2    N1 9645   1.072   0.163  10.694 -0.2736  0.4638  0.1454
  651MPD2    H7 9646   1.054   0.263  10.689  1.5182  0.7248 -0.7267
  652TMC3    C1 9647   1.973   0.373  10.457  0.4463 -0.0131 -0.3083
  652TMC3    C2 9648   1.877   0.278  10.483  0.5532 -0.7858 -0.1012
  652TMC3    C3 9649   1.746   0.315  10.494  0.7876 -0.2907  0.0447
  652TMC3    C4 9650   1.941   0.507  10.467 -0.2992 -0.2206 -0.6009
  652TMC3    C5 9651   1.812   0.536  10.504  0.2680  0.1318 -0.1743
  652TMC3    C6 9652   1.708   0.443  10.510 -0.3964  0.3487  0.4301
  652TMC3     C 9653   2.098   0.338  10.503 -0.1372 -0.0865  0.1762
  652TMC3     O 9654   2.109   0.248  10.581 -0.0049 -0.2966  0.0753
  652TMC3     H 9655   1.909   0.175  10.469  1.3768 -0.7622  1.6662
  652TMC3    H1 9656   2.017   0.582  10.448 -2.1479  2.3023  1.9700
  652TMC3    H2 9657   1.606   0.479  10.509 -0.5896 -0.3017 -1.6811
  652TMC3    C7 9658   1.799   0.655  10.580  0.7552  0.2050  0.1306
  652TMC3    C8 9659   1.658   0.206  10.528  0.8788 -0.0440  0.2970
  652TMC3    O1 9660   1.893   0.730  10.574  0.0155  0.0849 -0.2496
  652TMC3    O2 9661   1.702   0.090  10.508 -0.2778  0.2652 -0.6510
  653MPD2     C 9662   4.191   0.376  17.565  0.1637  0.5725 -0.3259
  653MPD2    C1 9663   4.224   0.449  17.455  0.5672 -0.1107  0.5381
  653MPD2    C2 9664   4.210   0.396  17.331  0.1944  0.1475 -0.3725
  653MPD2    C3 9665   4.169   0.262  17.318  0.0919 -0.2649 -1.4429
  653MPD2    C4 9666   4.147   0.184  17.430  1.1404 -0.8896 -0.0062
  653MPD2    C5 9667   4.158   0.239  17.557 -0.3251 -0.1007  0.7279
  653MPD2     H 9668   4.241   0.444  17.239  1.8181 -0.4150 -0.1048
  653MPD2    H1 9669   4.105   0.084  17.425  0.4648 -0.6546  0.9566
  653MPD2    H2 9670   4.182   0.426  17.661  0.2313 -0.3788  0.1859
  653MPD2    H3 9671   4.135   0.186  17.649  0.3965 -1.0154  0.3766
  653MPD2     N 9672   4.138   0.226  17.184  0.4628  0.5585 -0.1288
  653MPD2    H5 9673   4.128   0.302  17.118 -0.6045  0.5352  0.0051
  653MPD2    N1 9674   4.249   0.587  17.463 -0.2249  0.2506 -0.2210
  653MPD2    H7 9675   4.281   0.630  17.376  1.5661 -1.0386 -0.1942
  654TMC3    C1 9676   4.113   0.079  16.996  0.7442  0.2233 -0.1752
  654TMC3    C2 9677   4.011   0.154  16.943  0.3087 -0.1247 -0.0958
  654TMC3    C3 9678   3.965   0.123  16.814 -0.3993 -0.4304  0.9162
  654TMC3    C4 9679   4.156   4.686  16.937 -0.2408 -0.2146  0.0974
  654TMC3    C5 9680   4.109   4.666  16.815 -0.1977  0.4251  0.1123
  654TMC3    C6 9681   4.024   0.027  16.745 -0.3755 -0.1902  0.3645
  654TMC3     C 9682   4.141   0.096  17.139 -0.0610  0.0242 -0.0732
  654TMC3     O 9683   4.182   4.723  17.205  0.0449 -0.2339  0.6488
  654TMC3     H 9684   3.956   0.227  17.001  0.1590 -2.4149  2.6557
  654TMC3    H1 9685   4.232   4.623  16.983  1.5219 -0.8449 -3.6995
  654TMC3    H2 9686   4.001   0.007  16.641 -3.6836 -1.5539  1.3792
  654TMC3    C7 9687   4.137   4.542  16.746 -0.1624 -0.1969  0.1067
  654TMC3    C8 9688   3.833   0.162  16.772  0.0267  0.0115  0.2875
  654TMC3    O1 9689   4.117   4.536  16.624  0.4376 -0.3524 -0.3888
  654TMC3    O2 9690   3.782   0.268  16.815  0.3777  0.4276 -0.4533
  655MPD2     C 9691   0.937   0.264  15.648 -0.2065 -0.1791 -0.1428
  655MPD2    C1 9692   0.885   0.372  15.579  0.0273 -0.0624 -0.2006
  655MPD2    C2 9693   0.870   0.354  15.441  0.4545  0.2498  0.0202
  655MPD2    C3 9694   0.911   0.245  15.372  0.8367  0.4206 -0.4722
  655MPD2    C4 9695   0.985   0.151  15.442  0.8106 -0.3330 -0.0489
  655MPD2    C5 9696   0.984   0.152  15.576 -0.0054  0.5408 -0.0762
  655MPD2     H 9697   0.816   0.436  15.394 -2.5591 -0.4145  2.2639
  655MPD2    H1 9698   1.029   0.066  15.391 -2.1546 -0.8882 -1.6854
  655MPD2    H2 9699   0.950   0.256  15.756  0.2249  0.8629 -0.1217
  655MPD2    H3 9700   1.035   0.072  15.628 -0.5744 -0.4743 -1.0962
  655MPD2     N 9701   0.887   0.223  15.234  0.0937 -0.9213 -0.1378
  655MPD2    H5 9702   0.926   0.138  15.194  0.1533 -0.8250 -0.2854
  655MPD2    N1 9703   0.833   0.487  15.651 -0.5245 -0.3415 -0.2327
  655MPD2    H7 9704   0.777   0.554  15.599 -0.5276 -1.3478 -1.5359
  656TMC3    C1 9705   0.812   0.638  15.823  0.5948  0.7135  0.7192
  656TMC3    C2 9706   0.781   0.660  15.948  0.6959 -0.5328  0.0637
  656TMC3    C3 9707   0.711   0.781  15.978  0.5584 -0.0412  0.3210
  656TMC3    C4 9708   0.793   0.734  15.727 -0.2894 -0.4385 -0.2041
  656TMC3    C5 9709   0.719   0.849  15.758  0.4424 -0.4131 -0.7087
  656TMC3    C6 9710   0.682   0.876  15.885 -0.1320 -0.1066  0.1192
  656TMC3     C 9711   0.855   0.511  15.785  0.4494 -0.0879  1.6678
  656TMC3     O 9712   0.893   0.435  15.876 -0.3236 -1.0507  0.4144
  656TMC3     H 9713   0.785   0.583  16.024 -1.7610 -0.7480 -0.0104
  656TMC3    H1 9714   0.822   0.716  15.624  0.9318  2.1175 -0.3086
  656TMC3    H2 9715   0.612   0.956  15.904  1.1687  0.9721  0.3049
  656TMC3    C7 9716   0.673   0.930  15.647  0.2931  0.6733  0.9572
  656TMC3    C8 9717   0.609   0.746  16.072 -0.0150 -0.7418 -0.4595
  656TMC3    O1 9718   0.725   0.916  15.539 -0.1223 -0.5173  0.4287
  656TMC3    O2 9719   0.573   0.630  16.073  0.2333  0.4825 -0.0205
  657TMC3    C1 9720   4.531   4.530  15.102  0.2878  0.1737  0.1962
  657TMC3    C2 9721   4.591   4.466  15.209  0.1217  0.2485  0.3817
  657TMC3    C3 9722   4.577   4.531  15.327  0.0538 -0.3111  0.0512
  657TMC3    C4 9723   4.473   4.658  15.110 -0.3480  0.6352  0.2706
  657TMC3    C5 9724   4.465   4.718  15.230  0.0437  0.4703  0.3157
  657TMC3    C6 9725   4.517   4.653  15.342  0.1951  0.7409 -0.5129
  657TMC3     C 9726   4.551   4.487  14.966  0.5374 -0.1854 -0.5422
  657TMC3     O 9727   4.509   4.556  14.875 -0.6191  0.3130  0.1636
  657TMC3     H 9728   4.630   4.364  15.205 -1.2207 -0.2247 -0.5606
  657TMC3    H1 9729   4.442   4.708  15.018  0.2569  0.6860  0.0894
  657TMC3    H2 9730   4.518   4.697  15.441  0.7228 -0.3183 -0.0486
  657TMC3    C7 9731   4.450   0.138  15.224  0.1567 -0.4812  0.1352
  657TMC3    C8 9732   4.642   4.477  15.451  0.1492 -0.2205 -0.2662
  657TMC3    O1 9733   4.383   0.175  15.135 -0.2334 -0.2980 -0.0296
  657TMC3    O2 9734   4.607   4.519  15.563  0.3382  0.2816 -0.4330
  658MPD2     C 9735   1.287   0.000  14.885 -0.2541 -0.0185 -0.7891
  658MPD2    C1 9736   1.190   4.722  14.789 -0.3589 -0.1207 -0.2547
  658MPD2    C2 9737   1.213   4.700  14.660 -0.2270  0.2934 -0.3096
  658MPD2    C3 9738   1.343   4.690  14.620 -0.0457 -1.1944 -0.2864
  658MPD2    C4 9739   1.442   4.702  14.713  0.8429  0.9954 -0.2115
  658MPD2    C5 9740   1.417   4.708  14.852 -1.0301  0.3662  0.2870
  658MPD2     H 9741   1.136   4.715  14.585 -1.9433  0.8019  1.5627
  658MPD2    H1 9742   1.544   4.692  14.677  1.9421  0.7206  3.0050
  658MPD2    H2 9743   1.251   0.009  14.987  1.7992  1.7647 -0.2108
  658MPD2    H3 9744   1.497   4.709  14.924 -1.2531 -0.0538  0.5427
  658MPD2     N 9745   1.367   4.694  14.481  0.4878  0.1088  0.0597
  658MPD2    H5 9746   1.285   4.690  14.422  0.3991  0.2589  0.1698
  658MPD2    N1 9747   1.062   0.008  14.845  0.2642 -0.2190  0.4014
  658MPD2    H7 9748   1.063   0.001  14.946 -0.1193  1.8340  0.5361
  659TMC3    C1 9749   0.830   0.058  14.877  0.7594 -0.5905  0.2674
  659TMC3    C2 9750   0.876   0.148  14.971 -0.2956  0.2938  0.5953
  659TMC3    C3 9751   0.777   0.228  15.026  0.1239  0.6830 -0.3031
  659TMC3    C4 9752   0.707   0.055  14.820  0.1633  0.2492 -0.3714
  659TMC3    C5 9753   0.617   0.143  14.872 -0.0803  0.2836  0.5285
  659TMC3    C6 9754   0.650   0.225  14.975 -0.0984  0.8375  0.4711
  659TMC3     C 9755   0.936   0.004  14.788  1.1598 -0.0546  0.5561
  659TMC3     O 9756   0.908   4.716  14.669  0.0233  0.5377  0.0536
  659TMC3     H 9757   0.978   0.157  15.005  0.0757  0.4087 -0.5765
  659TMC3    H1 9758   0.682   4.711  14.739 -0.0471  0.3826 -0.4187
  659TMC3    H2 9759   0.570   0.287  15.016 -0.9195  0.6776 -0.8728
  659TMC3    C7 9760   0.475   0.153  14.811 -0.1961 -0.0605  0.2052
  659TMC3    C8 9761   0.801   0.296  15.156  0.5355 -0.6749 -0.2479
  659TMC3    O1 9762   0.399   0.224  14.872 -0.1304  0.0476  0.3239
  659TMC3    O2 9763   0.707   0.368  15.198 -0.2764 -0.1049  0.1101
  660MPD2     C 9764   4.394   4.004  12.536 -0.2337 -0.1216 -0.3020
  660MPD2    C1 9765   4.257   3.978  12.521  0.4237 -0.1576 -0.1436
  660MPD2    C2 9766   4.196   3.864  12.575 -0.0448 -0.3895 -0.7033
  660MPD2    C3 9767   4.285   3.767  12.619 -0.2481 -0.4371 -0.1272
  660MPD2    C4 9768   4.420   3.786  12.630  0.4742 -0.5517 -0.6758
  660MPD2    C5 9769   4.471   3.908  12.594 -0.8531  0.2849 -0.1806
  660MPD2     H 9770   4.090   3.843  12.568 -0.3211  1.1552 -1.2567
  660MPD2    H1 9771   4.491   3.711  12.662  1.6507  1.1380  0.6213
  660MPD2    H2 9772   4.435   4.097  12.500  0.4434 -0.5142 -0.5323
  660MPD2    H3 9773   4.574   3.935  12.617 -0.1747 -1.7315 -0.8627
  660MPD2     N 9774   4.241   3.650  12.679 -0.2715 -0.2792  0.4051
  660MPD2    H5 9775   4.315   3.597  12.724 -1.5435 -1.8686  0.6290
  660MPD2    N1 9776   4.185   4.078  12.447  0.0101  0.3685  0.1003
  660MPD2    H7 9777   4.241   4.147  12.399 -0.7460  0.5923 -0.4644
  661TMC3    C1 9778   4.011   4.190  12.339  0.2729  0.3638 -1.0097
  661TMC3    C2 9779   4.079   4.194  12.215 -0.3945 -0.2098 -0.0062
  661TMC3    C3 9780   4.005   4.257  12.115  0.1377  0.0363  0.3689
  661TMC3    C4 9781   3.881   4.234  12.350  0.1598  0.2088  0.3787
  661TMC3    C5 9782   3.812   4.276  12.241  0.5844  1.3121 -0.1355
  661TMC3    C6 9783   3.873   4.294  12.121  0.0694  0.0763  0.2070
  661TMC3     C 9784   4.050   4.086  12.437  0.1208  0.0459  0.7558
  661TMC3     O 9785   3.967   4.033  12.504  0.3491 -0.0625  0.3834
  661TMC3     H 9786   4.180   4.163  12.193  0.0315  0.6346  0.7384
  661TMC3    H1 9787   3.832   4.225  12.446 -1.6408 -2.5328 -0.8023
  661TMC3    H2 9788   3.821   4.338  12.036  2.8295 -0.6134 -1.8412
  661TMC3    C7 9789   3.672   4.237  12.248  0.0788 -0.0054 -0.4539
  661TMC3    C8 9790   4.086   4.323  12.016 -0.3167  0.0682  0.3735
  661TMC3    O1 9791   3.624   4.227  12.361  0.4451  0.2130  0.7400
  661TMC3    O2 9792   4.185   4.261  11.978 -0.3367 -0.0090  0.1436
  662MPD2     C 9793   4.123   3.614  17.250 -0.0826 -0.1416  0.0068
  662MPD2    C1 9794   4.162   3.601  17.382  0.0920  0.2272 -0.4540
  662MPD2    C2 9795   4.121   3.685  17.480  0.3619 -0.1702 -0.5433
  662MPD2    C3 9796   4.029   3.786  17.453  0.1859  0.1224  0.3470
  662MPD2    C4 9797   3.983   3.793  17.323  0.1772 -0.4501 -0.0555
  662MPD2    C5 9798   4.034   3.714  17.221  0.0754 -0.1131  0.2079
  662MPD2     H 9799   4.172   3.674  17.576 -1.3814  0.1476  0.4190
  662MPD2    H1 9800   3.905   3.861  17.291 -0.0067 -0.2398  0.8411
  662MPD2    H2 9801   4.158   3.563  17.161 -1.5365 -2.8043  0.9700
  662MPD2    H3 9802   3.996   3.739  17.123  2.4277  1.2960 -0.3590
  662MPD2     N 9803   3.961   3.856  17.557 -0.5719 -0.3994  0.3847
  662MPD2    H5 9804   3.869   3.892  17.535 -1.2901 -1.0167  2.3616
  662MPD2    N1 9805   4.223   3.485  17.431  0.3570  0.0731  0.1164
  662MPD2    H7 9806   4.230   3.464  17.530 -1.2082 -1.6670 -0.1464
  663TMC3    C1 9807   4.252   3.258  17.440  0.0637 -0.3460  0.8319
  663TMC3    C2 9808   4.238   3.273  17.583 -0.5968  0.0080 -0.2742
  663TMC3    C3 9809   4.212   3.156  17.652 -0.4200  0.0214 -0.3916
  663TMC3    C4 9810   4.240   3.137  17.374 -0.5048  0.3077 -0.2275
  663TMC3    C5 9811   4.213   3.032  17.448 -0.0424  0.1110 -0.0204
  663TMC3    C6 9812   4.206   3.038  17.582 -0.9432 -0.4366 -0.9421
  663TMC3     C 9813   4.249   3.375  17.356  0.3748 -0.1800  0.4185
  663TMC3     O 9814   4.271   3.358  17.235  0.1805  0.0443 -0.4671
  663TMC3     H 9815   4.278   3.356  17.640  3.3496 -1.1730 -1.3539
  663TMC3    H1 9816   4.254   3.130  17.266  0.6291  0.1869 -0.0713
  663TMC3    H2 9817   4.211   2.947  17.640  0.5496  0.4925  0.4049
  663TMC3    C7 9818   4.253   2.909  17.386  0.5508 -0.9072 -1.3335
  663TMC3    C8 9819   4.289   3.146   0.084 -0.1463 -0.1109 -0.1544
  663TMC3    O1 9820   4.329   2.909  17.292  0.3879  0.2443 -0.0890
  663TMC3    O2 9821   4.351   3.042   0.104 -0.1238  0.0581 -0.0760
  664MPD2     C 9822   1.991   1.847  17.671 -0.7584  0.2242 -0.0804
  664MPD2    C1 9823   2.119   1.816   0.010  0.2158  0.4640  0.7519
  664MPD2    C2 9824   2.162   1.797   0.150 -0.0393 -0.2731 -0.0726
  664MPD2    C3 9825   2.069   1.828   0.246 -0.5698 -0.8896  0.8505
  664MPD2    C4 9826   1.940   1.865   0.211  0.2745 -0.0760  0.6908
  664MPD2    C5 9827   1.909   1.879   0.079 -0.1883 -0.1699 -0.2540
  664MPD2     H 9828   2.266   1.774   0.166  0.6066  1.5533 -1.6799
  664MPD2    H1 9829   1.867   1.900   0.283  0.5434  0.7790  0.5455
  664MPD2    H2 9830   1.948   1.855  17.572 -1.5602 -0.0074  0.2525
  664MPD2    H3 9831   1.807   1.910   0.056 -0.5681  1.1605  3.3039
  664MPD2     N 9832   2.117   1.827   0.379 -0.2241  0.1751  0.5030
  664MPD2    H5 9833   2.213   1.792   0.380 -0.2431  0.0935 -1.7566
  664MPD2    N1 9834   2.224   1.802  17.614  0.4619  0.7147 -0.0413
  664MPD2    H7 9835   2.313   1.777  17.657 -0.3674 -0.2572  1.1183
  665TMC3    C1 9836   2.130   1.870   0.615 -0.3307 -0.7408  0.0035
  665TMC3    C2 9837   2.054   1.852   0.723  0.2271  0.0541 -0.7110
  665TMC3    C3 9838   2.121   1.855   0.844 -0.2423  0.7722  0.4819
  665TMC3    C4 9839   2.258   1.912   0.624  0.1891 -0.2593 -0.0414
  665TMC3    C5 9840   2.323   1.925   0.744  0.0207  0.1902  0.2925
  665TMC3    C6 9841   2.254   1.900   0.858  0.1982  0.0625 -0.2290
  665TMC3     C 9842   2.058   1.877   0.493  0.7425  0.4484  0.1445
  665TMC3     O 9843   1.948   1.928   0.507  0.1690  0.6275  0.0471
  665TMC3     H 9844   1.951   1.820   0.710  0.4388 -1.4901  1.3728
  665TMC3    H1 9845   2.303   1.959   0.537  0.0417  1.9523  1.0707
  665TMC3    H2 9846   2.295   1.895   0.959  0.2185  0.0556 -0.2374
  665TMC3    C7 9847   2.429   2.023   0.746 -0.0029  0.9879  0.5411
  665TMC3    C8 9848   2.039   1.858   0.963 -0.6059 -0.2974  0.1457
  665TMC3    O1 9849   2.461   2.064   0.634  0.6672  0.3218 -0.7045
  665TMC3    O2 9850   2.091   1.890   1.072  0.3533 -0.1392 -0.0895
  666TMC3    C1 9851   1.970   1.631   9.951 -0.0076  0.1061 -0.3953
  666TMC3    C2 9852   2.007   1.567  10.067  0.4941 -0.4803 -0.3060
  666TMC3    C3 9853   2.119   1.623  10.132  0.5489  0.2665  0.6398
  666TMC3    C4 9854   2.035   1.736   9.892  0.2332 -0.1026 -0.2502
  666TMC3    C5 9855   2.139   1.781   9.963  0.2837  0.3329 -0.2722
  666TMC3    C6 9856   2.191   1.728  10.078  0.6146  0.6272 -0.5794
  666TMC3     C 9857   1.845   1.585   9.884  0.3669  0.1155  0.2078
  666TMC3     O 9858   1.816   1.633   9.775  0.4523 -0.1914 -0.1933
  666TMC3     H 9859   1.955   1.484  10.113 -0.4523 -0.5418 -1.4956
  666TMC3    H1 9860   1.998   1.778   9.799  2.1365  0.8385 -0.5849
  666TMC3    H2 9861   2.279   1.769  10.127 -1.0216  2.6852  0.6287
  666TMC3    C7 9862   2.195   1.911   9.927  0.1237  1.3096  0.6286
  666TMC3    C8 9863   2.129   1.589  10.272  0.0677 -0.2030  0.8247
  666TMC3    O1 9864   2.316   1.920   9.931  0.3222  0.9214  0.1322
  666TMC3    O2 9865   2.067   1.491  10.317  0.4788 -0.5842  0.0920
  667MPD2     C 9866   3.394   1.738  14.508 -0.1681 -0.6652 -0.5409
  667MPD2    C1 9867   3.269   1.801  14.509  0.3675 -0.0643 -0.3065
  667MPD2    C2 9868   3.161   1.731  14.454  0.1601 -0.5323  0.3048
  667MPD2    C3 9869   3.186   1.616  14.386  0.5181 -0.2343 -0.2426
  667MPD2    C4 9870   3.308   1.559  14.380  0.3006  0.0143  0.3949
  667MPD2    C5 9871   3.416   1.624  14.437  0.3928 -0.1532  0.1843
  667MPD2     H 9872   3.062   1.774  14.453  0.6751  0.6574  0.8547
  667MPD2    H1 9873   3.322   1.474  14.314  0.7315 -1.4450  2.3728
  667MPD2    H2 9874   3.488   1.775  14.549 -0.7413  0.2311 -0.0517
  667MPD2    H3 9875   3.516   1.582  14.430  0.0528 -0.6050 -1.8777
  667MPD2     N 9876   3.076   1.550  14.326  0.1219  0.1615 -0.2977
  667MPD2    H5 9877   2.982   1.588  14.325  0.8939  2.1019  1.9016
  667MPD2    N1 9878   3.240   1.925  14.569  0.0484  0.0467 -0.0100
  667MPD2    H7 9879   3.142   1.947  14.583  0.4224  2.7490 -1.6223
  668TMC3    C1 9880   3.296   2.125  14.705 -0.0007 -0.1403  0.2724
  668TMC3    C2 9881   3.397   2.219  14.728  0.3331  0.5081  1.4259
  668TMC3    C3 9882   3.417   2.284  14.847  0.5401 -0.4797 -0.3794
  668TMC3    C4 9883   3.208   2.106  14.806  0.1083 -0.3859 -0.9518
  668TMC3    C5 9884   3.225   2.174  14.921  0.1945 -0.0068  0.3603
  668TMC3    C6 9885   3.324   2.263  14.942  0.9076 -0.6933  0.0536
  668TMC3     C 9886   3.341   2.004  14.629 -0.5460  0.5774  0.5889
  668TMC3     O 9887   3.459   1.986  14.609 -0.0404 -0.1394 -0.6619
  668TMC3     H 9888   3.465   2.235  14.645 -0.5012  0.5110  0.7448
  668TMC3    H1 9889   3.139   2.022  14.801 -1.9740  1.2076  0.8591
  668TMC3    H2 9890   3.333   2.316  15.037 -0.4513 -0.4551  0.0400
  668TMC3    C7 9891   3.142   2.139  15.036  0.4292  0.4693 -0.9509
  668TMC3    C8 9892   3.465   2.415  14.852 -1.1988  0.5268  0.0336
  668TMC3    O1 9893   3.190   2.150  15.148 -0.2197  0.7691  0.5630
  668TMC3    O2 9894   3.434   2.489  14.946  0.1044  0.6918 -0.3192
  669TMC3    C1 9895   1.058   2.042  14.379 -0.1223  0.0163  1.0643
  669TMC3    C2 9896   0.948   2.087  14.307  0.5318  0.2981 -0.6026
  669TMC3    C3 9897   0.974   2.161  14.199 -0.3540 -0.1110 -0.0564
  669TMC3    C4 9898   1.193   2.070  14.348 -0.2181 -0.9990  0.3588
  669TMC3    C5 9899   1.205   2.137  14.230 -0.1197 -0.2632 -0.3559
  669TMC3    C6 9900   1.099   2.186  14.156  0.1184 -0.0061 -0.0659
  669TMC3     C 9901   1.033   1.954  14.497 -0.5703  0.4643 -0.7557
  669TMC3     O 9902   0.913   1.938  14.520  0.2418  0.3411 -0.3813
  669TMC3     H 9903   0.845   2.063  14.332  0.1899  1.1745 -1.1588
  669TMC3    H1 9904   1.277   2.049  14.413  0.3522 -1.0137 -0.3962
  669TMC3    H2 9905   1.110   2.250  14.069  0.5342  0.8890  0.6426
  669TMC3    C7 9906   1.340   2.160  14.190  0.2250 -0.1370  0.8717
  669TMC3    C8 9907   0.870   2.210  14.119 -0.4774 -0.4299  0.0400
  669TMC3    O1 9908   1.418   2.173  14.277  0.1419 -0.4829  0.0233
  669TMC3    O2 9909   0.898   2.315  14.059  0.6400  0.4916  0.4032
  670MPD2     C 9910   4.232   4.660  12.901 -0.1483  0.6140  1.1714
  670MPD2    C1 9911   4.274   0.007  13.008 -0.4054 -0.2025 -0.1716
  670MPD2    C2 9912   4.260   4.673  13.134  0.7321 -0.7626 -0.5316
  670MPD2    C3 9913   4.190   4.557  13.160  0.1663  0.3361 -0.5029
  670MPD2    C4 9914   4.133   4.492  13.053 -0.4361 -0.4497  0.3765
  670MPD2    C5 9915   4.163   4.544  12.924 -0.2320 -0.2624 -0.0577
  670MPD2     H 9916   4.310   0.005  13.213 -2.1045  0.7593  0.2025
  670MPD2    H1 9917   4.084   4.396  13.060  1.9048 -1.5430  2.0025
  670MPD2    H2 9918   4.236   4.696  12.799 -0.1880 -0.7230  0.6966
  670MPD2    H3 9919   4.122   4.486  12.843  2.4348 -0.7362 -1.0636
  670MPD2     N 9920   4.168   4.518  13.298  0.0277  0.5393 -0.0238
  670MPD2    H5 9921   4.238   4.541  13.367 -1.6659  0.6330  1.6368
  670MPD2    N1 9922   4.341   0.130  12.998 -0.3474  0.0148  0.4276
  670MPD2    H7 9923   4.380   0.173  13.081  0.5273 -1.1087  0.5873
  671TMC3    C1 9924   4.058   4.419  13.490 -0.2663 -0.2809 -0.4956
  671TMC3    C2 9925   4.180   4.400  13.562  0.0958  0.4543 -0.3752
  671TMC3    C3 9926   4.176   4.320  13.675 -0.2188 -0.1296 -0.3477
  671TMC3    C4 9927   3.948   4.359  13.538 -0.2373 -0.2157 -0.5097
  671TMC3    C5 9928   3.956   4.268  13.642  0.0127  0.1692  0.1662
  671TMC3    C6 9929   4.067   4.257  13.720 -0.4199 -0.6082 -0.1822
  671TMC3     C 9930   4.066   4.432  13.344 -0.6896  0.0862 -0.1014
  671TMC3     O 9931   3.976   4.389  13.270  0.0895 -0.3373  0.6559
  671TMC3     H 9932   4.273   4.391  13.507  0.3301  0.1408  0.0787
  671TMC3    H1 9933   3.854   4.380  13.489 -1.0022  0.2879  1.1560
  671TMC3    H2 9934   4.071   4.185  13.801  1.1596  0.1456  0.3983
  671TMC3    C7 9935   3.850   4.173  13.656  0.3905 -0.4722 -0.8247
  671TMC3    C8 9936   4.300   4.266  13.715 -0.2349  0.9395  0.3103
  671TMC3    O1 9937   3.782   4.161  13.556  0.4230 -0.3484 -0.1138
  671TMC3    O2 9938   4.364   4.216  13.624 -0.2130  0.0832  0.2001
  672MPD2     C 9939   3.845   4.614   1.303 -0.0945 -0.0819  0.5801
  672MPD2    C1 9940   3.831   4.702   1.201 -0.6484  0.3795  0.2416
  672MPD2    C2 9941   3.854   0.113   1.218 -0.1619 -0.2277  0.5185
  672MPD2    C3 9942   3.910   0.150   1.339 -1.0817 -0.3259 -0.1168
  672MPD2    C4 9943   3.926   0.057   1.442  0.2691 -0.0699  0.0899
  672MPD2    C5 9944   3.885   4.652   1.426 -0.2170  0.3054 -0.7010
  672MPD2     H 9945   3.835   0.176   1.132  0.4746 -2.7284 -1.4635
  672MPD2    H1 9946   3.969   0.079   1.539  1.6812 -1.2028 -0.2670
  672MPD2    H2 9947   3.830   4.507   1.295 -0.8328 -0.0252  1.1694
  672MPD2    H3 9948   3.883   4.587   1.513  1.4237  1.2882  0.0718
  672MPD2     N 9949   3.975   0.278   1.371  0.2787 -0.1044 -0.8234
  672MPD2    H5 9950   4.027   0.287   1.458  0.7438 -1.0007 -1.0141
  672MPD2    N1 9951   3.809   4.662   1.069  0.2449  0.2619  0.5264
  672MPD2    H7 9952   3.794   0.009   0.997  2.4318  0.4721  0.2868
  673TMC3    C1 9953   3.808   4.527   0.881  0.4708 -0.1107  0.4582
  673TMC3    C2 9954   3.888   4.437   0.817 -0.8362 -0.1407  0.2144
  673TMC3    C3 9955   3.902   4.447   0.687  0.1391  0.2702 -0.1402
  673TMC3    C4 9956   3.723   4.606   0.810 -0.6392  0.2520  0.1799
  673TMC3    C5 9957   3.726   4.598   0.676  0.5715  0.1107 -0.1160
  673TMC3    C6 9958   3.820   4.523   0.612 -0.0754  0.2282 -0.7077
  673TMC3     C 9959   3.811   4.535   1.027 -0.2082 -0.5823 -0.1211
  673TMC3     O 9960   3.834   4.430   1.082 -0.4437 -0.0538 -0.0343
  673TMC3     H 9961   3.938   4.358   0.872  0.0983 -0.6055 -1.3091
  673TMC3    H1 9962   3.658   4.676   0.861 -0.2090  2.2822 -2.0404
  673TMC3    H2 9963   3.836   4.539   0.506 -0.0592 -0.4630 -0.8107
  673TMC3    C7 9964   3.642   4.687   0.608 -0.3585  0.3796 -0.0889
  673TMC3    C8 9965   4.026   4.416   0.629  1.5855 -0.5957 -0.0700
  673TMC3    O1 9966   3.595   0.062   0.665 -0.1399 -0.0725  0.8048
  673TMC3    O2 9967   4.036   4.409   0.506 -0.3419  0.1289 -0.3477
  674MPD2     C 9968   3.858   0.058  17.622  0.0978  0.4922  0.5450
  674MPD2    C1 9969   3.797   4.655  17.624  0.2618 -0.2805 -0.3535
  674MPD2    C2 9970   3.672   4.638  17.564 -0.3451  0.0189 -0.6937
  674MPD2    C3 9971   3.611   0.020  17.502 -0.5003 -0.0335 -0.1019
  674MPD2    C4 9972   3.675   0.145  17.498 -0.6869  0.7391  0.0256
  674MPD2    C5 9973   3.799   0.163  17.553  0.6275  0.6750  0.0796
  674MPD2     H 9974   3.630   4.538  17.560  1.8392 -1.0040  1.8148
  674MPD2    H1 9975   3.634   0.236  17.456 -1.8507 -0.7611 -2.0691
  674MPD2    H2 9976   3.954   0.076  17.668 -0.7068 -0.6386  2.7041
  674MPD2    H3 9977   3.843   0.262  17.548  0.7224  0.6784  0.9216
  674MPD2     N 9978   3.482   0.001  17.444  0.0343 -0.0545  0.6025
  674MPD2    H5 9979   3.456   4.626  17.444  1.2926 -0.3912  1.5935
  674MPD2    N1 9980   3.871   4.553  17.684 -0.3334  0.3431 -0.0510
  674MPD2    H7 9981   3.964   4.565   0.027 -0.3941  0.5446  0.0363
  675TMC3    C1 9982   3.904   4.348   0.103 -1.1576  0.1373 -0.9789
  675TMC3    C2 9983   3.847   4.249   0.180  0.1556 -0.4518  0.3930
  675TMC3    C3 9984   3.929   4.175   0.254 -0.1059 -0.4391  0.5702
  675TMC3    C4 9985   4.035   4.374   0.112 -0.6002  0.0570  0.0942
  675TMC3    C5 9986   4.111   4.293   0.179  0.3229 -0.1169 -0.1043
  675TMC3    C6 9987   4.069   4.192   0.253  0.0781  0.6347  0.8230
  675TMC3     C 9988   3.820   4.424   0.015 -0.1023  0.2935 -0.6205
  675TMC3     O 9989   3.710   4.380  17.686 -0.0380 -0.1459 -0.3055
  675TMC3     H 9990   3.739   4.243   0.186  0.2047 -1.1470  0.5738
  675TMC3    H1 9991   4.083   4.437   0.038  0.7503 -1.6257 -0.4701
  675TMC3    H2 9992   4.136   4.128   0.309  0.5650  0.4546  0.0231
  675TMC3    C7 9993   4.257   4.292   0.135 -0.5180 -0.3402 -0.1802
  675TMC3    C8 9994   3.862   4.123   0.368  0.0688 -0.0881  0.2108
  675TMC3    O1 9995   4.275   4.260   0.021  0.1130  1.0955 -0.1649
  675TMC3    O2 9996   3.746   4.151   0.380 -0.9679  0.1473  0.3349
  676MPD2     C 9997   2.433   3.064  10.824  0.2945  0.1220 -0.1270
  676MPD2    C1 9998   2.393   3.013  10.949  0.1205 -0.2244  1.0209
  676MPD2    C2 9999   2.443   2.897  10.997  0.0262  0.3366  0.2708
  676MPD2    C310000   2.552   2.833  10.939 -0.0920 -0.5992  0.7234
  676MPD2    C410001   2.598   2.892  10.828  0.2301 -0.1626 -0.2025
  676MPD2    C510002   2.537   3.000  10.764  0.1854  0.0167  0.1085
  676MPD2     H10003   2.407   2.861  11.093 -0.2445 -1.3384 -0.4566
  676MPD2    H110004   2.680   2.852  10.770 -0.5160 -1.3665 -0.4151
  676MPD2    H210005   2.398   3.157  10.780  0.5100 -0.5132 -1.5999
  676MPD2    H310006   2.567   3.026  10.663 -0.6079  0.4273 -0.0182
  676MPD2     N10007   2.605   2.707  10.973 -0.1121  0.3699  0.4490
  676MPD2    H510008   2.683   2.680  10.913  0.1064 -0.7121  1.2171
  676MPD2    N110009   2.295   3.081  11.031  0.3371 -0.0959 -0.6944
  676MPD2    H710010   2.276   3.043  11.123  1.5062  0.2338 -0.3204
  677TMC3    C110011   2.110   3.212  11.081 -0.0433  0.3850  0.1715
  677TMC3    C210012   1.992   3.139  11.066 -0.1248 -0.4623 -0.2364
  677TMC3    C310013   1.930   3.091  11.176 -0.3252 -0.2129  0.1175
  677TMC3    C410014   2.156   3.233  11.214 -0.8105 -0.2584  0.6542
  677TMC3    C510015   2.067   3.202  11.322 -0.2730 -0.6825  0.2031
  677TMC3    C610016   1.948   3.138  11.300  0.0175  0.0797  0.1568
  677TMC3     C10017   2.208   3.177  10.987 -1.2969  0.0686 -0.0490
  677TMC3     O10018   2.173   3.191  10.870  0.8122  0.0429 -0.2772
  677TMC3     H10019   1.962   3.114  10.965 -0.9439  0.2790 -0.1745
  677TMC3    H110020   2.245   3.292  11.233 -0.4106 -0.2481 -1.2199
  677TMC3    H210021   1.875   3.114  11.376 -2.4884 -0.8914 -2.5625
  677TMC3    C710022   2.099   3.220  11.465 -0.4160  0.0295 -0.4451
  677TMC3    C810023   1.817   3.003  11.149 -0.4410 -0.7507  0.1673
  677TMC3    O110024   2.015   3.191  11.544  0.2029 -0.3981 -0.0083
  677TMC3    O210025   1.741   3.035  11.063 -0.1099 -0.6041 -0.0646
  678MPD2     C10026   3.709   2.947   1.738  0.4424  0.5307 -0.3601
  678MPD2    C110027   3.709   2.909   1.605 -0.4868 -0.1788 -0.0098
  678MPD2    C210028   3.593   2.859   1.552 -0.2106 -0.2154  0.3143
  678MPD2    C310029   3.476   2.851   1.630 -0.0197 -0.1266  0.7239
  678MPD2    C410030   3.484   2.880   1.760 -0.2225  0.3742 -0.0610
  678MPD2    C510031   3.596   2.932   1.817 -0.3818  0.7128  0.5555
  678MPD2     H10032   3.590   2.814   1.453 -0.6909 -1.5675  0.9441
  678MPD2    H110033   3.407   2.861   1.835  0.2007  2.3237  0.8808
  678MPD2    H210034   3.799   2.978   1.791  0.4691  1.0402 -0.7022
  678MPD2    H310035   3.588   2.968   1.919  0.5218  0.2020  0.8039
  678MPD2     N10036   3.354   2.814   1.567  0.4379 -0.1885  0.0277
  678MPD2    H510037   3.360   2.787   1.469 -0.1754  1.9451 -0.6006
  678MPD2    N110038   3.823   2.931   1.518  0.8358 -0.3121 -0.4502
  678MPD2    H710039   3.819   2.899   1.422  0.0431  0.6373 -0.7273
  679TMC3    C110040   4.169   2.876   1.294  0.7748 -0.2331  0.0036
  679TMC3    C210041   4.064   2.865   1.383 -0.2680 -0.7800  0.1583
  679TMC3    C310042   4.047   2.979   1.457 -0.0270 -0.6283 -0.4787
  679TMC3    C410043   4.250   2.989   1.267  0.2367 -0.5698 -0.6485
  679TMC3    C510044   4.226   3.097   1.345 -0.0723 -0.1731  0.3407
  679TMC3    C610045   4.131   3.084   1.447 -0.2227 -0.2832  0.1047
  679TMC3     C10046   4.234   2.747   1.265  0.0459 -0.1102 -0.5672
  679TMC3     O10047   4.167   2.643   1.284 -0.1367  0.1329  0.8316
  679TMC3     H10048   4.006   2.776   1.405 -1.5864  0.2351  0.7913
  679TMC3    H110049   4.302   3.002   1.173  1.3744 -1.0064 -0.0759
  679TMC3    H210050   4.104   3.168   1.510 -1.6147 -0.4842 -0.2193
  679TMC3    C710051   4.269   3.215   1.290 -0.5344 -1.3094  0.2856
  679TMC3    C810052   3.940   2.990   1.558 -1.2383  0.1324 -0.7909
  679TMC3    O110053   4.317   3.219   1.176  0.2912 -0.6771  0.3923
  679TMC3    O210054   3.956   3.068   1.651  0.3587 -0.2633  0.2442
  680MPD2     C10055   3.789   1.198  13.550 -0.6534 -0.3990  0.5321
  680MPD2    C110056   3.926   1.206  13.558  0.5595 -0.3272  0.2089
  680MPD2    C210057   3.978   1.304  13.639  0.4687  0.2805  0.6700
  680MPD2    C310058   3.899   1.390  13.713  1.0157  0.4542 -0.1669
  680MPD2    C410059   3.764   1.380  13.686 -0.5057  0.0438 -0.0373
  680MPD2    C510060   3.704   1.284  13.608  0.1134 -0.2522  0.4966
  680MPD2     H10061   4.085   1.315  13.643  0.3914  1.2862 -0.0681
  680MPD2    H110062   3.691   1.448  13.728 -0.4778 -0.5899  1.0469
  680MPD2    H210063   3.747   1.125  13.482  1.3969 -1.7095  0.6658
  680MPD2    H310064   3.595   1.283  13.610  0.1014  0.2054  0.1154
  680MPD2     N10065   3.945   1.490  13.798  0.0913  0.3081  0.5992
  680MPD2    H510066   3.877   1.559  13.825 -1.5488 -0.8578 -0.5670
  680MPD2    N110067   4.019   1.117  13.504  0.4387  1.2038 -0.2068
  680MPD2    H710068   4.118   1.136  13.519  0.3907  0.7978  0.6235
  681TMC3    C110069   4.119   0.922  13.437 -0.3218  0.2450 -0.2342
  681TMC3    C210070   4.107   0.840  13.543 -0.1432  0.3546 -0.3559
  681TMC3    C310071   4.203   0.846  13.645  0.3306  0.4291 -0.6020
  681TMC3    C410072   4.229   1.000  13.431 -0.8039 -0.5765  0.3079
  681TMC3    C510073   4.332   0.994  13.522  0.3810  0.3392 -0.1827
  681TMC3    C610074   4.319   0.916  13.634  0.0224 -0.2857  0.0180
  681TMC3     C10075   3.996   1.004  13.424 -0.1977 -0.8602  0.5449
  681TMC3     O10076   3.891   0.950  13.396 -0.0884  0.5178 -0.5488
  681TMC3     H10077   4.018   0.779  13.554  1.0747 -1.5305 -0.9068
  681TMC3    H110078   4.248   1.052  13.337 -0.6534 -0.0034  0.6593
  681TMC3    H210079   4.393   0.912  13.713  0.0215 -0.2395  0.0210
  681TMC3    C710080   4.477   1.017  13.487 -0.4727  0.7047 -0.6962
  681TMC3    C810081   4.132   0.864  13.768 -0.6438 -0.3810 -0.4048
  681TMC3    O110082   4.563   0.940  13.532  0.5671 -1.1348  0.2202
  681TMC3    O210083   4.052   0.776  13.792  0.0868 -0.3266  0.3130
  682MPD2     C10084   1.546   2.891  10.299 -0.6552 -0.3709 -0.3835
  682MPD2    C110085   1.469   2.781  10.264 -0.0368 -0.3224 -0.3362
  682MPD2    C210086   1.383   2.727  10.358 -0.4866 -0.2875 -0.3052
  682MPD2    C310087   1.393   2.757  10.492  0.5841  0.7996  0.4564
  682MPD2    C410088   1.465   2.868  10.525 -0.0934 -0.4822  0.2716
  682MPD2    C510089   1.536   2.936  10.426  0.2880 -0.4755 -0.2104
  682MPD2     H10090   1.314   2.647  10.335  0.2173 -1.2460  0.9393
  682MPD2    H110091   1.467   2.907  10.627 -0.2233 -2.4243  1.0212
  682MPD2    H210092   1.619   2.950  10.246 -0.7515  0.1034  0.0150
  682MPD2    H310093   1.594   3.019  10.463 -0.1045 -0.1122 -0.4136
  682MPD2     N10094   1.312   2.695  10.590  0.0698  0.3379 -0.0357
  682MPD2    H510095   1.322   2.740  10.680  0.2723  1.0631 -0.4238
  682MPD2    N110096   1.477   2.713  10.145 -0.7027  0.1019 -0.8002
  682MPD2    H710097   1.426   2.625  10.143  1.5122 -1.1828 -1.2268
  683TMC3    C110098   1.182   2.490  10.937  0.0839  0.5447 -0.7387
  683TMC3    C210099   1.216   2.356  10.943 -0.1443  0.3080 -0.3357
  683TMC3    C310100   1.260   2.303  10.828 -0.3793  0.2219 -0.5150
  683TMC3    C410101   1.187   2.571  10.824  0.5544  0.7681  0.0340
  683TMC3    C510102   1.218   2.508  10.710 -0.3011 -1.0144  0.2454
  683TMC3    C610103   1.262   2.376  10.710 -0.2310  0.3327 -1.0396
  683TMC3     C10104   1.162   2.566  11.060  0.9726  0.3517 -0.0806
  683TMC3     O10105   1.213   2.676  11.068  0.4335 -0.3506 -0.0942
  683TMC3     H10106   1.216   2.296  11.033  1.3220  0.2707 -0.3598
  683TMC3    H110107   1.162   2.676  10.837  1.2506  0.7320  1.6553
  683TMC3    H210108   1.293   2.332  10.617 -1.9847 -2.3667 -0.3510
  683TMC3    C710109   1.247   2.571  10.583 -0.5986  0.0990  0.2486
  683TMC3    C810110   1.290   2.164  10.810 -0.8154  0.0816 -0.8744
  683TMC3    O110111   1.230   2.505  10.484  0.3450 -0.1801  0.2235
  683TMC3    O210112   1.331   2.130  10.701 -0.3499 -0.3464  0.2015
  684MPD2     C10113   4.161   1.979  16.101  0.0796 -0.0193  0.3268
  684MPD2    C110114   4.121   2.045  15.982 -0.0351 -0.3097  0.2153
  684MPD2    C210115   4.147   2.179  15.969  0.6145 -0.4453  0.1170
  684MPD2    C310116   4.212   2.251  16.073  0.5286  0.0548  0.4115
  684MPD2    C410117   4.255   2.181  16.186  0.0630  0.1303 -0.3484
  684MPD2    C510118   4.226   2.048  16.205 -0.4719 -0.0530 -1.1715
  684MPD2     H10119   4.124   2.235  15.879 -1.5965  0.9411  1.5346
  684MPD2    H110120   4.302   2.237  16.267  0.4734 -0.3581 -0.2502
  684MPD2    H210121   4.139   1.875  16.123 -0.9986  0.2859  0.6647
  684MPD2    H310122   4.258   1.998  16.295 -1.3761 -0.6051 -1.1498
  684MPD2     N10123   4.241   2.392  16.068 -0.0282  0.1271  0.5053
  684MPD2    H510124   4.296   2.430  16.144 -0.3072  2.2519 -0.3559
  684MPD2    N110125   4.066   1.974  15.878 -0.0765 -0.8268  0.0208
  684MPD2    H710126   4.029   2.037  15.807  0.7440 -0.8014 -0.3835
  685TMC3    C110127   4.018   1.810  15.729  0.2634  0.2075 -0.4217
  685TMC3    C210128   3.947   1.896  15.655 -0.7420  0.0269  0.0810
  685TMC3    C310129   3.972   1.905  15.521  0.0441  0.4827  0.4101
  685TMC3    C410130   4.110   1.725  15.671  0.2743  0.1254 -0.4266
  685TMC3    C510131   4.138   1.741  15.538  0.0828  0.6033  0.4951
  685TMC3    C610132   4.067   1.824  15.464 -0.3326 -0.2855 -0.0804
  685TMC3     C10133   4.057   1.834  15.865 -0.2681 -0.3272 -0.5759
  685TMC3     O10134   4.106   1.747  15.942  0.3172 -0.1924 -0.1042
  685TMC3     H10135   3.885   1.964  15.714 -2.5047  1.2935 -3.2361
  685TMC3    H110136   4.159   1.657  15.741  2.2302  0.4953 -1.4280
  685TMC3    H210137   4.090   1.834  15.359 -0.8366 -0.1118 -0.1743
  685TMC3    C710138   4.274   1.722  15.497  0.6361 -0.4092 -0.1439
  685TMC3    C810139   3.910   2.014  15.454 -0.4659  0.1069  0.1383
  685TMC3    O110140   4.291   1.688  15.382 -0.3065  0.2452 -0.2290
  685TMC3    O210141   3.954   2.054  15.349 -0.6833  0.2458 -0.6336
  686MPD2     C10142   0.754   2.253  15.461  0.2597 -0.4889  0.6012
  686MPD2    C110143   0.798   2.150  15.549 -0.4422 -0.5612 -0.9037
  686MPD2    C210144   0.828   2.028  15.492 -0.3897  0.2521  0.3860
  686MPD2    C310145   0.821   2.000  15.353 -0.1249  1.0910  0.1050
  686MPD2    C410146   0.781   2.105  15.277 -0.1011  0.2420  0.3130
  686MPD2    C510147   0.764   2.229  15.331  0.5630  0.8930  1.1272
  686MPD2     H10148   0.855   1.950  15.562 -0.7057  0.6748  0.9727
  686MPD2    H110149   0.787   2.091  15.170 -0.8061  2.1062  0.0264
  686MPD2    H210150   0.720   2.350  15.497 -1.7722 -0.8464 -0.3564
  686MPD2    H310151   0.726   2.307  15.265  1.9624  1.1446  0.6330
  686MPD2     N10152   0.881   1.886  15.291 -0.1270  0.0636 -0.1728
  686MPD2    H510153   0.914   1.902  15.197  0.6992 -0.8637 -0.0409
  686MPD2    N110154   0.793   2.180  15.686  0.0948 -0.4675  0.0285
  686MPD2    H710155   0.734   2.258  15.713 -1.8046 -1.9655  0.2182
  687TMC3    C110156   0.869   1.708  15.467 -0.0886  0.1045  0.3517
  687TMC3    C210157   0.741   1.735  15.496  0.1780  0.1351 -0.0530
  687TMC3    C310158   0.708   1.722  15.627 -0.1973 -0.1405 -0.0022
  687TMC3    C410159   0.958   1.656  15.561  0.6178  0.3148  0.4041
  687TMC3    C510160   0.916   1.641  15.688  0.3918 -0.3932  0.5237
  687TMC3    C610161   0.789   1.670  15.724  0.1861  0.2911  0.9667
  687TMC3     C10162   0.932   1.765  15.349 -0.0334 -0.7067  0.3356
  687TMC3     O10163   1.008   1.683  15.296  0.0193 -0.3618  0.1467
  687TMC3     H10164   0.672   1.780  15.426 -1.6888  1.4956  2.6542
  687TMC3    H110165   1.059   1.637  15.529  0.5323 -1.1699  0.9678
  687TMC3    H210166   0.760   1.660  15.828  1.1369  2.7582  1.4574
  687TMC3    C710167   1.024   1.664  15.781 -0.1591  0.2934  0.3483
  687TMC3    C810168   0.570   1.771  15.659 -0.2266  0.0289  0.1893
  687TMC3    O110169   1.097   1.758  15.758  0.3822 -0.4602  0.0080
  687TMC3    O210170   0.517   1.736  15.766 -0.6710 -0.0501  0.0870
  688MPD2     C10171   4.484   1.154  17.056  0.0379  0.6063  0.2866
  688MPD2    C110172   4.495   1.022  17.102  0.0478  0.1589  0.6631
  688MPD2    C210173   4.568   0.937  17.018  0.1706  0.1913 -0.0921
  688MPD2    C310174   4.644   0.985  16.911 -0.3001 -0.0098  0.1233
  688MPD2    C410175   4.625   1.115  16.870  0.1004  0.3492 -0.4579
  688MPD2    C510176   4.542   1.192  16.940 -0.2879  0.1639  0.6491
  688MPD2     H10177   4.572   0.835  17.055  0.5783  0.9373  1.9017
  688MPD2    H110178   4.668   1.167  16.785 -0.6815 -0.1250 -1.1437
  688MPD2    H210179   4.426   1.236  17.097 -1.8963 -1.8863  2.5523
  688MPD2    H310180   4.531   1.295  16.908  0.4380 -0.1521 -0.6408
  688MPD2     N10181   0.011   0.908  16.832  0.0899 -0.1482  0.3783
  688MPD2    H510182   0.068   0.957  16.764  1.6455 -1.2797  0.8583
  688MPD2    N110183   4.446   0.962  17.219  0.0046  0.1967 -0.0293
  688MPD2    H710184   4.453   0.863  17.237 -0.7395  0.4056  1.4311
  689TMC3    C110185   4.338   0.985  17.438  0.6973  0.2622 -0.2240
  689TMC3    C210186   4.313   1.076  17.539  0.0584  0.0010  0.2385
  689TMC3    C310187   4.268   1.022  17.656  0.5776  0.1239  0.1261
  689TMC3    C410188   4.325   0.853  17.446 -0.2526 -0.1642 -0.1305
  689TMC3    C510189   4.279   0.806  17.564  0.2660 -0.4944  0.2184
  689TMC3    C610190   4.256   0.883  17.668  0.4156 -0.2350  0.4918
  689TMC3     C10191   4.399   1.050  17.322 -0.2377 -0.3010 -0.3251
  689TMC3     O10192   4.396   1.171  17.323  0.2179 -0.1822 -0.3040
  689TMC3     H10193   4.315   1.184  17.531 -0.2615  0.0780  1.3132
  689TMC3    H110194   4.360   0.784  17.370  0.6630  2.7038 -2.2898
  689TMC3    H210195   4.208   0.831   0.056 -1.9009 -1.6386 -1.7486
  689TMC3    C710196   4.260   0.662  17.579 -0.4157  0.3179 -0.6002
  689TMC3    C810197   4.221   1.092   0.075 -1.3244 -0.6210 -0.2486
  689TMC3    O110198   4.266   0.619  17.694 -0.0593 -0.3333  0.6768
  689TMC3    O210199   4.181   1.031   0.177  0.0681 -0.2050  0.2629
  690MPD2     C10200   2.813   2.754  15.701  0.2505  0.8224 -0.1726
  690MPD2    C110201   2.719   2.732  15.600 -0.3241 -1.0206  0.2594
  690MPD2    C210202   2.732   2.790  15.478  0.0917 -0.4992  0.0719
  690MPD2    C310203   2.847   2.854  15.441 -0.6168 -0.0722  0.3432
  690MPD2    C410204   2.942   2.872  15.540  0.6227 -0.0330  0.3180
  690MPD2    C510205   2.926   2.824  15.666  0.2236 -0.9382  0.1271
  690MPD2     H10206   2.661   2.767  15.399 -0.2684  0.2316  0.1879
  690MPD2    H110207   3.031   2.934  15.534  1.5007 -1.3710 -0.4110
  690MPD2    H210208   2.820   2.724  15.805 -2.6033  0.4013 -0.0885
  690MPD2    H310209   3.004   2.825  15.741  0.0804 -2.3867  0.3104
  690MPD2     N10210   2.857   2.908  15.312  0.1869  0.4344 -0.0523
  690MPD2    H510211   2.772   2.909  15.256 -1.7729  0.4213  2.8890
  690MPD2    N110212   2.604   2.645  15.622  0.2015 -0.2785  0.5509
  690MPD2    H710213   2.548   2.634  15.538 -1.2147  1.9561  1.1993
  691TMC3    C110214   2.435   2.542  15.731 -0.5901  0.4437 -0.5717
  691TMC3    C210215   2.347   2.574  15.827 -0.1244  0.0000  0.1812
  691TMC3    C310216   2.221   2.536  15.803  0.2842  0.1127 -0.4705
  691TMC3    C410217   2.405   2.472  15.617  0.6755 -0.2969  0.1033
  691TMC3    C510218   2.273   2.432  15.605  0.5442  0.3884 -0.2566
  691TMC3    C610219   2.174   2.462  15.700 -0.3763 -0.9426  0.6897
  691TMC3     C10220   2.573   2.591  15.742  0.2465 -0.4104 -0.0191
  691TMC3     O10221   2.623   2.614  15.854 -0.7025  0.0166  0.1061
  691TMC3     H10222   2.380   2.648  15.899 -1.6797  1.9849 -1.1347
  691TMC3    H110223   2.481   2.443  15.546  0.7439 -0.5763  0.2877
  691TMC3    H210224   2.070   2.434  15.687 -0.1736 -1.6513  0.5980
  691TMC3    C710225   2.228   2.379  15.474  0.2871  0.1295 -0.5684
  691TMC3    C810226   2.135   2.597  15.894  0.0148  0.6392 -0.0980
  691TMC3    O110227   2.295   2.421  15.385  0.0052  0.1320 -0.6719
  691TMC3    O210228   2.179   2.614  16.004  0.1137 -0.0768 -0.5565
  692TMC3    C110229   3.532   3.605  15.450 -0.1810  0.0106 -0.3130
  692TMC3    C210230   3.664   3.632  15.422 -0.0698 -0.3771 -0.3069
  692TMC3    C310231   3.767   3.544  15.422 -0.4339  0.2722  0.3263
  692TMC3    C410232   3.506   3.471  15.471  0.2378 -0.8363 -0.1330
  692TMC3    C510233   3.611   3.387  15.494  0.0712 -0.5041 -0.4240
  692TMC3    C610234   3.745   3.423  15.472 -0.6618 -0.3772  0.0864
  692TMC3     C10235   3.484   3.663  15.581 -0.1848 -0.2550 -0.3261
  692TMC3     O10236   3.361   3.655  15.603 -0.2476  0.0615 -0.0495
  692TMC3     H10237   3.683   3.727  15.374 -3.2645  0.6403  0.4360
  692TMC3    H110238   3.402   3.441  15.478  0.3311 -1.3835 -0.9988
  692TMC3    H210239   3.822   3.348  15.460  0.0105  0.4996 -0.9966
  692TMC3    C710240   3.584   3.249  15.480  0.4847  0.2365  0.4610
  692TMC3    C810241   3.887   3.603  15.451 -0.4195 -0.0272 -0.5554
  692TMC3    O110242   3.492   3.209  15.408 -0.5048 -0.5442 -0.1848
  692TMC3    O210243   3.918   3.697  15.385 -0.6238  0.3047  0.7949
  693MPD2     C10244   3.369   1.633  11.647  0.6710 -0.2084  0.4715
  693MPD2    C110245   3.343   1.636  11.514 -0.9173 -0.1853  0.4893
  693MPD2    C210246   3.446   1.606  11.425 -0.9611 -0.6906 -0.5151
  693MPD2    C310247   3.574   1.575  11.472 -0.7564 -0.4691  0.7612
  693MPD2    C410248   3.595   1.577  11.606 -0.3983  0.7743  0.6499
  693MPD2    C510249   3.498   1.603  11.694 -0.2321 -0.2832 -0.0653
  693MPD2     H10250   3.419   1.600  11.320 -0.4362 -2.4290 -0.5454
  693MPD2    H110251   3.689   1.545  11.650 -0.0936 -0.7207 -1.0775
  693MPD2    H210252   3.303   1.678  11.721 -0.6748 -0.8085 -0.3573
  693MPD2    H310253   3.516   1.594  11.801 -2.6324  0.0460  0.3728
  693MPD2     N10254   3.679   1.531  11.390  0.5024 -0.4851 -0.8547
  693MPD2    H510255   3.768   1.510  11.435 -0.5228  0.1080  1.4909
  693MPD2    N110256   3.211   1.663  11.474  0.6430 -0.3631  0.0896
  693MPD2    H710257   3.150   1.689  11.551  0.3945 -3.1044  0.7938
  694TMC3    C110258   3.034   1.709  11.327 -0.5835 -0.0180 -0.1664
  694TMC3    C210259   2.981   1.711  11.200 -0.6570  0.2903 -0.3996
  694TMC3    C310260   2.847   1.738  11.186  0.4506  0.3342 -0.5885
  694TMC3    C410261   2.948   1.720  11.434  0.8827 -0.3246  0.2685
  694TMC3    C510262   2.815   1.747  11.419  0.4172  0.6962 -0.3014
  694TMC3    C610263   2.765   1.753  11.292  0.2302 -0.2647  0.3936
  694TMC3     C10264   3.169   1.664  11.342 -0.4930 -0.2226 -0.2905
  694TMC3     O10265   3.226   1.638  11.235  0.5631 -0.3579  0.0253
  694TMC3     H10266   3.042   1.687  11.113  2.6137 -1.6346  2.4387
  694TMC3    H110267   2.976   1.702  11.537  2.3639 -2.0026 -0.4307
  694TMC3    H210268   2.659   1.757  11.272  0.7200  4.0020 -1.2339
  694TMC3    C710269   2.721   1.718  11.528  0.6564 -0.1738  0.3777
  694TMC3    C810270   2.779   1.710  11.059 -0.1557  0.3635  0.1144
  694TMC3    O110271   2.771   1.652  11.618 -0.1119 -0.0474 -0.6249
  694TMC3    O210272   2.661   1.673  11.065 -0.4593 -0.7413  0.1599
  695MPD2     C10273   4.242   3.650  13.163 -0.0770  0.3356 -0.2529
  695MPD2    C110274   4.180   3.624  13.280  0.3582 -0.3870 -0.4035
  695MPD2    C210275   4.044   3.622  13.290  0.2946  0.1065  0.2750
  695MPD2    C310276   3.969   3.638  13.181 -0.3334 -0.9521  0.4631
  695MPD2    C410277   4.025   3.682  13.061 -0.5511  0.2587  0.8493
  695MPD2    C510278   4.166   3.675  13.053 -0.4093 -0.3791  0.1077
  695MPD2     H10279   4.001   3.615  13.389  0.7898  0.1313  0.4872
  695MPD2    H110280   3.966   3.709  12.974  0.5005  0.5968  0.2269
  695MPD2    H210281   4.350   3.649  13.156 -0.0749 -1.9555  0.1907
  695MPD2    H310282   4.219   3.704  12.963 -1.1951 -0.8560 -0.5040
  695MPD2     N10283   3.830   3.643  13.207 -0.2623  0.0988  0.8140
  695MPD2    H510284   3.789   3.627  13.299  1.6229  0.3747  1.7176
  695MPD2    N110285   4.246   3.607  13.409 -0.1171 -0.1274 -0.1156
  695MPD2    H710286   4.188   3.574  13.486  1.4109 -0.5021  0.8758
  696TMC3    C110287   3.607   3.680  13.201 -0.0300 -0.0037 -0.3689
  696TMC3    C210288   3.605   3.606  13.317 -0.5241 -0.0242 -0.0672
  696TMC3    C310289   3.530   3.660  13.421  0.0228 -0.0582 -0.1010
  696TMC3    C410290   3.522   3.790  13.183 -0.1648 -0.1298 -0.4820
  696TMC3    C510291   3.446   3.831  13.293 -0.1086  0.4474  0.0817
  696TMC3    C610292   3.434   3.749  13.403 -0.1070 -0.1103 -0.3059
  696TMC3     C10293   3.731   3.681  13.124  0.1662  0.0523  0.2631
  696TMC3     O10294   3.739   3.736  13.013 -0.1651 -0.0124 -0.6849
  696TMC3     H10295   3.675   3.528  13.344 -0.2386  0.8422  1.7216
  696TMC3    H110296   3.526   3.854  13.096 -0.3391  0.0572 -0.3517
  696TMC3    H210297   3.371   3.775  13.487  0.8490  0.8092  0.1178
  696TMC3    C710298   3.410   3.970  13.308 -0.6273  0.2575 -0.2032
  696TMC3    C810299   3.622   3.718  13.514 -0.1110 -0.6785 -0.5337
  696TMC3    O110300   3.392   4.032  13.204  0.1854 -0.2673 -0.6333
  696TMC3    O210301   3.730   3.749  13.472 -0.4690  0.2892 -0.7948
  697MPD2     C10302   3.283   0.652  15.664 -0.7236 -0.4195 -0.1738
  697MPD2    C110303   3.355   0.608  15.549  0.6248 -0.4934  1.0565
  697MPD2    C210304   3.371   0.714  15.456  1.0765 -0.2840 -0.1867
  697MPD2    C310305   3.323   0.840  15.469  0.4782 -0.6327  0.1335
  697MPD2    C410306   3.245   0.877  15.580  0.1613 -0.3551  0.8506
  697MPD2    C510307   3.234   0.783  15.680 -0.3907  0.1447  0.1665
  697MPD2     H10308   3.441   0.693  15.376 -0.5134 -2.0729 -1.0916
  697MPD2    H110309   3.197   0.974  15.582  1.6958  0.4509 -1.5025
  697MPD2    H210310   3.256   0.598  15.754 -2.1497  0.2179 -0.2207
  697MPD2    H310311   3.177   0.804  15.769 -0.6987  0.4240 -0.0977
  697MPD2     N10312   3.346   0.921  15.363 -0.4132 -0.2767 -0.2502
  697MPD2    H510313   3.386   0.872  15.283 -1.7091 -0.0424 -1.0572
  697MPD2    N110314   3.396   0.472  15.522  0.2804 -0.3968 -0.1418
  697MPD2    H710315   3.410   0.452  15.423 -1.3483 -1.6152 -0.1284
  698TMC3    C110316   3.415   1.111  15.253 -0.4499  0.7679  0.1547
  698TMC3    C210317   3.502   1.207  15.286  0.3014  0.5533 -0.4716
  698TMC3    C310318   3.590   1.248  15.192  0.4511 -0.4240  0.2062
  698TMC3    C410319   3.401   1.062  15.130 -0.2794 -0.2153  0.6030
  698TMC3    C510320   3.496   1.106  15.035 -0.0474 -0.4859  0.4867
  698TMC3    C610321   3.599   1.194  15.062 -0.1899  0.0807  0.0867
  698TMC3     C10322   3.341   1.057  15.360 -0.6715  0.1510  0.0975
  698TMC3     O10323   3.303   1.138  15.443 -0.2248  0.4072 -0.1165
  698TMC3     H10324   3.517   1.234  15.389  2.1603  0.6122 -0.7570
  698TMC3    H110325   3.323   0.994  15.099 -0.3133  0.1509 -0.1143
  698TMC3    H210326   3.658   1.246  14.988 -0.4730  0.2063 -0.0511
  698TMC3    C710327   3.510   1.023  14.916 -0.1250  0.1573  0.1500
  698TMC3    C810328   3.628   1.386  15.215 -0.7332 -0.5539 -0.3052
  698TMC3    O110329   3.416   0.969  14.860  0.0603  0.0714 -0.0464
  698TMC3    O210330   3.547   1.455  15.272 -0.1245  0.2218  0.0031
  699TMC3    C110331   4.087   3.498  12.776 -0.5362  1.0367  0.1319
  699TMC3    C210332   4.193   3.427  12.822 -0.3703  0.3273  0.5138
  699TMC3    C310333   4.170   3.320  12.903 -0.2004  0.1420 -0.2917
  699TMC3    C410334   3.956   3.473  12.815  0.1456  0.3870 -0.7063
  699TMC3    C510335   3.935   3.381  12.909  1.1571  0.2437 -0.7992
  699TMC3    C610336   4.040   3.302  12.946 -0.0430  0.1594  0.1223
  699TMC3     C10337   4.108   3.610  12.686  0.2873  0.1579  0.4280
  699TMC3     O10338   4.013   3.658  12.629  0.7031 -0.0765  0.0293
  699TMC3     H10339   4.293   3.450  12.785 -0.4858 -0.3699 -0.2404
  699TMC3    H110340   3.871   3.521  12.769  0.4693  0.0754 -1.6329
  699TMC3    H210341   4.012   3.219  13.009 -0.6878 -1.0827 -1.8000
  699TMC3    C710342   3.794   3.342  12.942 -0.0371  0.0008  0.5498
  699TMC3    C810343   4.265   3.320  13.014  0.2202 -0.2943  0.0676
  699TMC3    O110344   3.719   3.440  12.943  0.2452 -0.0294 -0.6434
  699TMC3    O210345   4.386   3.300  13.000 -1.0165 -0.4232 -0.2007
  700TMC3    C110346   2.552   1.341  16.920 -0.1177 -0.4438 -0.1342
  700TMC3    C210347   2.511   1.224  16.982  0.7862 -1.1042  0.3518
  700TMC3    C310348   2.524   1.211  17.120 -0.7480  0.1365 -0.2125
  700TMC3    C410349   2.605   1.442  16.993  0.7475  0.3615  0.1992
  700TMC3    C510350   2.623   1.425  17.127 -0.2328  0.0646 -0.5279
  700TMC3    C610351   2.581   1.312  17.193 -0.4760 -0.2536 -0.0786
  700TMC3     C10352   2.542   1.349  16.771  0.0061  0.4166  0.6095
  700TMC3     O10353   2.465   1.285  16.702  0.2098 -0.3080  0.5498
  700TMC3     H10354   2.454   1.149  16.928  0.1905 -0.1751 -0.2993
  700TMC3    H110355   2.627   1.538  16.947 -0.5608 -0.0560 -1.2765
  700TMC3    H210356   2.613   1.287  17.294 -1.5612 -1.9957 -0.1800
  700TMC3    C710357   2.673   1.538  17.204 -0.4696 -0.3764  0.9972
  700TMC3    C810358   2.567   1.078  17.179  0.1159  1.1960  0.3431
  700TMC3    O110359   2.703   1.639  17.137 -0.2950 -0.0400  0.1028
  700TMC3    O210360   2.552   1.062  17.297 -0.1866 -0.3281  0.1922
  701TMC3    C110361   2.913   4.695  15.663  0.6160  0.1111 -0.7255
  701TMC3    C210362   2.937   4.653  15.536  0.2218 -0.9734 -0.1295
  701TMC3    C310363   3.043   4.714  15.468  0.1618 -0.2580 -0.6276
  701TMC3    C410364   2.985   0.069  15.724 -0.2313  0.4155  0.1283
  701TMC3    C510365   3.080   0.138  15.653 -0.3513  0.5441 -0.1578
  701TMC3    C610366   3.115   0.095  15.528  0.2981 -0.2752  0.0774
  701TMC3     C10367   2.805   4.656  15.741  0.2796 -1.1238  0.5178
  701TMC3     O10368   2.745   0.024  15.796 -0.1155 -0.1564 -0.0587
  701TMC3     H10369   2.888   4.564  15.499 -0.8522 -0.3349 -0.2428
  701TMC3    H110370   2.963   0.112  15.821  1.3918  0.5757  0.4161
  701TMC3    H210371   3.189   0.148  15.468 -1.2656 -1.8091 -3.2195
  701TMC3    C710372   3.074   0.282  15.667 -0.1676  0.0967 -0.1162
  701TMC3    C810373   3.039   0.002  15.326 -0.4136  0.2737 -0.2663
  701TMC3    O110374   3.074   0.337  15.558  0.3820  0.1170  0.0336
  701TMC3    O210375   3.139   0.049  15.271 -0.3989 -0.1944  0.5093
  702MPD2     C10376   3.029   2.364  10.531  0.1440 -0.7680 -0.2700
  702MPD2    C110377   2.950   2.450  10.600 -0.1833  0.7015 -0.1681
  702MPD2    C210378   2.925   2.571  10.537 -0.3148  0.6119  0.2547
  702MPD2    C310379   2.989   2.614  10.423 -0.1514  0.5090 -0.3854
  702MPD2    C410380   3.081   2.531  10.360  0.1793  0.4980 -0.1732
  702MPD2    C510381   3.098   2.407  10.414 -0.7123  0.3312 -0.3978
  702MPD2     H10382   2.836   2.621  10.574 -1.6852 -1.4427 -0.2710
  702MPD2    H110383   3.128   2.554  10.266  0.7661 -1.2951 -0.3146
  702MPD2    H210384   3.050   2.269  10.578  0.1924 -0.7778 -0.3122
  702MPD2    H310385   3.170   2.337  10.373 -0.5176  0.1890  0.1956
  702MPD2     N10386   2.968   2.735  10.353 -0.0120  0.0122 -0.5932
  702MPD2    H510387   3.017   2.742  10.264  0.9881 -0.6108 -0.1000
  702MPD2    N110388   2.884   2.403  10.712 -0.5299  0.3713 -0.0015
  702MPD2    H710389   2.880   2.305  10.738  0.3610  1.1170  2.8648
  703TMC3    C110390   2.878   2.943  10.296 -0.3121  0.4443 -1.3991
  703TMC3    C210391   2.779   3.037  10.314  0.0463 -0.2746 -0.4706
  703TMC3    C310392   2.801   3.163  10.264  0.0339 -0.6668 -0.9543
  703TMC3    C410393   2.992   2.972  10.219  0.2970 -0.4682 -0.1914
  703TMC3    C510394   2.999   3.098  10.164 -0.7146 -0.2268  0.2961
  703TMC3    C610395   2.911   3.195  10.188  1.0463 -0.6801 -0.0486
  703TMC3     C10396   2.883   2.839  10.394 -0.4267  0.1505  0.1378
  703TMC3     O10397   2.809   2.853  10.490  0.0427  0.1444  0.1148
  703TMC3     H10398   2.697   3.020  10.384 -0.2196  1.9453 -0.2454
  703TMC3    H110399   3.081   2.910  10.223  1.1210  0.6486 -1.1909
  703TMC3    H210400   2.926   3.293  10.143 -0.9701 -0.2179  0.2913
  703TMC3    C710401   3.130   3.140  10.109 -0.2419 -0.0210  0.7101
  703TMC3    C810402   2.715   3.270  10.311  0.1755 -0.2963  0.3086
  703TMC3    O110403   3.229   3.082  10.154  0.1281  0.2607  0.1520
  703TMC3    O210404   2.775   3.374  10.301  0.5102 -0.1914  0.4631
  704TMC3    C110405   0.277   0.672  12.395  0.5206  0.2149 -0.5113
  704TMC3    C210406   0.406   0.704  12.354 -0.1308  0.2695 -0.3630
  704TMC3    C310407   0.502   0.608  12.382 -0.3207 -0.1484  0.4154
  704TMC3    C410408   0.251   0.547  12.448 -0.2933  0.3707 -0.0584
  704TMC3    C510409   0.352   0.460  12.469 -0.2861  1.2390 -0.5856
  704TMC3    C610410   0.476   0.482  12.431 -0.6062  0.3254 -0.5404
  704TMC3     C10411   0.176   0.726  12.315  0.5446 -0.0967 -0.2497
  704TMC3     O10412   0.061   0.705  12.353 -0.1301  0.3983  0.2590
  704TMC3     H10413   0.437   0.805  12.329  1.5171 -0.0196  0.4615
  704TMC3    H110414   0.152   0.528  12.489  0.1701  0.5150  1.1022
  704TMC3    H210415   0.546   0.399  12.431  0.8352  1.5361 -0.8647
  704TMC3    C710416   0.331   0.321  12.510  1.1187  0.0456  0.0052
  704TMC3    C810417   0.600   0.617  12.278 -0.5846 -0.6073  0.3655
  704TMC3    O110418   0.404   0.231  12.476 -0.1601  0.5389 -0.4786
  704TMC3    O210419   0.559   0.691  12.185  0.2185  0.0065  0.3617
  705MPD2     C10420   3.962   3.133  16.264 -0.4895 -1.0208  0.4093
  705MPD2    C110421   3.999   3.264  16.301 -0.6698 -0.1842 -0.1225
  705MPD2    C210422   3.903   3.333  16.377 -0.1424  0.0118  0.4634
  705MPD2    C310423   3.777   3.288  16.401  0.3712  0.1875  1.0798
  705MPD2    C410424   3.737   3.162  16.359 -0.0226  0.4645  0.5422
  705MPD2    C510425   3.838   3.087  16.304  0.3438  0.8023  0.0201
  705MPD2     H10426   3.943   3.421  16.426  2.0032 -0.3779 -0.5808
  705MPD2    H110427   3.644   3.114  16.386 -0.5571  1.0469 -0.2540
  705MPD2    H210428   4.022   3.073  16.196 -1.3082 -2.4428  0.9370
  705MPD2    H310429   3.794   2.999  16.258  0.9765  1.8732 -2.6470
  705MPD2     N10430   3.678   3.354  16.471  0.4454  0.0660  0.5062
  705MPD2    H510431   3.587   3.311  16.458  0.3585  0.4154 -0.0663
  705MPD2    N110432   4.123   3.330  16.276  0.1061  0.0431 -0.5890
  705MPD2    H710433   4.121   3.428  16.300 -0.8497  0.0517 -0.7273
  706TMC3    C110434   4.551   3.384  16.067 -0.2613 -0.0567  0.3323
  706TMC3    C210435   4.559   3.511  16.114 -0.1491  0.6021  0.5296
  706TMC3    C310436   4.449   3.571  16.166 -0.5265  0.1816  0.1061
  706TMC3    C410437   4.449   3.305  16.099  0.1546 -0.4626 -0.1679
  706TMC3    C510438   4.345   3.363  16.167 -0.3185  0.8087  0.0436
  706TMC3    C610439   4.339   3.498  16.187 -0.2219 -0.4833  0.2675
  706TMC3     C10440   4.654   3.344  15.976  0.6139 -0.2458  0.2945
  706TMC3     O10441   0.032   3.415  15.961 -0.0127 -0.2199 -0.0864
  706TMC3     H10442   4.633   3.579  16.074 -0.4714 -0.1157 -1.3044
  706TMC3    H110443   4.457   3.198  16.082 -1.0262 -0.7195  0.8906
  706TMC3    H210444   4.241   3.536  16.214  0.2441  1.4244 -0.7503
  706TMC3    C710445   4.226   3.281  16.192 -0.3754 -0.2701  0.1018
  706TMC3    C810446   4.431   3.706  16.123 -0.5850  0.2615 -0.1412
  706TMC3    O110447   4.240   3.163  16.157 -0.2119 -0.2497  0.1306
  706TMC3    O210448   4.487   3.742  16.018 -0.7338 -0.2667  1.0290
  707TMC3    C110449   1.238   2.961   1.068 -0.7991  0.7385 -0.7648
  707TMC3    C210450   1.284   2.920   1.191  0.0878 -0.7539  0.0410
  707TMC3    C310451   1.277   3.002   1.296 -0.5045  0.4034  0.1681
  707TMC3    C410452   1.194   3.093   1.049  0.8700  0.3185 -0.1636
  707TMC3    C510453   1.196   3.173   1.158 -0.4776 -0.1887 -0.8198
  707TMC3    C610454   1.235   3.129   1.284  0.5116  0.8457  0.1954
  707TMC3     C10455   1.284   2.882   0.951  0.0269 -0.1266  0.2087
  707TMC3     O10456   1.305   2.766   0.977 -0.6774  0.2295  0.4910
  707TMC3     H10457   1.329   2.822   1.201  2.5741  0.2770 -0.8228
  707TMC3    H110458   1.143   3.132   0.962 -2.4346 -0.8129  1.2894
  707TMC3    H210459   1.217   3.186   1.374  2.4638  1.5198  0.1571
  707TMC3    C710460   1.130   3.300   1.148 -0.5147 -0.1158 -0.0626
  707TMC3    C810461   1.342   2.968   1.428  0.9643 -0.4547 -0.1160
  707TMC3    O110462   1.034   3.313   1.069  0.3350 -0.7037 -0.3789
  707TMC3    O210463   1.388   3.070   1.487  0.1563  0.1109  0.7693
  708MPD2     C10464   2.827   2.444  13.533  0.0719 -0.1101 -0.2010
  708MPD2    C110465   2.730   2.367  13.591 -0.1067 -0.2378 -0.4009
  708MPD2    C210466   2.760   2.279  13.692  1.0926 -0.2911 -0.5395
  708MPD2    C310467   2.892   2.262  13.734  0.1778 -0.1313  0.2766
  708MPD2    C410468   2.988   2.341  13.679  0.3376 -0.0550 -0.1282
  708MPD2    C510469   2.951   2.427  13.579 -0.2911 -1.0326  0.6714
  708MPD2     H10470   2.679   2.239  13.751 -0.3460  1.2885 -1.4523
  708MPD2    H110471   3.091   2.339  13.711  0.2010  0.2768  0.3274
  708MPD2    H210472   2.816   2.525  13.462  0.7827  0.0372 -0.1445
  708MPD2    H310473   3.027   2.491  13.537 -2.2515 -0.1404 -1.5041
  708MPD2     N10474   2.934   2.171  13.834 -0.9929  0.2665 -0.8956
  708MPD2    H510475   3.031   2.174  13.863 -0.7931 -0.2970 -1.4850
  708MPD2    N110476   2.596   2.398  13.567  0.1103  0.4610 -0.2712
  708MPD2    H710477   2.523   2.351  13.620  2.6146 -1.6600  1.3020
  709TMC3    C110478   2.408   2.464  13.477  0.3943  0.0538  0.4579
  709TMC3    C210479   2.360   2.392  13.375  0.0535 -0.3372 -0.1204
  709TMC3    C310480   2.253   2.304  13.398  0.3047  0.1807 -0.2377
  709TMC3    C410481   2.364   2.440  13.606  0.9113 -0.5169 -0.3377
  709TMC3    C510482   2.257   2.353  13.629  0.0440 -0.5306 -0.5732
  709TMC3    C610483   2.202   2.283  13.519 -0.1407  0.4215 -0.3677
  709TMC3     C10484   2.547   2.472  13.470 -0.0677 -0.1655  0.4665
  709TMC3     O10485   2.604   2.519  13.376 -0.2702  0.3044  0.7477
  709TMC3     H10486   2.401   2.406  13.275  0.7374  0.7656  0.3152
  709TMC3    H110487   2.394   2.504  13.688 -3.2939  0.5578  0.3756
  709TMC3    H210488   2.129   2.203  13.530  1.4633 -1.2002 -1.6756
  709TMC3    C710489   2.307   2.265  13.734 -0.3639  0.5786  0.1071
  709TMC3    C810490   2.219   2.206  13.300 -0.2982 -0.8513  0.8536
  709TMC3    O110491   2.427   2.284  13.758 -0.4809 -0.5152  0.3552
  709TMC3    O210492   2.127   2.130  13.310  0.7744  0.3480 -0.2515
  710TMC3    C110493   3.812   3.732   0.689  1.2164  0.4711 -0.0958
  710TMC3    C210494   3.888   3.684   0.596 -0.8160  0.4475 -0.0623
  710TMC3    C310495   4.022   3.651   0.620 -0.7504 -0.3066  0.7282
  710TMC3    C410496   3.861   3.759   0.810  0.0226  0.1596  0.0423
  710TMC3    C510497   3.986   3.718   0.839 -0.3062  0.2135 -0.1926
  710TMC3    C610498   4.073   3.666   0.746  0.0446 -0.9245 -0.4235
  710TMC3     C10499   3.666   3.711   0.685  0.5123  0.2433 -0.3845
  710TMC3     O10500   3.615   3.707   0.575 -0.2637 -0.2284 -0.0907
  710TMC3     H10501   3.852   3.660   0.497 -1.8834  3.6746 -0.4450
  710TMC3    H110502   3.801   3.803   0.889 -0.1683 -2.3528  1.3165
  710TMC3    H210503   4.177   3.640   0.761  0.0643 -0.6614 -0.1166
  710TMC3    C710504   4.025   3.733   0.977  0.6410  0.5968  0.2306
  710TMC3    C810505   4.104   3.595   0.521 -0.5595 -0.0119  0.1138
  710TMC3    O110506   3.956   3.812   1.043 -0.3632  0.3417 -0.0245
  710TMC3    O210507   4.063   3.611   0.405 -0.3791  0.4061  0.1684
  711TMC3    C110508   3.058   4.365  15.053 -0.5595  0.0821  0.1663
  711TMC3    C210509   3.074   4.356  15.189  0.7177 -0.0876  0.5747
  711TMC3    C310510   3.192   4.415  15.235  0.2290  0.3615  0.4200
  711TMC3    C410511   3.157   4.412  14.975 -0.0363  0.1308  0.1158
  711TMC3    C510512   3.272   4.469  15.028  0.1509  0.4136  1.1971
  711TMC3    C610513   3.278   4.485  15.157 -0.3873 -0.5277  0.3256
  711TMC3     C10514   2.944   4.292  14.997 -0.2358 -0.8535 -0.0043
  711TMC3     O10515   2.933   4.298  14.875 -0.4669 -0.3186 -0.5645
  711TMC3     H10516   3.012   4.304  15.262  2.0285 -2.8106 -0.2590
  711TMC3    H110517   3.145   4.402  14.868 -0.6105  1.0215  0.1056
  711TMC3    H210518   3.359   4.546  15.197 -1.6403  1.1510  0.3041
  711TMC3    C710519   3.398   4.404  14.989 -0.7444  0.1823  0.0966
  711TMC3    C810520   3.246   4.374  15.366  0.7661  0.4803  0.8049
  711TMC3    O110521   3.475   4.378  15.082 -0.6539  0.6501  0.0726
  711TMC3    O210522   3.161   4.329  15.444 -0.1012 -0.1575  0.2249
  712MPD2     C10523   0.027   0.241  13.899  0.5595 -0.7230  0.3137
  712MPD2    C110524   4.679   0.364  13.887 -0.1549 -0.1995 -0.3099
  712MPD2    C210525   0.031   0.479  13.875  0.7812 -0.3526 -0.4099
  712MPD2    C310526   0.169   0.481  13.884  0.3800  0.0027 -0.1938
  712MPD2    C410527   0.233   0.359  13.897  0.3362 -0.0520  0.1300
  712MPD2    C510528   0.161   0.246  13.894 -0.3291 -0.2280  0.3630
  712MPD2     H10529   4.703   0.570  13.844  0.7259  0.5228  2.2750
  712MPD2    H110530   0.339   0.344  13.909  0.6789  2.6749  0.3777
  712MPD2    H210531   4.709   0.142  13.910  0.0160 -0.6887 -1.3528
  712MPD2    H310532   0.223   0.158  13.907  0.7414  0.5896  0.7665
  712MPD2     N10533   0.251   0.593  13.882  0.0112 -0.1717 -0.4480
  712MPD2    H510534   0.349   0.573  13.865  0.3087  0.9602 -0.0474
  712MPD2    N110535   4.538   0.362  13.872 -0.2385  0.4029 -0.6213
  712MPD2    H710536   4.498   0.447  13.833  1.3857  1.7326  0.5765
  713TMC3    C110537   0.286   0.834  13.891  1.3131 -0.5760 -0.3416
  713TMC3    C210538   0.412   0.817  13.845 -0.1577  0.8113 -0.1911
  713TMC3    C310539   0.501   0.926  13.839  0.5132  0.1803 -0.7200
  713TMC3    C410540   0.241   0.957  13.927  0.0923 -0.7143 -0.3306
  713TMC3    C510541   0.333   1.059  13.930  0.0956 -0.3488 -0.1539
  713TMC3    C610542   0.460   1.049  13.886 -0.6328 -0.1048 -0.3041
  713TMC3     C10543   0.197   0.721  13.895 -0.4679  0.1122 -0.3026
  713TMC3     O10544   0.089   0.752  13.941 -0.2568  0.0025  0.0875
  713TMC3     H10545   0.458   0.719  13.837 -0.1646  0.6485  1.9335
  713TMC3    H110546   0.139   0.976  13.957  0.4724  0.0113  0.5009
  713TMC3    H210547   0.522   1.137  13.879 -1.4134  0.4053 -0.8522
  713TMC3    C710548   0.292   1.194  13.956 -0.6308  0.2611 -0.2859
  713TMC3    C810549   0.637   0.912  13.788  0.5532  0.2882  0.3556
  713TMC3    O110550   0.372   1.265  14.022  0.2986 -0.0966  0.4773
  713TMC3    O210551   0.652   0.828  13.699 -0.4391 -0.5251  0.6426
  714MPD2     C10552   2.096   3.607   1.887 -0.8321 -0.3769 -0.1676
  714MPD2    C110553   2.155   3.585   1.770 -0.0888 -0.3832  0.1796
  714MPD2    C210554   2.103   3.644   1.646 -1.1367 -0.4426  0.6233
  714MPD2    C310555   1.989   3.728   1.662 -1.6419  0.0361  0.3865
  714MPD2    C410556   1.935   3.754   1.788  0.1510 -0.4698 -0.2626
  714MPD2    C510557   1.987   3.688   1.900  0.6572  0.4857  0.6637
  714MPD2     H10558   2.142   3.620   1.548 -1.3408  0.1675  0.3957
  714MPD2    H110559   1.853   3.819   1.814  0.2450 -0.1873 -0.6615
  714MPD2    H210560   2.138   3.576   1.983  0.3677  0.9065 -0.2826
  714MPD2    H310561   1.942   3.698   1.998 -3.0858 -1.1203 -0.8750
  714MPD2     N10562   1.936   3.789   1.551 -0.4870  0.1354 -0.1469
  714MPD2    H510563   1.971   3.759   1.461 -0.3802  0.5048 -0.2263
  714MPD2    N110564   2.274   3.507   1.767  0.3001 -0.2296 -0.0002
  714MPD2    H710565   2.317   3.491   1.857 -0.1561 -1.6272 -0.0327
  715TMC3    C110566   2.462   3.389   1.686 -0.7410  0.7705  0.3700
  715TMC3    C210567   2.523   3.322   1.585  0.0286  0.2180  0.9603
  715TMC3    C310568   2.643   3.264   1.613  0.0811  0.0664  0.3914
  715TMC3    C410569   2.514   3.408   1.811 -0.2627 -0.0251  0.3191
  715TMC3    C510570   2.637   3.345   1.835  0.1329  1.0555  0.2879
  715TMC3    C610571   2.696   3.273   1.739  0.3566 -0.3476  0.4375
  715TMC3     C10572   2.342   3.468   1.654 -0.4009 -0.2769 -0.1371
  715TMC3     O10573   2.316   3.489   1.536  0.2187  0.2266 -0.1544
  715TMC3     H10574   2.483   3.323   1.484  0.3685  0.2494  0.8237
  715TMC3    H110575   2.478   3.475   1.888  1.3523 -0.5591  1.5325
  715TMC3    H210576   2.790   3.221   1.753  0.4390 -1.1609 -3.2504
  715TMC3    C710577   2.695   3.321   1.974 -0.2059  0.1661 -0.3410
  715TMC3    C810578   2.708   3.198   1.504  0.4794 -0.2062  0.3311
  715TMC3    O110579   2.810   3.272   1.982  0.2267  0.2474 -0.5676
  715TMC3    O210580   2.649   3.181   1.394 -0.5052  0.1210 -0.7500
  716MPD2     C10581   2.418   2.634   9.768 -0.4589  0.4122 -0.0911
  716MPD2    C110582   2.467   2.696   9.655  0.2905  0.5124 -0.1821
  716MPD2    C210583   2.594   2.653   9.617 -0.3422  0.0530  0.4380
  716MPD2    C310584   2.672   2.567   9.703 -0.2859 -0.5860  0.8993
  716MPD2    C410585   2.618   2.516   9.823 -0.5655  0.6400 -0.5372
  716MPD2    C510586   2.487   2.551   9.853 -0.0607 -0.3602 -0.1289
  716MPD2     H10587   2.648   2.697   9.533  1.2535 -0.2892  1.2835
  716MPD2    H110588   2.675   2.453   9.890  1.2336  1.8911 -0.8861
  716MPD2    H210589   2.316   2.657   9.796 -0.9153 -1.0225 -0.5856
  716MPD2    H310590   2.440   2.530   9.949  5.1131 -0.3992  2.3535
  716MPD2     N10591   2.803   2.559   9.668  0.0533  1.0034 -0.0214
  716MPD2    H510592   2.827   2.607   9.582 -2.1400 -0.3997 -1.4331
  716MPD2    N110593   2.385   2.783   9.569 -0.1209 -0.3280 -0.6026
  716MPD2    H710594   2.290   2.789   9.605 -0.2103 -0.7075 -0.7721
  717TMC3    C110595   3.030   2.498   9.666  0.4947  0.1899 -0.2665
  717TMC3    C210596   3.018   2.538   9.537 -0.6640  0.5647  0.1054
  717TMC3    C310597   3.116   2.623   9.491 -0.0750  0.2428 -0.4217
  717TMC3    C410598   3.141   2.537   9.742 -0.1097 -0.8577  0.5091
  717TMC3    C510599   3.237   2.630   9.695  0.5877  0.3374 -0.3450
  717TMC3    C610600   3.221   2.672   9.564  0.0767 -0.3941 -0.0413
  717TMC3     C10601   2.906   2.509   9.741 -0.0143 -0.6140 -0.3729
  717TMC3     O10602   2.908   2.479   9.859  0.1921 -0.1371 -0.1158
  717TMC3     H10603   2.937   2.501   9.475 -0.1095  1.8433 -1.3906
  717TMC3    H110604   3.154   2.503   9.844  1.3326  0.5657  0.8082
  717TMC3    H210605   3.295   2.736   9.518  1.5781 -3.1095 -1.4158
  717TMC3    C710606   3.332   2.689   9.787  0.1500  1.0053 -0.1943
  717TMC3    C810607   3.052   2.703   9.386 -0.5695  0.6763 -0.0292
  717TMC3    O110608   3.316   2.661   9.904 -0.2489  0.0329  0.0468
  717TMC3    O210609   2.927   2.702   9.390  0.2848 -0.0496 -0.1565
  718MPD2     C10610   1.617   1.015  13.325  0.1644 -0.2833 -0.2849
  718MPD2    C110611   1.522   1.073  13.246  0.1859  0.1506  0.0290
  718MPD2    C210612   1.422   0.988  13.197 -0.2005  0.1965  0.5476
  718MPD2    C310613   1.426   0.855  13.214  0.3020  0.0668  0.6069
  718MPD2    C410614   1.534   0.796  13.270  0.3775 -0.2524 -0.0049
  718MPD2    C510615   1.628   0.878  13.329 -0.1202  0.4403  0.6559
  718MPD2     H10616   1.331   1.022  13.148  0.9229  1.8507 -0.4185
  718MPD2    H110617   1.556   0.691  13.279  1.4655  0.1114  1.7360
  718MPD2    H210618   1.696   1.079  13.362  0.3276 -1.5738  1.5869
  718MPD2    H310619   1.709   0.839  13.390 -0.8208 -0.5136  0.9654
  718MPD2     N10620   1.324   0.781  13.148 -0.6277 -0.0779 -0.3302
  718MPD2    H510621   1.254   0.839  13.104 -0.1362  0.8279  0.0740
  718MPD2    N110622   1.508   1.214  13.213 -0.2367 -0.8367  0.0838
  718MPD2    H710623   1.421   1.230  13.163  0.0182 -1.7901 -0.6751
  719TMC3    C110624   1.560   1.430  13.149 -0.1083  0.7006  0.5918
  719TMC3    C210625   1.426   1.438  13.113  0.7091  0.5724 -0.4513
  719TMC3    C310626   1.395   1.460  12.981  0.2588 -0.0341 -0.2485
  719TMC3    C410627   1.656   1.464  13.063  0.0978  0.5239 -0.5091
  719TMC3    C510628   1.617   1.489  12.939 -1.0921 -0.4115 -0.1317
  719TMC3    C610629   1.487   1.478  12.886 -0.6316 -0.3116  0.4942
  719TMC3     C10630   1.596   1.311  13.225 -0.0465 -0.1800 -0.0269
  719TMC3     O10631   1.712   1.306  13.262  0.0512  0.5984  0.4521
  719TMC3     H10632   1.359   1.403  13.191 -0.1252  1.3872 -0.7994
  719TMC3    H110633   1.762   1.465  13.085  0.1444  1.6113 -0.7538
  719TMC3    H210634   1.468   1.487  12.780  0.3930  0.5722  0.3840
  719TMC3    C710635   1.720   1.477  12.833 -0.1033  0.6109  0.5273
  719TMC3    C810636   1.312   1.346  12.941 -0.7676  0.6757  0.1962
  719TMC3    O110637   1.692   1.417  12.732 -0.5801  0.5217 -0.2568
  719TMC3    O210638   1.304   1.254  13.020  0.6544 -0.1214  0.3689
  720MPD2     C10639   4.717   2.882  13.964 -0.3700 -0.7906 -0.2985
  720MPD2    C110640   0.098   2.843  13.886  0.0014 -0.5171  0.2711
  720MPD2    C210641   0.218   2.795  13.940 -0.2569  0.0293 -0.0378
  720MPD2    C310642   0.232   2.799  14.079  0.2268 -0.3700 -0.2739
  720MPD2    C410643   0.125   2.851  14.155  0.6289 -0.3463  0.6888
  720MPD2    C510644   0.012   2.898  14.096 -0.2128 -0.3675 -0.4355
  720MPD2     H10645   0.300   2.763  13.877 -1.4851 -1.6573 -0.7665
  720MPD2    H110646   0.139   2.874  14.260  2.6980  0.6563  0.2004
  720MPD2    H210647   4.617   2.881  13.922 -0.1033 -0.5507 -0.9280
  720MPD2    H310648   4.646   2.924  14.152 -0.1461 -0.1981 -0.4079
  720MPD2     N10649   0.356   2.758  14.131  0.3187  0.6612 -0.4487
  720MPD2    H510650   0.434   2.738  14.069 -0.1647  2.9406 -1.7676
  720MPD2    N110651   0.067   2.857  13.741 -0.5647 -0.2643 -0.2280
  720MPD2    H710652   4.702   2.902  13.717 -0.9915 -0.0440  1.7459
  721TMC3    C110653   0.522   2.773  14.297  0.0665  0.4433  0.2698
  721TMC3    C210654   0.553   2.810  14.424  0.0458 -0.5701  0.5753
  721TMC3    C310655   0.687   2.853  14.448  0.1639 -0.6238  0.6653
  721TMC3    C410656   0.605   2.791  14.192  0.6442  0.1961 -0.2301
  721TMC3    C510657   0.731   2.824  14.221  0.0255  0.2585 -0.2272
  721TMC3    C610658   0.777   2.856  14.344  0.4442 -0.8203  0.8836
  721TMC3     C10659   0.380   2.753  14.268  0.2310  0.3412 -0.3646
  721TMC3     O10660   0.303   2.728  14.365  0.4104  0.5953 -0.0900
  721TMC3     H10661   0.485   2.776  14.501 -0.2697  2.6978  1.7634
  721TMC3    H110662   0.585   2.763  14.090 -0.0689 -1.9388  0.4925
  721TMC3    H210663   0.881   2.882  14.364  0.4331  0.1247 -0.3345
  721TMC3    C710664   0.829   2.773  14.124  0.4092  0.2677 -0.1153
  721TMC3    C810665   0.739   2.869  14.589 -0.6395 -0.3434 -0.0171
  721TMC3    O110666   0.814   2.794  14.004  0.8475  0.1841 -0.1429
  721TMC3    O210667   0.855   2.898  14.608  0.7265 -0.4070 -0.0138
  722MPD2     C10668   4.093   1.190  13.147  0.0663  0.3701 -0.2508
  722MPD2    C110669   4.027   1.298  13.203 -0.1076 -0.0874 -0.2295
  722MPD2    C210670   3.900   1.334  13.161 -0.7832  0.2156  0.2727
  722MPD2    C310671   3.822   1.229  13.105 -0.9060  0.2768 -0.2374
  722MPD2    C410672   3.885   1.111  13.069  0.2145 -0.1035 -0.3967
  722MPD2    C510673   4.026   1.093  13.082  0.1737 -0.4270 -0.5687
  722MPD2     H10674   3.864   1.435  13.178 -1.4329 -0.4396  2.6459
  722MPD2    H110675   3.829   1.026  13.032 -1.8508  0.0829  2.2480
  722MPD2    H210676   4.200   1.179  13.155  0.2640  1.2600 -1.7058
  722MPD2    H310677   4.074   1.010  13.032 -0.6139 -1.2321  0.0052
  722MPD2     N10678   3.688   1.264  13.077 -0.1220  0.0138 -0.2456
  722MPD2    H510679   3.673   1.365  13.082 -0.8331 -0.1632  1.1287
  722MPD2    N110680   4.090   1.398  13.277  0.0160  0.4427 -0.6697
  722MPD2    H710681   4.028   1.478  13.289  0.1106  0.1585  1.7895
  723TMC3    C110682   3.483   1.256  12.997 -0.3070  0.0067  0.2017
  723TMC3    C210683   3.363   1.192  13.027 -0.3900  1.0843  0.7752
  723TMC3    C310684   3.253   1.264  12.994 -0.0907 -0.8462  0.2904
  723TMC3    C410685   3.489   1.375  12.931 -0.4076 -0.2775  0.0936
  723TMC3    C510686   3.376   1.439  12.917  0.2228  0.4394 -0.4749
  723TMC3    C610687   3.254   1.394  12.951 -0.0917 -0.0987 -0.1410
  723TMC3     C10688   3.595   1.182  13.033  0.1885  0.2392  0.1361
  723TMC3     O10689   3.583   1.063  13.061 -0.1773 -1.0417 -0.6390
  723TMC3     H10690   3.354   1.096  13.076  1.1594  0.2831 -0.5144
  723TMC3    H110691   3.580   1.422  12.894 -1.0624 -1.1911 -2.7131
  723TMC3    H210692   3.162   1.445  12.927 -0.5048 -1.5287 -1.5964
  723TMC3    C710693   3.384   1.550  12.834 -0.0126  0.1778 -0.0408
  723TMC3    C810694   3.117   1.202  12.996  0.4080  0.5180  0.1962
  723TMC3    O110695   3.399   1.523  12.715  0.0429 -0.9595  0.1265
  723TMC3    O210696   3.021   1.275  12.984 -0.2165 -0.1028  0.0420
  724TMC3    C110697   4.718   4.286  10.353  0.2994  1.2056  0.1523
  724TMC3    C210698   4.681   4.251  10.221  0.3123 -0.1397 -0.4404
  724TMC3    C310699   0.041   4.285  10.117 -0.1668 -1.0276  0.4857
  724TMC3    C410700   0.113   4.354  10.364  0.3740  0.0226  0.2307
  724TMC3    C510701   0.198   4.375  10.254  0.3879 -0.9511  0.0647
  724TMC3    C610702   0.163   4.337  10.133  0.0869  0.3058  0.3823
  724TMC3     C10703   4.663   4.227  10.474  0.6560 -0.8832 -0.2926
  724TMC3     O10704   4.692   4.263  10.588  0.4545 -0.8263 -0.1587
  724TMC3     H10705   4.576   4.259  10.197  0.5025 -1.4201 -1.6864
  724TMC3    H110706   0.155   4.378  10.460  2.0100 -1.1774 -0.1880
  724TMC3    H210707   0.232   4.355  10.052  2.1432 -1.4983  1.7335
  724TMC3    C710708   0.291   4.488  10.250  0.5150  0.1660 -0.1871
  724TMC3    C810709   4.702   4.329   9.998 -0.3910 -0.3770 -0.0719
  724TMC3    O110710   0.324   4.527  10.136  0.2197  0.1794  0.7201
  724TMC3    O210711   4.612   4.260   9.958  0.4605  0.2279  0.4878
  725TMC3    C110712   0.807   3.157  12.429 -0.0110  0.3056  0.6774
  725TMC3    C210713   0.797   3.157  12.293  0.3860 -0.3917 -0.2000
  725TMC3    C310714   0.813   3.041  12.224  0.6433 -0.4358 -0.4995
  725TMC3    C410715   0.851   3.039  12.493  0.2851 -0.0976  0.6052
  725TMC3    C510716   0.850   2.923  12.419  0.3706  0.3649 -0.3386
  725TMC3    C610717   0.842   2.924  12.284 -0.0408  0.6481  0.4939
  725TMC3     C10718   0.826   3.283  12.496  0.6717 -0.3374 -0.2354
  725TMC3     O10719   0.849   3.387  12.437  0.0103 -0.4657  0.5854
  725TMC3     H10720   0.760   3.242  12.237  1.6126 -0.5479 -1.2382
  725TMC3    H110721   0.864   3.043  12.600 -1.5256  0.1392  0.8194
  725TMC3    H210722   0.846   2.837  12.220  1.0199  0.0943  1.3294
  725TMC3    C710723   0.870   2.800  12.491 -0.3873  0.1604 -0.2263
  725TMC3    C810724   0.775   3.035  12.087  0.0641  0.2375 -0.1633
  725TMC3    O110725   0.897   2.823  12.608 -0.0436  0.0349  0.2607
  725TMC3    O210726   0.737   2.927  12.046  0.0053  0.3113 -0.0830
  726MPD2     C10727   3.793   4.086  10.374  0.5597 -0.1740 -0.4786
  726MPD2    C110728   3.798   4.194  10.458  0.0551  0.1526 -0.3356
  726MPD2    C210729   3.711   4.209  10.562  0.0193  0.4010  0.1137
  726MPD2    C310730   3.607   4.120  10.575 -0.1701 -0.8725  0.0386
  726MPD2    C410731   3.595   4.019  10.491 -0.4535  0.1631  0.0153
  726MPD2    C510732   3.686   4.000  10.389  0.3237 -0.2892 -0.3994
  726MPD2     H10733   3.719   4.295  10.627 -0.9901 -0.1039  0.9031
  726MPD2    H110734   3.526   3.939  10.517 -0.2146  0.5849  1.9583
  726MPD2    H210735   3.870   4.066  10.299 -0.7579 -0.7717 -1.6662
  726MPD2    H310736   3.673   3.915  10.323  1.3385  0.0558 -1.0318
  726MPD2     N10737   3.505   4.146  10.673 -0.2327  0.3893 -0.1784
  726MPD2    H510738   3.421   4.090  10.668 -0.0528  0.3549 -2.9556
  726MPD2    N110739   3.899   4.293  10.443 -0.7111 -0.7697  1.0243
  726MPD2    H710740   3.910   4.368  10.510  2.3946 -1.0095  0.7970
  727TMC3    C110741   4.001   4.468  10.307 -0.0353  0.1255 -0.0283
  727TMC3    C210742   4.072   4.537  10.400  0.0020 -0.3744 -0.0959
  727TMC3    C310743   4.106   4.665  10.363  0.1476 -0.0477  0.0839
  727TMC3    C410744   3.978   4.512  10.179  0.3079 -0.4626 -0.3988
  727TMC3    C510745   4.006   4.644  10.158  0.4347  0.2191  0.1981
  727TMC3    C610746   4.075   4.718  10.243 -0.5133  0.3306 -0.3203
  727TMC3     C10747   3.952   4.326  10.316 -0.4917 -0.6144 -0.3562
  727TMC3     O10748   3.953   4.262  10.210 -0.8786 -0.1601  0.2756
  727TMC3     H10749   4.103   4.493  10.493 -1.5774  1.9060  1.5171
  727TMC3    H110750   3.919   4.453  10.109 -0.1783 -0.2912 -0.1311
  727TMC3    H210751   4.092   0.099  10.217  0.2510  0.6109  1.2572
  727TMC3    C710752   3.914   4.718  10.061  0.0407  0.8417  0.1456
  727TMC3    C810753   4.178   0.040  10.443 -0.7089  0.6007  0.0185
  727TMC3    O110754   3.826   4.646  10.018 -0.0197 -0.1558 -0.3689
  727TMC3    O210755   4.217   0.145  10.393 -0.7046 -0.2309 -0.2011
  728TMC3    C110756   2.962   2.969  15.119 -0.6962 -0.9725 -1.3030
  728TMC3    C210757   3.071   2.959  15.046  0.2605 -0.3856 -0.5883
  728TMC3    C310758   3.070   3.028  14.923 -0.0568 -0.5351 -0.1209
  728TMC3    C410759   2.838   3.008  15.070  0.3798  0.0698  0.3046
  728TMC3    C510760   2.835   3.053  14.937 -0.2733  0.7786  0.5355
  728TMC3    C610761   2.955   3.062  14.869  0.0077  0.3815  0.7287
  728TMC3     C10762   2.975   2.945  15.258  0.6477  0.4381  0.3028
  728TMC3     O10763   3.088   2.937  15.305  0.2289 -0.0688  0.3756
  728TMC3     H10764   3.168   2.938  15.090  0.9727  1.6599 -1.2002
  728TMC3    H110765   2.744   3.014  15.122 -0.6973 -3.5826 -1.2571
  728TMC3    H210766   2.949   3.096  14.766  0.0455 -1.4965  0.1051
  728TMC3    C710767   2.709   3.090  14.872 -0.3627 -0.7306  0.1710
  728TMC3    C810768   3.192   3.029  14.844  0.7052  0.2136  0.2173
  728TMC3    O110769   2.609   3.028  14.904 -0.0886 -0.1392 -0.1307
  728TMC3    O210770   3.277   2.942  14.869  0.0990  0.1672  0.6749
  729MPD2     C10771   4.682   4.199  16.440 -0.0670 -0.3447  0.6032
  729MPD2    C110772   0.054   4.193  16.532  0.0547  0.1178  0.5516
  729MPD2    C210773   0.016   4.157  16.658  0.2036  0.9099 -0.3343
  729MPD2    C310774   4.611   4.118  16.686  0.6189 -0.1844  0.0377
  729MPD2    C410775   4.507   4.129  16.594  0.6831 -0.2937 -0.0957
  729MPD2    C510776   4.554   4.179  16.477 -0.4796 -0.3077  1.2043
  729MPD2     H10777   0.089   4.164  16.738 -0.4266 -2.5814  0.5604
  729MPD2    H110778   4.401   4.126  16.619  0.4804 -1.8170 -1.1300
  729MPD2    H210779   4.712   4.225  16.338 -0.5135  1.6922  1.0024
  729MPD2    H310780   4.484   4.200  16.397  0.5426 -3.1700 -0.3994
  729MPD2     N10781   4.559   4.088  16.811  0.1342  0.3029  0.8209
  729MPD2    H510782   4.460   4.094  16.828  0.0306 -1.6833  0.9484
  729MPD2    N110783   0.183   4.235  16.505 -0.2331 -0.2967  0.7192
  729MPD2    H710784   0.193   4.262  16.407 -0.0930 -0.1799  0.7660
  730TMC3    C110785   4.617   4.126  17.046  0.1248  0.1857 -0.0557
  730TMC3    C210786   4.708   4.099  17.144 -0.7525 -0.2296 -0.0850
  730TMC3    C310787   4.722   4.193  17.242 -0.2520  0.1901 -0.8079
  730TMC3    C410788   4.535   4.238  17.047  0.2811  0.1824  0.0274
  730TMC3    C510789   4.554   4.328  17.142  0.0129 -0.0165  0.2022
  730TMC3    C610790   4.651   4.309  17.234 -0.5270 -0.2812 -0.1745
  730TMC3     C10791   4.645   4.064  16.921  0.4299  0.1665 -0.4739
  730TMC3     O10792   0.034   4.019  16.909 -0.6417  0.1371  0.4985
  730TMC3     H10793   0.047   4.010  17.148  1.9610  1.5134 -3.8020
  730TMC3    H110794   4.463   4.259  16.969  0.9947 -0.5178 -0.8279
  730TMC3    H210795   4.659   4.390  17.306  2.0477 -2.2154  1.7287
  730TMC3    C710796   4.527   4.471  17.094  0.2163 -0.4255  0.5775
  730TMC3    C810797   0.090   4.156  17.348  0.3382  0.3188  0.8059
  730TMC3    O110798   4.510   4.488  16.971  0.1511  0.2542 -0.1553
  730TMC3    O210799   0.073   4.039  17.387  0.4370  0.2751  0.6645
  731MPD2     C10800   0.053   2.841  11.529  0.4116 -0.4400  0.3739
  731MPD2    C110801   0.057   2.712  11.570  0.2825 -0.0151  0.4261
  731MPD2    C210802   0.086   2.691  11.704  1.0591  0.2911 -0.3993
  731MPD2    C310803   0.094   2.792  11.795  0.4384  0.2640 -0.8357
  731MPD2    C410804   0.071   2.919  11.747 -0.1252  0.2541  0.1121
  731MPD2    C510805   0.071   2.948  11.611  0.9917 -0.3888 -0.2139
  731MPD2     H10806   0.099   2.588  11.734  0.6568  0.8180  1.5890
  731MPD2    H110807   0.056   3.004  11.813 -0.2066  1.2858 -1.2157
  731MPD2    H210808   0.028   2.866  11.427 -1.4704  0.4346  1.0702
  731MPD2    H310809   0.048   3.050  11.581 -1.0055 -0.9043 -0.4349
  731MPD2     N10810   0.115   2.765  11.931 -0.2328 -0.2855  0.8361
  731MPD2    H510811   0.110   2.665  11.952 -3.4881 -0.2135  0.4612
  731MPD2    N110812   0.042   2.610  11.473 -0.1953 -0.4652  0.2597
  731MPD2    H710813   0.038   2.644  11.377 -2.9046  1.0724  0.9260
  732TMC3    C110814   0.068   2.402  11.368 -0.2884  0.5501  0.3944
  732TMC3    C210815   0.015   2.279  11.376 -0.1655 -0.6589  0.1477
  732TMC3    C310816   0.092   2.170  11.356 -0.6353 -0.6575 -0.2581
  732TMC3    C410817   0.199   2.418  11.330 -0.1847  0.2028 -0.6039
  732TMC3    C510818   0.277   2.309  11.307  0.2770  0.1241  0.3142
  732TMC3    C610819   0.228   2.185  11.322  0.7002 -0.5561 -0.2602
  732TMC3     C10820   0.045   2.475  11.488 -0.3558  0.1740 -0.5531
  732TMC3     O10821   0.046   2.405  11.590 -0.7216 -0.0769  0.7719
  732TMC3     H10822   4.632   2.261  11.389 -0.0716 -1.2526  0.1235
  732TMC3    H110823   0.255   2.504  11.364 -0.2512 -0.2679  0.7005
  732TMC3    H210824   0.286   2.098  11.295  0.0433 -0.5711 -1.6132
  732TMC3    C710825   0.407   2.327  11.359 -0.0425  0.4482 -0.0052
  732TMC3    C810826   0.050   2.052  11.421 -0.1259 -0.4975 -0.2039
  732TMC3    O110827   0.481   2.405  11.304  0.1045 -0.4797  0.8003
  732TMC3    O210828   0.090   1.945  11.374  0.0297 -0.8509  0.3066
  733TMC3    C110829   0.986   0.582  13.008  0.1270 -0.2723  0.0589
  733TMC3    C210830   1.090   0.565  13.102 -1.3529  0.3913  0.3365
  733TMC3    C310831   1.204   0.618  13.054 -0.0632 -0.2955 -0.5648
  733TMC3    C410832   1.005   0.626  12.880 -0.3321  0.4087  0.1901
  733TMC3    C510833   1.127   0.675  12.838 -0.3190  1.1797  1.1821
  733TMC3    C610834   1.224   0.678  12.928 -0.1472 -0.5564 -0.0409
  733TMC3     C10835   0.845   0.578  13.044  0.5990  0.3770 -0.2942
  733TMC3     O10836   0.763   0.583  12.951 -0.4377 -0.8597 -0.2324
  733TMC3     H10837   1.090   0.509  13.195  1.9193 -1.0079 -0.5315
  733TMC3    H110838   0.925   0.656  12.815  0.1789 -1.8578 -1.4680
  733TMC3    H210839   1.322   0.711  12.895  0.1905 -0.8298  0.7027
  733TMC3    C710840   1.120   0.772  12.729  0.6513 -0.0057  0.2507
  733TMC3    C810841   1.298   0.651  13.153  0.2889  0.7559 -1.0126
  733TMC3    O110842   1.062   0.753  12.621  0.0546  0.4078  0.2315
  733TMC3    O210843   1.370   0.562  13.197  0.2349 -0.1648 -0.2485
  734MPD2     C10844   3.387   3.123  12.338 -0.0704 -0.2070 -0.3721
  734MPD2    C110845   3.279   3.121  12.258 -0.3210  0.2809 -0.7352
  734MPD2    C210846   3.284   3.203  12.138  0.2258 -0.6690 -0.0514
  734MPD2    C310847   3.394   3.286  12.108 -0.4499 -0.0079 -0.0867
  734MPD2    C410848   3.495   3.282  12.207  0.1172  0.4056  0.0770
  734MPD2    C510849   3.498   3.194  12.306  0.0486  0.3785  0.4915
  734MPD2     H10850   3.209   3.188  12.061  0.2242  0.6351 -0.2907
  734MPD2    H110851   3.591   3.329  12.190  0.2768 -0.8497 -2.5484
  734MPD2    H210852   3.394   3.070  12.433 -0.8184  0.1451 -0.1189
  734MPD2    H310853   3.595   3.174  12.349  0.1516 -0.4684 -0.1228
  734MPD2     N10854   3.390   3.356  11.989 -0.0169  0.5789 -0.4346
  734MPD2    H510855   3.314   3.336  11.925 -1.4490  1.5774  0.9560
  734MPD2    N110856   3.167   3.038  12.291  0.5756  0.4804 -0.9446
  734MPD2    H710857   3.167   2.993  12.382  1.3507  2.5695  0.0782
  735TMC3    C110858   2.992   2.877  12.226  0.1778 -0.5835  0.7459
  735TMC3    C210859   2.896   2.855  12.129  0.1693 -0.2486 -0.4110
  735TMC3    C310860   2.903   2.739  12.051 -0.0401  0.1710  0.1217
  735TMC3    C410861   3.090   2.781  12.235 -0.7257  0.0682  1.2062
  735TMC3    C510862   3.092   2.672  12.152 -0.3159 -0.4934  0.5541
  735TMC3    C610863   2.997   2.645  12.061  0.1096  0.3266  0.3576
  735TMC3     C10864   3.064   3.006  12.201 -0.2926  0.3724 -0.9696
  735TMC3     O10865   3.061   3.032  12.081 -0.8190 -0.1416  0.5697
  735TMC3     H10866   2.829   2.938  12.109 -0.2068 -0.1447  1.2573
  735TMC3    H110867   3.168   2.794  12.309  1.5476  0.6587 -1.2853
  735TMC3    H210868   2.999   2.562  11.991  1.9936 -0.1260  0.9647
  735TMC3    C710869   3.220   2.612  12.124 -0.0498  0.5696  0.1850
  735TMC3    C810870   2.869   2.755  11.913  0.2009 -0.0878 -0.8678
  735TMC3    O110871   3.315   2.673  12.172 -0.2381  0.5756 -0.1894
  735TMC3    O210872   2.862   2.649  11.850 -0.3377  0.0223  0.7933
  736MPD2     C10873   3.308   2.286  11.969 -0.1416  0.2497  0.0988
  736MPD2    C110874   3.326   2.403  12.043 -0.2822 -0.4574 -0.3261
  736MPD2    C210875   3.460   2.433  12.080 -0.5209 -0.8915  0.1787
  736MPD2    C310876   3.565   2.352  12.026 -0.0275 -0.1123 -0.5526
  736MPD2    C410877   3.539   2.237  11.956  0.2253  0.0205  0.3020
  736MPD2    C510878   3.409   2.205  11.928 -0.2896  0.3273  0.4264
  736MPD2     H10879   3.481   2.526  12.130 -0.9889 -1.2117  0.9701
  736MPD2    H110880   3.619   2.170  11.924  0.3278  0.4433 -0.3235
  736MPD2    H210881   3.203   2.260  11.957 -0.2067  0.8254 -0.6027
  736MPD2    H310882   3.386   2.107  11.888 -1.2534  0.6657  0.1720
  736MPD2     N10883   3.705   2.389  12.024 -0.0250 -0.2641  0.2335
  736MPD2    H510884   3.763   2.341  11.956  0.5074  1.7140 -0.7222
  736MPD2    N110885   3.213   2.491  12.066  0.2364  1.0255 -0.1970
  736MPD2    H710886   3.124   2.452  12.037  0.6602 -1.2091  1.4449
  737TMC3    C110887   3.901   2.508  12.050  0.0519 -0.0673  0.3126
  737TMC3    C210888   3.936   2.638  12.030 -0.3586 -0.1929 -0.5787
  737TMC3    C310889   4.034   2.674  11.938 -0.3613 -0.4907  0.3267
  737TMC3    C410890   3.966   2.414  11.977 -0.5571  0.3067 -0.5349
  737TMC3    C510891   4.050   2.456  11.878  0.6619 -0.1006  0.0184
  737TMC3    C610892   4.098   2.581  11.862  0.5111 -0.2472 -0.5821
  737TMC3     C10893   3.768   2.484  12.099 -0.3034  0.0842 -0.4932
  737TMC3     O10894   3.725   2.556  12.187 -0.9198 -0.1404 -0.4815
  737TMC3     H10895   3.874   2.717  12.071  1.4601  0.3230  1.1821
  737TMC3    H110896   3.947   2.308  11.990 -1.5972  0.6883  1.0856
  737TMC3    H210897   4.183   2.615  11.804  1.6473 -1.1374  0.5449
  737TMC3    C710898   4.129   2.347  11.813 -0.0377 -0.8469  0.4002
  737TMC3    C810899   4.043   2.813  11.909 -0.1479  0.5384 -0.3301
  737TMC3    O110900   4.115   2.233  11.862 -0.3340 -0.9312  0.0362
  737TMC3    O210901   4.051   2.892  12.003 -0.7520 -0.2802  0.6855
  738MPD2     C10902   3.739   1.664  15.205  0.1969 -0.2233  0.0193
  738MPD2    C110903   3.803   1.552  15.149 -0.3334 -0.5075 -0.6879
  738MPD2    C210904   3.928   1.567  15.086 -0.4215 -0.1609 -0.9535
  738MPD2    C310905   3.995   1.690  15.084  0.0550 -0.5436  0.9136
  738MPD2    C410906   3.933   1.793  15.143  0.9640  0.3916 -0.1494
  738MPD2    C510907   3.807   1.781  15.199 -0.3703 -0.2449 -0.4878
  738MPD2     H10908   3.988   1.480  15.061  2.0465  2.2553 -3.4728
  738MPD2    H110909   3.974   1.893  15.148 -1.0342  1.1543  1.1801
  738MPD2    H210910   3.634   1.655  15.232  0.5497  0.2621  1.5594
  738MPD2    H310911   3.756   1.873  15.225  0.9710  1.3001 -3.2355
  738MPD2     N10912   4.122   1.716  15.038  0.5728  0.2241 -0.1805
  738MPD2    H510913   4.157   1.811  15.041 -1.8363  1.1839 -1.9605
  738MPD2    N110914   3.741   1.426  15.147  0.3680  0.2940  0.0535
  738MPD2    H710915   3.793   1.353  15.098  0.3839 -0.0595  0.5922
  739TMC3    C110916   4.337   1.673  14.956 -0.0329  0.2497 -0.3020
  739TMC3    C210917   4.381   1.655  14.824  0.8828 -0.2602  0.3464
  739TMC3    C310918   4.469   1.741  14.773 -0.7573 -0.2583 -0.1981
  739TMC3    C410919   4.382   1.772  15.030  0.5625 -0.4089  0.4031
  739TMC3    C510920   4.469   1.861  14.979  0.2663  0.1631  0.1839
  739TMC3    C610921   4.518   1.848  14.850 -0.0702 -0.4899 -0.5362
  739TMC3     C10922   4.203   1.617  14.990  0.5237 -0.2072 -0.1967
  739TMC3     O10923   4.176   1.506  14.943  0.1688  1.0050 -0.2050
  739TMC3     H10924   4.345   1.570  14.767 -1.7721 -0.3188  2.1144
  739TMC3    H110925   4.342   1.776  15.131  1.9602 -2.5474  1.0491
  739TMC3    H210926   4.578   1.930  14.813  0.3991  0.0696  1.4681
  739TMC3    C710927   4.521   1.969  15.060  0.2981  0.2526  0.9388
  739TMC3    C810928   4.484   1.735  14.632  0.0774  0.0110 -0.2515
  739TMC3    O110929   4.571   2.056  14.993  0.0116 -0.0073 -0.4886
  739TMC3    O210930   4.388   1.692  14.567 -0.0971 -0.0750  0.4939
  740TMC3    C110931   0.042   3.128  14.402 -0.0961  0.7637  0.1259
  740TMC3    C210932   0.079   3.042  14.508 -0.1247 -0.2111 -0.0678
  740TMC3    C310933   0.212   3.015  14.514  0.5725  0.4574 -0.1927
  740TMC3    C410934   0.128   3.167  14.300  0.2287 -0.2016  0.7006
  740TMC3    C510935   0.258   3.129  14.301 -0.4871 -0.5653 -0.0356
  740TMC3    C610936   0.299   3.056  14.411 -0.3813  0.0550 -0.4998
  740TMC3     C10937   4.632   3.181  14.391 -0.5719  0.8098 -0.0289
  740TMC3     O10938   4.621   3.274  14.312 -0.7021  0.0535  0.4246
  740TMC3     H10939   0.017   3.037  14.597 -0.1411  3.1343  0.1018
  740TMC3    H110940   0.081   3.220  14.218  0.4449 -0.6331  0.2964
  740TMC3    H210941   0.400   3.018  14.417 -0.1217  1.0987  2.1348
  740TMC3    C710942   0.348   3.124  14.186  0.1525 -0.0252  0.3775
  740TMC3    C810943   0.263   2.923  14.610 -0.4423  0.4289 -0.3411
  740TMC3    O110944   0.454   3.067  14.208 -0.0648 -0.1934 -0.0230
  740TMC3    O210945   0.381   2.943  14.640 -0.5249  0.1304  0.2713
  741TMC3    C110946   4.444   2.604  13.849 -1.2953  0.5939  0.3672
  741TMC3    C210947   4.324   2.538  13.881 -0.1266  0.1398 -0.3643
  741TMC3    C310948   4.324   2.465  13.999  0.4659 -0.0785  0.6580
  741TMC3    C410949   4.560   2.584  13.916 -0.0784 -0.6311  0.0942
  741TMC3    C510950   4.557   2.502  14.026  0.1227 -0.1331 -0.0549
  741TMC3    C610951   4.441   2.451  14.074 -0.3650  0.4635  0.3965
  741TMC3     C10952   4.463   2.658  13.720 -0.6478  0.4612  0.0563
  741TMC3     O10953   4.563   2.635  13.660  0.4880 -0.1689 -0.6594
  741TMC3     H10954   4.233   2.522  13.824 -0.6584  1.1780  0.1930
  741TMC3    H110955   4.649   2.640  13.892 -0.8585  0.5844  0.0434
  741TMC3    H210956   4.453   2.377  14.153  1.0498 -0.9325 -1.1005
  741TMC3    C710957   4.679   2.470  14.086 -0.0277 -0.3818 -0.2314
  741TMC3    C810958   4.193   2.436  14.057 -0.2681 -0.1178 -0.0532
  741TMC3    O110959   0.052   2.472  14.014 -0.4742 -0.3872  0.0315
  741TMC3    O210960   4.100   2.509  14.029 -0.1579 -0.1948  0.0948
  742TMC3    C110961   4.302   0.985  15.421 -1.0606 -0.4740 -0.0459
  742TMC3    C210962   4.202   0.949  15.342  0.1577  0.1565  0.3187
  742TMC3    C310963   4.210   0.958  15.210  0.7704  0.4713  0.6180
  742TMC3    C410964   4.416   1.031  15.363 -0.6078 -0.0805 -0.2417
  742TMC3    C510965   4.430   1.043  15.229  0.2797  0.5954  0.1794
  742TMC3    C610966   4.319   1.013  15.147 -0.6593  0.1302  0.0162
  742TMC3     C10967   4.290   0.985  15.564 -0.0676 -0.6072 -0.3695
  742TMC3     O10968   4.396   0.999  15.621 -0.1492 -1.0529  0.4711
  742TMC3     H10969   4.128   0.895  15.400  0.8247 -0.8378  0.2559
  742TMC3    H110970   4.497   1.063  15.428  0.4528  0.2591 -1.7359
  742TMC3    H210971   4.339   1.022  15.041  2.6724 -0.3223  0.5891
  742TMC3    C710972   4.539   0.965  15.179  0.1281  0.0799 -0.1263
  742TMC3    C810973   4.119   0.875  15.125  0.1960  0.2045  0.0404
  742TMC3    O110974   4.521   0.901  15.076  0.1603  0.0503 -0.0767
  742TMC3    O210975   4.157   0.844  15.013  0.6153 -0.2921 -0.6635
  743MPD2     C10976   2.005   2.364   2.138  0.6360  0.2881  0.0508
  743MPD2    C110977   2.047   2.300   2.026  0.3375 -0.2064  0.5886
  743MPD2    C210978   2.182   2.257   2.023 -0.0690 -0.1044 -0.2392
  743MPD2    C310979   2.262   2.272   2.126 -0.6666 -0.1749 -0.8168
  743MPD2    C410980   2.219   2.338   2.239 -0.0099 -0.0824  0.4718
  743MPD2    C510981   2.090   2.382   2.242  0.3093  0.1467  0.4267
  743MPD2     H10982   2.224   2.210   1.935 -0.6810  0.0290 -0.6011
  743MPD2    H110983   2.276   2.344   2.331 -1.6833  1.4969  1.4109
  743MPD2    H210984   1.902   2.394   2.146  0.8794  1.1492 -0.0022
  743MPD2    H310985   2.044   2.433   2.326 -0.6712 -0.9727  0.5822
  743MPD2     N10986   2.396   2.219   2.103  0.1001 -0.1549 -0.2839
  743MPD2    H510987   2.425   2.188   2.011  1.7591  1.2203 -0.2332
  743MPD2    N110988   1.951   2.272   1.926  0.1098  0.0538 -0.2744
  743MPD2    H710989   1.858   2.312   1.936  0.6975  1.6131 -0.9719
  744TMC3    C110990   1.864   2.184   1.721 -0.1800 -0.6836  0.5719
  744TMC3    C210991   1.773   2.290   1.716  0.8107 -0.1149 -0.5740
  744TMC3    C310992   1.685   2.290   1.610 -0.3121  0.0656  0.3779
  744TMC3    C410993   1.863   2.076   1.639 -0.7339 -0.7206  0.6057
  744TMC3    C510994   1.769   2.071   1.540 -0.0869  0.3406 -0.3216
  744TMC3    C610995   1.687   2.184   1.524 -0.3864  0.7941  0.0728
  744TMC3     C10996   1.973   2.192   1.820  0.3037 -0.5552  0.4220
  744TMC3     O10997   2.065   2.110   1.813  0.4659  0.3130  0.2329
  744TMC3     H10998   1.769   2.369   1.790  2.4173  1.7933 -2.5215
  744TMC3    H110999   1.928   1.992   1.658  1.8153  1.0047 -0.6192
  744TMC3    H211000   1.624   2.195   1.437 -0.7860  2.7296  0.6158
  744TMC3    C711001   1.779   1.969   1.436  0.2401 -0.0798 -0.0558
  744TMC3    C811002   1.587   2.396   1.589  0.4987 -0.4336 -0.3233
  744TMC3    O111003   1.888   1.908   1.444  0.4312  0.2916  0.0349
  744TMC3    O211004   1.523   2.393   1.485  0.5619 -0.4571  0.2755
  745TMC3    C111005   4.328   0.292  13.838 -1.0302  0.0562 -0.7171
  745TMC3    C211006   4.225   0.282  13.925  0.3656 -0.4204 -0.0985
  745TMC3    C311007   4.131   0.385  13.922  0.3643  0.0308 -0.4706
  745TMC3    C411008   4.320   0.370  13.725  0.6322 -0.1721  0.3173
  745TMC3    C511009   4.204   0.445  13.714 -0.8185  0.8047  0.2033
  745TMC3    C611010   4.111   0.453  13.810 -0.8834 -0.0011 -1.1237
  745TMC3     C11011   4.459   0.258  13.895 -0.0452  0.0212 -0.2822
  745TMC3     O11012   4.479   0.154  13.964 -0.8825 -0.5725  0.4685
  745TMC3     H11013   4.251   0.221  14.012 -0.6690 -1.3694 -0.4523
  745TMC3    H111014   4.392   0.362  13.644  0.2220 -1.4690  0.0851
  745TMC3    H211015   4.023   0.513  13.794  0.1998  0.6670 -4.4566
  745TMC3    C711016   4.164   0.509  13.586  0.1328  0.2049 -0.7993
  745TMC3    C811017   4.163   0.468  14.032 -0.4753  0.0093 -0.3090
  745TMC3    O111018   4.048   0.516  13.560 -0.3526  0.0691  0.4746
  745TMC3    O211019   4.205   0.408  14.131  0.2081 -0.3730 -0.1535
  746TMC3    C111020   2.601   2.495  11.071 -0.4301  0.2803 -0.4423
  746TMC3    C211021   2.724   2.482  11.018 -0.4116 -0.6118 -0.3835
  746TMC3    C311022   2.746   2.407  10.904 -0.6178 -0.5385  0.1084
  746TMC3    C411023   2.502   2.408  11.036  0.0233  0.0162  0.5277
  746TMC3    C511024   2.518   2.334  10.926  0.5910  0.7725  0.2037
  746TMC3    C611025   2.641   2.326  10.861  0.9390  0.1340 -0.2800
  746TMC3     C11026   2.548   2.627  11.069  0.3810 -0.3554  0.9885
  746TMC3     O11027   2.439   2.642  11.125 -0.3579  0.0825  0.3653
  746TMC3     H11028   2.795   2.560  11.044 -0.1287 -1.2288  0.7099
  746TMC3    H111029   2.401   2.425  11.072  0.4621  2.5793  0.5175
  746TMC3    H211030   2.660   2.275  10.767  0.1615  1.3078 -1.0985
  746TMC3    C711031   2.410   2.250  10.874  0.7723  0.3689  0.1956
  746TMC3    C811032   2.822   2.483  10.804 -0.3386  0.3048 -0.3841
  746TMC3    O111033   2.424   2.200  10.761 -0.6880  0.0198 -0.2219
  746TMC3    O211034   2.816   2.606  10.812  0.4504  0.1992 -0.3701
  747TMC3    C111035   4.616   2.444  10.872 -0.0773  0.9896  0.4713
  747TMC3    C211036   4.533   2.371  10.949 -0.8380  0.3453  0.3830
  747TMC3    C311037   4.502   2.414  11.074 -0.4952 -1.3125  0.0127
  747TMC3    C411038   4.679   2.553  10.919  0.4751  0.7283  0.0822
  747TMC3    C511039   4.658   2.587  11.046  0.2986  0.6238 -0.1686
  747TMC3    C611040   4.558   2.526  11.126  0.8914 -0.4248 -0.3061
  747TMC3     C11041   4.658   2.401  10.744 -0.1673  0.0948 -0.6141
  747TMC3     O11042   0.015   2.469  10.676  0.5982  0.5783  0.4697
  747TMC3     H11043   4.491   2.277  10.914 -3.1249  0.7982  1.9644
  747TMC3    H111044   0.043   2.597  10.871  1.2862 -0.6689  0.2473
  747TMC3    H211045   4.562   2.542  11.233 -0.8173  4.1074 -0.9159
  747TMC3    C711046   0.030   2.670  11.119 -0.4634  0.7310 -0.6484
  747TMC3    C811047   4.476   2.316  11.169  0.1926  0.4931 -0.3279
  747TMC3    O111048   4.714   2.740  11.210  0.5934 -0.2366 -0.1678
  747TMC3    O211049   4.540   2.214  11.170  0.3289 -0.1882 -0.2356
  748MPD2     C11050   1.457   3.443   2.133  0.1359 -0.1013 -0.1775
  748MPD2    C111051   1.469   3.399   2.007 -0.3617 -0.2638 -0.4256
  748MPD2    C211052   1.562   3.296   1.988 -1.0183 -0.6479  0.8617
  748MPD2    C311053   1.636   3.236   2.081 -0.3638  0.4767  0.2964
  748MPD2    C411054   1.620   3.285   2.208  0.0913  0.1191  0.6322
  748MPD2    C511055   1.525   3.382   2.234 -0.2990 -0.2852 -0.2731
  748MPD2     H11056   1.567   3.255   1.888 -2.9317  0.5375  0.2857
  748MPD2    H111057   1.686   3.246   2.285  0.1633 -0.8478  0.0836
  748MPD2    H211058   1.389   3.525   2.150  0.3078 -0.0768  0.4147
  748MPD2    H311059   1.514   3.426   2.332  0.0632  0.1428 -0.4261
  748MPD2     N11060   1.722   3.125   2.045 -1.0486 -0.6890  0.0476
  748MPD2    H511061   1.698   3.090   1.953  0.7585 -0.6735 -0.4333
  748MPD2    N111062   1.376   3.451   1.914  0.0959 -0.1680 -0.4207
  748MPD2    H711063   1.320   3.532   1.938  1.2508  0.1570  1.1609
  749TMC3    C111064   1.849   2.927   2.078  0.0578 -0.1354  0.3243
  749TMC3    C211065   1.968   2.882   2.135  0.7301  0.2426 -0.9359
  749TMC3    C311066   2.038   2.786   2.067  0.1230 -0.0948  0.6659
  749TMC3    C411067   1.812   2.885   1.949 -0.5446 -0.0054  0.5551
  749TMC3    C511068   1.891   2.796   1.881 -0.2206 -0.4644 -0.1059
  749TMC3    C611069   1.996   2.735   1.939  0.5389 -0.4821  0.7290
  749TMC3     C11070   1.793   3.042   2.136 -0.8419 -0.5458 -0.1016
  749TMC3     O11071   1.829   3.074   2.247  0.6211  1.0941  0.0196
  749TMC3     H11072   1.996   2.910   2.236  0.2718 -2.5560 -0.0273
  749TMC3    H111073   1.731   2.939   1.901 -0.2949 -1.3156 -1.3445
  749TMC3    H211074   2.054   2.662   1.883 -0.4667  0.9297 -2.1398
  749TMC3    C711075   1.839   2.742   1.758 -0.1390 -0.4354  0.1505
  749TMC3    C811076   2.171   2.756   2.108  0.5344  0.0528 -0.2200
  749TMC3    O111077   1.843   2.623   1.741  0.1377 -0.3315 -0.2164
  749TMC3    O211078   2.192   2.762   2.226  0.1754  0.4294 -0.1130
  750MPD2     C11079   2.779   4.288  11.377  0.5847  0.1789 -0.0529
  750MPD2    C111080   2.655   4.237  11.412 -0.9992  0.1798 -0.8990
  750MPD2    C211081   2.607   4.132  11.341  0.5665 -0.5180  0.2632
  750MPD2    C311082   2.677   4.076  11.233 -0.0498  0.8394 -0.5949
  750MPD2    C411083   2.795   4.126  11.194  0.9351  0.1832  0.2028
  750MPD2    C511084   2.843   4.239  11.268  0.1051  0.1483  0.2672
  750MPD2     H11085   2.511   4.089  11.366 -0.3201  0.7817 -0.9428
  750MPD2    H111086   2.832   4.081  11.103  1.3365 -1.2837  1.1007
  750MPD2    H211087   2.821   4.377  11.422  0.9706 -0.1533  0.2479
  750MPD2    H311088   2.935   4.291  11.243 -0.1629  0.4086 -0.1830
  750MPD2     N11089   2.630   3.969  11.152 -0.2140  0.5425 -0.7022
  750MPD2    H511090   2.703   3.926  11.096  1.9178  0.8022  1.8986
  750MPD2    N111091   2.579   4.308  11.510 -0.5682 -0.1099 -0.1689
  750MPD2    H711092   2.640   4.371  11.561 -1.7198 -0.5233  1.6989
  751TMC3    C111093   2.483   3.806  11.060  0.3733  0.1188  0.4561
  751TMC3    C211094   2.363   3.741  11.059 -0.4948 -0.8925  0.5551
  751TMC3    C311095   2.340   3.637  10.974  0.2135  0.6559  0.5233
  751TMC3    C411096   2.582   3.770  10.974  0.2411 -0.3684 -0.5455
  751TMC3    C511097   2.549   3.664  10.888  0.3961 -0.2548  0.0307
  751TMC3    C611098   2.434   3.594  10.886  0.6500  0.2576  0.1529
  751TMC3     C11099   2.501   3.916  11.161  0.0140  0.5292 -0.0636
  751TMC3     O11100   2.406   3.947  11.234  0.7504 -0.0473  0.0174
  751TMC3     H11101   2.293   3.783  11.130 -1.3322  0.6658 -1.1785
  751TMC3    H111102   2.681   3.812  10.979 -0.2389  0.9992 -2.6807
  751TMC3    H211103   2.410   3.505  10.829  0.4570  0.4889 -0.1269
  751TMC3    C711104   2.663   3.602  10.820 -0.2182  0.3569 -0.6574
  751TMC3    C811105   2.208   3.580  10.958  0.0102 -0.8844 -0.0946
  751TMC3    O111106   2.753   3.680  10.802  0.1840  0.6760  0.4293
  751TMC3    O211107   2.175   3.551  10.848  0.3200 -0.0561 -0.0483
  752TMC3    C111108   0.794   4.358  17.487  0.5949  0.3693  0.7031
  752TMC3    C211109   0.701   4.264  17.475  0.1539 -0.3741 -0.2543
  752TMC3    C311110   0.687   4.183  17.582  0.0173 -0.0664 -0.4450
  752TMC3    C411111   0.870   4.372  17.598 -0.6292  0.8760  0.2038
  752TMC3    C511112   0.851   4.295   0.015  0.9004 -0.0590  0.4820
  752TMC3    C611113   0.744   4.204   0.011  0.6064  1.0635 -0.7231
  752TMC3     C11114   0.865   4.390  17.369 -0.2887  0.3636  1.1876
  752TMC3     O11115   0.979   4.422  17.378 -0.5421  0.0418 -0.4689
  752TMC3     H11116   0.655   4.228  17.384  0.2517 -1.3622  0.0927
  752TMC3    H111117   0.946   4.449  17.608  0.1487  0.4369 -2.6000
  752TMC3    H211118   0.730   4.141   0.097  3.6741  0.8639 -0.3644
  752TMC3    C711119   0.929   4.326   0.139 -0.5372  0.1461 -0.0263
  752TMC3    C811120   0.596   4.065  17.574  0.1885 -0.0049 -0.8127
  752TMC3    O111121   0.988   4.433   0.139 -0.3070 -0.0730 -0.4210
  752TMC3    O211122   0.530   4.048  17.470  0.4108  0.5829  0.7020
  753TMC3    C111123   3.027   0.440  13.362 -0.2031 -0.2239 -0.2755
  753TMC3    C211124   3.124   0.439  13.461  0.4382 -0.2434  0.1451
  753TMC3    C311125   3.109   0.350  13.564  0.1214  0.6727  0.4832
  753TMC3    C411126   2.922   0.345  13.359 -0.5855  0.1367  0.1722
  753TMC3    C511127   2.909   0.273  13.465 -0.0602 -0.0126 -0.0483
  753TMC3    C611128   2.999   0.277  13.567  0.5353 -0.3316 -0.1245
  753TMC3     C11129   2.981   0.566  13.315  0.2528 -0.4592  0.7943
  753TMC3     O11130   2.857   0.582  13.317  0.3433 -0.7182 -0.2030
  753TMC3     H11131   3.207   0.508  13.454  0.2585 -0.1433 -1.0145
  753TMC3    H111132   2.847   0.368  13.285  1.0804  3.3634 -0.5199
  753TMC3    H211133   2.980   0.205  13.646 -1.2254 -1.0915 -1.2434
  753TMC3    C711134   2.804   0.172  13.466  0.3107 -0.0697  0.0754
  753TMC3    C811135   3.205   0.342  13.671 -0.0285  0.1769 -0.5929
  753TMC3    O111136   2.733   0.145  13.560  0.7038 -0.0642 -0.1023
  753TMC3    O211137   3.196   0.243  13.739 -0.0444  0.2178  0.4770
  754MPD2     C11138   1.956   3.974  12.977 -0.2400 -0.4394  0.3273
  754MPD2    C111139   1.899   3.856  12.949 -0.3373 -0.3716  0.4498
  754MPD2    C211140   1.782   3.862  12.876  0.6432 -0.3672 -0.5102
  754MPD2    C311141   1.730   3.983  12.838  0.6353 -0.1285  0.1748
  754MPD2    C411142   1.785   4.101  12.861  0.3718 -0.3814  0.1589
  754MPD2    C511143   1.903   4.092  12.938  0.0235 -0.4655  0.5260
  754MPD2     H11144   1.732   3.773  12.841  1.5854 -1.8161  1.8510
  754MPD2    H111145   1.742   4.198  12.840  0.1505 -0.6841 -0.7608
  754MPD2    H211146   2.052   3.985  13.027 -0.0916 -1.5217  0.2655
  754MPD2    H311147   1.955   4.184  12.960  1.1947 -0.6139 -1.6771
  754MPD2     N11148   1.606   3.985  12.774  0.3045 -0.6893 -0.3915
  754MPD2    H511149   1.577   4.080  12.751  0.6160 -0.2520  0.9849
  754MPD2    N111150   1.967   3.741  12.991  0.5898 -0.2245 -0.0357
  754MPD2    H711151   2.062   3.759  13.023  0.3495 -1.0869  1.1519
  755MPD2     C11152   0.925   4.609  12.943 -0.0723  0.6702 -0.2864
  755MPD2    C111153   1.000   4.528  13.032  0.5835 -0.5562  0.1008
  755MPD2    C211154   1.074   4.419  12.984 -0.3345 -0.5758  0.1655
  755MPD2    C311155   1.089   4.396  12.846 -0.7506  0.0153  0.0472
  755MPD2    C411156   1.039   4.492  12.765 -0.3736 -0.3734 -0.0428
  755MPD2    C511157   0.955   4.590  12.812  0.0093  0.2177 -0.1455
  755MPD2     H11158   1.112   4.346  13.055 -0.6673 -0.8098  0.1011
  755MPD2    H111159   1.061   4.481  12.659  2.6672 -1.7197  0.7053
  755MPD2    H211160   0.842   4.669  12.976  0.5530  1.3568  0.0427
  755MPD2    H311161   0.914   4.664  12.744  1.0022  0.5188 -0.4062
  755MPD2     N11162   1.150   4.285  12.793  0.3569 -0.4676  0.2649
  755MPD2    H511163   1.175   4.285  12.695 -0.0015 -0.8342  0.1707
  755MPD2    N111164   0.983   4.554  13.172  0.2315  0.0446 -0.3571
  755MPD2    H711165   0.924   4.635  13.190 -0.5797 -0.3877 -1.0984
  756MPD2     C11166   2.256   0.419   9.689  0.2572 -0.3728 -0.1382
  756MPD2    C111167   2.190   0.314   9.751 -0.7493  0.2066 -0.6489
  756MPD2    C211168   2.077   0.258   9.688 -0.0526  0.5705 -0.1228
  756MPD2    C311169   2.038   0.301   9.563 -0.6466 -0.1863 -0.4003
  756MPD2    C411170   2.111   0.398   9.495  0.3361  0.1077  0.7191
  756MPD2    C511171   2.219   0.455   9.558 -0.4768 -0.0651  0.1826
  756MPD2     H11172   2.044   0.168   9.738  0.2920  1.8409  2.4011
  756MPD2    H111173   2.091   0.428   9.393  1.2533  0.4860  0.6527
  756MPD2    H211174   2.341   0.469   9.734 -0.9367 -0.7354  2.5081
  756MPD2    H311175   2.275   0.527   9.500 -0.3682  1.1070  1.7321
  756MPD2     N11176   1.937   0.232   9.498  0.2806  0.3200  0.4115
  756MPD2    H511177   1.896   0.159   9.557  0.9601  0.3505  0.9131
  756MPD2    N111178   2.231   0.261   9.876 -0.2389 -0.0613  0.9026
  756MPD2    H711179   2.169   0.198   9.925 -0.0977 -0.8732  0.0402
  757MPD2     C11180   1.496   4.103   9.583 -0.9403 -0.1439  0.1116
  757MPD2    C111181   1.425   4.152   9.475  0.9338 -0.4698 -0.1938
  757MPD2    C211182   1.475   4.266   9.418 -0.1328 -0.5798 -0.2839
  757MPD2    C311183   1.595   4.327   9.460  0.1375  0.2155  0.0729
  757MPD2    C411184   1.661   4.274   9.565 -0.1461  0.4955 -0.0244
  757MPD2    C511185   1.611   4.163   9.622  0.0897  0.0289  0.8817
  757MPD2     H11186   1.426   4.316   9.335 -1.6050  0.5086  1.2574
  757MPD2    H111187   1.746   4.317   9.618 -1.2389  1.1166  1.2223
  757MPD2    H211188   1.459   4.012   9.629  0.5490  0.5058  2.5859
  757MPD2    H311189   1.669   4.118   9.702 -0.1792 -1.2335  0.3629
  757MPD2     N11190   1.625   4.446   9.392  0.4758 -0.0251  0.0050
  757MPD2    H511191   1.568   4.475   9.314  2.2156 -0.4251 -1.4363
  757MPD2    N111192   1.319   4.074   9.426 -0.1092 -0.1548  0.0359
  757MPD2    H711193   1.310   3.983   9.470  0.0244 -0.0174  0.3467
  758MPD2     C11194   1.667   3.344  15.931  0.1618 -0.0574  0.1193
  758MPD2    C111195   1.701   3.294  16.054 -0.5715 -0.5802  0.0557
  758MPD2    C211196   1.616   3.316  16.166  0.1626 -0.0967  0.5383
  758MPD2    C311197   1.499   3.381  16.147  0.1402 -0.2154  0.0518
  758MPD2    C411198   1.472   3.440  16.024  0.0748 -0.0627 -0.4768
  758MPD2    C511199   1.551   3.420  15.916 -0.3509  0.4871 -0.3831
  758MPD2     H11200   1.646   3.277  16.262  0.7722 -0.8018  0.0617
  758MPD2    H111201   1.377   3.487  16.006 -0.5840 -1.2213 -0.0392
  758MPD2    H211202   1.728   3.328  15.843  2.1987  0.1528  1.4869
  758MPD2    H311203   1.528   3.466  15.821 -1.0242  0.5844 -0.1724
  758MPD2     N11204   1.413   3.402  16.262  0.5256  0.0589 -0.1774
  758MPD2    H511205   1.336   3.468  16.255  2.2529  1.8163 -2.9506
  758MPD2    N111206   1.828   3.230  16.076  0.5790 -0.5504 -0.0563
  758MPD2    H711207   1.838   3.171  16.158  1.0883 -0.6091 -0.1606
  759MPD2     C11208   1.843   2.104   9.574  0.6865  0.0488 -0.5632
  759MPD2    C111209   1.712   2.108   9.551  0.2573  0.5744 -0.5447
  759MPD2    C211210   1.668   2.199   9.463  0.5595 -0.0973 -0.6441
  759MPD2    C311211   1.751   2.300   9.410 -0.6715  0.1431  0.2740
  759MPD2    C411212   1.883   2.310   9.448  0.6768 -0.0547 -0.2915
  759MPD2    C511213   1.931   2.201   9.519 -0.4159 -0.5283  0.4051
  759MPD2     H11214   1.564   2.183   9.436  0.2140  1.3478 -0.1629
  759MPD2    H111215   1.958   2.374   9.402  0.4882  0.6647  0.4167
  759MPD2    H211216   1.879   2.039   9.653 -2.9061 -1.0012  0.2235
  759MPD2    H311217   2.032   2.203   9.558 -0.7930 -2.0870  1.4449
  759MPD2     N11218   1.691   2.404   9.337 -0.0802  0.0250 -0.1651
  759MPD2    H511219   1.590   2.406   9.337 -0.0916 -0.8243  0.7960
  759MPD2    N111220   1.621   2.023   9.608 -0.1626  0.1139  0.1227
  759MPD2    H711221   1.531   2.021   9.561  0.6935 -0.0592 -1.4932
  760MPD2     C11222   0.493   4.147  11.546 -0.9278  0.2045  0.3153
  760MPD2    C111223   0.625   4.191  11.537 -0.4401 -0.0231  0.2960
  760MPD2    C211224   0.713   4.094  11.503 -0.2988  0.1805 -0.2774
  760MPD2    C311225   0.682   3.959  11.502  0.0435 -0.1543 -0.4584
  760MPD2    C411226   0.556   3.916  11.506  0.2691 -1.0151  0.0316
  760MPD2    C511227   0.462   4.010  11.529 -0.5137  0.6555  0.2056
  760MPD2     H11228   0.818   4.123  11.507  0.2022 -1.8260  1.2179
  760MPD2    H111229   0.521   3.815  11.490  0.0049 -1.1187  1.2457
  760MPD2    H211230   0.414   4.215  11.578 -0.1815 -0.0193  2.6284
  760MPD2    H311231   0.360   3.978  11.547 -0.3159 -0.6143 -0.9264
  760MPD2     N11232   0.776   3.856  11.495 -0.6823 -0.1536  0.5358
  760MPD2    H511233   0.738   3.762  11.483 -0.7399 -0.3358  2.1412
  760MPD2    N111234   0.668   4.327  11.545 -0.0520  0.1014  0.0730
  760MPD2    H711235   0.766   4.353  11.552 -0.7232  2.3542  1.1171
  761MPD2     C11236   1.762   3.423  11.163  0.1110  0.5639  0.3992
  761MPD2    C111237   1.805   3.423  11.031  0.1715 -0.1723 -0.6653
  761MPD2    C211238   1.926   3.487  10.998 -0.5259 -0.3526  0.2207
  761MPD2    C311239   2.008   3.535  11.097 -0.0664  0.7925 -0.4996
  761MPD2    C411240   1.962   3.540  11.227 -0.0720  0.2428 -0.6091
  761MPD2    C511241   1.844   3.473  11.258 -0.4215  0.7528 -0.2592
  761MPD2     H11242   1.965   3.494  10.897 -1.0051  0.8213  0.1140
  761MPD2    H111243   2.033   3.571  11.304 -1.0938  1.0742  0.0084
  761MPD2    H211244   1.667   3.376  11.185 -0.6311  2.6971  1.8318
  761MPD2    H311245   1.805   3.471  11.360  2.2341  2.4837  0.7950
  761MPD2     N11246   2.137   3.592  11.075 -0.1492  0.9172  0.6385
  761MPD2    H511247   2.195   3.604  11.157  0.5200  0.5128  0.2265
  761MPD2    N111248   1.734   3.353  10.929  0.2277 -0.5136  0.1914
  761MPD2    H711249   1.663   3.283  10.948  0.4811 -0.5785  0.9159
  762MPD2     C11250   2.327   3.454  10.576 -0.2228 -0.1546  0.3392
  762MPD2    C111251   2.295   3.330  10.538 -0.0124 -0.2008 -0.0628
  762MPD2    C211252   2.378   3.254  10.454 -0.0955  0.1339 -0.5256
  762MPD2    C311253   2.491   3.314  10.403 -0.3920 -1.0271  0.0730
  762MPD2    C411254   2.525   3.437  10.443  0.0152 -0.2673  0.5353
  762MPD2    C511255   2.444   3.516  10.528 -0.7798  0.4678  0.8659
  762MPD2     H11256   2.362   3.155  10.413 -0.4650 -0.6024  1.3677
  762MPD2    H111257   2.618   3.490  10.425  0.8727 -2.0038 -0.1809
  762MPD2    H211258   2.265   3.519  10.637  1.6874  0.9999  1.0445
  762MPD2    H311259   2.476   3.611  10.568 -1.7822  1.7058 -1.2705
  762MPD2     N11260   2.584   3.231  10.339  0.6584 -0.3754  0.5638
  762MPD2    H511261   2.550   3.141  10.305 -0.3340  0.7045 -1.3041
  762MPD2    N111262   2.165   3.286  10.580 -0.2592  0.1984 -0.5730
  762MPD2    H711263   2.115   3.350  10.641 -0.4737 -0.2843 -0.2380
  763MPD2     C11264   3.431   3.098  15.865  0.2599  0.0742 -0.3664
  763MPD2    C111265   3.387   3.228  15.843  0.3948  0.3437  0.0794
  763MPD2    C211266   3.439   3.332  15.930 -0.0098  0.7648 -0.3461
  763MPD2    C311267   3.543   3.300  16.014  1.1577 -0.5791 -0.1402
  763MPD2    C411268   3.590   3.172  16.018  1.1110  0.1791 -0.0658
  763MPD2    C511269   3.525   3.072  15.957  0.3444 -0.3832 -0.1320
  763MPD2     H11270   3.411   3.435  15.909 -1.3199  0.7371  1.2442
  763MPD2    H111271   3.677   3.155  16.081  1.0788  1.9431  0.4545
  763MPD2    H211272   3.383   3.020  15.807  0.0652 -1.5790  2.0443
  763MPD2    H311273   3.567   2.972  15.947  1.7817  0.1796  0.3429
  763MPD2     N11274   3.613   3.400  16.083 -0.2081 -0.4774 -0.1883
  763MPD2    H511275   3.712   3.379  16.092 -0.2433 -0.7676 -0.4915
  763MPD2    N111276   3.296   3.263  15.738 -0.0292  0.0322 -0.3286
  763MPD2    H711277   3.279   3.363  15.732  2.9221  0.5968  0.9023
  764MPD2     C11278   1.969   0.227  17.484  0.3681  1.4093 -0.2199
  764MPD2    C111279   1.839   0.182  17.481  0.1145 -0.3201  0.2602
  764MPD2    C211280   1.790   0.115  17.592  0.4452  0.3111  0.0782
  764MPD2    C311281   1.872   0.071  17.692  0.0984  0.6901 -0.7272
  764MPD2    C411282   2.007   0.096  17.682  0.6051  0.2132 -0.4629
  764MPD2    C511283   2.058   0.179  17.582 -0.0934  0.8331 -0.4852
  764MPD2     H11284   1.688   0.081  17.597  0.3181  0.5863 -0.6648
  764MPD2    H111285   2.070   0.066   0.070  2.3562 -0.1838 -1.9284
  764MPD2    H211286   2.015   0.303  17.422  1.1818  0.5668 -0.6551
  764MPD2    H311287   2.164   0.196  17.596 -0.1398  1.6103 -0.9989
  764MPD2     N11288   1.814   0.013   0.118  0.4955  0.2797 -0.4435
  764MPD2    H511289   1.713   0.005   0.114  0.6865 -1.6923 -1.0968
  764MPD2    N111290   1.749   0.210  17.373  0.4752 -0.4790 -0.4388
  764MPD2    H711291   1.655   0.172  17.378  0.4884 -0.6004 -1.1058
  765MPD2     C11292   1.733   2.901  15.963  0.1754 -0.5271  0.0431
  765MPD2    C111293   1.729   2.860  15.830  0.3312  0.1803  0.1249
  765MPD2    C211294   1.825   2.758  15.792 -0.5397  0.1795  0.2374
  765MPD2    C311295   1.919   2.721  15.885 -0.6966  0.6480 -0.2120
  765MPD2    C411296   1.921   2.757  16.015 -0.6367 -0.4572  0.1564
  765MPD2    C511297   1.826   2.848  16.052  0.3504  0.9847  0.1111
  765MPD2     H11298   1.832   2.721  15.690 -1.9672  0.6198 -0.0238
  765MPD2    H111299   1.986   2.710  16.088 -0.7560 -0.1473  0.4605
  765MPD2    H211300   1.656   2.972  15.990 -0.0068 -0.2364 -1.2301
  765MPD2    H311301   1.829   2.877  16.156  0.7273 -1.3032  0.7455
  765MPD2     N11302   2.016   2.628  15.835 -0.1265  0.3163 -0.1330
  765MPD2    H511303   2.009   2.608  15.736  1.1261  1.4598 -0.4525
  765MPD2    N111304   1.628   2.912  15.740 -0.3170 -0.5061  0.1122
  765MPD2    H711305   1.562   2.972  15.789 -0.1306  0.9462 -1.4373
  766MPD2     C11306   0.889   3.023  15.207 -0.1508  0.3504  0.9384
  766MPD2    C111307   1.031   3.009  15.192 -0.3628 -0.2258  0.1504
  766MPD2    C211308   1.088   2.996  15.063  0.2629  0.6375  0.1576
  766MPD2    C311309   1.014   2.992  14.948  0.3038 -0.2909  0.8551
  766MPD2    C411310   0.879   3.000  14.962 -0.5269 -0.2149  0.1905
  766MPD2    C511311   0.816   3.028  15.088 -0.4485 -0.7128 -0.4655
  766MPD2     H11312   1.196   2.992  15.054  0.5503  3.2992  2.6664
  766MPD2    H111313   0.824   3.025  14.872  0.4479  1.1090 -0.0366
  766MPD2    H211314   0.850   3.050  15.305 -1.5944 -0.1302  0.4852
  766MPD2    H311315   0.717   3.072  15.082  0.5399  1.7992  1.7354
  766MPD2     N11316   1.078   2.983  14.822  0.0859  0.5306 -0.2728
  766MPD2    H511317   1.011   2.983  14.745  1.8957 -0.8101 -1.8627
  766MPD2    N111318   1.112   3.031  15.303  0.0950  0.2316 -0.1975
  766MPD2    H711319   1.073   3.058  15.393  0.7584 -3.7377  1.3166
  767MPD2     C11320   0.728   3.310  14.886  0.4997 -0.0736  0.2489
  767MPD2    C111321   0.848   3.323  14.830  0.1181 -0.7437 -0.2034
  767MPD2    C211322   0.859   3.318  14.688 -0.3910 -0.0720  0.0972
  767MPD2    C311323   0.750   3.276  14.615  0.1163 -0.3972 -0.5213
  767MPD2    C411324   0.630   3.241  14.673 -0.3871  0.0129 -0.5109
  767MPD2    C511325   0.620   3.264  14.810  0.1709  0.1927 -0.0048
  767MPD2     H11326   0.957   3.331  14.643 -0.5959  0.6195 -0.1466
  767MPD2    H111327   0.545   3.194  14.626  0.6310 -0.7409 -1.6130
  767MPD2    H211328   0.721   3.331  14.992  0.8216 -2.3776  0.7394
  767MPD2    H311329   0.529   3.251  14.868  0.3774 -2.9524 -0.3643
  767MPD2     N11330   0.764   3.261  14.472  0.1755 -0.5229  0.0607
  767MPD2    H511331   0.859   3.260  14.436  0.3666 -1.1692  0.5995
  767MPD2    N111332   0.954   3.354  14.921  0.3982  0.2541 -0.0426
  767MPD2    H711333   0.937   3.377  15.019  3.3071 -1.9868  1.0002
  768MPD2     C11334   1.565   1.398  10.871 -1.0854 -0.2674 -0.2709
  768MPD2    C111335   1.655   1.493  10.867  0.2644 -0.2631 -0.0605
  768MPD2    C211336   1.699   1.536  10.991 -0.2042  0.2637 -0.0741
  768MPD2    C311337   1.652   1.479  11.112 -0.3810  0.3626  0.8773
  768MPD2    C411338   1.544   1.389  11.107  0.0367 -0.4287 -0.7501
  768MPD2    C511339   1.510   1.346  10.987 -0.3622 -0.2905  0.2707
  768MPD2     H11340   1.784   1.604  10.996 -1.8271  2.4299 -1.6769
  768MPD2    H111341   1.496   1.347  11.195 -1.9349  0.8836 -1.2154
  768MPD2    H211342   1.528   1.368  10.773 -0.6686 -0.0788 -0.4875
  768MPD2    H311343   1.429   1.274  10.978  0.2361 -0.7906 -1.1247
  768MPD2     N11344   1.718   1.508  11.226  0.0433  0.5055 -0.0414
  768MPD2    H511345   1.695   1.456  11.310 -1.0435 -0.0760 -0.7047
  768MPD2    N111346   1.719   1.542  10.753  0.2638 -0.1538  0.7580
  768MPD2    H711347   1.797   1.602  10.776  1.2290  0.1136 -3.2784
  769MPD2     C11348   2.846   4.637  14.850  0.1738 -0.5415  0.3057
  769MPD2    C111349   2.762   4.587  14.945 -0.5351 -0.0374  0.7538
  769MPD2    C211350   2.790   4.615  15.076  0.0304  0.7059 -0.4019
  769MPD2    C311351   2.904   4.672  15.118 -0.3547 -0.4472  0.5017
  769MPD2    C411352   2.989   0.003  15.022  0.3745  0.0216  0.7944
  769MPD2    C511353   2.956   4.712  14.893  0.4495 -0.0732  0.3528
  769MPD2     H11354   2.726   4.571  15.152 -2.5211  3.6860 -0.8217
  769MPD2    H111355   3.076   0.061  15.048  0.3094  0.4595  0.0272
  769MPD2    H211356   2.830   4.621  14.745  1.4093 -1.2109  0.2247
  769MPD2    H311357   3.025   0.026  14.819  0.9683 -0.6449  0.5504
  769MPD2     N11358   2.923   4.677  15.267  0.2221  0.0884 -0.4031
  769MPD2    H511359   2.844   4.651  15.325  0.0303 -1.4473 -1.3313
  769MPD2    N111360   2.644   4.518  14.905  0.1848  0.1270  0.5018
  769MPD2    H711361   2.631   4.500  14.806  1.4318  0.3166  0.3046
  770MPD2     C11362   2.071   3.665  15.250 -0.1004 -0.1351  0.5179
  770MPD2    C111363   2.154   3.636  15.144 -0.5173  0.2198  0.3139
  770MPD2    C211364   2.203   3.746  15.077  0.3340  0.4124 -0.7398
  770MPD2    C311365   2.175   3.878  15.108  1.0013 -0.0688 -0.2207
  770MPD2    C411366   2.110   3.901  15.231 -0.0370  0.5021 -0.2731
  770MPD2    C511367   2.054   3.794  15.295  0.0959  0.4876 -0.3055
  770MPD2     H11368   2.253   3.722  14.983 -0.3763 -1.4076 -0.6561
  770MPD2    H111369   2.082   3.995  15.279  1.2482  0.9028 -0.3099
  770MPD2    H211370   2.036   3.580  15.307 -0.8043  1.0109  1.7779
  770MPD2    H311371   2.006   3.807  15.391 -1.7005 -3.6176 -0.6437
  770MPD2     N11372   2.227   3.982  15.029  0.4824 -0.1676  0.4530
  770MPD2    H511373   2.258   3.955  14.936 -2.3128  1.1606 -0.8968
  770MPD2    N111374   2.175   3.506  15.114  0.5808  0.6476  0.8248
  770MPD2    H711375   2.121   3.433  15.160 -0.1427  0.6953  0.0490
  771MPD2     C11376   3.562   2.593  13.593 -0.2975 -0.0400 -0.3532
  771MPD2    C111377   3.477   2.692  13.546 -0.7044  0.0410  0.6871
  771MPD2    C211378   3.367   2.656  13.471 -0.4212 -0.6920 -0.2237
  771MPD2    C311379   3.336   2.519  13.443 -0.3686  0.1636 -0.4593
  771MPD2    C411380   3.425   2.416  13.491 -0.0429 -0.5574  0.1077
  771MPD2    C511381   3.536   2.463  13.559 -0.0708  0.8677 -0.3164
  771MPD2     H11382   3.302   2.735  13.435  1.9093  2.7140  2.9466
  771MPD2    H111383   3.404   2.311  13.476 -2.0949 -0.2381  0.7711
  771MPD2    H211384   3.654   2.606  13.649  0.7318 -1.1228 -1.7767
  771MPD2    H311385   3.599   2.385  13.599 -0.1923 -0.3029 -2.4211
  771MPD2     N11386   3.220   2.490  13.361  0.1604  0.0277 -0.6029
  771MPD2    H511387   3.159   2.568  13.337  1.0859  0.6487 -0.9087
  771MPD2    N111388   3.504   2.834  13.558  0.1222  0.2324  0.4487
  771MPD2    H711389   3.437   2.904  13.528 -1.1424 -1.6311 -1.0609
  772MPD2     C11390   3.172   3.489  13.603  0.4409  0.0810  0.1636
  772MPD2    C111391   3.179   3.349  13.600  0.8391  0.8574 -0.5365
  772MPD2    C211392   3.060   3.284  13.606 -0.1279  0.8106 -0.5219
  772MPD2    C311393   2.941   3.351  13.630  0.5283 -0.0198 -0.4707
  772MPD2    C411394   2.936   3.492  13.639  0.0671  0.6787  0.6717
  772MPD2    C511395   3.054   3.555  13.619  0.1752  0.7707 -0.0910
  772MPD2     H11396   3.060   3.176  13.606  2.0651  0.8213  1.6603
  772MPD2    H111397   2.849   3.548  13.671  0.0911 -0.7269  3.1182
  772MPD2    H211398   3.260   3.552  13.592 -0.7401  1.9965  1.7297
  772MPD2    H311399   3.058   3.663  13.625 -3.2213  0.9561 -1.2692
  772MPD2     N11400   2.820   3.288  13.662  0.0862  0.4639  0.3198
  772MPD2    H511401   2.748   3.347  13.702  0.2935  1.2235 -0.4109
  772MPD2    N111402   3.292   3.272  13.587  0.2921 -0.7164 -0.2896
  772MPD2    H711403   3.289   3.172  13.566 -0.2049 -0.5389 -1.0693
  773MPD2     C11404   2.210   3.626   0.070  0.4736 -1.0673  0.2795
  773MPD2    C111405   2.145   3.506   0.034  0.2543 -0.7345 -0.0826
  773MPD2    C211406   2.168   3.393   0.108  0.2713 -0.3623 -0.4769
  773MPD2    C311407   2.269   3.394   0.206  0.4957  0.3113  0.0198
  773MPD2    C411408   2.330   3.513   0.239 -0.7246  0.1824  0.1919
  773MPD2    C511409   2.307   3.624   0.169  0.3927 -0.4651  0.0686
  773MPD2     H11410   2.107   3.308   0.081 -1.4692  0.7321  0.0288
  773MPD2    H111411   2.402   3.519   0.319  0.1295  1.9619 -0.7029
  773MPD2    H211412   2.181   3.722   0.029 -1.4772 -1.3197  1.1071
  773MPD2    H311413   2.354   3.718   0.191 -1.5944  0.3371  0.9199
  773MPD2     N11414   2.298   3.274   0.284 -0.0329 -0.2509 -0.2545
  773MPD2    H511415   2.251   3.188   0.259  2.1265 -0.6700 -2.9322
  773MPD2    N111416   2.036   3.516  17.641  0.3600 -0.6254 -0.1248
  773MPD2    H711417   1.976   3.437  17.622  1.4401 -2.2892  3.3091
  774MPD2     C11418   1.509   2.779  13.052 -0.9078 -0.6651 -0.2991
  774MPD2    C111419   1.487   2.836  13.180 -0.0504  1.0516  0.0470
  774MPD2    C211420   1.502   2.977  13.185  0.2253 -0.4880  0.1404
  774MPD2    C311421   1.531   3.054  13.062 -0.4250 -0.4120  0.3038
  774MPD2    C411422   1.526   2.989  12.939  0.0102  0.5075  0.3608
  774MPD2    C511423   1.530   2.855  12.942  0.3283 -1.3820 -0.0265
  774MPD2     H11424   1.493   3.032  13.278  0.3578  1.2895 -0.8891
  774MPD2    H111425   1.533   3.040  12.843  2.9003  0.3317  0.4648
  774MPD2    H211426   1.512   2.671  13.044  0.5811 -0.4960 -2.0686
  774MPD2    H311427   1.534   2.802  12.847  0.4676  0.3324 -0.9753
  774MPD2     N11428   1.543   3.196  13.069 -0.0759 -0.4819  0.0067
  774MPD2    H511429   1.529   3.240  13.159 -0.0697 -0.3841 -0.0406
  774MPD2    N111430   1.478   2.752  13.292 -0.2422  0.2623  0.4218
  774MPD2    H711431   1.512   2.656  13.286 -2.9452 -0.6172 -0.6621
  775MPD2     C11432   3.254   4.207  15.890 -0.5899  0.0370 -1.3357
  775MPD2    C111433   3.202   4.334  15.901 -0.2507  0.9890  0.0443
  775MPD2    C211434   3.262   4.442  15.835  0.4294 -0.0774 -0.0120
  775MPD2    C311435   3.385   4.429  15.779  0.1174  0.0925  0.8171
  775MPD2    C411436   3.444   4.303  15.779  0.0308 -0.0628 -0.1935
  775MPD2    C511437   3.375   4.194  15.835  0.3207 -0.6577 -0.2744
  775MPD2     H11438   3.208   4.536  15.839 -2.1367 -1.6413  2.6841
  775MPD2    H111439   3.543   4.297  15.735  0.0133 -1.4481 -0.0616
  775MPD2    H211440   3.197   4.118  15.914  0.5091 -0.3891 -0.2817
  775MPD2    H311441   3.425   4.098  15.828 -1.3868 -1.5597  0.1100
  775MPD2     N11442   3.444   4.534  15.710 -0.4809 -0.5414  0.5276
  775MPD2    H511443   3.534   4.523  15.665 -0.8749 -2.2526  0.1774
  775MPD2    N111444   3.077   4.344  15.966  0.3674  0.2985  0.0580
  775MPD2    H711445   3.023   4.259  15.975  0.8684  0.1385  1.5502
  776MPD2     C11446   2.391   0.233  11.995  0.3235 -0.4769 -0.6083
  776MPD2    C111447   2.437   0.197  11.878  0.1636 -0.2816 -0.2490
  776MPD2    C211448   2.450   0.286  11.770  0.8157  0.0185  0.3272
  776MPD2    C311449   2.423   0.416  11.780 -0.1612  0.5289 -0.3026
  776MPD2    C411450   2.372   0.458  11.900 -0.7233 -0.5305  1.1055
  776MPD2    C511451   2.366   0.372  12.012  0.3657 -0.3540  0.2302
  776MPD2     H11452   2.492   0.243  11.679 -1.4815 -0.7498 -0.3828
  776MPD2    H111453   2.353   0.564  11.909  4.5894  0.4705  0.0671
  776MPD2    H211454   2.373   0.165  12.078  0.0538  1.8353  1.2146
  776MPD2    H311455   2.354   0.408  12.114 -2.4141 -1.3872  0.2707
  776MPD2     N11456   2.462   0.517  11.692 -0.2311 -0.5661  1.1435
  776MPD2    H511457   2.438   0.613  11.718 -1.4902 -0.7493  0.6703
  776MPD2    N111458   2.462   0.056  11.876  0.3447 -0.0828 -0.1885
  776MPD2    H711459   2.422   0.003  11.953 -1.5531  2.8362  0.8196
  777MPD2     C11460   2.776   2.315   0.983  0.3860  0.0288 -0.2321
  777MPD2    C111461   2.714   2.236   1.085 -0.2880  0.3083  1.1281
  777MPD2    C211462   2.617   2.141   1.042 -0.3699 -0.4583  0.8495
  777MPD2    C311463   2.587   2.127   0.906  0.3813  0.1589  0.6486
  777MPD2    C411464   2.664   2.193   0.810  0.5995  1.0589 -0.7470
  777MPD2    C511465   2.746   2.294   0.848 -0.0687 -0.3535 -0.5603
  777MPD2     H11466   2.570   2.072   1.111  0.4838 -0.3907  1.5083
  777MPD2    H111467   2.650   2.185   0.703  0.9296  0.1486 -0.7271
  777MPD2    H211468   2.849   2.388   1.015 -0.7776  1.1765 -0.2077
  777MPD2    H311469   2.792   2.352   0.768 -0.1360 -0.5842 -0.7653
  777MPD2     N11470   2.479   2.039   0.867  0.3525 -0.2147  0.7990
  777MPD2    H511471   2.433   1.984   0.939 -0.8251 -1.1456 -0.6732
  777MPD2    N111472   2.753   2.250   1.215  0.2103  0.5287 -0.1551
  777MPD2    H711473   2.825   2.320   1.228 -1.1020  1.2534  3.2992
  778MPD2     C11474   3.537   2.691  14.739  0.0019 -0.7329 -0.1713
  778MPD2    C111475   3.606   2.573  14.713 -0.2712 -0.4257  0.5291
  778MPD2    C211476   3.706   2.575  14.617  0.3466  0.5404 -0.3798
  778MPD2    C311477   3.745   2.695  14.564  0.2358  0.0334 -0.1581
  778MPD2    C411478   3.680   2.810  14.597 -0.1428  0.0935  0.6405
  778MPD2    C511479   3.575   2.813  14.687 -0.4427  0.2908 -0.0500
  778MPD2     H11480   3.747   2.480  14.583 -2.1239 -0.6569 -0.0624
  778MPD2    H111481   3.711   2.908  14.564 -0.2776  0.0566  0.4056
  778MPD2    H211482   3.461   2.690  14.817  0.3542 -0.3870  0.1757
  778MPD2    H311483   3.518   2.901  14.713  0.9332  1.2254 -0.2196
  778MPD2     N11484   3.866   2.690  14.490  0.2827 -0.2222  0.0082
  778MPD2    H511485   3.916   2.602  14.487  0.9178  0.0937  1.4385
  778MPD2    N111486   3.562   2.442  14.754 -0.4148 -0.0932  0.3061
  778MPD2    H711487   3.602   2.362  14.707 -1.3026  0.3886 -1.2683
  779MPD2     C11488   3.161   1.636  13.898  0.0093 -0.1060 -0.3051
  779MPD2    C111489   3.285   1.630  13.949  0.3014 -0.5772  0.4533
  779MPD2    C211490   3.347   1.751  13.974 -0.5277  0.5269 -0.0192
  779MPD2    C311491   3.294   1.870  13.925  0.1261 -0.1422 -0.0799
  779MPD2    C411492   3.173   1.862  13.860 -0.7957  0.4829 -0.3108
  779MPD2    C511493   3.097   1.749  13.854  0.6058 -0.4575  0.2632
  779MPD2     H11494   3.447   1.759  14.015 -0.3376 -0.1752 -0.3570
  779MPD2    H111495   3.120   1.947  13.819 -0.2753 -0.0498 -2.0704
  779MPD2    H211496   3.109   1.543  13.877 -1.8105  0.8703 -0.1792
  779MPD2    H311497   2.997   1.738  13.815  1.2367  2.7423 -2.1731
  779MPD2     N11498   3.368   1.991  13.938 -0.1986 -0.4187 -0.2484
  779MPD2    H511499   3.461   1.991  13.979 -0.1207  0.6138 -0.4127
  779MPD2    N111500   3.350   1.505  13.994 -0.3372  0.0071  0.3662
  779MPD2    H711501   3.449   1.514  14.013 -0.3935  0.1839  0.5852
  780MPD2     C11502   2.546   1.189   1.046 -0.4970  0.0326  0.7028
  780MPD2    C111503   2.621   1.071   1.006 -0.6849  0.4297 -0.9054
  780MPD2    C211504   2.697   1.078   0.887 -0.0967 -0.2831  0.2858
  780MPD2    C311505   2.705   1.195   0.820 -0.3926 -0.3190  0.3241
  780MPD2    C411506   2.625   1.304   0.848 -0.3628 -0.2267  0.1857
  780MPD2    C511507   2.550   1.300   0.964  0.8046 -0.4330 -0.2903
  780MPD2     H11508   2.768   1.001   0.859 -1.2313  0.1730 -3.8393
  780MPD2    H111509   2.621   1.398   0.795  1.0706  0.1286  0.7216
  780MPD2    H211510   2.504   1.192   1.146 -0.7038  3.7566  0.4969
  780MPD2    H311511   2.506   1.395   0.994 -1.0104 -2.1836  2.6045
  780MPD2     N11512   2.794   1.184   0.709 -0.4837 -0.3499 -0.1719
  780MPD2    H511513   2.816   1.090   0.679 -1.9046 -1.4572  2.2059
  780MPD2    N111514   2.618   0.966   1.097 -0.8294 -0.0729 -0.3184
  780MPD2    H711515   2.555   0.973   1.176  1.5358  4.0198  1.1945
  781MPD2     C11516   4.602   3.432  12.031 -0.3817  0.6911  0.3982
  781MPD2    C111517   4.701   3.337  12.031 -0.9762  0.2063  1.0900
  781MPD2    C211518   0.072   3.338  11.932 -0.0950  0.7227  0.0454
  781MPD2    C311519   0.054   3.421  11.821  0.2873 -0.5173 -0.6631
  781MPD2    C411520   4.668   3.501  11.817  0.0630 -0.5063  0.1668
  781MPD2    C511521   4.583   3.511  11.923  0.9210  0.4052  0.2018
  781MPD2     H11522   0.147   3.259  11.928 -2.3148 -1.3301 -1.5249
  781MPD2    H111523   4.649   3.571  11.738 -0.7806 -0.0304  0.7878
  781MPD2    H211524   4.530   3.431  12.112  0.0676 -0.8865  0.7921
  781MPD2    H311525   4.503   3.584  11.923 -1.3019 -2.0687 -0.4249
  781MPD2     N11526   0.138   3.413  11.708 -0.9508  0.1146 -0.0582
  781MPD2    H511527   0.139   3.492  11.644 -1.3677 -2.1051 -2.8164
  781MPD2    N111528   4.712   3.237  12.130 -0.0065 -0.6517 -0.7257
  781MPD2    H711529   0.070   3.177  12.127  0.0240 -0.5370 -2.3485
  782MPD2     C11530   2.799   3.763  10.412  0.1112  0.4177  0.2486
  782MPD2    C111531   2.929   3.784  10.388 -0.2798 -0.2694 -0.8612
  782MPD2    C211532   2.998   3.879  10.461 -0.2169 -0.1433  0.0069
  782MPD2    C311533   2.937   3.942  10.568  0.6090 -0.8493 -0.4854
  782MPD2    C411534   2.807   3.911  10.596  1.2236  0.0260 -0.1723
  782MPD2    C511535   2.737   3.819  10.518  0.9460 -0.5810 -0.0028
  782MPD2     H11536   3.105   3.889  10.448 -0.4311  0.0805 -1.5567
  782MPD2    H111537   2.746   3.958  10.672  0.1592  0.0001 -1.0242
  782MPD2    H211538   2.739   3.694  10.354  0.7680 -2.0003  2.4478
  782MPD2    H311539   2.635   3.791  10.542  0.0114  1.6930 -1.2721
  782MPD2     N11540   3.003   4.025  10.663  0.1835  0.0088 -0.1328
  782MPD2    H511541   2.946   4.052  10.743  0.7889 -0.2521  0.3794
  782MPD2    N111542   2.992   3.691  10.308  0.0027 -0.1254  0.1446
  782MPD2    H711543   2.934   3.611  10.283 -0.7399  0.6857 -0.7191
  783MPD2     C11544   2.752   3.244  10.805 -0.1626 -0.1889  0.0195
  783MPD2    C111545   2.756   3.384  10.777  0.2036 -0.6164  0.9158
  783MPD2    C211546   2.835   3.418  10.671  0.5394  0.3146  0.1273
  783MPD2    C311547   2.919   3.328  10.611 -0.0894 -0.1720  0.0857
  783MPD2    C411548   2.917   3.199  10.649 -0.3363 -0.2214  0.4056
  783MPD2    C511549   2.836   3.153  10.744 -0.0575  0.3214 -0.3911
  783MPD2     H11550   2.837   3.523  10.647  2.0873 -0.2062 -1.9996
  783MPD2    H111551   2.980   3.124  10.602  2.3996  1.8200  0.8332
  783MPD2    H211552   2.685   3.203  10.880 -0.1240 -1.5676 -0.7046
  783MPD2    H311553   2.838   3.046  10.763 -1.2872 -0.4214 -4.4809
  783MPD2     N11554   3.011   3.375  10.518  0.6512 -0.3210  0.7287
  783MPD2    H511555   3.006   3.474  10.493  0.6497 -0.0823  1.7013
  783MPD2    N111556   2.663   3.468  10.835 -0.1757  0.7410  0.4849
  783MPD2    H711557   2.602   3.423  10.903  3.3723 -0.6865  2.6902
  784MPD2     C11558   4.506   4.250   0.702 -0.0750  0.4329 -0.2152
  784MPD2    C111559   4.462   4.310   0.818 -0.0597 -0.4051 -0.0992
  784MPD2    C211560   4.340   4.362   0.823 -0.5628 -0.0060  0.1946
  784MPD2    C311561   4.256   4.353   0.708 -0.7416  0.5686  0.0066
  784MPD2    C411562   4.297   4.291   0.591 -0.6959  0.4220  0.3901
  784MPD2    C511563   4.426   4.241   0.586  0.1742 -0.3621 -0.0741
  784MPD2     H11564   4.296   4.414   0.908 -0.5223  0.6517 -0.1861
  784MPD2    H111565   4.237   4.274   0.503 -0.5303  2.5875 -0.1548
  784MPD2    H211566   4.603   4.204   0.687 -0.4832 -0.4645 -0.1154
  784MPD2    H311567   4.454   4.180   0.501 -0.4661 -0.3834 -0.2702
  784MPD2     N11568   4.124   4.403   0.723  0.0411  0.2935 -0.3711
  784MPD2    H511569   4.103   4.420   0.821 -0.3463  1.6037 -0.6940
  784MPD2    N111570   4.544   4.345   0.923 -0.1321  0.1356 -0.0868
  784MPD2    H711571   4.496   4.391   0.999 -0.3608 -0.3117  0.0448
  785MPD2     C11572   0.943   2.803  10.499  0.2246  0.1396  0.4291
  785MPD2    C111573   0.847   2.822  10.588  0.2956 -0.3086 -0.0851
  785MPD2    C211574   0.747   2.730  10.604 -0.3544  0.1458 -0.5246
  785MPD2    C311575   0.733   2.634  10.504 -0.2308  0.1959  0.4005
  785MPD2    C411576   0.839   2.615  10.422  0.7060 -0.6661  0.3289
  785MPD2    C511577   0.944   2.692  10.426 -0.0367  0.0273  0.4932
  785MPD2     H11578   0.673   2.744  10.683 -0.7163 -1.8623 -0.5041
  785MPD2    H111579   0.835   2.535  10.349 -0.9265 -1.0979  0.9008
  785MPD2    H211580   1.033   2.864  10.507  0.8489 -0.4212 -2.2875
  785MPD2    H311581   1.029   2.670  10.362 -1.1258 -1.5345 -0.4125
  785MPD2     N11582   0.622   2.542  10.519 -0.0615 -0.8077  0.1328
  785MPD2    H511583   0.559   2.566  10.594 -0.7670 -2.0022 -0.0742
  785MPD2    N111584   0.849   2.944  10.662 -0.4175 -0.4567  0.1727
  785MPD2    H711585   0.925   3.011  10.653  0.7171 -1.6983  0.5632
  786MPD2     C11586   3.643   0.701  15.008  0.4884  0.6581 -0.3539
  786MPD2    C111587   3.771   0.665  14.964  0.2592  0.5768  0.1927
  786MPD2    C211588   3.884   0.716  15.030  0.2802 -0.1751  0.7073
  786MPD2    C311589   3.874   0.822  15.116 -0.2267  0.4424 -0.2500
  786MPD2    C411590   3.747   0.852  15.162  0.1028  0.4278  0.1000
  786MPD2    C511591   3.638   0.800  15.107  0.5121  0.7716  0.2425
  786MPD2     H11592   3.980   0.681  14.995  0.3329  1.7558 -1.0523
  786MPD2    H111593   3.746   0.934  15.234 -2.6301 -0.1111  0.6669
  786MPD2    H211594   3.552   0.679  14.952  0.7707 -2.0857  0.2870
  786MPD2    H311595   3.540   0.822  15.148  1.1346  2.7243  0.6705
  786MPD2     N11596   3.985   0.883  15.175  0.4497  0.1418 -0.6961
  786MPD2    H511597   3.966   0.945  15.252  1.0046  1.2511 -1.4452
  786MPD2    N111598   3.795   0.577  14.852 -0.0000  0.7183  0.0102
  786MPD2    H711599   3.887   0.537  14.838 -0.2711 -1.1798  3.7828
  787MPD2     C11600   3.975   0.003  15.022  0.3750 -0.5916  0.0042
  787MPD2    C111601   3.992   0.006  14.887  0.3647 -0.4910 -0.6943
  787MPD2    C211602   4.071   4.620  14.839  0.4665 -0.2296  0.5298
  787MPD2    C311603   4.134   4.527  14.912 -0.5951 -0.4242  0.7489
  787MPD2    C411604   4.130   4.545  15.051  0.0344  0.1371  0.2956
  787MPD2    C511605   4.050   4.638  15.102 -0.4157 -0.2336 -0.4921
  787MPD2     H11606   4.075   4.609  14.731  1.3199  0.8326  0.4547
  787MPD2    H111607   4.179   4.476  15.119  0.0518  0.6167  0.7679
  787MPD2    H211608   3.911   0.073  15.074  0.5661  1.0059 -1.9317
  787MPD2    H311609   4.030   4.651  15.208  2.0985  0.1284 -0.0681
  787MPD2     N11610   4.213   4.428  14.845 -0.0236 -0.0326  0.3664
  787MPD2    H511611   4.208   4.424  14.743 -0.6940  1.2890  0.3475
  787MPD2    N111612   3.919   0.106  14.814  0.6551  0.0984  0.4350
  787MPD2    H711613   3.872   0.176  14.870  1.8358  0.7858  0.5674
  788MPD2     C11614   0.860   2.830   0.874  0.0561  0.7860 -0.1064
  788MPD2    C111615   0.782   2.824   0.758 -0.4413 -0.8030  0.3812
  788MPD2    C211616   0.746   2.945   0.696  0.4181 -0.9859  0.1466
  788MPD2    C311617   0.792   3.067   0.749  0.1479  0.0962 -0.3969
  788MPD2    C411618   0.873   3.070   0.865  0.0983  0.1799  0.2364
  788MPD2    C511619   0.892   2.954   0.931  0.1936  0.1648 -0.3770
  788MPD2     H11620   0.695   2.936   0.600 -1.0869 -0.4985  0.9028
  788MPD2    H111621   0.908   3.158   0.917  0.2115  0.6378 -0.6056
  788MPD2    H211622   0.907   2.746   0.924 -0.9391 -0.6050 -1.4907
  788MPD2    H311623   0.946   2.949   1.025  0.8316 -0.2727 -0.7614
  788MPD2     N11624   0.765   3.184   0.680 -0.5950  0.3685 -0.1360
  788MPD2    H511625   0.806   3.265   0.726  0.1303  0.1231 -0.3532
  788MPD2    N111626   0.754   2.704   0.686 -0.0783  0.1908  0.1423
  788MPD2    H711627   0.693   2.705   0.604  0.7578 -0.0838 -0.4856
  789MPD2     C11628   0.977   2.723  16.303 -1.0186  0.4417  0.2431
  789MPD2    C111629   0.936   2.831  16.227  0.2029  0.4393  0.2758
  789MPD2    C211630   0.835   2.912  16.279  0.8168 -0.6312 -0.1449
  789MPD2    C311631   0.773   2.885  16.400  0.0869  0.7723  0.3055
  789MPD2    C411632   0.815   2.776  16.472  0.3304 -0.3032  0.3524
  789MPD2    C511633   0.915   2.697  16.421 -0.2811  0.1440 -0.3960
  789MPD2     H11634   0.813   3.000  16.219 -0.2304  0.4232  1.7888
  789MPD2    H111635   0.790   2.751  16.574 -1.3248 -0.8065 -0.1744
  789MPD2    H211636   1.055   2.652  16.280 -1.0995  1.2289 -2.4745
  789MPD2    H311637   0.958   2.620  16.485  1.1797  0.7893 -0.6078
  789MPD2     N11638   0.671   2.959  16.464 -0.0866  0.8709 -0.0860
  789MPD2    H511639   0.644   2.939  16.560 -0.1185  0.0030 -0.2766
  789MPD2    N111640   1.002   2.856  16.102  0.0354 -0.0422  0.4138
  789MPD2    H711641   0.959   2.938  16.061  0.4569 -0.2742 -0.4963
  790MPD2     C11642   2.450   0.813  13.160 -0.2174 -0.7778  0.9575
  790MPD2    C111643   2.438   0.696  13.230  1.1783  0.2501 -0.0312
  790MPD2    C211644   2.364   0.593  13.173 -0.5008 -0.0507  0.1390
  790MPD2    C311645   2.296   0.619  13.052 -0.1075 -0.3736 -0.0888
  790MPD2    C411646   2.316   0.740  12.982  0.3712 -0.1363 -0.1840
  790MPD2    C511647   2.392   0.835  13.038  0.2360 -0.4956  0.0680
  790MPD2     H11648   2.349   0.502  13.230 -0.7387 -0.4513 -0.5685
  790MPD2    H111649   2.255   0.758  12.894  1.3702 -0.3137 -0.9121
  790MPD2    H211650   2.515   0.891  13.198 -0.4228 -0.6687  1.0785
  790MPD2    H311651   2.384   0.938  13.005 -0.2687 -1.2187 -2.0445
  790MPD2     N11652   2.235   0.511  12.976  0.0652 -0.6894 -0.1095
  790MPD2    H511653   2.249   0.419  13.017 -0.0691  0.9537  3.6374
  790MPD2    N111654   2.510   0.680  13.345 -0.6788  0.4706  0.1806
  790MPD2    H711655   2.549   0.760  13.394 -3.9618  1.9891  0.2562
  791MPD2     C11656   1.640   0.416  12.474  0.7896 -0.0787 -0.3597
  791MPD2    C111657   1.687   0.302  12.523  0.6991 -0.1067 -1.1790
  791MPD2    C211658   1.617   0.185  12.502  0.5126 -0.0020  0.5638
  791MPD2    C311659   1.495   0.197  12.432  0.0878 -0.0572 -0.4550
  791MPD2    C411660   1.449   0.328  12.393 -0.6302 -0.0478  0.9711
  791MPD2    C511661   1.520   0.440  12.413  0.1702 -0.1708  0.5353
  791MPD2     H11662   1.662   0.094  12.541 -2.2472 -1.4521  0.3452
  791MPD2    H111663   1.356   0.345  12.340  1.1394  1.9866 -1.4626
  791MPD2    H211664   1.704   0.503  12.471  0.0497  0.5013  0.6835
  791MPD2    H311665   1.494   0.538  12.377 -0.5727 -1.1081 -1.4432
  791MPD2     N11666   1.415   0.085  12.397  0.1403  0.5735  0.2114
  791MPD2    H511667   1.459   0.002  12.437 -0.5737  0.3510  0.5468
  791MPD2    N111668   1.817   0.316  12.585  0.1934 -0.4835 -0.2397
  791MPD2    H711669   1.854   0.410  12.590 -2.1568  0.4940 -0.9680
  792MPD2     C11670   2.285   0.071  11.501 -0.2086 -0.3332 -0.1423
  792MPD2    C111671   2.366   0.050  11.391  0.3372  0.3052  0.4221
  792MPD2    C211672   2.363   4.651  11.339  0.0459  0.2650 -0.7717
  792MPD2    C311673   2.272   4.549  11.374 -0.6629 -0.6794  0.9354
  792MPD2    C411674   2.187   4.576  11.478  0.0615  0.2719  0.1314
  792MPD2    C511675   2.200   4.689  11.539  0.1597 -0.0686  0.0202
  792MPD2     H11676   2.430   4.623  11.258  0.7926  1.4847 -0.5717
  792MPD2    H111677   2.109   4.511  11.514 -1.8120  0.9300 -2.6791
  792MPD2    H211678   2.279   0.161  11.562  2.9389 -0.2212 -0.0070
  792MPD2    H311679   2.128   4.701  11.620  0.7184 -0.0921  0.5199
  792MPD2     N11680   2.261   4.429  11.302  0.7642 -0.2126 -0.5483
  792MPD2    H511681   2.185   4.364  11.318 -0.5000  0.6777 -2.8842
  792MPD2    N111682   2.451   0.147  11.338 -0.5677 -0.4982  0.1220
  792MPD2    H711683   2.464   0.232  11.392  0.0617 -0.3442 -0.2702
  793MPD2     C11684   1.923   4.605  10.482 -0.0165 -0.0580 -0.1786
  793MPD2    C111685   2.060   4.610  10.501 -0.0460  0.0468  0.0991
  793MPD2    C211686   2.104   4.545  10.611 -0.3971 -0.1439  0.1020
  793MPD2    C311687   2.019   4.463  10.685 -0.3517 -0.4946 -0.6980
  793MPD2    C411688   1.884   4.454  10.660 -0.1199 -0.2365  0.2560
  793MPD2    C511689   1.838   4.528  10.555 -0.6531 -0.7643 -0.3876
  793MPD2     H11690   2.209   4.548  10.637 -0.4539 -1.8558  0.5622
  793MPD2    H111691   1.809   4.407  10.722 -0.6911 -2.9122 -2.4817
  793MPD2    H211692   1.882   4.667  10.402 -1.6405 -0.3525  0.4248
  793MPD2    H311693   1.734   4.533  10.524 -1.1011 -0.0646  1.2131
  793MPD2     N11694   2.082   4.398  10.790 -0.5009 -0.1340  0.5514
  793MPD2    H511695   2.183   4.403  10.789 -0.5919  1.6832 -0.6767
  793MPD2    N111696   2.154   4.679  10.424 -0.4596 -0.4509  0.0442
  793MPD2    H711697   2.246   4.681  10.467 -0.3104 -3.3773 -0.0920
  794MPD2     C11698   1.652   3.530  16.926 -0.0164 -0.2145 -0.1900
  794MPD2    C111699   1.579   3.631  16.995  0.0384 -1.0606 -0.8953
  794MPD2    C211700   1.496   3.723  16.931 -0.1214  0.3832  0.0160
  794MPD2    C311701   1.484   3.713  16.794 -0.4805 -0.0317 -0.2540
  794MPD2    C411702   1.557   3.620  16.723 -0.5031 -0.2798  0.0581
  794MPD2    C511703   1.636   3.525  16.789  0.3872  0.2583  0.4096
  794MPD2     H11704   1.440   3.803  16.977  1.0614 -0.4552  2.8893
  794MPD2    H111705   1.549   3.620  16.615  0.3077  0.6448 -0.0025
  794MPD2    H211706   1.712   3.461  16.983  0.3701 -0.6271 -1.1011
  794MPD2    H311707   1.690   3.447  16.738  2.2269  1.3637  0.6741
  794MPD2     N11708   1.420   3.812  16.716  0.3613 -1.0591 -0.3798
  794MPD2    H511709   1.441   3.818  16.617  2.3103  0.0783  0.1064
  794MPD2    N111710   1.603   3.658  17.134  0.4896  0.1788  0.1474
  794MPD2    H711711   1.544   3.709  17.199 -0.2217  1.0403 -1.1850
  795MPD2     C11712   4.681   1.585  13.877  0.6281  0.0274 -0.0811
  795MPD2    C111713   4.640   1.471  13.811  0.0109  0.0412 -0.0677
  795MPD2    C211714   4.708   1.353  13.816  0.4171  0.3018 -0.0483
  795MPD2    C311715   0.105   1.339  13.889 -0.5107 -0.7203 -0.2192
  795MPD2    C411716   0.140   1.454  13.963  0.0815 -1.0060  0.0851
  795MPD2    C511717   0.067   1.572  13.961  1.1248 -0.0961  0.3783
  795MPD2     H11718   4.676   1.264  13.762  3.5001  0.3444 -1.9067
  795MPD2    H111719   0.223   1.454  14.033  1.6329  0.2000 -1.7610
  795MPD2    H211720   4.622   1.671  13.904 -2.1873 -2.0508  0.3604
  795MPD2    H311721   0.105   1.652  14.023  1.6654 -0.8223  0.9773
  795MPD2     N11722   0.178   1.220  13.892  0.3108  0.0954 -1.2024
  795MPD2    H511723   0.131   1.140  13.852 -1.5202  1.6043 -2.0444
  795MPD2    N111724   4.532   1.478  13.714  0.6148  0.6409 -0.3761
  795MPD2    H711725   4.495   1.391  13.680 -0.0695  0.9983 -0.5351
  796MPD2     C11726   3.705   2.785  15.663 -0.1979  0.5659 -0.2244
  796MPD2    C111727   3.793   2.882  15.709  0.0296  0.4319 -0.0066
  796MPD2    C211728   3.768   3.011  15.681  0.0202 -0.5307 -0.5751
  796MPD2    C311729   3.673   3.047  15.591  0.0223 -0.2786  0.4865
  796MPD2    C411730   3.585   2.946  15.544 -0.2017  0.3909  0.0534
  796MPD2    C511731   3.604   2.819  15.581  0.0786  0.3553 -0.7021
  796MPD2     H11732   3.834   3.089  15.717 -0.9301 -1.2099  2.6546
  796MPD2    H111733   3.514   2.971  15.466 -0.3246  2.3627  0.8027
  796MPD2    H211734   3.722   2.682  15.690  0.6855  0.8703  0.3781
  796MPD2    H311735   3.551   2.732  15.545 -1.4060  1.6503 -1.6157
  796MPD2     N11736   3.675   3.182  15.566  0.5954  0.3186  0.1334
  796MPD2    H511737   3.744   3.247  15.601  0.1139 -0.3925  2.3917
  796MPD2    N111738   3.893   2.831  15.788  0.1446  0.0297  0.3836
  796MPD2    H711739   3.903   2.730  15.795  1.2855  0.1012 -0.3360
  797MPD2     C11740   0.623   2.284  16.796 -0.3298  0.1212 -0.2024
  797MPD2    C111741   0.610   2.389  16.887 -0.1087 -0.1688 -0.0346
  797MPD2    C211742   0.503   2.464  16.889  0.3523  0.2683 -0.1211
  797MPD2    C311743   0.404   2.448  16.805  0.1098 -0.2749 -0.1314
  797MPD2    C411744   0.401   2.355  16.707 -0.1748  0.6872 -0.0690
  797MPD2    C511745   0.510   2.267  16.712  0.3405 -0.2836  0.3350
  797MPD2     H11746   0.507   2.555  16.948 -1.0610  0.3670 -0.1807
  797MPD2    H111747   0.316   2.326  16.647  1.5041 -0.2141 -1.9834
  797MPD2    H211748   0.698   2.206  16.797 -1.6955 -1.1863  0.9428
  797MPD2    H311749   0.511   2.179  16.649 -0.3080  0.2281 -0.3992
  797MPD2     N11750   0.286   2.530  16.797 -0.1234 -0.0944  0.1213
  797MPD2    H511751   0.216   2.514  16.726 -1.6372 -1.1886  1.8567
  797MPD2    N111752   0.708   2.425  16.982 -0.3687 -0.4438  0.1610
  797MPD2    H711753   0.687   2.508  17.037  2.4075 -0.0795  0.6924
  798MPD2     C11754   0.418   3.030  17.284 -0.6908 -0.1193  0.1899
  798MPD2    C111755   0.399   2.920  17.200 -0.2116  0.4571 -0.1109
  798MPD2    C211756   0.500   2.824  17.204 -0.2303  0.0838  0.1745
  798MPD2    C311757   0.618   2.840  17.271  0.0687 -0.1012 -0.0811
  798MPD2    C411758   0.643   2.966  17.335  0.2077 -0.3373 -0.5138
  798MPD2    C511759   0.536   3.050  17.343 -0.0844  0.0807 -0.1643
  798MPD2     H11760   0.487   2.745  17.131  0.3975  0.6539 -0.5542
  798MPD2    H111761   0.743   2.986  17.372 -0.3381  1.2205  0.0938
  798MPD2    H211762   0.352   3.116  17.282 -1.7266 -0.9066  0.4000
  798MPD2    H311763   0.549   3.140  17.402 -1.0452  0.9037 -1.2153
  798MPD2     N11764   0.710   2.731  17.258  0.4960  0.1224  0.3530
  798MPD2    H511765   0.676   2.644  17.218  1.3423  0.3626 -0.9151
  798MPD2    N111766   0.288   2.893  17.125 -0.1442 -0.7641 -0.2208
  798MPD2    H711767   0.271   2.796  17.100  1.6693 -0.9791 -0.6234
  799MPD2     C11768   4.055   4.128  14.687 -0.6001  0.0471 -0.0929
  799MPD2    C111769   4.053   4.069  14.567  0.1982 -0.6539  0.2322
  799MPD2    C211770   3.970   4.120  14.464 -0.5986  0.0304 -0.3764
  799MPD2    C311771   3.903   4.242  14.488 -0.1548  0.7493 -0.0599
  799MPD2    C411772   3.909   4.307  14.609 -0.6914  0.5599  0.1913
  799MPD2    C511773   3.978   4.241  14.705  0.5430 -0.7660  0.3775
  799MPD2     H11774   3.967   4.075  14.366 -0.3926  1.5821 -1.0814
  799MPD2    H111775   3.853   4.396  14.635  1.1964  1.6636  0.4990
  799MPD2    H211776   4.126   4.095  14.762 -0.0899  1.7801  0.2066
  799MPD2    H311777   3.989   4.288  14.802 -1.7808  1.7364 -0.5869
  799MPD2     N11778   3.809   4.295  14.403 -0.1406 -0.3493  0.5543
  799MPD2    H511779   3.770   4.386  14.426 -0.2941 -0.4000  0.4924
  799MPD2    N111780   4.138   3.953  14.533  0.4794  0.0443 -0.0245
  799MPD2    H711781   4.136   3.926  14.435  0.0291  0.9071 -0.2474
  800MPD2     C11782   4.299   0.901  14.265 -0.0492 -0.3937 -0.4374
  800MPD2    C111783   4.368   0.790  14.227 -0.1819  0.1399 -0.3986
  800MPD2    C211784   4.307   0.687  14.156 -0.2137 -0.5320 -0.1427
  800MPD2    C311785   4.189   0.696  14.104  0.1453 -0.1660  0.2479
  800MPD2    C411786   4.121   0.811  14.129 -0.1762 -0.1051 -0.6450
  800MPD2    C511787   4.170   0.905  14.220  0.0568  0.3011  0.6262
  800MPD2     H11788   4.363   0.600  14.125  2.4448  1.3564 -0.6397
  800MPD2    H111789   4.023   0.830  14.089  0.1581  2.2238 -0.3873
  800MPD2    H211790   4.338   0.981  14.327  0.4232 -1.1902  0.2889
  800MPD2    H311791   4.123   1.002  14.229 -2.1024 -0.7360  0.3998
  800MPD2     N11792   4.134   0.604  14.015 -0.3484 -0.2980  0.8352
  800MPD2    H511793   4.070   0.628  13.941  2.6224 -0.9359 -1.9652
  800MPD2    N111794   4.500   0.785  14.279 -0.3020  0.0069 -0.8723
  800MPD2    H711795   4.525   0.864  14.338  0.2951 -0.2886 -0.7320
  801MPD2     C11796   0.045   1.279  14.281  0.2879  0.0984  0.1183
  801MPD2    C111797   4.692   1.189  14.356 -0.2447 -0.3960  0.2309
  801MPD2    C211798   4.566   1.232  14.413 -0.8843  0.1659  0.1522
  801MPD2    C311799   4.525   1.363  14.390 -0.1415  0.1833  0.4247
  801MPD2    C411800   4.599   1.448  14.306 -0.6587 -0.5636 -0.1303
  801MPD2    C511801   4.720   1.401  14.252 -0.3728 -0.2658 -0.4026
  801MPD2     H11802   4.508   1.163  14.473 -2.0338  0.5661 -0.4960
  801MPD2    H111803   4.556   1.543  14.276 -1.1050 -0.4389  0.9213
  801MPD2    H211804   0.144   1.259  14.240  0.9113  2.1339  0.6346
  801MPD2    H311805   0.065   1.464  14.196 -1.0571  0.8461  0.0110
  801MPD2     N11806   4.406   1.424  14.441  0.5393 -0.6290  0.1973
  801MPD2    H511807   4.393   1.517  14.402 -0.3768 -0.4520  0.9441
  801MPD2    N111808   0.020   1.061  14.390  0.1033  0.4674 -0.3236
  801MPD2    H711809   4.683   0.999  14.443 -0.9141  2.3900  0.7702
  802MPD2     C11810   2.911   1.224  16.856  0.0068 -0.5914 -0.1119
  802MPD2    C111811   3.018   1.253  16.934 -0.5708 -0.3394 -0.1251
  802MPD2    C211812   3.110   1.153  16.951  0.3977 -0.1050 -0.1023
  802MPD2    C311813   3.088   1.024  16.918 -0.0585  0.7368 -0.1655
  802MPD2    C411814   2.966   0.992  16.860  0.4133 -0.4859  0.4430
  802MPD2    C511815   2.872   1.092  16.835 -0.2229  0.2039  0.4821
  802MPD2     H11816   3.211   1.172  16.988  0.4792  0.7554 -0.7690
  802MPD2    H111817   2.938   0.891  16.833  3.7844 -1.0242 -1.1519
  802MPD2    H211818   2.845   1.305  16.827  0.0945 -1.3893 -2.5110
  802MPD2    H311819   2.778   1.060  16.792 -0.6194  0.3639  1.2346
  802MPD2     N11820   3.188   0.925  16.936  0.1722  0.7377  0.1954
  802MPD2    H511821   3.280   0.949  16.969  0.9382  1.4908 -2.4878
  802MPD2    N111822   3.037   1.378  16.998 -0.0158 -0.2667  0.0013
  802MPD2    H711823   3.111   1.379  17.067 -0.8914  1.5679  0.9056
  803MPD2     C11824   0.234   0.571  11.645 -0.1474 -0.4201 -0.2570
  803MPD2    C111825   0.347   0.488  11.639  0.1481  0.0864  0.2860
  803MPD2    C211826   0.330   0.356  11.678 -0.0154 -0.1930 -0.2144
  803MPD2    C311827   0.215   0.312  11.737 -0.7214  0.7526 -0.6037
  803MPD2    C411828   0.111   0.397  11.749 -0.7089  0.0175 -0.0839
  803MPD2    C511829   0.118   0.520  11.693 -0.9532  0.3558  0.4564
  803MPD2     H11830   0.419   0.295  11.661 -2.0819 -2.8872 -1.3653
  803MPD2    H111831   0.015   0.368  11.789 -0.4233  0.1746  0.7117
  803MPD2    H211832   0.240   0.675  11.614  4.4750 -0.0728  1.8326
  803MPD2    H311833   0.024   0.574  11.685  0.6678  3.2157  0.6403
  803MPD2     N11834   0.188   0.187  11.783 -0.4656  0.4369 -0.0945
  803MPD2    H511835   0.091   0.158  11.794 -0.1984 -0.0321  1.0458
  803MPD2    N111836   0.477   0.519  11.588  0.4881  0.2555 -0.8334
  803MPD2    H711837   0.549   0.447  11.595 -0.2769 -0.1945  2.2096
  804MPD2     C11838   4.119   1.256  16.753 -0.3492 -0.5103 -0.0616
  804MPD2    C111839   4.129   1.226  16.884  0.6762  0.6624 -0.1893
  804MPD2    C211840   4.196   1.322  16.967  0.1789 -0.6070 -0.1392
  804MPD2    C311841   4.256   1.431  16.917  0.6441 -0.0619 -0.0222
  804MPD2    C411842   4.248   1.460  16.782  0.4317  0.2438 -0.3390
  804MPD2    C511843   4.177   1.372  16.701 -0.3657 -0.5358 -0.4397
  804MPD2     H11844   4.204   1.302  17.073  2.3925  1.3186  0.0406
  804MPD2    H111845   4.283   1.548  16.729  0.5181  0.8777  0.7775
  804MPD2    H211846   4.065   1.192  16.684 -1.1395  0.0931  0.0057
  804MPD2    H311847   4.179   1.377  16.593  1.1433  0.4094 -0.3667
  804MPD2     N11848   4.338   1.506  16.999  0.1023 -0.1295  0.2620
  804MPD2    H511849   4.337   1.483  17.098  0.8887 -0.7222  0.1325
  804MPD2    N111850   4.068   1.109  16.940  0.8957 -0.6935 -0.4027
  804MPD2    H711851   4.073   1.102  17.041 -1.3733  0.3230 -0.2106
  805MPD2     C11852   3.389   4.158  15.483  0.9430  0.5194  0.1904
  805MPD2    C111853   3.446   4.264  15.420  0.3689 -0.3156  0.6791
  805MPD2    C211854   3.585   4.276  15.416  0.2174 -0.8362 -0.5607
  805MPD2    C311855   3.661   4.196  15.505 -0.3305 -0.1934 -0.2523
  805MPD2    C411856   3.607   4.083  15.560  0.3332  0.4682  0.0356
  805MPD2    C511857   3.466   4.067  15.543  0.5369  0.8053  0.1013
  805MPD2     H11858   3.622   4.364  15.363 -0.6032 -0.4862 -0.5446
  805MPD2    H111859   3.672   4.018  15.618 -0.1049  1.0273  1.1537
  805MPD2    H211860   3.281   4.144  15.487  1.2560 -1.6861  0.8470
  805MPD2    H311861   3.426   3.979  15.593 -2.0482  1.5754 -0.6454
  805MPD2     N11862   3.795   4.236  15.535  0.1573  0.7127 -0.5649
  805MPD2    H511863   3.828   4.310  15.474  1.2891  1.4006  0.8851
  805MPD2    N111864   3.380   4.362  15.357 -0.3969 -0.0699  0.1697
  805MPD2    H711865   3.430   4.408  15.281  0.6398  1.0131  1.4998
  806MPD2     C11866   3.927   4.083   0.870  0.0790 -1.1171  0.4600
  806MPD2    C111867   4.047   4.054   0.807 -0.5326  0.1799 -0.4240
  806MPD2    C211868   4.046   4.045   0.674 -0.3955  0.4522  0.0326
  806MPD2    C311869   3.934   4.065   0.595 -0.9456 -0.3360  0.2013
  806MPD2    C411870   3.818   4.094   0.662  0.0275  0.4205 -0.3954
  806MPD2    C511871   3.813   4.102   0.796  0.5226  0.6311  0.0959
  806MPD2     H11872   4.141   4.032   0.624 -0.2728  0.2441  0.3181
  806MPD2    H111873   3.722   4.114   0.614 -0.7133 -0.8551  0.5395
  806MPD2    H211874   3.919   4.088   0.978  0.1880  1.8573  0.3299
  806MPD2    H311875   3.718   4.114   0.846  0.8106  1.3354  0.4831
  806MPD2     N11876   3.942   4.062   0.455 -0.2823 -0.0237  0.2335
  806MPD2    H511877   4.033   4.032   0.424 -0.3042 -0.3040  0.4301
  806MPD2    N111878   4.162   4.029   0.888  0.1371  0.3576  0.3615
  806MPD2    H711879   4.151   4.054   0.986  2.2999  1.4750  0.3221
  807MPD2     C11880   4.375   4.014   1.605 -0.6310 -0.7934 -0.1437
  807MPD2    C111881   4.421   3.902   1.527 -0.8376 -0.0112  0.3531
  807MPD2    C211882   4.450   3.788   1.584 -0.2680  0.3349  0.2244
  807MPD2    C311883   4.427   3.773   1.720  0.3403  0.1841  0.1938
  807MPD2    C411884   4.389   3.877   1.798  0.0196  0.3371  0.5394
  807MPD2    C511885   4.365   3.999   1.741  0.2835 -0.2926 -0.0367
  807MPD2     H11886   4.479   3.705   1.521 -2.1123 -1.1323  1.2914
  807MPD2    H111887   4.365   3.863   1.903  0.4475  1.1086  0.7448
  807MPD2    H211888   4.376   4.113   1.562  4.4622 -0.4985  0.6394
  807MPD2    H311889   4.344   4.084   1.806  1.9274  0.3811 -0.4027
  807MPD2     N11890   4.442   3.643   1.774 -0.2307 -0.8667 -0.1120
  807MPD2    H511891   4.469   3.571   1.709  1.5299  0.4315 -0.8459
  807MPD2    N111892   4.437   3.917   1.384 -0.2404 -0.2942  0.1808
  807MPD2    H711893   4.462   3.830   1.339  0.7194  0.5023 -0.8209
  808MPD2     C11894   0.353   0.620   9.191 -1.0330 -0.0738 -0.3420
  808MPD2    C111895   0.409   0.672   9.306 -0.1823  0.0192 -0.3343
  808MPD2    C211896   0.511   0.771   9.296  0.1569 -0.3121  0.4281
  808MPD2    C311897   0.544   0.821   9.173  0.7445 -0.0845  0.1315
  808MPD2    C411898   0.481   0.773   9.057  0.6356  0.3529 -0.4315
  808MPD2    C511899   0.389   0.671   9.069 -0.4379 -0.1587 -0.3361
  808MPD2     H11900   0.551   0.809   9.390  0.9948 -3.5513  1.4205
  808MPD2    H111901   0.520   0.801   8.960 -0.0362 -0.6459 -1.0026
  808MPD2    H211902   0.275   0.544   9.185 -0.1400 -1.1330  1.3466
  808MPD2    H311903   0.341   0.642   8.977 -0.6601  0.4963 -0.4275
  808MPD2     N11904   0.657   0.898   9.147  0.6221  0.8219  0.0545
  808MPD2    H511905   0.684   0.926   9.053 -0.0352 -0.2341 -0.4470
  808MPD2    N111906   0.379   0.619   9.429 -0.4066 -0.5284  0.1449
  808MPD2    H711907   0.441   0.643   9.506  0.1887 -0.8878 -0.2236
  809MPD2     C11908   0.972   0.234   9.107 -0.7216  0.6432  0.1663
  809MPD2    C111909   0.993   0.301   9.223 -0.2343 -0.1564 -0.2033
  809MPD2    C211910   1.029   0.440   9.197 -0.2488  0.3420  0.2346
  809MPD2    C311911   1.032   0.502   9.072  1.0154  0.4009 -0.2234
  809MPD2    C411912   1.007   0.431   8.961  0.5789  0.0195  0.2131
  809MPD2    C511913   0.976   0.298   8.985 -0.2292 -0.9299 -0.3230
  809MPD2     H11914   1.061   0.499   9.282 -0.1069 -0.1761  0.5398
  809MPD2    H111915   1.020   0.455   8.857 -0.5596  2.1712  0.5808
  809MPD2    H211916   0.972   0.125   9.115  1.5554  0.5629 -0.9837
  809MPD2    H311917   0.950   0.233   8.902  2.2916  0.3785 -2.1384
  809MPD2     N11918   1.060   0.638   9.058 -0.0223 -0.5783  0.0605
  809MPD2    H511919   1.035   0.669   8.964  2.4730  0.8364 -0.1407
  809MPD2    N111920   0.987   0.248   9.358 -0.0679 -0.4680 -0.2594
  809MPD2    H711921   1.001   0.308   9.438  1.3954  2.9085 -3.0414
  810MPD2     C11922   4.635   0.370   9.891 -0.2820  0.4691  0.2071
  810MPD2    C111923   4.619   0.318  10.015  0.2446  0.1552  1.1330
  810MPD2    C211924   4.661   0.383  10.128  0.2376 -0.5112 -0.0594
  810MPD2    C311925   4.719   0.509  10.121  0.5849  0.6735  0.2661
  810MPD2    C411926   4.723   0.563   9.993 -0.2919  0.6716 -0.0702
  810MPD2    C511927   4.687   0.490   9.880 -0.1483  0.1547 -0.4904
  810MPD2     H11928   4.656   0.326  10.220 -1.4695 -0.6053 -0.2172
  810MPD2    H111929   0.039   0.663   9.980 -1.3914  1.0416 -0.5431
  810MPD2    H211930   4.588   0.319   9.807 -0.0371  0.1714  0.2481
  810MPD2    H311931   4.698   0.536   9.783 -0.6959 -1.9336 -1.5414
  810MPD2     N11932   0.051   0.577  10.237 -0.1244  0.2846  0.2862
  810MPD2    H511933   0.075   0.676  10.235 -1.5596  0.6256 -0.3710
  810MPD2    N111934   4.548   0.193  10.024  0.2265 -0.2506 -0.3688
  810MPD2    H711935   4.531   0.150   9.933 -1.0816 -0.2059 -0.1420
  811MPD2     C11936   4.016   4.608   9.663  0.3299  0.1137  0.4601
  811MPD2    C111937   4.091   4.709   9.718 -0.0797 -0.7339  0.0181
  811MPD2    C211938   4.054   0.114   9.686 -0.3312  0.3056 -0.0208
  811MPD2    C311939   3.939   0.144   9.612  0.7973  0.3786  0.0441
  811MPD2    C411940   3.867   0.039   9.559  0.9982  0.5279 -0.7786
  811MPD2    C511941   3.906   4.633   9.584  0.2372 -0.3953 -0.4790
  811MPD2     H11942   4.104   0.198   9.734  0.3236  0.7238 -1.4504
  811MPD2    H111943   3.778   0.040   9.496 -1.2360 -0.1933  2.3840
  811MPD2    H211944   4.030   4.503   9.684  0.2399  0.4709  2.3687
  811MPD2    H311945   3.842   4.549   9.560  0.6506 -0.8424 -0.0007
  811MPD2     N11946   3.914   0.280   9.587 -0.0206 -0.1733  0.4672
  811MPD2    H511947   3.961   0.346   9.649 -1.7233  0.9625  0.5378
  811MPD2    N111948   4.190   4.687   9.813 -0.1150 -0.1848 -0.0308
  811MPD2    H711949   4.242   0.045   9.843  0.6803 -0.3040 -1.1028
  812MPD2     C11950   3.239   4.691  12.195  0.4958  0.2713  0.0080
  812MPD2    C111951   3.188   0.043  12.298 -0.3009  0.9282 -0.1405
  812MPD2    C211952   3.181   4.710  12.427 -0.2875  0.4719  0.6066
  812MPD2    C311953   3.219   4.581  12.451 -0.1401  0.1042  0.1089
  812MPD2    C411954   3.273   4.517  12.348 -0.3965 -0.6440  0.0388
  812MPD2    C511955   3.290   4.569  12.229  1.1567 -0.9175  0.4926
  812MPD2     H11956   3.136   0.043  12.509  1.2831  0.2405  1.6260
  812MPD2    H111957   3.294   4.411  12.358  0.0189 -0.6289 -0.7284
  812MPD2    H211958   3.258   0.007  12.096 -0.3403  0.8878  0.0894
  812MPD2    H311959   3.347   4.515  12.154  0.3449 -1.8418  0.5510
  812MPD2     N11960   3.195   4.531  12.580 -0.2516 -0.3533  0.7170
  812MPD2    H511961   3.159   4.601  12.644  1.0298  2.6280 -1.8747
  812MPD2    N111962   3.171   0.178  12.272 -0.5449  0.1796  0.1347
  812MPD2    H711963   3.199   0.207  12.179 -0.8859  0.6055  0.1670
  813MPD2     C11964   2.173   2.018  12.475  0.0735  0.6062  0.0981
  813MPD2    C111965   2.193   2.150  12.507 -0.4108  0.1702  0.1864
  813MPD2    C211966   2.121   2.211  12.607 -0.6301  0.3087  0.0768
  813MPD2    C311967   2.010   2.143  12.662  0.4228  0.5660 -0.1681
  813MPD2    C411968   1.986   2.010  12.621  0.1404 -0.2584  0.4465
  813MPD2    C511969   2.076   1.947  12.535 -0.1122  0.2583  0.9169
  813MPD2     H11970   2.146   2.313  12.636  1.2714 -0.2473  0.3588
  813MPD2    H111971   1.906   1.950  12.661  0.6047 -0.0743  1.6501
  813MPD2    H211972   2.234   1.962  12.406 -0.0371  2.5850 -1.5994
  813MPD2    H311973   2.062   1.844  12.504 -1.2910  2.0677 -4.6457
  813MPD2     N11974   1.944   2.201  12.775 -0.8871  0.5288 -0.3964
  813MPD2    H511975   1.972   2.298  12.790  0.0362 -0.1768  2.4116
  813MPD2    N111976   2.307   2.206  12.449 -0.4729 -0.6487 -0.3465
  813MPD2    H711977   2.362   2.151  12.383  0.5240 -1.4780  1.1443
  814MPD2     C11978   2.630   3.110  12.041 -0.5041  0.4594  0.0105
  814MPD2    C111979   2.704   3.149  11.930  0.7854 -0.0914 -0.2914
  814MPD2    C211980   2.802   3.246  11.950  0.5898 -0.6383  0.0608
  814MPD2    C311981   2.831   3.297  12.079 -0.2461  0.4489  0.0675
  814MPD2    C411982   2.754   3.259  12.183  0.1993 -0.1897  0.0025
  814MPD2    C511983   2.656   3.166  12.167  1.2833 -0.8777  0.0626
  814MPD2     H11984   2.855   3.284  11.863  0.4766 -1.5043 -0.3821
  814MPD2    H111985   2.780   3.298  12.281  0.4526 -2.9712  1.0573
  814MPD2    H211986   2.545   3.043  12.038  1.1418 -1.6295  0.1750
  814MPD2    H311987   2.603   3.141  12.258  0.7601  2.3380  0.6671
  814MPD2     N11988   2.935   3.388  12.108 -0.6162 -0.6179  0.3120
  814MPD2    H511989   2.919   3.445  12.191 -0.5524 -1.5090  0.9350
  814MPD2    N111990   2.677   3.105  11.798 -0.0286 -0.2241 -0.6952
  814MPD2    H711991   2.731   3.148  11.724 -2.4680 -0.8237 -2.7973
  815MPD2     C11992   3.046   1.176  12.095 -0.6497 -0.4109 -0.4180
  815MPD2    C111993   2.952   1.234  12.013 -0.5616 -0.0461 -0.4571
  815MPD2    C211994   2.818   1.228  12.048 -0.1607 -0.0428  1.0028
  815MPD2    C311995   2.770   1.157  12.154 -0.1884  0.0153  0.0878
  815MPD2    C411996   2.863   1.099  12.241  0.1364  0.7843  0.9384
  815MPD2    C511997   2.997   1.113  12.207  0.2198 -0.0325 -0.5411
  815MPD2     H11998   2.745   1.279  11.986  1.1558 -0.7107 -1.1113
  815MPD2    H111999   2.848   1.050  12.336  2.2997 -2.4154 -0.3737
  815MPD2    H212000   3.151   1.186  12.069 -0.8108  0.1547 -0.8434
  815MPD2    H312001   3.069   1.100  12.287  1.5703  1.1923 -1.5788
  815MPD2     N12002   2.625   1.141  12.179 -0.4333  0.0307  0.6037
  815MPD2    H512003   2.566   1.194  12.117 -0.7191 -0.0109  0.8424
  815MPD2    N112004   3.005   1.294  11.896  0.1649 -0.7614 -0.3134
  815MPD2    H712005   3.106   1.301  11.889  0.2767 -2.4546 -0.2167
  816MPD2     C12006   2.649   0.793  17.228 -0.0599 -0.0422 -0.6580
  816MPD2    C112007   2.657   0.855  17.107  0.5484  0.4653 -0.0005
  816MPD2    C212008   2.711   0.789  16.996 -0.7787  0.3774  0.8050
  816MPD2    C312009   2.760   0.655  17.005  0.5288 -0.4234  0.3632
  816MPD2    C412010   2.751   0.595  17.128  0.4718 -0.4169 -0.3648
  816MPD2    C512011   2.701   0.666  17.238  0.0364 -0.3865 -0.3185
  816MPD2     H12012   2.729   0.848  16.908 -0.9763 -0.9876 -0.1587
  816MPD2    H112013   2.753   0.490  17.152 -0.6785 -0.4253 -0.2967
  816MPD2    H212014   2.613   0.844  17.317  0.8398  1.2820 -1.0509
  816MPD2    H312015   2.694   0.612  17.331 -3.8269  0.5763 -0.0491
  816MPD2     N12016   2.817   0.595  16.890 -0.2840  1.0927 -1.2429
  816MPD2    H512017   2.844   0.650  16.810 -0.3885  1.1004 -1.2727
  816MPD2    N112018   2.612   0.985  17.084 -0.4923  0.1466  0.5764
  816MPD2    H712019   2.613   1.024  16.990 -2.5952 -0.6532  0.2363
  817MPD2     C12020   2.699   2.272  10.337 -0.4098  0.7224  0.0987
  817MPD2    C112021   2.785   2.277  10.231 -0.1239  0.5477  0.2532
  817MPD2    C212022   2.798   2.398  10.164  0.4776  0.0874 -0.1278
  817MPD2    C312023   2.723   2.507  10.200  0.3626  0.6319  0.5324
  817MPD2    C412024   2.650   2.509  10.315  1.2012 -0.0336 -0.5036
  817MPD2    C512025   2.640   2.387  10.378 -0.3663 -0.4617  0.5195
  817MPD2     H12026   2.874   2.412  10.088  0.8013  1.4319  0.4407
  817MPD2    H112027   2.610   2.597  10.363  5.1248  0.6146  1.5923
  817MPD2    H212028   2.699   2.184  10.399 -0.3982  1.0820  0.6063
  817MPD2    H312029   2.581   2.382  10.469 -1.7603 -0.9650 -0.4097
  817MPD2     N12030   2.731   2.621  10.112 -0.6177 -0.1974 -0.1100
  817MPD2    H512031   2.810   2.625  10.048 -0.8068  0.7782 -0.2883
  817MPD2    N112032   2.852   2.164  10.184 -0.4731  0.1995 -0.3432
  817MPD2    H712033   2.902   2.179  10.096 -1.4036  0.8255 -0.7589
  818MPD2     C12034   2.103   2.377   9.750 -0.2187  0.0722 -0.3972
  818MPD2    C112035   1.994   2.335   9.813  0.8080 -0.3547 -0.0998
  818MPD2    C212036   1.992   2.208   9.868 -0.4209 -0.0791  0.2026
  818MPD2    C312037   2.111   2.132   9.873  0.1648  0.2488 -0.7544
  818MPD2    C412038   2.222   2.181   9.809 -0.4221 -0.0893 -0.0774
  818MPD2    C512039   2.216   2.304   9.751 -0.3593  1.1024 -0.1994
  818MPD2     H12040   1.903   2.176   9.920 -1.3374  2.2941  0.0980
  818MPD2    H112041   2.308   2.115   9.799 -0.6899 -0.2290 -1.4157
  818MPD2    H212042   2.104   2.476   9.706 -1.1435  0.8290  1.2447
  818MPD2    H312043   2.306   2.338   9.700  1.5160 -2.0083  1.0716
  818MPD2     N12044   2.091   2.003   9.915 -1.0149  0.0498  0.3605
  818MPD2    H512045   2.000   1.979   9.954 -0.9087  0.1713  0.6791
  818MPD2    N112046   1.871   2.395   9.816  0.2213  0.1861 -0.2498
  818MPD2    H712047   1.790   2.348   9.856 -0.3090 -0.0150 -1.5815
  819MPD2     C12048   4.259   4.194  15.341 -0.8072  0.4842  0.1731
  819MPD2    C112049   4.276   4.060  15.330  0.9034  0.4277  0.0494
  819MPD2    C212050   4.363   3.988  15.404 -0.0400  0.1462  0.2388
  819MPD2    C312051   4.431   4.049  15.504  0.3504  0.5387  0.5480
  819MPD2    C412052   4.418   4.186  15.518 -0.2849  0.0437  0.0470
  819MPD2    C512053   4.339   4.256  15.428 -0.2103  0.0573 -0.5991
  819MPD2     H12054   4.382   3.883  15.382  0.7890  0.2050  0.6770
  819MPD2    H112055   4.475   4.240  15.592  0.3137  3.0029 -2.5780
  819MPD2    H212056   4.191   4.247  15.275 -0.5244  0.0970 -0.4292
  819MPD2    H312057   4.336   4.364  15.440  0.8931 -0.0008  0.2393
  819MPD2     N12058   4.529   3.973  15.573  0.4122 -0.2053  0.4239
  819MPD2    H512059   4.548   3.880  15.537 -2.6213  0.2064 -2.2430
  819MPD2    N112060   4.192   4.002  15.231 -0.5198  0.4067 -0.1622
  819MPD2    H712061   4.136   4.072  15.183 -0.8170  1.0496  1.1369
  820MPD2     C12062   3.489   4.272  14.657 -0.1102 -0.1615  0.5120
  820MPD2    C112063   3.489   4.275  14.797 -0.7233 -0.2275 -0.5156
  820MPD2    C212064   3.574   4.195  14.871  0.3065  0.2472 -0.4843
  820MPD2    C312065   3.654   4.106  14.802 -0.1724  0.1409  0.1935
  820MPD2    C412066   3.635   4.086  14.666  0.9037  1.0351  0.5306
  820MPD2    C512067   3.555   4.173  14.597  0.5186  0.8778  0.3708
  820MPD2     H12068   3.581   4.212  14.978  1.4523 -0.0612 -0.5108
  820MPD2    H112069   3.687   4.006  14.615 -0.7791 -0.4998  1.2344
  820MPD2    H212070   3.414   4.333  14.608  1.6665  0.8560 -0.9570
  820MPD2    H312071   3.550   4.164  14.489  0.3344 -0.3233  0.4813
  820MPD2     N12072   3.743   4.017  14.868  0.5197  0.3673  0.8754
  820MPD2    H512073   3.780   3.939  14.815  0.3543 -0.2441  1.6596
  820MPD2    N112074   3.398   4.370  14.854 -0.5266  0.0375  0.1363
  820MPD2    H712075   3.336   4.416  14.788 -2.1199 -0.4841  1.3052
  821MPD2     C12076   4.140   0.616  13.306 -0.1786  0.1772  0.3261
  821MPD2    C112077   4.253   0.610  13.385 -1.1924 -0.4627 -0.2035
  821MPD2    C212078   4.366   0.679  13.338  0.1335 -0.0524  0.8341
  821MPD2    C312079   4.371   0.739  13.214 -0.5726  0.2533  0.6400
  821MPD2    C412080   4.260   0.749  13.142  0.3112  0.0361 -0.4284
  821MPD2    C512081   4.141   0.696  13.193  0.6403 -0.2107 -0.6241
  821MPD2     H12082   4.447   0.664  13.408  1.0041  0.7673 -0.0001
  821MPD2    H112083   4.255   0.806  13.050  1.5348  0.6269 -0.1388
  821MPD2    H212084   4.043   0.580  13.337 -0.9421  1.0904 -1.0022
  821MPD2    H312085   4.050   0.721  13.140  0.7357 -1.2480 -1.2760
  821MPD2     N12086   4.483   0.799  13.148  0.5431  0.4150 -0.3877
  821MPD2    H512087   4.468   0.834  13.054  0.6072  0.2562 -0.4570
  821MPD2    N112088   4.269   0.541  13.506 -0.0325  0.8987 -0.2717
  821MPD2    H712089   4.363   0.516  13.535  0.0829  0.1422 -1.3298
  822MPD2     C12090   0.282   0.465  15.679 -0.2886  0.1134 -0.5288
  822MPD2    C112091   0.356   0.517  15.784  0.1715 -0.4461 -0.0974
  822MPD2    C212092   0.330   0.651  15.819 -0.2986  0.0084  0.1610
  822MPD2    C312093   0.216   0.715  15.771 -0.4274  0.4611  0.3683
  822MPD2    C412094   0.141   0.651  15.679 -0.8788  0.1868  0.6112
  822MPD2    C512095   0.175   0.530  15.629 -0.2168  0.1360 -0.0087
  822MPD2     H12096   0.384   0.684  15.907 -0.6580 -1.9787  1.1296
  822MPD2    H112097   0.051   0.700  15.643  0.0023  0.4652 -1.1971
  822MPD2    H212098   0.309   0.373  15.628  1.1058 -0.3216  0.9758
  822MPD2    H312099   0.117   0.495  15.544  0.3424  1.8440 -1.0813
  822MPD2     N12100   0.178   0.843  15.824 -0.1861  0.2904  0.3062
  822MPD2    H512101   0.082   0.875  15.811 -0.0297  0.4239 -0.5231
  822MPD2    N112102   0.473   0.457  15.847  0.0828 -0.9750  0.2621
  822MPD2    H712103   0.513   0.503  15.929  2.0226  0.9695 -1.7787
  823MPD2     C12104   4.488   1.180  16.480  0.1645 -0.4763  0.2414
  823MPD2    C112105   4.536   1.090  16.391 -0.2572 -0.4379 -0.9445
  823MPD2    C212106   4.524   0.953  16.418 -0.5590  0.6522 -0.0767
  823MPD2    C312107   4.484   0.903  16.541  0.1029 -0.0556  0.1316
  823MPD2    C412108   4.434   0.999  16.633  0.8426  0.8590  0.2533
  823MPD2    C512109   4.431   1.133  16.600 -0.2400  0.7167 -0.0444
  823MPD2     H12110   4.542   0.878  16.342 -1.9069  0.0379  0.2089
  823MPD2    H112111   4.391   0.968  16.728 -0.6203  0.7361 -0.4442
  823MPD2    H212112   4.493   1.287  16.465 -0.0054 -0.5350 -0.2159
  823MPD2    H312113   4.385   1.196  16.675  0.0518 -0.1121  0.8208
  823MPD2     N12114   4.497   0.769  16.589 -0.2342  0.3805 -0.9870
  823MPD2    H512115   4.464   0.739  16.680 -0.3824  1.0920 -0.8076
  823MPD2    N112116   4.615   1.139  16.277  0.2370  0.1995 -0.4052
  823MPD2    H712117   4.651   1.234  16.270 -0.3474  0.4830  0.4517
  824MPD2     C12118   0.824   4.347  16.116 -0.3801 -0.1272  0.6723
  824MPD2    C112119   0.833   4.434  16.010  0.1541  0.2627  0.7320
  824MPD2    C212120   0.910   4.395  15.904 -0.5322  0.0382 -0.7154
  824MPD2    C312121   0.987   4.279  15.909 -0.4095 -0.1182  0.1863
  824MPD2    C412122   0.997   4.208  16.026 -0.0839  0.1700  0.9255
  824MPD2    C512123   0.905   4.236  16.123 -0.1451  0.1985 -0.1508
  824MPD2     H12124   0.919   4.457  15.815  1.5366  0.2562 -0.3511
  824MPD2    H112125   1.064   4.123  16.037  0.0883  0.1766 -0.1317
  824MPD2    H212126   0.760   4.365  16.202  0.5949  1.4223  1.0797
  824MPD2    H312127   0.899   4.183  16.217  0.4515 -1.5710 -1.1041
  824MPD2     N12128   1.065   4.264  15.790 -0.4729 -0.7542  0.3379
  824MPD2    H512129   1.043   4.333  15.718  1.9297 -1.5638 -1.1831
  824MPD2    N112130   0.763   4.558  16.015 -0.0782 -0.4555  0.0065
  824MPD2    H712131   0.705   4.581  16.095  0.8934  0.6524  0.4040
  825MPD2     C12132   1.652   4.591  15.590  0.2458 -0.5372 -0.2837
  825MPD2    C112133   1.539   4.579  15.512  0.4520  0.0154  0.2221
  825MPD2    C212134   1.488   4.684  15.434  0.1396 -0.4174  0.2432
  825MPD2    C312135   1.552   0.083  15.428  0.9308 -0.5197  0.2332
  825MPD2    C412136   1.664   0.101  15.516  0.4975  0.1969 -0.4128
  825MPD2    C512137   1.709   4.715  15.598 -0.3969  0.2640  0.1574
  825MPD2     H12138   1.415   4.665  15.356  0.5272  1.7863 -0.6468
  825MPD2    H112139   1.713   0.197  15.528  1.3009 -0.3640  0.7740
  825MPD2    H212140   1.693   4.515  15.656 -0.1049 -0.7086 -0.2672
  825MPD2    H312141   1.806   0.001  15.646 -1.2019 -0.5939  1.9059
  825MPD2     N12142   1.514   0.191  15.343  0.0512 -0.1963  0.3265
  825MPD2    H512143   1.565   0.278  15.354  0.7438 -0.5262 -0.2927
  825MPD2    N112144   1.477   4.455  15.501 -0.6879 -0.1521 -0.0304
  825MPD2    H712145   1.525   4.375  15.541  1.1109  0.9342 -0.0265
  826MPD2     C12146   1.398   0.233  13.474  0.5395  0.4728  0.1789
  826MPD2    C112147   1.305   0.180  13.392  0.1854  0.7671  0.5325
  826MPD2    C212148   1.174   0.210  13.421 -0.4110 -0.0917 -0.0438
  826MPD2    C312149   1.135   0.292  13.529  0.3521  0.3787  0.5743
  826MPD2    C412150   1.236   0.351  13.602  0.2459 -0.2286  0.4428
  826MPD2    C512151   1.364   0.314  13.577 -0.2929 -0.6220  0.5583
  826MPD2     H12152   1.094   0.184  13.352 -0.6274 -0.0237  0.1818
  826MPD2    H112153   1.214   0.425  13.679  0.7949 -1.5204  1.8339
  826MPD2    H212154   1.504   0.215  13.459  0.1715 -0.6897 -1.0108
  826MPD2    H312155   1.445   0.364  13.627 -0.1429 -0.0513 -0.2602
  826MPD2     N12156   1.005   0.312  13.576 -0.2418  0.0961 -0.4763
  826MPD2    H512157   1.003   0.360  13.665  2.0154 -0.0696 -0.3353
  826MPD2    N112158   1.351   0.101  13.280 -0.7775 -0.2345  0.2748
  826MPD2    H712159   1.440   0.053  13.286 -0.6906  0.1016  1.5784
  827MPD2     C12160   2.391   1.471  10.040 -0.5429  0.2911  0.4591
  827MPD2    C112161   2.326   1.363  10.097 -0.6640  0.1905  0.3320
  827MPD2    C212162   2.226   1.301  10.022  0.0364  0.2356  0.1476
  827MPD2    C312163   2.189   1.346   9.897  0.0594 -0.8108 -0.0840
  827MPD2    C412164   2.254   1.454   9.839  1.3429  0.2506 -0.1214
  827MPD2    C512165   2.356   1.516   9.911  0.2912  0.6094 -0.3012
  827MPD2     H12166   2.173   1.218  10.068 -0.1377 -0.1241 -0.7110
  827MPD2    H112167   2.228   1.491   9.741 -0.4093 -0.4364  0.0824
  827MPD2    H212168   2.462   1.528  10.098  0.6979  1.3505 -2.1038
  827MPD2    H312169   2.412   1.599   9.871  0.1002  1.0000  0.2336
  827MPD2     N12170   2.088   1.270   9.836 -0.7391 -0.0051  0.2882
  827MPD2    H512171   2.046   1.186   9.873 -1.6356  0.6377  0.7450
  827MPD2    N112172   2.371   1.316  10.228  0.3418 -0.5930 -0.6687
  827MPD2    H712173   2.453   1.364  10.264 -0.6963 -0.5358  1.6111
  828MPD2     C12174   0.511   0.875  12.654  0.3285 -0.0040  0.1442
  828MPD2    C112175   0.520   0.946  12.540  0.3077  0.6593  0.0224
  828MPD2    C212176   0.642   0.953  12.473 -0.0564 -0.2053  1.1160
  828MPD2    C312177   0.744   0.860  12.499  0.5569 -0.2458 -0.5947
  828MPD2    C412178   0.733   0.781  12.611  0.0023 -0.4349 -0.5460
  828MPD2    C512179   0.618   0.796  12.691  0.0403 -0.5361 -0.2325
  828MPD2     H12180   0.658   1.031  12.399 -2.6242 -0.0198  0.7573
  828MPD2    H112181   0.815   0.716  12.638 -1.6965 -2.5063 -0.3176
  828MPD2    H212182   0.435   0.864  12.730  2.7015  0.1672  2.5070
  828MPD2    H312183   0.623   0.741  12.785 -0.1604 -3.0258 -1.6974
  828MPD2     N12184   0.866   0.850  12.431  0.5078 -0.0988 -0.4292
  828MPD2    H512185   0.937   0.785  12.462 -1.5430 -2.9200 -1.6419
  828MPD2    N112186   0.417   1.033  12.485 -0.2740  0.7987  0.1327
  828MPD2    H712187   0.447   1.102  12.417  0.2515 -0.6359 -1.1002
  829MPD2     C12188   0.627   1.310  11.753 -0.2800 -0.2604 -0.4157
  829MPD2    C112189   0.494   1.341  11.745 -0.3958 -0.2346  0.1657
  829MPD2    C212190   0.410   1.314  11.848 -0.2134  0.5083 -0.0782
  829MPD2    C312191   0.453   1.248  11.956 -0.4428 -0.4397 -0.3002
  829MPD2    C412192   0.585   1.217  11.968 -0.4900  0.3352 -0.1589
  829MPD2    C512193   0.670   1.256  11.870 -0.1300 -0.5892  0.3101
  829MPD2     H12194   0.307   1.347  11.847  0.0947  1.4296 -0.9397
  829MPD2    H112195   0.636   1.193  12.061  3.2959 -1.4788 -2.6945
  829MPD2    H212196   0.699   1.315  11.672  1.0316 -1.3110  0.6934
  829MPD2    H312197   0.775   1.228  11.879 -0.2747 -1.4027 -0.5963
  829MPD2     N12198   0.367   1.195  12.054 -0.2524  0.6488 -1.2366
  829MPD2    H512199   0.417   1.135  12.119 -1.3221  2.7092  1.4968
  829MPD2    N112200   0.455   1.413  11.634  0.7832  0.1812  0.0490
  829MPD2    H712201   0.526   1.431  11.564 -0.6055  1.0909 -1.1273
  830MPD2     C12202   0.580   3.605  15.562 -0.1930 -0.0154 -0.3702
  830MPD2    C112203   0.477   3.683  15.511 -0.0635  0.3805 -0.2190
  830MPD2    C212204   0.496   3.754  15.393 -0.4769  0.5804  0.8224
  830MPD2    C312205   0.619   3.766  15.336 -0.7057 -0.2195  0.0716
  830MPD2    C412206   0.728   3.698  15.399  0.4105  0.3114  0.4106
  830MPD2    C512207   0.700   3.613  15.506  0.4350  0.0500  0.0409
  830MPD2     H12208   0.413   3.804  15.345 -1.2135 -4.9080 -3.6267
  830MPD2    H112209   0.824   3.702  15.350 -1.4248  3.5167 -2.9392
  830MPD2    H212210   0.569   3.540  15.648  0.4587  0.0463 -0.2397
  830MPD2    H312211   0.781   3.548  15.539  0.0440 -0.3121  0.2863
  830MPD2     N12212   0.646   3.846  15.226  0.5566  0.0821  0.5672
  830MPD2    H512213   0.741   3.838  15.190  1.0714  1.7144  1.5514
  830MPD2    N112214   0.366   3.687  15.582 -0.7220 -0.0279  0.0910
  830MPD2    H712215   0.359   3.637  15.670  0.5449 -1.6377 -0.6988
  831MPD2     C12216   0.427   0.952  16.314 -0.4440 -0.4346  0.0197
  831MPD2    C112217   0.446   0.851  16.220  0.4341 -0.1727 -0.0341
  831MPD2    C212218   0.339   0.770  16.186 -0.4253  0.2251 -0.0762
  831MPD2    C312219   0.213   0.796  16.241 -0.0194 -0.0457  0.6142
  831MPD2    C412220   0.199   0.898  16.328  0.4089  0.6263 -1.2970
  831MPD2    C512221   0.306   0.970  16.370 -0.4510  0.9972  0.5050
  831MPD2     H12222   0.348   0.695  16.108 -0.1310  0.1378  0.0381
  831MPD2    H112223   0.099   0.921  16.363  1.3988 -0.2431  2.0284
  831MPD2    H212224   0.507   1.017  16.348 -1.0496  0.7247 -0.7528
  831MPD2    H312225   0.285   1.056  16.433 -1.2482  0.3255  1.1504
  831MPD2     N12226   0.101   0.718  16.209  0.4782 -0.0534  0.0729
  831MPD2    H512227   0.010   0.750  16.240  0.1459 -0.9124 -0.0100
  831MPD2    N112228   0.569   0.846  16.155 -0.3158 -0.4246 -0.0826
  831MPD2    H712229   0.629   0.928  16.161 -1.0317 -0.0232  1.5128
  832MPD2     C12230   3.548   1.681  17.236  0.0530 -0.8332  0.3799
  832MPD2    C112231   3.549   1.817  17.203 -0.6943  0.6531 -0.5364
  832MPD2    C212232   3.501   1.858  17.081 -0.5813 -0.1930  0.4997
  832MPD2    C312233   3.480   1.762  16.987  0.2454 -0.4055 -0.6543
  832MPD2    C412234   3.486   1.620  17.017  0.5672 -0.4039 -0.4101
  832MPD2    C512235   3.523   1.584  17.145 -1.2060  0.0018 -0.5517
  832MPD2     H12236   3.490   1.961  17.049  0.6369 -1.0862 -2.8857
  832MPD2    H112237   3.454   1.551  16.940 -0.6869 -0.4529  0.1498
  832MPD2    H212238   3.590   1.633  17.323  1.0482  0.2043  0.4646
  832MPD2    H312239   3.520   1.481  17.178  0.7310 -0.5151 -1.9996
  832MPD2     N12240   3.435   1.797  16.853  0.0999  0.4399  0.3904
  832MPD2    H512241   3.404   1.718  16.798  2.7770 -0.4949  0.2138
  832MPD2    N112242   3.591   1.906  17.303  0.2043  0.3631  0.7505
  832MPD2    H712243   3.608   1.864  17.394  3.0086 -1.6955 -0.7274
  833MPD2     C12244   1.171   3.333  12.439 -0.4965 -0.1588  0.2118
  833MPD2    C112245   1.159   3.414  12.325  0.0488 -0.3849 -0.1993
  833MPD2    C212246   1.159   3.347  12.206 -0.3503  0.0619  0.0280
  833MPD2    C312247   1.201   3.216  12.201  0.3162  0.1010 -0.1981
  833MPD2    C412248   1.212   3.132  12.316 -0.0824 -0.1477  0.3608
  833MPD2    C512249   1.195   3.199  12.436  0.7035 -0.0318  0.0748
  833MPD2     H12250   1.153   3.410  12.119 -1.2498  1.4013  1.0545
  833MPD2    H112251   1.245   3.029  12.311  2.8800  0.6667  2.9193
  833MPD2    H212252   1.157   3.385  12.533 -2.1870 -0.1938 -0.0208
  833MPD2    H312253   1.200   3.145  12.530  1.7259  1.5315  0.9262
  833MPD2     N12254   1.227   3.147  12.077  0.0155  0.2421  0.1958
  833MPD2    H512255   1.248   3.048  12.085 -0.3200  0.0949 -0.8295
  833MPD2    N112256   1.140   3.557  12.333  0.2398 -0.4998 -0.0301
  833MPD2    H712257   1.138   3.592  12.428 -2.6305 -0.7785 -0.0057
  834MPD2     C12258   1.074   2.434  11.389 -0.0156  0.4617  0.2404
  834MPD2    C112259   1.096   2.528  11.302  0.4576 -0.5365  0.8094
  834MPD2    C212260   1.106   2.659  11.340 -0.4745  0.1373  0.3311
  834MPD2    C312261   1.094   2.703  11.469  0.3865 -0.2970  0.1875
  834MPD2    C412262   1.063   2.598  11.556 -0.2849  0.7127 -0.0904
  834MPD2    C512263   1.063   2.470  11.521 -0.2064 -0.0005 -0.0715
  834MPD2     H12264   1.127   2.730  11.260  0.6154 -1.3569 -0.7035
  834MPD2    H112265   1.042   2.603  11.662  0.6572  1.2162  0.0675
  834MPD2    H212266   1.068   2.331  11.356  1.1158 -0.7337  3.8338
  834MPD2    H312267   1.025   2.394  11.589 -0.6448  1.1522  0.9506
  834MPD2     N12268   1.116   2.839  11.509 -0.0610  0.1225 -0.4523
  834MPD2    H512269   1.149   2.914  11.449  1.8218 -1.0508 -0.8911
  834MPD2    N112270   1.110   2.486  11.164 -0.3834  0.1408  0.0623
  834MPD2    H712271   1.079   2.393  11.139 -0.3240 -1.1793  4.8127
  835MPD2     C12272   1.290   1.132  11.176  0.7787 -0.1398  0.0482
  835MPD2    C112273   1.188   1.232  11.166 -0.1799 -0.3230 -0.0044
  835MPD2    C212274   1.157   1.319  11.267 -0.6697  0.0883 -0.4551
  835MPD2    C312275   1.219   1.306  11.391  0.4788  0.6009  0.1985
  835MPD2    C412276   1.318   1.205  11.404  0.0122 -0.0964  0.7341
  835MPD2    C512277   1.353   1.130  11.299  0.1016  0.0189  0.5014
  835MPD2     H12278   1.084   1.397  11.244 -1.1555 -0.5573 -1.0947
  835MPD2    H112279   1.365   1.191  11.501  2.7094  1.3307 -0.3454
  835MPD2    H212280   1.329   1.070  11.095  1.6449 -0.5965  0.8177
  835MPD2    H312281   1.422   1.048  11.316 -1.1762 -1.3005 -0.7119
  835MPD2     N12282   1.170   1.367  11.506  0.0467  0.3798  0.6476
  835MPD2    H512283   1.212   1.336  11.593  1.8461 -1.6795 -0.9431
  835MPD2    N112284   1.118   1.250  11.046 -0.2875 -0.1314  0.1071
  835MPD2    H712285   1.060   1.333  11.048  1.2349  0.9149  1.3378
  836MPD2     C12286   0.503   1.846  11.657 -0.2262 -0.0646 -0.4554
  836MPD2    C112287   0.555   1.750  11.745 -0.4990 -0.1005 -0.2548
  836MPD2    C212288   0.458   1.698  11.835  0.1710 -0.1162  0.1042
  836MPD2    C312289   0.328   1.738  11.842 -0.8131 -0.2207 -0.5894
  836MPD2    C412290   0.282   1.821  11.751  0.4498 -0.5629 -0.1353
  836MPD2    C512291   0.368   1.874  11.658 -0.9677 -1.2348  0.1637
  836MPD2     H12292   0.492   1.624  11.906  1.6743 -0.8959 -1.4133
  836MPD2    H112293   0.178   1.850  11.756  0.3868 -0.7495 -0.3623
  836MPD2    H212294   0.568   1.898  11.588  0.7973  0.0502  0.5942
  836MPD2    H312295   0.323   1.946  11.590 -0.0394 -1.8764 -1.1312
  836MPD2     N12296   0.236   1.688  11.935  0.2388 -0.1579  0.0669
  836MPD2    H512297   0.141   1.721  11.923  0.4864  0.4732 -0.1240
  836MPD2    N112298   0.695   1.711  11.742  0.1453  0.6448  0.2571
  836MPD2    H712299   0.755   1.726  11.662  1.8120 -1.7271  1.0525
  837MPD2     C12300   3.885   0.949   9.976 -0.3464 -0.2280 -0.5778
  837MPD2    C112301   3.799   0.937   9.869 -0.0192 -0.6968  0.4766
  837MPD2    C212302   3.699   1.029   9.861  0.2595  0.7393 -0.0220
  837MPD2    C312303   3.680   1.137   9.940 -0.2968  0.2642 -0.2936
  837MPD2    C412304   3.766   1.159  10.043 -0.2812 -0.2849  0.4104
  837MPD2    C512305   3.856   1.053  10.062 -0.0751  0.1386 -0.3506
  837MPD2     H12306   3.639   1.022   9.771  3.2955 -0.0586 -1.9682
  837MPD2    H112307   3.756   1.233  10.122 -3.9806  1.2488 -1.4979
  837MPD2    H212308   3.965   0.878   9.997  1.0925  2.1098  1.8627
  837MPD2    H312309   3.924   1.065  10.146  0.6519 -1.3324 -0.7194
  837MPD2     N12310   3.578   1.229   9.908 -0.4201 -0.0984 -0.0606
  837MPD2    H512311   3.533   1.216   9.818  0.5876 -1.1130 -0.4189
  837MPD2    N112312   3.813   0.842   9.764  0.4892 -0.1348  0.9012
  837MPD2    H712313   3.754   0.850   9.681  0.3587  0.1188  1.0177
  838MPD2     C12314   2.419   3.818  11.627  1.0221 -0.4359 -0.7556
  838MPD2    C112315   2.418   3.737  11.741  0.2783 -0.1293 -0.7456
  838MPD2    C212316   2.316   3.649  11.766 -0.2708 -0.0029 -0.2644
  838MPD2    C312317   2.208   3.650  11.676  0.3744 -0.3857 -0.8898
  838MPD2    C412318   2.207   3.726  11.565 -0.1454 -0.1413 -0.0905
  838MPD2    C512319   2.311   3.814  11.547 -0.6928 -0.6668 -0.3450
  838MPD2     H12320   2.307   3.587  11.855 -1.1302  0.5236  0.0149
  838MPD2    H112321   2.123   3.724  11.496 -0.9813  0.0919  0.9266
  838MPD2    H212322   2.485   3.900  11.601 -0.6533  1.3787  0.6609
  838MPD2    H312323   2.300   3.890  11.470  1.0211  0.1154  0.1823
  838MPD2     N12324   2.094   3.577  11.726  0.1882  0.5295 -0.3517
  838MPD2    H512325   2.088   3.573  11.827 -3.3199 -0.2444 -0.5799
  838MPD2    N112326   2.530   3.742  11.830 -0.2454  0.3227  0.4712
  838MPD2    H712327   2.538   3.662  11.892 -1.7254  0.8181  1.3138
  839MPD2     C12328   2.224   3.205  11.722 -0.4433  0.3725 -0.4652
  839MPD2    C112329   2.281   3.269  11.616 -0.2738 -0.5465 -0.0213
  839MPD2    C212330   2.398   3.335  11.625 -0.7061 -0.3790 -0.1982
  839MPD2    C312331   2.461   3.347  11.750 -0.4506  0.0400 -0.4865
  839MPD2    C412332   2.399   3.283  11.856  0.0002  0.6982 -0.5658
  839MPD2    C512333   2.285   3.211  11.846  0.3654  0.0713 -0.8452
  839MPD2     H12334   2.439   3.391  11.541 -2.3482  2.5022  0.9126
  839MPD2    H112335   2.441   3.295  11.955 -0.8444  0.5621 -0.1978
  839MPD2    H212336   2.127   3.156  11.720  0.0490 -0.5883 -0.9865
  839MPD2    H312337   2.233   3.159  11.926 -0.6528  1.3828 -0.6424
  839MPD2     N12338   2.577   3.430  11.771 -0.2842 -0.2600 -0.0139
  839MPD2    H512339   2.602   3.448  11.867 -0.9833  2.9377 -0.4491
  839MPD2    N112340   2.224   3.263  11.487 -0.0782  0.4154 -0.5168
  839MPD2    H712341   2.268   3.315  11.411 -0.5281  1.2674 -0.2018
  840MPD2     C12342   2.777   1.625  10.561 -0.7060  0.2675 -0.6401
  840MPD2    C112343   2.697   1.572  10.659  0.0442  0.2446 -0.6665
  840MPD2    C212344   2.709   1.620  10.786  0.0897  0.0854  0.2972
  840MPD2    C312345   2.826   1.691  10.819 -0.4121  0.5261 -0.7569
  840MPD2    C412346   2.911   1.731  10.729 -0.4995  0.1196  0.4474
  840MPD2    C512347   2.880   1.700  10.598 -0.0309  0.0819  0.1771
  840MPD2     H12348   2.650   1.579  10.867  2.1800  0.1477  1.8658
  840MPD2    H112349   3.001   1.786  10.752 -0.9512  1.2024 -0.3910
  840MPD2    H212350   2.758   1.585  10.463  0.1473  0.2590 -0.8012
  840MPD2    H312351   2.945   1.744  10.523  1.3664  0.6925  1.7461
  840MPD2     N12352   2.864   1.723  10.951  0.4222  0.5153  0.2717
  840MPD2    H512353   2.952   1.772  10.968 -0.4397  1.8050  0.9716
  840MPD2    N112354   2.600   1.472  10.618  0.0270 -0.2870  0.1234
  840MPD2    H712355   2.600   1.440  10.521 -0.4797  0.0364  0.0174
  841MPD2     C12356   2.299   1.742  13.804  0.1753 -0.1076  0.2443
  841MPD2    C112357   2.267   1.686  13.931 -0.6613  0.1610 -0.0185
  841MPD2    C212358   2.370   1.641  14.011  0.0340 -0.0647 -0.2412
  841MPD2    C312359   2.499   1.648  13.961 -0.3971  0.8412  0.1422
  841MPD2    C412360   2.529   1.703  13.833  0.3948 -0.3676 -1.2100
  841MPD2    C512361   2.428   1.747  13.758  0.1778 -0.6741  0.5561
  841MPD2     H12362   2.350   1.588  14.104  0.5726  1.4442  0.7389
  841MPD2    H112363   2.628   1.709  13.791  0.1461  0.7085 -1.6384
  841MPD2    H212364   2.222   1.772  13.734  2.0292  1.6932 -1.0154
  841MPD2    H312365   2.452   1.784  13.659 -2.1612  1.8331  0.9334
  841MPD2     N12366   2.592   1.588  14.041 -0.6232  0.2223 -0.6358
  841MPD2    H512367   2.562   1.550  14.131  4.9931 -0.3534  1.0060
  841MPD2    N112368   2.134   1.667  13.964 -0.1858  0.1974  0.3596
  841MPD2    H712369   2.065   1.684  13.891 -1.6377 -0.8654  1.5105
  842MPD2     C12370   2.697   1.986  16.660  0.4139  0.2355 -0.0106
  842MPD2    C112371   2.601   2.062  16.731  0.2545 -0.3431 -0.1232
  842MPD2    C212372   2.562   2.021  16.851  0.4623  0.1622 -0.8782
  842MPD2    C312373   2.616   1.904  16.904 -0.4031  0.1416  0.4897
  842MPD2    C412374   2.723   1.847  16.843  0.0711  0.2127 -0.0647
  842MPD2    C512375   2.747   1.875  16.714 -0.4226 -0.0463  0.0943
  842MPD2     H12376   2.476   2.068  16.898  0.4474 -0.4369 -0.2931
  842MPD2    H112377   2.767   1.756  16.884 -2.8922  0.1115  2.7982
  842MPD2    H212378   2.727   2.032  16.566 -2.1792  0.2962 -0.8043
  842MPD2    H312379   2.828   1.822  16.665 -0.0769 -0.5734  1.2262
  842MPD2     N12380   2.578   1.848  17.027  0.4883  0.6417 -0.1017
  842MPD2    H512381   2.634   1.773  17.065 -0.7416 -0.8141 -1.1422
  842MPD2    N112382   2.564   2.185  16.680 -0.2061 -0.8101 -0.2162
  842MPD2    H712383   2.583   2.198  16.581 -1.2760 -0.0683 -0.3320
  843MPD2     C12384   4.509   2.140  17.242  0.4095  0.0108  0.1607
  843MPD2    C112385   4.472   2.209  17.350 -0.9171  0.6093  0.3113
  843MPD2    C212386   4.552   2.320  17.380 -0.6391  0.2879  0.1611
  843MPD2    C312387   4.668   2.350  17.311 -0.1001 -0.0345 -0.1235
  843MPD2    C412388   4.701   2.275  17.203  0.9152  0.2548  0.1217
  843MPD2    C512389   4.625   2.172  17.167 -0.1239 -0.4779 -0.5879
  843MPD2     H12390   4.520   2.384  17.462  0.3174 -0.4844  1.1408
  843MPD2    H112391   0.068   2.299  17.147 -0.1899  2.6917 -0.6208
  843MPD2    H212392   4.451   2.055  17.209  0.6996 -0.3943  0.6886
  843MPD2    H312393   4.644   2.118  17.075  0.3250 -0.1639 -0.6770
  843MPD2     N12394   0.034   2.458  17.337  0.1419 -0.2624 -0.1420
  843MPD2    H512395   0.122   2.464  17.287  0.2626 -0.2138  0.0767
  843MPD2    N112396   4.361   2.162  17.429  0.4106  0.1002 -0.1881
  843MPD2    H712397   4.313   2.090  17.376  0.0218 -0.9495  1.5819
  844MPD2     C12398   3.313   1.655  16.224  0.0885  0.0059 -0.0830
  844MPD2    C112399   3.317   1.536  16.294  0.2496 -0.1774  0.4229
  844MPD2    C212400   3.410   1.521  16.398  0.2992 -0.3063  0.2238
  844MPD2    C312401   3.488   1.632  16.433 -0.0553  0.1102 -0.3338
  844MPD2    C412402   3.479   1.753  16.368  0.6113  0.6081 -0.5653
  844MPD2    C512403   3.383   1.762  16.269  0.3940 -0.0637  0.1037
  844MPD2     H12404   3.422   1.426  16.448  1.7085 -1.3377 -2.0495
  844MPD2    H112405   3.549   1.831  16.396 -1.2751  1.9444  0.4502
  844MPD2    H212406   3.248   1.672  16.139 -0.1116  1.5181  0.3682
  844MPD2    H312407   3.373   1.851  16.208  0.2387 -1.8811 -2.5798
  844MPD2     N12408   3.573   1.608  16.545  0.5600  0.6340 -0.2327
  844MPD2    H512409   3.576   1.514  16.583  0.7242  1.4172  1.7021
  844MPD2    N112410   3.234   1.423  16.262 -0.2788 -0.5163 -0.1526
  844MPD2    H712411   3.237   1.336  16.314  3.1524  0.4112  1.1679
  845MPD2     C12412   4.262   2.220  16.971 -0.3939  0.4417 -0.2422
  845MPD2    C112413   4.134   2.244  16.938  0.1451  1.1512 -0.2115
  845MPD2    C212414   4.059   2.134  16.897  0.2739 -0.1701 -0.2261
  845MPD2    C312415   4.103   2.009  16.907 -0.1671 -0.2516  0.6169
  845MPD2    C412416   4.232   1.986  16.927 -0.0306  0.9748 -0.5562
  845MPD2    C512417   4.312   2.093  16.962 -0.0271 -0.1692  0.0550
  845MPD2     H12418   3.955   2.156  16.874  0.0529  1.6102  2.5089
  845MPD2    H112419   4.275   1.886  16.919  0.4509  1.0613  0.8985
  845MPD2    H212420   4.331   2.304  16.974  1.4813 -1.1003 -0.4159
  845MPD2    H312421   4.416   2.073  16.982  0.0157  0.0918  0.0898
  845MPD2     N12422   4.011   1.910  16.873 -0.7622 -0.5530  0.7511
  845MPD2    H512423   3.917   1.941  16.850 -0.3254  1.1197  1.2236
  845MPD2    N112424   4.081   2.373  16.967  0.1563 -0.0295  0.9859
  845MPD2    H712425   4.142   2.454  16.976  0.7675 -0.4201  0.3206
  846MPD2     C12426   0.453   3.100  13.677  0.1709  0.4674 -0.1079
  846MPD2    C112427   0.332   3.156  13.693  0.3048 -0.9841  0.1016
  846MPD2    C212428   0.279   3.160  13.821 -0.1429  0.7057 -0.2389
  846MPD2    C312429   0.347   3.130  13.931  0.0327 -0.0436  0.5878
  846MPD2    C412430   0.470   3.067  13.915  0.1633  0.5777 -0.5243
  846MPD2    C512431   0.521   3.049  13.790  0.3177 -0.7269 -0.4819
  846MPD2     H12432   0.181   3.205  13.836  0.4655  2.9739 -3.1220
  846MPD2    H112433   0.522   3.040  14.006 -2.5013 -0.0530  0.8112
  846MPD2    H212434   0.507   3.094  13.583  2.8683  2.6142  1.3295
  846MPD2    H312435   0.609   2.988  13.781  0.6642  0.0356 -2.4107
  846MPD2     N12436   0.296   3.157  14.063  0.0173  0.0570  0.0611
  846MPD2    H512437   0.196   3.174  14.061  0.0793  0.2713 -0.9272
  846MPD2    N112438   0.263   3.222  13.591 -0.3638 -0.3883 -0.5544
  846MPD2    H712439   0.199   3.299  13.607 -0.5935 -0.2551 -2.0650
  847MPD2     C12440   0.270   3.754  14.192  0.1448 -1.1390  0.1421
  847MPD2    C112441   0.394   3.814  14.187 -0.5713 -0.0932 -0.6881
  847MPD2    C212442   0.506   3.743  14.228 -0.6378  0.3275 -0.0580
  847MPD2    C312443   0.488   3.617  14.280  0.3910 -0.3355 -0.0239
  847MPD2    C412444   0.364   3.560  14.289 -0.4704  0.8137  1.0234
  847MPD2    C512445   0.255   3.629  14.242 -0.0448 -0.1407  0.5343
  847MPD2     H12446   0.601   3.794  14.238  0.4792 -1.3289 -2.1069
  847MPD2    H112447   0.351   3.454  14.309  0.8089  0.4558 -0.0868
  847MPD2    H212448   0.186   3.808  14.150  1.8646  1.1480 -0.3359
  847MPD2    H312449   0.161   3.577  14.254 -0.0803  0.5284  3.1903
  847MPD2     N12450   0.595   3.555  14.343  0.4751 -0.7526  0.4154
  847MPD2    H512451   0.561   3.499  14.421 -1.9171 -0.2760 -0.2801
  847MPD2    N112452   0.413   3.948  14.157 -0.1032 -0.0107 -0.2074
  847MPD2    H712453   0.510   3.978  14.157  0.8543 -3.1018  0.7406
  848MPD2     C12454   3.033   2.363  16.296  0.8987  0.0491  0.1875
  848MPD2    C112455   3.147   2.352  16.373  0.7358  0.2757  0.1383
  848MPD2    C212456   3.239   2.450  16.356  0.6226 -0.0495 -0.1903
  848MPD2    C312457   3.212   2.554  16.261  0.6387  0.5851  0.4620
  848MPD2    C412458   3.098   2.551  16.185  0.7574  0.3301 -0.2201
  848MPD2    C512459   3.003   2.468  16.217  0.2357  0.8794  0.2201
  848MPD2     H12460   3.330   2.442  16.415 -0.8593  1.3366  2.2993
  848MPD2    H112461   3.083   2.626  16.108  0.2197  1.6996  1.2124
  848MPD2    H212462   2.956   2.287  16.307  0.8956 -0.2303 -1.7221
  848MPD2    H312463   2.909   2.476  16.163  0.8350  1.7503 -0.6880
  848MPD2     N12464   3.295   2.664  16.228 -0.2587 -0.2000  0.3186
  848MPD2    H512465   3.253   2.742  16.177 -1.4383 -1.2413 -0.3185
  848MPD2    N112466   3.183   2.239  16.452  0.4071 -0.1340 -0.1701
  848MPD2    H712467   3.274   2.237  16.497  0.7965  1.8377 -0.8404
  849MPD2     C12468   2.151   2.084  14.017  0.4084 -0.5369  0.3063
  849MPD2    C112469   2.244   2.127  13.925 -0.5389 -0.1645 -0.5026
  849MPD2    C212470   2.372   2.075  13.942 -0.2727 -0.3692 -0.2093
  849MPD2    C312471   2.409   2.003  14.048 -0.5717 -0.0180  0.1627
  849MPD2    C412472   2.316   1.961  14.140  0.1465 -0.2004 -1.1350
  849MPD2    C512473   2.184   2.002  14.120  0.4705 -0.4541  0.4565
  849MPD2     H12474   2.444   2.083  13.861  1.5400  1.1185  1.5751
  849MPD2    H112475   2.338   1.911  14.234 -0.0502 -2.1577 -2.1448
  849MPD2    H212476   2.048   2.118  14.010  1.4354  2.8268  1.7541
  849MPD2    H312477   2.111   1.981  14.198 -0.5969  0.6041 -0.2543
  849MPD2     N12478   2.546   1.978  14.058 -0.6042  0.3385 -0.2309
  849MPD2    H512479   2.610   1.994  13.982 -1.2984 -1.7770 -1.2573
  849MPD2    N112480   2.206   2.215  13.817 -0.4765 -0.1149  0.1676
  849MPD2    H712481   2.113   2.251  13.800 -0.0341  0.5845 -0.7835
  850MPD2     C12482   0.097   0.031  14.512  0.0196  0.0892  0.0717
  850MPD2    C112483   0.100   0.120  14.614 -0.1381  0.1434 -0.1354
  850MPD2    C212484   0.222   0.138  14.672 -0.1753  0.2341  0.6243
  850MPD2    C312485   0.336   0.078  14.624 -0.1343  0.5977 -0.4775
  850MPD2    C412486   0.327   4.709  14.520  0.3292  0.1644 -0.6659
  850MPD2    C512487   0.205   4.684  14.466 -0.7353 -0.0208 -0.2259
  850MPD2     H12488   0.229   0.204  14.758  1.5673  0.6101  0.2062
  850MPD2    H112489   0.415   4.650  14.499 -0.2736 -0.6951 -0.7609
  850MPD2    H212490   0.006   0.004  14.459 -0.9375  3.7572 -0.1312
  850MPD2    H312491   0.195   4.617  14.382  0.6931  0.3963 -0.7313
  850MPD2     N12492   0.459   0.088  14.688 -0.1511  0.1682 -0.4784
  850MPD2    H512493   0.544   0.053  14.646 -1.2243 -1.4312 -1.3130
  850MPD2    N112494   4.699   0.161  14.660  0.0026  0.5757 -0.4638
  850MPD2    H712495   4.622   0.162  14.594 -3.1272  4.2169  3.2568
  851MPD2     C12496   0.578   4.700  15.208 -0.7928 -0.0471 -0.9692
  851MPD2    C112497   0.489   4.657  15.120  0.3539  0.1449 -0.7016
  851MPD2    C212498   0.523   4.560  15.027  0.1904 -0.2745 -0.5671
  851MPD2    C312499   0.642   4.492  15.049 -0.4042  0.4120 -0.1425
  851MPD2    C412500   0.732   4.542  15.137 -0.7497  0.0991 -0.9414
  851MPD2    C512501   0.704   4.643  15.225  0.2237 -0.2028  0.3696
  851MPD2     H12502   0.449   4.534  14.952  0.8862  1.8657 -1.9934
  851MPD2    H112503   0.828   4.499  15.165 -0.9725  1.0504  1.2812
  851MPD2    H212504   0.547   0.061  15.269 -0.5325 -0.6492 -0.0069
  851MPD2    H312505   0.780   4.678  15.293 -0.3744 -0.9656  1.4283
  851MPD2     N12506   0.673   4.381  14.962  0.5992  0.1825 -0.0047
  851MPD2    H512507   0.616   4.346  14.886 -1.6972 -1.7837  2.6378
  851MPD2    N112508   0.366   0.008  15.099  0.6499  0.0396 -0.3178
  851MPD2    H712509   0.352   0.092  15.154 -2.5270  0.8490 -2.3500
  852MPD2     C12510   0.111   2.590   9.967 -0.4845 -0.1425 -0.1223
  852MPD2    C112511   0.171   2.658  10.064 -0.0591 -0.2891 -0.3422
  852MPD2    C212512   0.215   2.786  10.039 -0.3908  0.3499 -0.5305
  852MPD2    C312513   0.192   2.840   9.911 -0.3252  0.4082  0.7683
  852MPD2    C412514   0.138   2.764   9.813  0.0782 -0.1369  0.2990
  852MPD2    C512515   0.097   2.635   9.840  0.4384  0.3041 -0.2795
  852MPD2     H12516   0.268   2.850  10.109 -0.8443  0.6288 -0.4414
  852MPD2    H112517   0.139   2.784   9.706 -1.4290  0.1596  0.3459
  852MPD2    H212518   0.071   2.491   9.988 -0.1494 -0.1947  0.2698
  852MPD2    H312519   0.052   2.569   9.766  0.4410 -3.2028  2.8686
  852MPD2     N12520   0.241   2.971   9.890  0.4399  0.1928 -0.0645
  852MPD2    H512521   0.278   3.022   9.969  2.6650 -0.5365 -0.6371
  852MPD2    N112522   0.208   2.599  10.190  0.0930  0.9547  0.5468
  852MPD2    H712523   0.244   2.661  10.262  2.7699 -0.2789  0.2924
  853MPD2     C12524   1.321   2.780  12.262  0.7597 -0.3233 -0.3319
  853MPD2    C112525   1.420   2.842  12.188 -0.8007  0.7194  0.5609
  853MPD2    C212526   1.413   2.838  12.048 -0.2560 -0.3163  0.1800
  853MPD2    C312527   1.328   2.742  11.987  0.4353  0.7573 -0.2490
  853MPD2    C412528   1.230   2.683  12.061  0.4164  0.7985  0.5671
  853MPD2    C512529   1.226   2.702  12.196  0.8699  0.3835 -0.1484
  853MPD2     H12530   1.487   2.886  11.984 -0.5439  1.5233  1.2260
  853MPD2    H112531   1.156   2.616  12.019 -0.1263  2.0646 -0.5133
  853MPD2    H212532   1.332   2.783  12.370  1.1518  1.2671 -0.4020
  853MPD2    H312533   1.155   2.654  12.263  1.6906  0.9707  1.1492
  853MPD2     N12534   1.331   2.697  11.854 -1.0156  0.2198  0.2974
  853MPD2    H512535   1.295   2.603  11.843 -1.0922  0.2478  0.3133
  853MPD2    N112536   1.518   2.906  12.265 -0.2049 -0.0340 -0.6647
  853MPD2    H712537   1.527   2.892  12.365  2.7509  0.1707 -0.9127
  854MPD2     C12538   3.497   2.726  13.039 -0.2677 -0.4110  0.2453
  854MPD2    C112539   3.601   2.765  12.954  0.0021 -0.1987  0.1973
  854MPD2    C212540   3.728   2.721  12.989  0.3243 -0.6149  0.0870
  854MPD2    C312541   3.752   2.657  13.109 -0.4126 -0.2988  0.5716
  854MPD2    C412542   3.643   2.625  13.195  0.6194 -0.0086  0.4319
  854MPD2    C512543   3.516   2.659  13.161 -0.3408  0.0110  0.4264
  854MPD2     H12544   3.807   2.730  12.916  0.5043 -0.7609  0.2620
  854MPD2    H112545   3.665   2.585  13.293 -0.0560 -0.9959  0.1850
  854MPD2    H212546   3.397   2.765  13.022 -0.3797  0.5012  2.9485
  854MPD2    H312547   3.430   2.645  13.225  0.0725 -0.3610  0.8972
  854MPD2     N12548   3.878   2.610  13.155 -0.1653 -0.4535  0.0339
  854MPD2    H512549   3.869   2.575  13.249  2.8886 -0.4164  0.3349
  854MPD2    N112550   3.564   2.829  12.833 -0.0101 -0.7753 -0.0303
  854MPD2    H712551   3.467   2.846  12.812  0.4589 -1.0114 -2.3597
  855MPD2     C12552   3.858   2.205  13.854  0.4006 -0.7234 -0.2261
  855MPD2    C112553   3.991   2.191  13.841  0.1820  0.0602 -0.3637
  855MPD2    C212554   4.065   2.269  13.753  0.1805 -0.7596  0.2542
  855MPD2    C312555   4.010   2.379  13.687  0.8333 -0.4701  0.1559
  855MPD2    C412556   3.883   2.412  13.725 -1.0228  0.3891 -0.3074
  855MPD2    C512557   3.808   2.325  13.806  0.0235  0.1128  0.4361
  855MPD2     H12558   4.170   2.244  13.738  0.0222 -1.6664  0.6697
  855MPD2    H112559   3.831   2.498  13.686  0.4221  2.3314  2.0479
  855MPD2    H212560   3.795   2.149  13.922 -0.5306 -1.0670 -1.3678
  855MPD2    H312561   3.706   2.356  13.821 -0.4718 -1.2348 -0.1824
  855MPD2     N12562   4.063   2.443  13.575  0.6959 -0.0183 -0.0605
  855MPD2    H512563   4.000   2.510  13.534 -0.8780 -2.7146 -2.0418
  855MPD2    N112564   4.055   2.075  13.891 -0.1030  0.5706 -0.2691
  855MPD2    H712565   4.155   2.064  13.875 -0.2808 -0.2665 -0.8081
  856MPD2     C12566   1.448   3.360  13.372 -0.8048 -0.3200  0.4036
  856MPD2    C112567   1.525   3.454  13.433  0.1409  0.3637 -0.0445
  856MPD2    C212568   1.468   3.547  13.517 -0.6888 -0.0855 -0.0252
  856MPD2    C312569   1.326   3.560  13.523 -0.1097 -0.2232  0.0736
  856MPD2    C412570   1.253   3.465  13.454  0.4159  0.2680  0.2145
  856MPD2    C512571   1.316   3.359  13.394 -0.1477  0.0207 -0.8573
  856MPD2     H12572   1.536   3.617  13.563 -0.6232 -0.3552  0.2824
  856MPD2    H112573   1.145   3.460  13.457  0.4170  0.5039  0.6741
  856MPD2    H212574   1.488   3.283  13.306  1.2350  0.7388  0.4105
  856MPD2    H312575   1.251   3.287  13.345  0.1191 -1.0860  0.4085
  856MPD2     N12576   1.260   3.668  13.589 -0.4864 -0.0867  0.4519
  856MPD2    H512577   1.160   3.665  13.607 -0.4562 -0.5139  0.5506
  856MPD2    N112578   1.667   3.453  13.430  0.5826  0.4394  0.5460
  856MPD2    H712579   1.722   3.522  13.480 -0.3598  1.5181  0.0687
  857MPD2     C12580   2.855   0.755  12.970 -0.4350 -0.0787  0.0344
  857MPD2    C112581   2.980   0.739  12.908  0.0508 -0.1994 -0.1596
  857MPD2    C212582   3.063   0.856  12.901  0.3642 -0.0575  0.0957
  857MPD2    C312583   3.038   0.969  12.970 -0.0146 -0.5904 -0.2638
  857MPD2    C412584   2.918   0.982  13.030 -0.2415  0.2044 -0.0502
  857MPD2    C512585   2.826   0.876  13.036  0.3628  0.2620  0.8131
  857MPD2     H12586   3.157   0.865  12.847 -0.5189 -2.8322 -1.9580
  857MPD2    H112587   2.909   1.065  13.100  1.0846 -1.2231  1.8207
  857MPD2    H212588   2.784   0.673  12.971  0.2937 -0.6893  1.6924
  857MPD2    H312589   2.728   0.896  13.076  1.0335 -0.1817  2.6750
  857MPD2     N12590   3.138   1.073  12.971  0.0557 -0.3546 -0.2555
  857MPD2    H512591   3.230   1.047  12.938  0.2199  0.0816 -0.1332
  857MPD2    N112592   3.009   0.614  12.847  0.0513 -0.2653  0.2613
  857MPD2    H712593   2.942   0.539  12.862 -1.4712  1.2933  1.2436
  858MPD2     C12594   3.910   4.217  16.381 -0.6407 -0.4878 -0.0294
  858MPD2    C112595   3.813   4.130  16.430  0.0328 -0.3885 -0.7464
  858MPD2    C212596   3.742   4.156  16.551 -0.2016 -0.0005 -0.5431
  858MPD2    C312597   3.765   4.270  16.622 -0.2426 -0.9224 -0.4414
  858MPD2    C412598   3.857   4.354  16.569 -0.6532 -0.1653 -0.1446
  858MPD2    C512599   3.925   4.334  16.450 -0.3740 -0.2412 -0.0279
  858MPD2     H12600   3.684   4.070  16.583 -0.5498  0.7573  0.8628
  858MPD2    H112601   3.870   4.450  16.618  2.0739  0.2436 -1.6948
  858MPD2    H212602   3.962   4.196  16.288  1.2139  1.2138  0.6343
  858MPD2    H312603   3.988   4.412  16.410 -0.3879 -0.1013  0.2211
  858MPD2     N12604   3.692   4.306  16.739  0.1389 -0.4550  0.9059
  858MPD2    H512605   3.729   4.388  16.786 -2.1579  1.9030 -1.3924
  858MPD2    N112606   3.791   4.014  16.352  0.5106  0.5322 -0.2581
  858MPD2    H712607   3.859   4.005  16.278  0.4761 -0.1327 -0.2067
  859MPD2     C12608   2.082   1.987  14.815 -0.8843 -0.2462  0.5379
  859MPD2    C112609   2.207   1.931  14.794 -0.0580  0.5374  0.6239
  859MPD2    C212610   2.231   1.795  14.820 -0.1217  0.4459 -0.9638
  859MPD2    C312611   2.131   1.715  14.871 -0.5612  0.3469  0.1859
  859MPD2    C412612   2.010   1.772  14.892 -0.4005  0.6039  0.3998
  859MPD2    C512613   1.982   1.907  14.869 -0.1620  0.0796 -0.3512
  859MPD2     H12614   2.327   1.750  14.794 -0.2076 -0.0782 -0.3571
  859MPD2    H112615   1.926   1.704  14.904 -0.0227  0.2703  1.1254
  859MPD2    H212616   2.056   2.091  14.800  0.2459 -0.0403 -0.0162
  859MPD2    H312617   1.880   1.942  14.872 -0.3289 -0.6060  3.0007
  859MPD2     N12618   2.138   1.577  14.891  0.0331 -0.0558  0.1234
  859MPD2    H512619   2.047   1.538  14.912  0.5163 -0.4748  1.4084
  859MPD2    N112620   2.303   2.025  14.747 -0.7237 -0.4703  0.4599
  859MPD2    H712621   2.268   2.118  14.727 -0.0228 -0.3547 -0.2601
  860MPD2     C12622   4.601   1.877  11.574 -0.5294  0.2521 -0.3147
  860MPD2    C112623   4.646   1.995  11.622 -0.3487 -0.4919 -0.8106
  860MPD2    C212624   4.607   2.035  11.745 -0.3298 -0.7907  0.1042
  860MPD2    C312625   4.516   1.958  11.818  0.3706  0.1964  0.6925
  860MPD2    C412626   4.483   1.827  11.779 -0.5254 -0.2540  0.0844
  860MPD2    C512627   4.528   1.792  11.654  0.7638  0.6893 -0.5182
  860MPD2     H12628   4.649   2.123  11.794  1.6890 -1.0149 -1.2171
  860MPD2    H112629   4.421   1.754  11.829 -1.4877  0.7827  0.4051
  860MPD2    H212630   4.619   1.851  11.470 -0.9525  1.3036 -0.6461
  860MPD2    H312631   4.502   1.701  11.600 -0.9741 -0.4809  2.2746
  860MPD2     N12632   4.475   2.011  11.942 -0.5024 -0.2876  0.6275
  860MPD2    H512633   4.516   2.101  11.965 -2.2703  0.6534  0.1009
  860MPD2    N112634   4.717   2.085  11.545 -0.5817 -0.0194  0.0012
  860MPD2    H712635   0.009   2.176  11.586  0.5296  0.5190 -1.6221
  861MPD2     C12636   3.937   0.528  10.961 -0.1696  0.2864 -0.1528
  861MPD2    C112637   3.829   0.557  11.038  0.1086  0.1977 -0.1423
  861MPD2    C212638   3.707   0.561  10.976  0.0924  0.9676  0.6505
  861MPD2    C312639   3.685   0.534  10.843  0.2702  0.0193  0.1747
  861MPD2    C412640   3.797   0.516  10.766 -0.4092 -0.0282 -0.1582
  861MPD2    C512641   3.925   0.504  10.826  0.1878 -0.9438 -0.0401
  861MPD2     H12642   3.621   0.585  11.037 -0.6018  0.9288 -0.3186
  861MPD2    H112643   3.786   0.515  10.658 -0.0115  1.6790 -0.2091
  861MPD2    H212644   4.036   0.512  11.002 -0.7592 -0.5854  0.9369
  861MPD2    H312645   4.020   0.484  10.777  0.7632  0.4456  0.5062
  861MPD2     N12646   3.553   0.534  10.785  0.0627 -0.4704 -0.0631
  861MPD2    H512647   3.547   0.529  10.683 -1.3894 -2.0834  0.1056
  861MPD2    N112648   3.825   0.576  11.178 -0.0680 -0.7459  0.7733
  861MPD2    H712649   3.734   0.582  11.223 -1.4624 -0.9494 -2.0502
  862MPD2     C12650   3.181   0.670  10.164 -0.2451 -0.0668 -0.0097
  862MPD2    C112651   3.269   0.608  10.251 -0.4070  0.1804 -0.2753
  862MPD2    C212652   3.291   0.478  10.221 -0.0114 -0.2413 -0.2695
  862MPD2    C312653   3.249   0.409  10.108  0.1112 -0.4341 -0.1306
  862MPD2    C412654   3.173   0.480  10.021  0.4000  0.5844 -0.0443
  862MPD2    C512655   3.139   0.611  10.044  0.4338  0.3080 -0.1355
  862MPD2     H12656   3.354   0.422  10.289  1.1530  1.2050 -0.1488
  862MPD2    H112657   3.146   0.436   9.926 -0.5873  0.5369  0.2569
  862MPD2    H212658   3.157   0.776  10.174  1.8687  0.2419  1.6345
  862MPD2    H312659   3.080   0.672   9.977  1.1196 -1.6611 -2.5468
  862MPD2     N12660   3.288   0.277  10.075  0.6186  0.0962  0.2273
  862MPD2    H512661   3.238   0.223  10.005  0.1020 -1.8055  2.0716
  862MPD2    N112662   3.329   0.657  10.374  0.3784 -0.1916  0.3875
  862MPD2    H712663   3.381   0.590  10.431 -1.5961 -2.9413 -1.0262
  863MPD2     C12664   1.244   3.336  17.181  0.6731  0.7478 -0.1200
  863MPD2    C112665   1.339   3.317  17.083  0.2283  0.5493 -1.0920
  863MPD2    C212666   1.470   3.276  17.109 -0.5197 -0.1570  0.8271
  863MPD2    C312667   1.511   3.266  17.240 -0.5404  0.1593  0.7551
  863MPD2    C412668   1.413   3.270  17.340  0.0013  0.2038  0.0587
  863MPD2    C512669   1.282   3.310  17.310 -0.7576  0.0945  0.0924
  863MPD2     H12670   1.532   3.236  17.030 -0.8547 -1.7375  1.3555
  863MPD2    H112671   1.439   3.269  17.445  1.2072  1.4831 -0.2340
  863MPD2    H212672   1.146   3.367  17.149  1.4772  0.1317 -3.1491
  863MPD2    H312673   1.211   3.324  17.391 -0.1556  0.0309  0.6352
  863MPD2     N12674   1.637   3.229  17.274 -0.3055  0.5742  0.1471
  863MPD2    H512675   1.649   3.194  17.369  2.6531 -0.0070 -0.4354
  863MPD2    N112676   1.292   3.338  16.949  0.1860  0.3782 -0.5053
  863MPD2    H712677   1.206   3.388  16.933  1.1326  1.2038 -3.0099
  864MPD2     C12678   2.236   4.562  17.165  0.3466 -0.8213 -0.2991
  864MPD2    C112679   2.286   4.478  17.073 -0.3325  0.1301  0.5083
  864MPD2    C212680   2.359   4.536  16.964 -0.2018  0.8208 -0.2102
  864MPD2    C312681   2.373   4.677  16.964 -0.1003 -0.8482 -0.1542
  864MPD2    C412682   2.331   0.031  17.066 -0.9318  0.1872 -0.2129
  864MPD2    C512683   2.269   4.694  17.165 -0.1263 -0.1405 -0.4093
  864MPD2     H12684   2.408   4.472  16.892 -1.6568  1.2838 -1.6046
  864MPD2    H112685   2.354   0.135  17.081  1.2436 -0.1268 -1.3726
  864MPD2    H212686   2.181   4.518  17.247 -1.3688 -1.4011 -1.7611
  864MPD2    H312687   2.227   0.032  17.243 -2.0825 -1.8784 -0.0862
  864MPD2     N12688   2.457   0.012  16.865 -0.3810 -0.6314  0.0415
  864MPD2    H512689   2.501   0.102  16.879  2.4420 -1.6814 -2.0197
  864MPD2    N112690   2.266   4.340  17.085  0.0126 -0.2045 -0.8355
  864MPD2    H712691   2.218   4.315  17.170  1.3842  1.5753  0.4467
  865MPD2     C12692   2.668   0.283  16.033  0.1929  0.1875  0.6919
  865MPD2    C112693   2.641   0.189  16.132  0.7251 -0.4561 -0.0062
  865MPD2    C212694   2.602   0.232  16.263 -0.1333 -0.0328 -0.3133
  865MPD2    C312695   2.625   0.368  16.294  0.3875  0.8416  0.1311
  865MPD2    C412696   2.662   0.455  16.192 -0.2672 -0.0620 -0.2293
  865MPD2    C512697   2.672   0.418  16.057 -0.7102  0.1684  0.0945
  865MPD2     H12698   2.552   0.179  16.343  1.1489  0.2192  0.6439
  865MPD2    H112699   2.672   0.562  16.209 -1.0315  0.0880 -0.7395
  865MPD2    H212700   2.683   0.251  15.931 -0.5919  3.7582 -0.5433
  865MPD2    H312701   2.679   0.490  15.976 -3.3058 -2.1015 -2.1363
  865MPD2     N12702   2.612   0.424  16.430  0.0483  0.5040  0.4297
  865MPD2    H512703   2.608   0.526  16.433 -1.1729  0.4061  1.8578
  865MPD2    N112704   2.646   0.056  16.099  0.8105  0.0239 -0.5666
  865MPD2    H712705   2.681   0.039  16.005  1.9703  1.7295 -0.4281
  866MPD2     C12706   4.123   1.066  11.674  0.8187  0.0198 -0.6477
  866MPD2    C112707   4.173   1.058  11.544 -0.0074 -0.2432 -0.1233
  866MPD2    C212708   4.090   1.078  11.436  0.3988 -0.0481  0.3351
  866MPD2    C312709   3.963   1.104  11.461 -0.2501  0.0797 -0.0395
  866MPD2    C412710   3.915   1.128  11.588  1.0346  0.0360  0.1414
  866MPD2    C512711   4.000   1.111  11.694  0.6669  0.1369  0.0961
  866MPD2     H12712   4.125   1.067  11.334  1.7862 -1.6126  0.9864
  866MPD2    H112713   3.813   1.159  11.611  0.8715 -2.1398  2.3129
  866MPD2    H212714   4.188   1.050  11.759  1.8718  0.2941 -1.3921
  866MPD2    H312715   3.960   1.120  11.794  0.8772  0.6401  0.1349
  866MPD2     N12716   3.868   1.107  11.354  0.1596  0.0811 -0.1541
  866MPD2    H512717   3.777   1.141  11.381 -0.0387 -1.0357  0.6043
  866MPD2    N112718   4.303   1.009  11.526 -0.3106  0.0394  0.0933
  866MPD2    H712719   4.360   0.996  11.610 -0.1737 -0.9584 -0.1560
  867MPD2     C12720   1.177   4.702  16.535 -1.0980  0.7500  0.3424
  867MPD2    C112721   1.247   4.627  16.625  0.8333 -0.0518  0.0766
  867MPD2    C212722   1.293   4.693  16.731 -0.2855 -0.6748 -0.5080
  867MPD2    C312723   1.283   0.104  16.752  0.7242  0.6871 -0.6482
  867MPD2    C412724   1.210   0.177  16.664 -0.3810  0.3118  0.5169
  867MPD2    C512725   1.159   0.112  16.551  0.1598 -0.8334 -0.3450
  867MPD2     H12726   1.334   4.629  16.808  0.3405  0.1379 -0.1710
  867MPD2    H112727   1.194   0.282  16.683  0.6440  0.4775  0.4427
  867MPD2    H212728   1.148   4.667  16.436  0.5432 -1.3510  0.6080
  867MPD2    H312729   1.118   0.171  16.470  0.3048 -0.2700 -0.0082
  867MPD2     N12730   1.342   0.174  16.859 -1.0379 -0.6154 -0.0874
  867MPD2    H512731   1.319   0.273  16.863 -1.0738 -0.5669 -1.5862
  867MPD2    N112732   1.272   4.492  16.597 -0.0902  0.3543 -0.2530
  867MPD2    H712733   1.216   4.462  16.517  0.5524 -0.5738 -0.3547
  868MPD2     C12734   3.686   3.052  13.140  0.7074 -0.5542 -0.5529
  868MPD2    C112735   3.663   3.172  13.065  0.4951  0.6498 -0.2450
  868MPD2    C212736   3.542   3.243  13.085 -0.1555  0.8807 -0.1093
  868MPD2    C312737   3.457   3.201  13.187 -0.1484 -0.6686  0.6726
  868MPD2    C412738   3.479   3.086  13.260  0.1612 -0.0314  0.0740
  868MPD2    C512739   3.596   3.016  13.238  0.3233  0.4692  0.5706
  868MPD2     H12740   3.523   3.332  13.026 -1.1679 -1.1783 -2.9107
  868MPD2    H112741   3.413   3.061  13.343 -0.5864  1.3384 -0.1020
  868MPD2    H212742   3.775   2.993  13.123  0.7184 -0.8750  0.6245
  868MPD2    H312743   3.625   2.929  13.297  1.1329  1.2721  1.3484
  868MPD2     N12744   3.339   3.279  13.204  0.2441  0.0427 -0.2608
  868MPD2    H512745   3.333   3.358  13.140 -0.2235 -0.3108 -0.6572
  868MPD2    N112746   3.773   3.210  12.982 -0.1156  0.2682  0.2544
  868MPD2    H712747   3.853   3.147  12.981  0.7119  1.3284 -0.3277
  869MPD2     C12748   3.857   1.485   1.405  0.3293  0.4892 -0.8123
  869MPD2    C112749   3.994   1.493   1.431  0.5494 -0.3742  0.3428
  869MPD2    C212750   4.071   1.598   1.371 -0.6690  0.3175 -0.3060
  869MPD2    C312751   4.009   1.678   1.275  1.1061 -0.2271  0.4537
  869MPD2    C412752   3.872   1.659   1.248  0.7749 -0.6093 -0.4682
  869MPD2    C512753   3.793   1.572   1.317 -0.1757 -0.3209  0.1352
  869MPD2     H12754   4.178   1.603   1.390 -1.1711  1.4684  2.2890
  869MPD2    H112755   3.821   1.719   1.173  1.3279  2.6540  1.7313
  869MPD2    H212756   3.792   1.421   1.463  0.4151  0.6321 -0.5600
  869MPD2    H312757   3.685   1.577   1.305 -0.2309 -2.6406 -0.3523
  869MPD2     N12758   4.079   1.775   1.198 -0.1148 -0.3856  0.8771
  869MPD2    H512759   4.024   1.819   1.124 -0.0233  1.0854  1.6857
  869MPD2    N112760   4.052   1.394   1.518  0.2521 -0.1202  0.2245
  869MPD2    H712761   3.990   1.313   1.523 -1.3529  1.0478 -0.7570
  870MPD2     C12762   3.140   0.682   1.610  0.4459  0.0972  0.0739
  870MPD2    C112763   3.246   0.728   1.533 -0.0600  0.5209  0.5414
  870MPD2    C212764   3.212   0.819   1.435  0.2722  0.5274 -0.0002
  870MPD2    C312765   3.082   0.861   1.416 -0.1843  0.1839  0.1965
  870MPD2    C412766   2.978   0.805   1.490 -0.6272  0.0676 -0.1809
  870MPD2    C512767   3.011   0.713   1.588  0.0099  0.0880 -0.3589
  870MPD2     H12768   3.292   0.841   1.365  1.8761 -1.0934  1.3166
  870MPD2    H112769   2.873   0.829   1.478 -0.6233 -0.3958 -1.1541
  870MPD2    H212770   3.155   0.621   1.699 -0.3616  0.2963  0.3492
  870MPD2    H312771   2.932   0.671   1.649  0.4911 -0.6725 -0.2616
  870MPD2     N12772   3.061   0.949   1.314  0.8390 -0.3843 -0.3756
  870MPD2    H512773   3.137   0.987   1.259 -0.3126  2.2933 -0.1425
  870MPD2    N112774   3.372   0.683   1.565 -0.1180 -0.6607  0.2580
  870MPD2    H712775   3.384   0.630   1.651  1.6959 -1.8000 -0.7094
  871MPD2     C12776   0.287   0.256  16.239  0.8876 -0.1231  0.4254
  871MPD2    C112777   0.230   0.201  16.356 -0.7741  0.5804  0.0514
  871MPD2    C212778   0.256   0.067  16.380  0.4125 -0.1235 -0.4105
  871MPD2    C312779   0.340   4.719  16.301  0.1173 -0.2277 -0.8750
  871MPD2    C412780   0.385   0.051  16.184 -0.0443 -1.3758  0.1951
  871MPD2    C512781   0.355   0.178  16.154 -0.1782  0.7080 -0.5112
  871MPD2     H12782   0.222   0.025  16.474 -0.8655  0.4807 -0.5928
  871MPD2    H112783   0.448   4.720  16.115  0.8646  1.2582 -1.0109
  871MPD2    H212784   0.261   0.361  16.226 -0.3746 -0.2634  1.7390
  871MPD2    H312785   0.394   0.232  16.068  2.9529  1.1442  1.1672
  871MPD2     N12786   0.380   4.592  16.345  0.1726  0.2732 -0.4493
  871MPD2    H512787   0.325   4.563  16.425  0.2912  0.7849 -0.1867
  871MPD2    N112788   0.152   0.286  16.442  0.4100  0.4707  0.8034
  871MPD2    H712789   0.141   0.382  16.409 -0.8325  0.4959  1.2943
  872MPD2     C12790   1.279   2.520  14.089 -0.4036  0.5107 -0.2245
  872MPD2    C112791   1.231   2.628  14.010 -0.0054  0.0916  0.3848
  872MPD2    C212792   1.116   2.694  14.044 -0.6416  0.2227  0.2818
  872MPD2    C312793   1.045   2.659  14.164  0.2918  0.2687  0.4309
  872MPD2    C412794   1.102   2.555  14.241 -0.5717 -0.3413  0.2036
  872MPD2    C512795   1.220   2.495  14.208 -0.2579 -0.0224  0.1584
  872MPD2     H12796   1.083   2.770  13.974  0.5334 -0.4719 -1.0267
  872MPD2    H112797   1.052   2.517  14.329  1.1668  0.8270  1.7164
  872MPD2    H212798   1.370   2.468  14.063  0.2404 -0.0862  3.2023
  872MPD2    H312799   1.265   2.417  14.268  3.2764 -0.4720 -3.0322
  872MPD2     N12800   0.919   2.703  14.200 -0.6601  0.6022 -0.4286
  872MPD2    H512801   0.879   2.670  14.288 -0.4257  1.1650 -0.1081
  872MPD2    N112802   1.305   2.659  13.890 -0.0435  0.1911 -0.2697
  872MPD2    H712803   1.270   2.724  13.820 -0.6911  1.8388  1.5715
  873MPD2     C12804   3.341   2.428   1.084 -0.5978  0.1252 -0.4097
  873MPD2    C112805   3.213   2.413   1.127 -0.0928  0.5682 -0.8156
  873MPD2    C212806   3.135   2.310   1.104  0.4370 -1.0084  0.5344
  873MPD2    C312807   3.182   2.212   1.022 -0.1564 -0.2516 -0.1739
  873MPD2    C412808   3.296   2.245   0.947 -0.2707  0.7295  0.6641
  873MPD2    C512809   3.378   2.347   0.985  0.0063 -0.6887  0.0367
  873MPD2     H12810   3.036   2.300   1.146 -0.7569 -2.2209 -2.6393
  873MPD2    H112811   3.343   2.177   0.877 -0.0756  0.7824  0.7429
  873MPD2    H212812   3.407   2.509   1.109  3.6122 -2.9277 -1.6651
  873MPD2    H312813   3.473   2.357   0.934  0.1641 -0.9365  0.2787
  873MPD2     N12814   3.117   2.083   1.006 -0.3123 -0.7247 -0.3036
  873MPD2    H512815   3.141   2.019   0.932  0.0798  0.7320 -1.4300
  873MPD2    N112816   3.169   2.510   1.219 -0.0366  0.3447 -0.1233
  873MPD2    H712817   3.237   2.576   1.255 -2.5952  1.7127  2.1787
  874MPD2     C12818   2.652   2.818  16.118 -1.0376 -0.0546  0.0629
  874MPD2    C112819   2.699   2.799  16.245 -0.3804 -0.6166 -0.0881
  874MPD2    C212820   2.805   2.873  16.299  0.3668 -0.2262  0.3083
  874MPD2    C312821   2.888   2.930  16.208 -0.4033 -0.3611 -0.8799
  874MPD2    C412822   2.840   2.954  16.078 -0.5442  0.3766  0.2787
  874MPD2    C512823   2.720   2.906  16.034  0.0388 -0.2962  0.3647
  874MPD2     H12824   2.833   2.859  16.403 -0.5846  1.5795  0.8120
  874MPD2    H112825   2.888   3.024  16.011  0.6677 -0.6479  0.0724
  874MPD2    H212826   2.576   2.753  16.077 -1.3910 -0.2491  1.0073
  874MPD2    H312827   2.693   2.916  15.930 -3.7160 -2.5102  1.1247
  874MPD2     N12828   3.021   2.958  16.245 -0.2536  0.6225 -0.6274
  874MPD2    H512829   3.039   2.961  16.344  0.4469 -2.0169 -0.6683
  874MPD2    N112830   2.628   2.697  16.324  0.6735 -0.2532  0.3057
  874MPD2    H712831   2.542   2.663  16.282  0.4881 -1.1576  1.4278
  875MPD2     C12832   3.784   1.068  14.493 -0.2810  0.8598  0.2763
  875MPD2    C112833   3.650   1.059  14.509  0.3333  0.0304 -1.1676
  875MPD2    C212834   3.595   1.034  14.632  0.5100  0.6818 -0.9753
  875MPD2    C312835   3.682   1.030  14.738  0.7187  0.0981  0.3098
  875MPD2    C412836   3.818   1.030  14.716  0.5477 -0.5271  0.3170
  875MPD2    C512837   3.868   1.054  14.592 -0.1461  1.2458  1.2310
  875MPD2     H12838   3.487   1.030  14.639  0.5141  0.3461 -1.1118
  875MPD2    H112839   3.888   1.003  14.795  0.4473 -1.2388  0.1604
  875MPD2    H212840   3.823   1.111  14.401 -0.4271 -0.6051 -0.4713
  875MPD2    H312841   3.974   1.043  14.577 -0.3635  1.2057 -0.2588
  875MPD2     N12842   3.641   1.012  14.873 -0.0689 -0.0390  0.5750
  875MPD2    H512843   3.705   1.030  14.950 -1.8637  2.3553  1.5246
  875MPD2    N112844   3.567   1.075  14.399  0.1533 -0.0838 -0.3697
  875MPD2    H712845   3.468   1.056  14.407 -0.4344  1.3748 -4.3658
  876MPD2     C12846   2.947   2.437  15.661 -0.4069  0.5333 -0.2193
  876MPD2    C112847   2.872   2.352  15.598 -0.1309 -0.1928  0.2883
  876MPD2    C212848   2.785   2.274  15.675 -0.6927 -0.1826  0.5557
  876MPD2    C312849   2.804   2.262  15.818 -0.6802 -0.7260  0.5508
  876MPD2    C412850   2.890   2.352  15.878 -0.0113 -0.0503  0.0867
  876MPD2    C512851   2.957   2.434  15.794  0.2971 -0.8168 -0.3128
  876MPD2     H12852   2.703   2.220  15.628 -0.6254  0.3609 -0.1830
  876MPD2    H112853   2.917   2.362  15.982 -1.3072  0.1029  0.4089
  876MPD2    H212854   3.002   2.512  15.604  2.0302 -0.0423  1.3980
  876MPD2    H312855   3.027   2.509  15.831 -1.3110 -0.5865  2.2847
  876MPD2     N12856   2.741   2.151  15.890 -0.2297  0.4839  0.2452
  876MPD2    H512857   2.679   2.090  15.837  0.0832  0.8504 -0.5466
  876MPD2    N112858   2.867   2.347  15.457 -0.4187 -0.2907 -0.0828
  876MPD2    H712859   2.941   2.402  15.413 -0.9393 -2.1691 -3.3300
  877MPD2     C12860   2.498   2.665  14.760  0.3973 -0.1009 -0.4062
  877MPD2    C112861   2.633   2.688  14.791  0.4044 -0.2888 -0.0564
  877MPD2    C212862   2.716   2.760  14.710  0.3894 -0.5094  0.0197
  877MPD2    C312863   2.663   2.813  14.596  0.5117  0.1094  0.4321
  877MPD2    C412864   2.528   2.796  14.569 -0.1507  0.5122 -0.3460
  877MPD2    C512865   2.447   2.718  14.646  0.7798 -0.7379 -0.8375
  877MPD2     H12866   2.822   2.766  14.731  0.4477 -1.4761  0.0320
  877MPD2    H112867   2.485   2.836  14.478  0.7902  1.3632 -0.4232
  877MPD2    H212868   2.416   2.619  14.814  1.0968 -0.3941  0.4012
  877MPD2    H312869   2.341   2.700  14.630 -0.0262  2.2180  1.1937
  877MPD2     N12870   2.746   2.875  14.497  0.0669  0.1704  0.0021
  877MPD2    H512871   2.702   2.872  14.405 -0.8558 -2.2200  0.5082
  877MPD2    N112872   2.700   2.635  14.908  0.2547 -0.4879 -0.2497
  877MPD2    H712873   2.797   2.662  14.922  0.4554 -1.5836  0.4982
  878MPD2     C12874   2.306   2.020  12.827  0.4643 -0.3009 -0.2552
  878MPD2    C112875   2.407   2.114  12.858 -0.5341  0.4452  0.1681
  878MPD2    C212876   2.405   2.167  12.984 -0.5488  0.9083  0.2489
  878MPD2    C312877   2.308   2.134  13.079 -0.3683 -0.4243 -0.0900
  878MPD2    C412878   2.208   2.046  13.048  0.0687 -0.7944 -0.7639
  878MPD2    C512879   2.208   1.995  12.920 -0.0036 -0.5461  0.4755
  878MPD2     H12880   2.469   2.250  13.012  0.6630  0.1691 -0.3115
  878MPD2    H112881   2.123   2.029  13.113  0.6987  1.3396  0.6169
  878MPD2    H212882   2.300   1.987  12.724  1.5806  1.3831 -0.8760
  878MPD2    H312883   2.137   1.924  12.879 -0.7468  0.7203 -0.4351
  878MPD2     N12884   2.314   2.194  13.204 -0.2310  0.0764 -0.2535
  878MPD2    H512885   2.402   2.245  13.212  0.0806 -0.3157 -1.1721
  878MPD2    N112886   2.498   2.155  12.757  0.2683  0.2091 -0.1630
  878MPD2    H712887   2.482   2.097  12.675 -1.8015  0.3876  0.1212
  879MPD2     C12888   3.427   2.893  17.091  0.1500  1.1583  0.6835
  879MPD2    C112889   3.345   2.853  17.191 -0.0807  0.6623  0.3936
  879MPD2    C212890   3.209   2.819  17.164  0.0267  0.3350  0.3724
  879MPD2    C312891   3.161   2.836  17.035  0.4397  0.0845  0.2263
  879MPD2    C412892   3.238   2.894  16.938  0.7451  0.1325 -0.6865
  879MPD2    C512893   3.372   2.911  16.963 -0.1320 -0.2063  0.9900
  879MPD2     H12894   3.134   2.793  17.237  0.1369 -0.3973  0.2196
  879MPD2    H112895   3.209   2.913  16.835  1.7538  0.9764 -0.8160
  879MPD2    H212896   3.534   2.880  17.096  0.3138  1.7994 -1.0494
  879MPD2    H312897   3.437   2.953  16.888  0.1266  0.1844  1.4350
  879MPD2     N12898   3.026   2.800  17.012 -0.3706  0.1403  0.3385
  879MPD2    H512899   2.989   2.738  17.083  0.9127  0.1622  1.0395
  879MPD2    N112900   3.400   2.843  17.320  0.2384  0.3260  0.0418
  879MPD2    H712901   3.495   2.870  17.342  0.4207  0.7053 -1.2139
  880MPD2     C12902   3.475   0.112   0.142 -0.8504 -0.3392  0.5401
  880MPD2    C112903   3.488   0.186   0.255  0.5469  0.3935  0.2002
  880MPD2    C212904   3.525   0.124   0.372 -0.4581 -0.0264  0.0388
  880MPD2    C312905   3.555   4.706   0.375 -0.2698 -0.0845  0.6876
  880MPD2    C412906   3.539   4.635   0.257  0.2481  0.4324 -0.4764
  880MPD2    C512907   3.501   4.701   0.147 -0.1150 -0.1244 -0.0285
  880MPD2     H12908   3.534   0.180   0.465 -0.4526 -1.8433  1.1321
  880MPD2    H112909   3.551   4.528   0.245  0.4299  0.4479 -0.4280
  880MPD2    H212910   3.442   0.152   0.047 -2.4809 -2.2428  0.3102
  880MPD2    H312911   3.482   4.645   0.056  1.0804 -0.0079 -0.3403
  880MPD2     N12912   3.620   4.640   0.482  0.0924 -0.0829  0.3294
  880MPD2    H512913   3.632   4.541   0.460 -1.7828  0.5522 -3.4713
  880MPD2    N112914   3.454   0.325   0.250  0.8228  0.1643 -0.8456
  880MPD2    H712915   3.422   0.361   0.161  1.0309 -0.1118 -1.0306
  881MPD2     C12916   3.903   1.087  17.504  0.2680  0.2309 -0.2277
  881MPD2    C112917   3.888   0.956  17.476  0.1706  0.1186  0.1370
  881MPD2    C212918   3.790   0.888  17.546 -0.4786 -0.1197 -0.1568
  881MPD2    C312919   3.724   0.944  17.660  0.4878  0.7735 -0.0864
  881MPD2    C412920   3.766   1.069   0.003  0.4180  0.1311 -1.2983
  881MPD2    C512921   3.854   1.138  17.618  0.0692  0.1509 -0.6709
  881MPD2     H12922   3.768   0.785  17.522 -0.7011  0.4913 -2.5483
  881MPD2    H112923   3.723   1.117   0.091  0.2417 -1.6128 -0.4356
  881MPD2    H212924   3.978   1.144  17.450  0.0937 -2.0143 -2.8508
  881MPD2    H312925   3.899   1.234  17.639 -0.0636 -0.4255  2.2290
  881MPD2     N12926   3.633   0.884   0.053 -0.2575 -0.2911 -0.3337
  881MPD2    H512927   3.612   0.939   0.135 -2.6023 -0.0212 -1.1065
  881MPD2    N112928   3.946   0.903  17.358 -0.5861 -0.2374 -0.0628
  881MPD2    H712929   3.991   0.975  17.301  0.0904 -0.8694 -0.3336
  882MPD2     C12930   2.743   2.493  14.071 -0.4343  0.2359  0.7266
  882MPD2    C112931   2.697   2.626  14.064 -0.4585 -0.5389  0.1173
  882MPD2    C212932   2.564   2.651  14.041 -0.3070 -0.9151  0.3428
  882MPD2    C312933   2.477   2.543  14.017 -0.0471 -0.4712  0.4798
  882MPD2    C412934   2.518   2.415  14.031  0.5705 -0.4636  0.2076
  882MPD2    C512935   2.652   2.395  14.048 -0.7629  0.1158 -0.5745
  882MPD2     H12936   2.534   2.755  14.044  2.2266 -0.1633 -0.5005
  882MPD2    H112937   2.449   2.335  14.008 -1.9976  1.5995  0.6860
  882MPD2    H212938   2.848   2.468  14.082 -0.1969 -0.4142 -3.0262
  882MPD2    H312939   2.694   2.295  14.054  1.2267  1.0090  0.4405
  882MPD2     N12940   2.341   2.562  13.994  0.4136 -0.0848 -0.4705
  882MPD2    H512941   2.290   2.476  13.978 -0.4638  0.4170 -0.3903
  882MPD2    N112942   2.793   2.726  14.091  0.4321 -0.2554  0.4851
  882MPD2    H712943   2.888   2.692  14.098  0.2525 -0.7131  0.6912
  883MPD2     C12944   4.425   2.121  15.806  0.0689 -0.1088  0.4219
  883MPD2    C112945   4.409   2.235  15.733  0.2550 -1.1291 -0.1556
  883MPD2    C212946   4.464   2.350  15.780 -0.2892  0.2145 -0.3359
  883MPD2    C312947   4.527   2.352  15.906  0.2714  0.4667  0.6326
  883MPD2    C412948   4.533   2.235  15.981  0.2581 -0.1999  0.5716
  883MPD2    C512949   4.486   2.119  15.932 -0.5663 -0.0795  0.6300
  883MPD2     H12950   4.451   2.442  15.725 -2.8190  0.1463  0.1090
  883MPD2    H112951   4.577   2.233  16.080  1.6245  1.9580  0.0049
  883MPD2    H212952   4.383   2.026  15.775 -0.3372 -0.5516  2.3512
  883MPD2    H312953   4.507   2.028  15.987  0.3267  0.1983  0.7397
  883MPD2     N12954   4.581   2.476  15.958  0.0135 -0.6203  0.2044
  883MPD2    H512955   4.582   2.551  15.889  1.2106 -0.5301  0.3269
  883MPD2    N112956   4.341   2.246  15.603  0.4842 -0.0033  0.2365
  883MPD2    H712957   4.337   2.338  15.562  1.1039  0.3583  0.9996
  884MPD2     C12958   1.847   2.900  15.047  0.4967  0.0119 -0.2222
  884MPD2    C112959   1.864   3.029  15.098 -0.2141  0.2033  0.4519
  884MPD2    C212960   1.749   3.107  15.111  0.5313 -0.4386  0.0164
  884MPD2    C312961   1.623   3.063  15.084 -0.2625 -0.6158  0.8035
  884MPD2    C412962   1.612   2.941  15.023  0.1500 -0.3924  0.1201
  884MPD2    C512963   1.721   2.855  15.010  0.3957  0.6803  0.6084
  884MPD2     H12964   1.771   3.203  15.157  1.0688 -1.0091  0.9449
  884MPD2    H112965   1.517   2.909  14.982 -0.1668 -1.9419  2.0827
  884MPD2    H212966   1.934   2.838  15.032  0.0836 -0.8252  0.8796
  884MPD2    H312967   1.713   2.764  14.951 -1.8752  1.9214 -1.0221
  884MPD2     N12968   1.497   3.135  15.100 -0.1160 -0.2168  0.3515
  884MPD2    H512969   1.417   3.084  15.064  0.7096 -0.8356 -0.6357
  884MPD2    N112970   1.986   3.082  15.133 -0.6539 -0.0388 -0.2390
  884MPD2    H712971   1.987   3.182  15.150 -0.9052  0.0988 -1.0202
  885MPD2     C12972   4.467   3.696   0.195  0.0787 -0.2731 -0.0890
  885MPD2    C112973   4.495   3.589   0.113 -0.0457  0.8866  0.3616
  885MPD2    C212974   4.480   3.603  17.673 -0.1201  0.4508 -0.5167
  885MPD2    C312975   4.447   3.723  17.618 -0.8305  0.0563 -0.0892
  885MPD2    C412976   4.403   3.823  17.693  0.3035 -0.7937 -0.9091
  885MPD2    C512977   4.416   3.815   0.136 -0.5958  0.0084  0.4385
  885MPD2     H12978   4.514   3.526  17.604  3.5971 -0.1825  2.0303
  885MPD2    H112979   4.361   3.915  17.652 -1.6552 -0.6174  1.5061
  885MPD2    H212980   4.460   3.693   0.303  1.0637  3.4084  0.0986
  885MPD2    H312981   4.389   3.891   0.209  0.3307 -1.2993  2.1357
  885MPD2     N12982   4.448   3.738  17.478  0.0723 -0.1050 -0.5511
  885MPD2    H512983   4.489   3.656  17.434  0.0862 -0.5318  0.2635
  885MPD2    N112984   4.545   3.475   0.174 -0.0078  0.1793  0.2329
  885MPD2    H712985   4.544   3.480   0.275 -1.2806 -1.6255  0.3162
  886MPD2     C12986   1.058   2.132  14.941  0.0622 -0.3116 -0.1106
  886MPD2    C112987   1.199   2.126  14.942 -0.2509  0.6930 -0.1666
  886MPD2    C212988   1.258   2.185  14.830  0.1976  0.2205 -0.4900
  886MPD2    C312989   1.185   2.234  14.721  0.1587  0.2713 -0.3752
  886MPD2    C412990   1.049   2.254  14.732  0.1602  0.3318  0.2128
  886MPD2    C512991   0.988   2.204  14.845  0.1000  0.4361  0.8352
  886MPD2     H12992   1.366   2.183  14.825  0.2527  1.7077  0.1114
  886MPD2    H112993   0.986   2.304  14.659  1.0944 -2.1764 -2.3265
  886MPD2    H212994   1.011   2.118  15.037 -1.3062  0.8631 -0.6024
  886MPD2    H312995   0.882   2.216  14.865 -0.4894  1.6141 -3.0269
  886MPD2     N12996   1.258   2.308  14.620  0.1717  0.2358  0.1634
  886MPD2    H512997   1.207   2.375  14.564 -0.8815 -1.5338 -1.0116
  886MPD2    N112998   1.281   2.069  15.046  0.6989  0.0603  0.5775
  886MPD2    H712999   1.381   2.069  15.031  0.8357  1.1798  1.4276
  887MPD2     C13000   1.871   2.223  15.131 -0.4363  0.0694 -0.1925
  887MPD2    C113001   1.831   2.184  15.255 -0.3832  0.1286 -0.0145
  887MPD2    C213002   1.916   2.206  15.364 -0.0689  0.5724  0.1209
  887MPD2    C313003   2.034   2.279  15.350 -0.6037  0.7542 -0.1551
  887MPD2    C413004   2.077   2.303  15.221 -0.3745 -0.1108 -0.1763
  887MPD2    C513005   1.999   2.275  15.112 -0.8307  0.4929  0.1936
  887MPD2     H13006   1.904   2.186  15.470  1.4965 -1.4192 -0.0677
  887MPD2    H113007   2.166   2.364  15.209 -1.1674  0.5533 -2.6315
  887MPD2    H213008   1.803   2.197  15.051  1.2403 -1.4089 -1.1441
  887MPD2    H313009   2.040   2.299  15.014  0.3376  0.3361  0.6371
  887MPD2     N13010   2.095   2.321  15.472  0.3844  0.4308 -0.7506
  887MPD2    H513011   2.037   2.303  15.554  1.2424 -0.1498 -0.2645
  887MPD2    N113012   1.707   2.110  15.261  0.1922  0.3567  0.1858
  887MPD2    H713013   1.659   2.090  15.174  1.5484 -0.5717 -0.3635
  888MPD2     C13014   3.781   2.060  14.933 -0.0011 -0.2196  0.1557
  888MPD2    C113015   3.699   2.130  15.021 -0.3435 -0.6387  0.3755
  888MPD2    C213016   3.730   2.263  15.036  0.3089  0.4413  0.4885
  888MPD2    C313017   3.822   2.325  14.955 -0.0310  0.9595  0.0824
  888MPD2    C413018   3.895   2.256  14.869 -0.0603 -0.2463 -0.4341
  888MPD2    C513019   3.869   2.123  14.850  0.0597 -0.1061 -0.0432
  888MPD2     H13020   3.675   2.330  15.101  0.2678 -2.0930  3.0611
  888MPD2    H113021   3.969   2.305  14.807  0.0637 -2.1916 -1.8095
  888MPD2    H213022   3.770   1.956  14.905 -0.9122  0.2226 -1.1474
  888MPD2    H313023   3.929   2.065  14.780 -0.9412 -0.0371 -0.9514
  888MPD2     N13024   3.847   2.465  14.968 -0.1453 -0.4214 -0.1627
  888MPD2    H513025   3.777   2.516  15.022 -1.5352  0.3908 -2.7512
  888MPD2    N113026   3.592   2.075  15.088  0.4246 -0.3284  0.7698
  888MPD2    H713027   3.557   2.127  15.168  0.0845  0.7913 -0.1063
  889MPD2     C13028   3.326   1.809  12.706 -0.0442  0.1958 -0.4754
  889MPD2    C113029   3.306   1.786  12.839 -0.2241  0.5721 -0.5511
  889MPD2    C213030   3.227   1.883  12.901  0.0221 -0.5383 -0.1587
  889MPD2    C313031   3.176   1.994  12.839  0.2081 -0.2670  0.3485
  889MPD2    C413032   3.200   2.007  12.708  0.6470 -0.6506  0.3330
  889MPD2    C513033   3.276   1.918  12.641 -0.6711  0.4882 -0.6535
  889MPD2     H13034   3.205   1.874  13.007  2.2602  1.8727  0.5343
  889MPD2    H113035   3.158   2.087  12.648  0.2521 -0.9365  0.2252
  889MPD2    H213036   3.363   1.732  12.639 -0.7226 -2.2316  1.9350
  889MPD2    H313037   3.311   1.925  12.539 -0.6813 -1.3610 -0.7832
  889MPD2     N13038   3.115   2.085  12.926 -0.2352  0.2919 -0.7561
  889MPD2    H513039   3.125   2.061  13.024  0.3901  0.4644 -0.7802
  889MPD2    N113040   3.330   1.657  12.899 -0.3796 -0.3765 -0.3066
  889MPD2    H713041   3.296   1.649  12.995 -2.2180  1.8185 -0.7751
  890MPD2     C13042   2.459   3.305  14.476 -0.7716  0.3760  0.0724
  890MPD2    C113043   2.521   3.403  14.553 -0.0645 -0.1779  0.4427
  890MPD2    C213044   2.606   3.373  14.653  0.1743 -0.5422 -0.7264
  890MPD2    C313045   2.616   3.243  14.698 -0.3678 -0.1331  0.2092
  890MPD2    C413046   2.550   3.149  14.628 -0.4433 -0.1479 -0.0856
  890MPD2    C513047   2.475   3.175  14.518 -0.1385  0.4872  0.9843
  890MPD2     H13048   2.668   3.449  14.698  0.6585  0.2870 -2.7922
  890MPD2    H113049   2.565   3.046  14.657 -1.0027 -0.1826  0.0889
  890MPD2    H213050   2.406   3.327  14.384 -0.2876 -0.7570 -0.4657
  890MPD2    H313051   2.409   3.100  14.476  2.0911 -0.3482 -1.0273
  890MPD2     N13052   2.713   3.206  14.792 -0.2055  0.5451  0.9216
  890MPD2    H513053   2.789   3.273  14.801  0.1587  0.2117  0.3449
  890MPD2    N113054   2.496   3.537  14.531  0.3841 -0.1036  0.1169
  890MPD2    H713055   2.534   3.602  14.598 -1.9374  0.3526  0.9742
  891MPD2     C13056   0.355   1.378  16.473 -0.1491 -0.4210 -0.5641
  891MPD2    C113057   0.401   1.507  16.466  0.2633 -0.5347 -0.2235
  891MPD2    C213058   0.508   1.548  16.546  0.2232 -0.5305 -0.1382
  891MPD2    C313059   0.569   1.458  16.632 -0.1087  0.1636 -0.4483
  891MPD2    C413060   0.523   1.330  16.628 -0.2672 -0.9853 -0.2826
  891MPD2    C513061   0.417   1.284  16.551 -0.0651 -0.2064  0.3594
  891MPD2     H13062   0.540   1.651  16.544 -1.0355 -0.1772 -1.9152
  891MPD2    H113063   0.565   1.259  16.698  1.5723  0.0015 -0.3818
  891MPD2    H213064   0.268   1.341  16.420 -0.5680 -0.3215  0.0547
  891MPD2    H313065   0.384   1.183  16.572  2.0453 -0.7517  1.1144
  891MPD2     N13066   0.668   1.496  16.728  0.7432  0.2832 -0.2107
  891MPD2    H513067   0.670   1.593  16.759 -0.4422  0.3142 -0.2427
  891MPD2    N113068   0.334   1.599  16.381  0.2421 -0.1190 -0.5647
  891MPD2    H713069   0.271   1.558  16.313  0.2385 -2.0092  0.5742
  892MPD2     C13070   1.790   3.288  14.336 -0.5375  0.2046  0.0815
  892MPD2    C113071   1.741   3.163  14.370 -0.2606  0.3011 -0.6075
  892MPD2    C213072   1.773   3.050  14.307 -0.2540  0.8805 -0.9303
  892MPD2    C313073   1.852   3.054  14.192 -0.4818 -0.7154  0.1209
  892MPD2    C413074   1.897   3.181  14.150  0.0102  0.3036  0.1008
  892MPD2    C513075   1.862   3.291  14.221  0.0904  0.8410 -0.1339
  892MPD2     H13076   1.745   2.953  14.346  0.7586  0.5616 -0.9936
  892MPD2    H113077   1.952   3.196  14.058 -3.1151  1.2653 -1.5949
  892MPD2    H213078   1.753   3.381  14.378 -0.8562  1.1142 -2.1906
  892MPD2    H313079   1.914   3.382  14.192  2.1645 -0.5233 -0.7008
  892MPD2     N13080   1.889   2.943  14.120  0.1228 -0.0700 -0.1542
  892MPD2    H513081   1.959   2.951  14.047 -1.2485 -1.1006 -1.5940
  892MPD2    N113082   1.637   3.161  14.468 -0.3109 -0.5337  0.3267
  892MPD2    H713083   1.600   3.249  14.501  0.3970 -0.7034  1.5828
  893MPD2     C13084   2.569   1.161   1.735 -0.0208  0.3029  0.5491
  893MPD2    C113085   2.671   1.063   1.730 -0.6749  0.4478  0.3392
  893MPD2    C213086   2.641   0.935   1.738 -0.1049 -0.3668 -0.1449
  893MPD2    C313087   2.508   0.894   1.766  0.1540  0.3817  0.6905
  893MPD2    C413088   2.412   0.985   1.788 -0.4344  0.0449 -0.3392
  893MPD2    C513089   2.446   1.118   1.771 -0.3125 -0.1522 -0.7686
  893MPD2     H13090   2.719   0.859   1.729 -1.3117 -1.7302  0.8252
  893MPD2    H113091   2.310   0.952   1.805 -0.2617 -0.9839 -1.3317
  893MPD2    H213092   2.589   1.267   1.728 -1.2534  0.3481 -2.2036
  893MPD2    H313093   2.369   1.192   1.787 -1.6897 -1.1433 -2.7965
  893MPD2     N13094   2.472   0.757   1.789 -0.0344  0.6779 -0.6319
  893MPD2    H513095   2.383   0.735   1.832 -0.8156 -0.7105 -2.9386
  893MPD2    N113096   2.803   1.113   1.694 -0.0821  0.4809 -0.2601
  893MPD2    H713097   2.813   1.210   1.666  0.2326  0.2853 -0.8132
  894MPD2     C13098   1.004   4.178   1.363  0.4672 -0.3413 -0.2400
  894MPD2    C113099   1.053   4.102   1.467  0.3966 -0.0179 -0.0368
  894MPD2    C213100   1.189   4.065   1.459  0.1667 -0.6398 -0.1625
  894MPD2    C313101   1.272   4.126   1.371  0.0779  0.6341 -0.0605
  894MPD2    C413102   1.217   4.204   1.273 -0.0817 -0.1226  0.1926
  894MPD2    C513103   1.086   4.232   1.267 -0.4379  0.7349  1.0036
  894MPD2     H13104   1.228   4.005   1.540 -0.7516  0.2760  0.9609
  894MPD2    H113105   1.274   4.246   1.192 -1.5700 -0.4602 -1.0323
  894MPD2    H213106   0.900   4.201   1.340  0.0235 -0.0144  2.0889
  894MPD2    H313107   1.050   4.304   1.195  0.1796  0.3954  0.3490
  894MPD2     N13108   1.413   4.091   1.375 -0.1600  0.5757 -0.6326
  894MPD2    H513109   1.443   4.022   1.443 -0.0620  2.6587  1.4446
  894MPD2    N113110   0.976   4.050   1.577  0.2688  0.0946  0.5470
  894MPD2    H713111   1.020   3.985   1.641  1.2180  1.5181  1.3107
  895MPD2     C13112   0.911   2.058  13.188  0.8383  0.0156  0.6051
  895MPD2    C113113   0.824   2.007  13.093  0.1486 -0.4632  0.2732
  895MPD2    C213114   0.833   1.874  13.066  0.2380  0.3774  0.3584
  895MPD2    C313115   0.924   1.786  13.129 -0.5387  0.2287  0.1249
  895MPD2    C413116   1.017   1.845  13.216  0.3140  0.2714  0.5803
  895MPD2    C513117   1.004   1.976  13.252 -0.2161 -1.3229 -0.2910
  895MPD2     H13118   0.773   1.837  12.984 -2.4619  0.9262  2.1069
  895MPD2    H113119   1.087   1.785  13.272  0.6836  0.6090  0.4746
  895MPD2    H213120   0.889   2.158  13.225 -1.8337 -0.0567 -0.7945
  895MPD2    H313121   1.075   2.018  13.323 -0.2607 -0.2562 -0.8684
  895MPD2     N13122   0.925   1.650  13.094 -0.1886  0.3551 -0.1505
  895MPD2    H513123   0.840   1.619  13.049  0.4618 -2.5220  0.6062
  895MPD2    N113124   0.731   2.093  13.040  0.0339  0.1893  0.2850
  895MPD2    H713125   0.665   2.058  12.971  1.3487 -1.5027 -0.1133
  896MPD2     C13126   3.355   4.004   1.124 -0.4328  0.4368 -0.0923
  896MPD2    C113127   3.277   4.062   1.028  0.0567 -0.4703 -0.0645
  896MPD2    C213128   3.148   4.015   1.024  0.4509 -0.1853 -0.5029
  896MPD2    C313129   3.090   3.944   1.129  1.1276  0.4471 -0.6609
  896MPD2    C413130   3.168   3.895   1.229  0.7183 -0.1082  0.4651
  896MPD2    C513131   3.302   3.925   1.221  0.0221 -0.0916  0.6566
  896MPD2     H13132   3.081   4.059   0.951 -0.6699 -1.4839 -0.2441
  896MPD2    H113133   3.131   3.836   1.313 -1.2039  0.7955  0.2496
  896MPD2    H213134   3.461   4.023   1.136 -0.3345 -0.9262  1.1456
  896MPD2    H313135   3.365   3.890   1.302 -0.7055 -1.7658  0.5022
  896MPD2     N13136   2.951   3.917   1.126 -0.3653 -0.2476 -0.2075
  896MPD2    H513137   2.902   3.930   1.038  3.2334  0.9925 -2.0031
  896MPD2    N113138   3.337   4.158   0.943 -0.8730 -0.0572  0.0435
  896MPD2    H713139   3.437   4.174   0.946 -1.2553  2.2873 -0.2442
  897MPD2     C13140   3.964   1.309  10.387  0.3411 -0.3896  0.9005
  897MPD2    C113141   4.011   1.428  10.437 -0.4349  0.3234 -0.6790
  897MPD2    C213142   3.988   1.458  10.566 -0.1304 -0.2494  0.1179
  897MPD2    C313143   3.931   1.366  10.654  0.4476 -0.4212  0.0771
  897MPD2    C413144   3.886   1.242  10.605 -0.5636 -0.3334 -0.4421
  897MPD2    C513145   3.901   1.222  10.472  0.3903 -0.4259 -0.4585
  897MPD2     H13146   4.022   1.554  10.603  1.2024 -1.2558  1.4684
  897MPD2    H113147   3.842   1.154  10.651 -2.0248 -0.4690 -2.0739
  897MPD2    H213148   3.984   1.274  10.286  1.2776  1.0262  0.5977
  897MPD2    H313149   3.865   1.129  10.430  1.6055 -0.7446 -0.7795
  897MPD2     N13150   3.931   1.392  10.788 -0.5147  0.0079  0.0609
  897MPD2    H513151   3.971   1.483  10.811  0.1210  0.3019 -2.2326
  897MPD2    N113152   4.062   1.521  10.344 -0.8762 -0.0749  0.0505
  897MPD2    H713153   4.054   1.497  10.246 -0.7069  1.9420 -0.4729
  898MPD2     C13154   1.368   2.308  17.002 -0.0615 -0.1971  0.1113
  898MPD2    C113155   1.409   2.427  17.066 -0.6833  0.2661  0.7333
  898MPD2    C213156   1.336   2.542  17.042  0.5477 -0.4313 -0.5070
  898MPD2    C313157   1.222   2.536  16.972  0.6956 -0.3310 -0.8885
  898MPD2    C413158   1.184   2.424  16.913  0.0658 -0.0591  0.2143
  898MPD2    C513159   1.255   2.304  16.926 -0.0587 -0.8442 -0.4635
  898MPD2     H13160   1.373   2.638  17.075  0.6747 -0.6913  0.1120
  898MPD2    H113161   1.103   2.425  16.841  1.3008 -1.1934 -1.1742
  898MPD2    H213162   1.414   2.212  17.022 -1.8849 -1.0373  0.2351
  898MPD2    H313163   1.248   2.213  16.868  0.3439 -1.6536  0.7594
  898MPD2     N13164   1.158   2.663  16.945 -0.0696 -0.5140 -0.7613
  898MPD2    H513165   1.211   2.740  16.987  0.3681 -0.9114 -0.5830
  898MPD2    N113166   1.525   2.435  17.137  1.0985 -0.5262 -0.2155
  898MPD2    H713167   1.556   2.528  17.164 -0.2784  0.3243 -1.5755
  899MPD2     C13168   2.063   2.662  17.648  0.5978 -0.5166 -0.5980
  899MPD2    C113169   1.999   2.776  17.660 -0.1443 -0.4267 -0.0153
  899MPD2    C213170   1.959   2.815   0.093  0.0288  0.0325 -0.1724
  899MPD2    C313171   1.977   2.739   0.207  0.3167 -0.0124  0.4247
  899MPD2    C413172   2.041   2.622   0.188 -0.4776 -0.8933  0.5538
  899MPD2    C513173   2.078   2.581   0.061  0.1806 -0.2441 -0.0189
  899MPD2     H13174   1.912   2.913   0.100 -1.1276 -0.4906 -0.5972
  899MPD2    H113175   2.056   2.557   0.273 -0.8453 -0.7970  0.6942
  899MPD2    H213176   2.113   2.631  17.557  1.0033 -1.3618 -0.0925
  899MPD2    H313177   2.162   2.514   0.048 -0.1751 -0.6231 -0.3626
  899MPD2     N13178   1.934   2.783   0.333 -0.1549  0.4982  0.4516
  899MPD2    H513179   1.949   2.725   0.415 -1.8738 -1.3137 -0.5147
  899MPD2    N113180   1.990   2.862  17.542 -0.2175 -0.2567 -0.3292
  899MPD2    H713181   1.999   2.814  17.453  0.2589  1.2336 -1.0856
  900MPD2     C13182   2.302   0.239  12.395  0.0762  0.1311  0.3557
  900MPD2    C113183   2.231   0.125  12.368 -0.3584 -0.7976 -0.0177
  900MPD2    C213184   2.103   0.144  12.307  0.3308 -0.3348  0.3515
  900MPD2    C313185   2.052   0.273  12.276  0.4956  0.4666 -0.1027
  900MPD2    C413186   2.129   0.386  12.311 -0.0003 -0.0923 -0.0163
  900MPD2    C513187   2.252   0.363  12.374  0.5398  0.0254 -0.3677
  900MPD2     H13188   2.046   0.057  12.275 -0.7473  0.5046  0.0281
  900MPD2    H113189   2.091   0.486  12.295 -0.7684 -0.4126 -0.1629
  900MPD2    H213190   2.393   0.238  12.454 -0.1451 -0.0964  0.6887
  900MPD2    H313191   2.316   0.444  12.403  0.6170 -0.3922  0.6285
  900MPD2     N13192   1.922   0.285  12.219  0.1048  0.1567  0.6473
  900MPD2    H513193   1.874   0.198  12.196 -0.7088  0.0989  2.5246
  900MPD2    N113194   2.287   4.717  12.387 -0.3030  0.0673 -0.7566
  900MPD2    H713195   2.386   4.710  12.406 -1.1176 -2.3899  2.6493
  901MPD2     C13196   2.331   3.877  13.064  0.3955 -0.2355 -0.1462
  901MPD2    C113197   2.329   3.807  12.942 -0.2465 -0.5780 -0.5490
  901MPD2    C213198   2.315   3.889  12.828  0.5130  0.2056  0.3764
  901MPD2    C313199   2.302   4.025  12.832  0.2963  1.0549  0.2848
  901MPD2    C413200   2.297   4.089  12.955 -0.6117 -0.3763  0.4734
  901MPD2    C513201   2.312   4.016  13.066  0.0974  0.4038  0.1347
  901MPD2     H13202   2.330   3.846  12.730 -1.6613 -1.7482  0.9003
  901MPD2    H113203   2.289   4.197  12.968  1.4175 -0.2623  0.7219
  901MPD2    H213204   2.347   3.813  13.150  0.4164 -0.1437 -0.0811
  901MPD2    H313205   2.309   4.064  13.164 -1.5019  1.6471 -0.5248
  901MPD2     N13206   2.310   4.101  12.713 -0.1100 -0.2134 -0.0077
  901MPD2    H513207   2.339   4.058  12.625  1.2850 -0.7959  0.7472
  901MPD2    N113208   2.348   3.665  12.938 -0.0168 -0.5584  0.3622
  901MPD2    H713209   2.358   3.612  13.024  0.4985 -1.5362 -0.2969
  902MPD2     C13210   0.852   2.529  12.635 -0.0487 -0.2813  0.4502
  902MPD2    C113211   0.814   2.553  12.507  0.2881 -0.7868  0.3652
  902MPD2    C213212   0.747   2.452  12.441 -0.3877  0.1147  0.3150
  902MPD2    C313213   0.716   2.333  12.504  0.5219  0.0972 -0.4023
  902MPD2    C413214   0.762   2.307  12.633  0.1110  0.2801 -0.3146
  902MPD2    C513215   0.827   2.407  12.697 -0.3259  1.0076 -0.1038
  902MPD2     H13216   0.704   2.469  12.343 -0.9066 -1.1946  0.3194
  902MPD2    H113217   0.754   2.214  12.688 -3.3107  0.8975  0.2261
  902MPD2    H213218   0.899   2.606  12.695 -0.4599  0.4317 -0.1430
  902MPD2    H313219   0.862   2.383  12.797 -0.7683  1.9282  0.2807
  902MPD2     N13220   0.652   2.220  12.442  0.1412  0.1920 -0.3394
  902MPD2    H513221   0.632   2.140  12.501 -2.2924  0.7789 -0.3566
  902MPD2    N113222   0.835   2.677  12.434  0.3830  0.3138  0.4598
  902MPD2    H713223   0.807   2.669  12.337 -3.7658 -0.0517  1.7122
  903MPD2     C13224   0.770   2.154  11.676 -0.3121 -0.0017  0.1389
  903MPD2    C113225   0.649   2.126  11.731  0.2173 -0.5582  0.3608
  903MPD2    C213226   0.544   2.167  11.663  0.0927  0.2923  0.1948
  903MPD2    C313227   0.556   2.230  11.537  0.2802  0.4321  0.5348
  903MPD2    C413228   0.678   2.256  11.486 -0.1595  0.5823  0.4860
  903MPD2    C513229   0.790   2.211  11.551  0.1294 -0.1007  0.3875
  903MPD2     H13230   0.443   2.161  11.701 -0.2263  1.0809 -0.5348
  903MPD2    H113231   0.679   2.286  11.382  0.9816 -0.0430  0.3275
  903MPD2    H213232   0.858   2.119  11.728  1.2851  1.1822 -1.7473
  903MPD2    H313233   0.892   2.217  11.516 -0.0445  2.0835  0.2331
  903MPD2     N13234   0.430   2.244  11.468  0.3047 -0.5397  0.5320
  903MPD2    H513235   0.348   2.198  11.505  0.0475 -0.6879 -0.2252
  903MPD2    N113236   0.643   2.070  11.861  0.4588 -0.4441  0.2520
  903MPD2    H713237   0.734   2.034  11.889  0.9626  0.4795 -0.1730
  904MPD2     C13238   0.792   1.455  13.516  0.1506  0.8863 -0.3502
  904MPD2    C113239   0.773   1.475  13.654 -0.2067  0.2868  0.0324
  904MPD2    C213240   0.875   1.510  13.733 -0.6594  0.1239  0.6085
  904MPD2    C313241   0.995   1.534  13.675 -0.5738 -0.1059 -0.7100
  904MPD2    C413242   1.011   1.526  13.537 -0.4751  0.5846 -0.5373
  904MPD2    C513243   0.908   1.487  13.452 -0.7521 -0.0639 -0.3129
  904MPD2     H13244   0.866   1.502  13.841  1.4228 -1.7455  0.6338
  904MPD2    H113245   1.107   1.528  13.487  0.2224 -4.0254  0.5909
  904MPD2    H213246   0.715   1.427  13.445 -0.6942 -0.5031  1.1135
  904MPD2    H313247   0.914   1.470  13.345 -0.9504 -1.1994 -0.1475
  904MPD2     N13248   1.101   1.565  13.760  0.1619 -0.1644  0.2486
  904MPD2    H513249   1.079   1.556  13.858 -0.0154  0.9514  0.3058
  904MPD2    N113250   0.644   1.458  13.711 -0.7174 -0.1242 -0.3713
  904MPD2    H713251   0.631   1.490  13.807 -0.0685  0.0908 -0.3573
  905MPD2     C13252   0.226   1.557  13.184  0.0263  0.1879  0.5122
  905MPD2    C113253   0.290   1.479  13.278  0.5885 -0.0669  0.9037
  905MPD2    C213254   0.407   1.412  13.244 -0.8453  0.3522  0.9797
  905MPD2    C313255   0.461   1.448  13.120 -0.0812 -0.1991  0.2117
  905MPD2    C413256   0.399   1.541  13.037  0.2767 -0.4355 -0.6485
  905MPD2    C513257   0.278   1.589  13.067  0.5031 -0.4999 -0.3126
  905MPD2     H13258   0.458   1.352  13.319  0.6305  0.4562  0.0646
  905MPD2    H113259   0.456   1.568  12.949 -0.5588  0.3269 -0.9586
  905MPD2    H213260   0.126   1.591  13.206 -0.0614 -1.3053  2.4535
  905MPD2    H313261   0.224   1.658  13.003  0.9108  0.6229  0.5513
  905MPD2     N13262   0.589   1.399  13.082 -0.7818 -0.1732 -0.1030
  905MPD2    H513263   0.627   1.440  12.997 -0.8171 -0.7186 -0.3843
  905MPD2    N113264   0.252   1.460  13.412 -0.4320  0.0374 -0.4354
  905MPD2    H713265   0.324   1.409  13.462 -3.1388 -1.9586  1.4470
  906MPD2     C13266   2.382   1.837  11.525 -0.5984  0.3729 -0.5792
  906MPD2    C113267   2.482   1.750  11.551 -0.0488  0.1093 -0.4386
  906MPD2    C213268   2.459   1.615  11.595 -0.9584 -0.3978 -0.6088
  906MPD2    C313269   2.335   1.565  11.616  0.6241 -0.4925 -0.3535
  906MPD2    C413270   2.233   1.646  11.571 -0.0130  0.4073 -0.3228
  906MPD2    C513271   2.254   1.782  11.528 -0.1600 -0.6469  0.3089
  906MPD2     H13272   2.542   1.550  11.619 -1.2548  0.2126  2.0800
  906MPD2    H113273   2.135   1.598  11.576  0.3633 -0.5950 -2.4988
  906MPD2    H213274   2.403   1.937  11.488 -1.0503 -0.0042 -1.8568
  906MPD2    H313275   2.169   1.844  11.500  0.7218  0.1274 -0.6486
  906MPD2     N13276   2.304   1.440  11.668 -0.5827  0.5228 -0.1903
  906MPD2    H513277   2.206   1.414  11.661  0.1416 -2.1737 -0.5559
  906MPD2    N113278   2.608   1.800  11.522 -0.3432 -0.0269 -0.1612
  906MPD2    H713279   2.618   1.883  11.464  0.2417  0.1401  0.1712
  907MPD2     C13280   1.423   0.882  15.531  0.0030  0.4364  0.3639
  907MPD2    C113281   1.478   0.757  15.546  1.0786  0.3582  0.1426
  907MPD2    C213282   1.528   0.729  15.672  0.1856  0.6026 -0.0596
  907MPD2    C313283   1.533   0.817  15.777  0.6356 -0.2107 -0.2193
  907MPD2    C413284   1.481   0.945  15.754 -0.1757 -0.0356  0.4556
  907MPD2    C513285   1.429   0.974  15.632  0.2328  0.1477  0.2969
  907MPD2     H13286   1.568   0.629  15.681  0.3014  0.6311 -0.2481
  907MPD2    H113287   1.493   1.025  15.825 -0.1073  0.3091  0.0530
  907MPD2    H213288   1.383   0.917  15.437 -0.3920  0.5743  0.5835
  907MPD2    H313289   1.392   1.074  15.612  0.4135 -0.3109 -2.3163
  907MPD2     N13290   1.585   0.781  15.896 -0.2879 -0.0272 -0.6582
  907MPD2    H513291   1.634   0.692  15.888 -2.2809 -0.9309 -2.8789
  907MPD2    N113292   1.463   0.646  15.454  0.3777  0.7465 -0.4997
  907MPD2    H713293   1.487   0.550  15.475 -1.4622 -0.1837 -2.6423
  908MPD2     C13294   3.651   1.836   9.659 -0.7552  0.2777  0.5976
  908MPD2    C113295   3.733   1.728   9.631  0.3378  0.6637 -0.1868
  908MPD2    C213296   3.855   1.712   9.694 -0.6188  0.1155  0.6957
  908MPD2    C313297   3.897   1.812   9.791 -0.2425  0.0409 -0.5929
  908MPD2    C413298   3.819   1.922   9.814 -0.5594  0.0059 -0.2582
  908MPD2    C513299   3.695   1.927   9.755 -0.1755 -0.5533 -0.2386
  908MPD2     H13300   3.908   1.618   9.688  1.6125  1.4394 -0.2686
  908MPD2    H113301   3.847   2.005   9.877 -0.5560  1.1504 -1.7809
  908MPD2    H213302   3.551   1.846   9.619 -0.9272  0.2222  1.0128
  908MPD2    H313303   3.628   2.000   9.798 -1.5928 -2.4140  0.7538
  908MPD2     N13304   4.011   1.789   9.864  0.7865 -1.0555 -0.5591
  908MPD2    H513305   4.063   1.707   9.836 -0.9499 -2.5991  0.7321
  908MPD2    N113306   3.690   1.629   9.542 -0.4487 -0.6225  0.1864
  908MPD2    H713307   3.753   1.552   9.520 -0.8265 -0.8437 -0.1228
  909MPD2     C13308   4.669   4.112  11.958  0.0829  0.0973  0.2000
  909MPD2    C113309   4.648   4.234  11.902 -0.0827  0.0916  0.0098
  909MPD2    C213310   4.561   4.320  11.971 -0.7715  0.5143  0.1530
  909MPD2    C313311   4.505   4.288  12.092 -1.1706 -0.7345 -0.0666
  909MPD2    C413312   4.537   4.172  12.153  0.0243 -0.4917 -0.2907
  909MPD2    C513313   4.620   4.087  12.087 -0.0044  0.3283  0.1629
  909MPD2     H13314   4.543   4.417  11.926  1.2273  0.5208 -0.6274
  909MPD2    H113315   4.496   4.148  12.251  1.5870  0.2436  0.5515
  909MPD2    H213316   4.705   4.026  11.903  1.8629  0.7335  0.3731
  909MPD2    H313317   4.642   3.993  12.136 -0.5575 -0.5900 -1.3543
  909MPD2     N13318   4.429   4.387  12.156  0.1561  0.0421  0.3736
  909MPD2    H513319   4.422   4.473  12.103 -1.6161 -0.0975  0.3969
  909MPD2    N113320   4.706   4.281  11.788 -0.3568 -0.8802  0.3232
  909MPD2    H713321   4.681   4.376  11.762  0.0167 -0.8767 -0.0280
  910MPD2     C13322   0.660   1.292  15.806 -0.2528 -0.4632 -0.4714
  910MPD2    C113323   0.758   1.262  15.713  0.3623 -0.1580  0.5601
  910MPD2    C213324   0.738   1.288  15.581  0.1853  0.3677 -0.2838
  910MPD2    C313325   0.628   1.379  15.549  0.5519  0.6140 -0.4355
  910MPD2    C413326   0.533   1.404  15.642  0.4466  0.5218  0.0756
  910MPD2    C513327   0.547   1.359  15.772  0.0217  0.2765 -0.2927
  910MPD2     H13328   0.819   1.262  15.513  0.6334  0.9845  0.0208
  910MPD2    H113329   0.446   1.467  15.629  0.4851  0.5661  0.0348
  910MPD2    H213330   0.665   1.261  15.910  0.3610 -0.6209 -0.5514
  910MPD2    H313331   0.466   1.369  15.843  1.2788  1.9481  0.8813
  910MPD2     N13332   0.626   1.442  15.424 -0.2276 -0.1277 -0.1690
  910MPD2    H513333   0.532   1.474  15.401  0.1678  0.6995 -0.6158
  910MPD2    N113334   0.882   1.190  15.743  0.0957 -1.0777  0.7179
  910MPD2    H713335   0.944   1.163  15.667 -0.3880  4.2615 -1.5995
  911MPD2     C13336   3.745   1.773  15.922 -0.6363 -0.7353 -0.4845
  911MPD2    C113337   3.727   1.830  16.045  0.3563 -0.6492  0.6143
  911MPD2    C213338   3.628   1.930  16.060 -0.3600  0.0932 -0.0447
  911MPD2    C313339   3.548   1.968  15.954  0.6666  0.2378  0.2768
  911MPD2    C413340   3.561   1.904  15.836 -0.2479 -0.1461  0.5751
  911MPD2    C513341   3.662   1.806  15.815 -0.1851 -0.4127  0.2535
  911MPD2     H13342   3.613   1.967  16.161  1.4536 -0.0281  0.2739
  911MPD2    H113343   3.498   1.936  15.754  0.1973  2.0296  1.0840
  911MPD2    H213344   3.802   1.681  15.917  1.6043  0.6184 -0.0156
  911MPD2    H313345   3.675   1.758  15.719  0.2350  0.0048  0.1012
  911MPD2     N13346   3.454   2.070  15.955  0.0950 -0.0332  0.0166
  911MPD2    H513347   3.391   2.075  15.875  1.2497  0.5775 -0.8727
  911MPD2    N113348   3.830   1.799  16.144  0.1566  0.4204  0.4689
  911MPD2    H713349   3.893   1.721  16.129 -0.7241 -0.1679 -0.1873
  912MPD2     C13350   3.012   1.815  15.580 -0.6335  0.3382 -0.1175
  912MPD2    C113351   3.036   1.826  15.716 -0.0690  0.0655 -0.4418
  912MPD2    C213352   3.043   1.715  15.793  0.0317  0.2749 -0.6492
  912MPD2    C313353   3.017   1.591  15.738 -0.7243 -0.2371  0.3115
  912MPD2    C413354   2.988   1.579  15.604  0.1127  0.5592  0.4135
  912MPD2    C513355   2.997   1.689  15.524  0.3406 -0.9560  0.1076
  912MPD2     H13356   3.049   1.730  15.900 -1.2108  0.9636 -0.6754
  912MPD2    H113357   2.962   1.485  15.558 -1.2389  1.4018 -0.5377
  912MPD2    H213358   3.011   1.904  15.518  1.5041  1.1802  1.0675
  912MPD2    H313359   2.976   1.678  15.419  0.4323 -1.7785  0.1724
  912MPD2     N13360   3.016   1.483  15.829 -0.3733 -0.7352  0.0289
  912MPD2    H513361   3.033   1.510  15.926 -1.3890 -1.5117  0.4144
  912MPD2    N113362   3.053   1.959  15.766 -0.1645  0.0555  0.2912
  912MPD2    H713363   3.061   2.035  15.699 -0.2656 -3.2613 -3.4698
  913MPD2     C13364   4.474   2.817  10.826 -0.1666 -0.7400  0.0830
  913MPD2    C113365   4.480   2.949  10.864  0.2613  0.8399 -0.5917
  913MPD2    C213366   4.473   3.040  10.752  0.2804 -0.4951 -0.3409
  913MPD2    C313367   4.449   3.000  10.617  0.0787 -0.1085  0.1972
  913MPD2    C413368   4.434   2.864  10.596 -0.4415  0.7594 -0.0461
  913MPD2    C513369   4.449   2.773  10.699  0.2926 -0.6849  0.1781
  913MPD2     H13370   4.473   3.146  10.777 -1.8489 -0.5052 -0.2958
  913MPD2    H113371   4.417   2.823  10.497 -2.9172  2.0842 -0.1670
  913MPD2    H213372   4.486   2.743  10.904 -0.4119 -1.3638 -0.4722
  913MPD2    H313373   4.432   2.668  10.678  1.3814 -1.0994  1.3377
  913MPD2     N13374   4.427   3.089  10.512 -0.1082  0.8323 -0.4648
  913MPD2    H513375   4.403   3.042  10.425  1.5696  0.4180 -0.7080
  913MPD2    N113376   4.503   2.978  11.002 -0.2000  0.2844 -0.1141
  913MPD2    H713377   4.499   2.894  11.058 -2.2754  0.5951  0.2111
  914MPD2     C13378   2.015   3.102  12.175 -0.8387  0.8668  0.1490
  914MPD2    C113379   2.018   3.237  12.194  0.4824 -0.8798  0.3730
  914MPD2    C213380   2.063   3.278  12.319 -0.2665  0.7350 -0.2173
  914MPD2    C313381   2.086   3.185  12.420  0.0250 -0.4717  0.3813
  914MPD2    C413382   2.086   3.046  12.399 -0.1120 -0.2659 -0.4986
  914MPD2    C513383   2.044   3.011  12.274  0.0621  0.3275  0.4713
  914MPD2     H13384   2.076   3.382  12.343  0.3834  0.5330  0.3053
  914MPD2    H113385   2.111   2.975  12.477  0.4231  1.2577  0.7274
  914MPD2    H213386   1.982   3.053  12.084 -1.3268  0.3608  0.5975
  914MPD2    H313387   2.051   2.908  12.239  1.9876  1.1400 -1.5083
  914MPD2     N13388   2.127   3.244  12.546 -1.2201  0.2189 -1.1801
  914MPD2    H513389   2.146   3.344  12.547 -1.5645  0.2433  1.2497
  914MPD2    N113390   1.963   3.323  12.095 -0.8183  0.2471  0.1997
  914MPD2    H713391   1.913   3.272  12.023 -0.9573 -1.5958  1.6059
  915MPD2     C13392   0.128   3.115  15.572 -0.6279  0.4724 -0.6373
  915MPD2    C113393   4.714   3.109  15.563 -0.4380  0.1652 -0.2707
  915MPD2    C213394   4.634   3.146  15.672  0.5242 -0.6007 -0.1092
  915MPD2    C313395   4.692   3.199  15.788 -0.2799 -0.2653 -0.5006
  915MPD2    C413396   0.108   3.196  15.795 -0.1324  0.7210  0.3293
  915MPD2    C513397   0.183   3.159  15.690 -0.3150 -0.4876  0.0356
  915MPD2     H13398   4.526   3.137  15.661  0.6094 -2.9088  0.8141
  915MPD2    H113399   0.159   3.235  15.882  0.0076 -1.3583  1.1631
  915MPD2    H213400   0.191   3.097  15.486  1.4523 -0.9797  1.1747
  915MPD2    H313401   0.291   3.166  15.700 -0.3886  1.1620 -0.2674
  915MPD2     N13402   4.609   3.259  15.886  0.0650  0.2290  0.0200
  915MPD2    H513403   4.509   3.244  15.881  0.1434 -0.5645  0.8831
  915MPD2    N113404   4.669   3.054  15.440  0.2394 -0.5707 -0.1887
  915MPD2    H713405   0.020   3.028  15.376 -0.4651  1.2944 -1.7979
  916MPD2     C13406   2.565   1.702  15.565  0.3416 -0.4669  0.8160
  916MPD2    C113407   2.641   1.643  15.664  0.4259 -0.5612  0.0734
  916MPD2    C213408   2.694   1.517  15.641 -0.2772 -0.3181 -0.1810
  916MPD2    C313409   2.686   1.456  15.517  0.3531 -0.0831  0.8425
  916MPD2    C413410   2.625   1.526  15.424 -0.0257 -0.0034  1.1279
  916MPD2    C513411   2.563   1.647  15.436 -0.6065  0.5316 -0.0753
  916MPD2     H13412   2.738   1.462  15.723  1.5635  0.9686 -0.3110
  916MPD2    H113413   2.611   1.495  15.322 -0.1643  1.5412  0.6693
  916MPD2    H213414   2.505   1.792  15.567 -0.0304 -0.6678 -1.3062
  916MPD2    H313415   2.507   1.694  15.355 -0.0846  0.2214 -0.6159
  916MPD2     N13416   2.752   1.329  15.499  0.1633 -0.4402 -0.0865
  916MPD2    H513417   2.808   1.316  15.582 -0.5545  0.9747  0.6364
  916MPD2    N113418   2.650   1.708  15.782  0.6814 -0.7677  0.4866
  916MPD2    H713419   2.596   1.794  15.786  1.6534 -0.1332  0.1260
  917MPD2     C13420   3.564   3.776  10.969  0.2967  0.4066  0.0102
  917MPD2    C113421   3.597   3.831  11.086  0.5705 -0.0955 -0.5753
  917MPD2    C213422   3.684   3.940  11.089 -0.3943  0.0480  0.4618
  917MPD2    C313423   3.724   4.001  10.970  0.1391 -0.1074  0.1166
  917MPD2    C413424   3.672   3.958  10.859 -0.3939  0.3845 -0.2285
  917MPD2    C513425   3.599   3.842  10.852  0.7922  0.8025 -0.3274
  917MPD2     H13426   3.730   3.965  11.184  0.3257 -1.5455  0.5363
  917MPD2    H113427   3.703   3.995  10.761 -2.7078 -0.8898 -1.4242
  917MPD2    H213428   3.507   3.684  10.971 -1.3249  1.4123 -0.0779
  917MPD2    H313429   3.574   3.798  10.756  0.5798  0.4689 -0.1154
  917MPD2     N13430   3.800   4.116  10.963 -0.1960  0.0014 -0.1519
  917MPD2    H513431   3.799   4.172  10.878 -1.2207 -0.2943 -0.3404
  917MPD2    N113432   3.545   3.774  11.204 -0.3589 -0.1602 -0.0193
  917MPD2    H713433   3.471   3.707  11.184  0.5140 -0.9102 -0.6940
  918MPD2     C13434   3.438   4.065  12.215  0.3034  0.4523  0.2124
  918MPD2    C113435   3.518   4.110  12.112  0.5301  0.6897 -0.1907
  918MPD2    C213436   3.508   4.054  11.986  0.1915  0.6393 -0.0761
  918MPD2    C313437   3.426   3.951  11.962  0.2316  0.3591 -0.2355
  918MPD2    C413438   3.362   3.888  12.069 -0.2181 -0.9482 -0.0193
  918MPD2    C513439   3.358   3.954  12.190 -0.5742 -0.0364  0.0478
  918MPD2     H13440   3.576   4.084  11.908  2.7802 -1.4222  1.3623
  918MPD2    H113441   3.299   3.801  12.054 -2.0795  0.2278  0.9063
  918MPD2    H213442   3.437   4.108  12.315 -1.4545 -1.4475  1.0175
  918MPD2    H313443   3.300   3.911  12.271 -0.1315 -0.1165  0.3190
  918MPD2     N13444   3.430   3.901  11.827  0.5850  0.2703  0.1512
  918MPD2    H513445   3.474   3.967  11.764  0.0839  0.3679 -0.0964
  918MPD2    N113446   3.621   4.199  12.124  0.6916  0.0146 -0.7441
  918MPD2    H713447   3.679   4.206  12.041  0.5296  0.0426 -0.8550
  919MPD2     C13448   4.069   3.086  11.764  0.1244 -0.2457 -0.3950
  919MPD2    C113449   4.062   2.953  11.708 -0.0030 -0.6959 -0.2852
  919MPD2    C213450   4.045   2.952  11.570  0.3522  1.0874 -0.4881
  919MPD2    C313451   4.047   3.062  11.484  0.8833 -0.4324  0.2746
  919MPD2    C413452   4.041   3.187  11.541 -0.9587 -0.0657  0.7889
  919MPD2    C513453   4.079   3.193  11.678 -0.1277  0.0633  0.1389
  919MPD2     H13454   4.042   2.856  11.520  0.8828  0.4483  0.7027
  919MPD2    H113455   4.042   3.274  11.476 -0.8782 -0.0689  0.7863
  919MPD2    H213456   4.078   3.104  11.871 -1.9391  1.4038 -0.4987
  919MPD2    H313457   4.077   3.291  11.725 -0.3231 -0.5013  1.3216
  919MPD2     N13458   4.036   3.038  11.345 -0.4889  0.2158  0.3411
  919MPD2    H513459   4.010   3.120  11.292  0.6551 -0.3546 -1.0757
  919MPD2    N113460   4.048   2.832  11.775 -0.2759  0.1315 -1.0285
  919MPD2    H713461   4.033   2.753  11.714 -0.6984  0.0490 -0.8161
  920MPD2     C13462   4.146   3.493  10.487 -0.3677  0.1858  0.6892
  920MPD2    C113463   4.100   3.365  10.447  0.0304  0.6198 -0.3015
  920MPD2    C213464   4.107   3.266  10.537 -0.0625 -0.0529 -0.0395
  920MPD2    C313465   4.152   3.280  10.668 -0.5277 -0.2732  0.4612
  920MPD2    C413466   4.190   3.410  10.706 -0.1550 -0.0910 -0.2064
  920MPD2    C513467   4.192   3.512  10.615  0.5072 -0.2148  0.0207
  920MPD2     H13468   4.067   3.171  10.506  3.6731 -1.9284  0.8147
  920MPD2    H113469   4.229   3.434  10.804 -1.0888  1.2896 -0.1680
  920MPD2    H213470   4.135   3.580  10.423 -2.2212 -1.4246 -1.1690
  920MPD2    H313471   4.224   3.610  10.647 -0.2629  1.1182 -3.3241
  920MPD2     N13472   4.144   3.171  10.759 -0.3590  0.1381 -0.1636
  920MPD2    H513473   4.119   3.082  10.716  0.1715  0.4095 -1.0507
  920MPD2    N113474   4.033   3.338  10.324  0.4859 -1.0280 -0.0124
  920MPD2    H713475   3.987   3.249  10.310 -1.5605  0.0065  0.1877
  921MPD2     C13476   4.535   2.289  16.499  0.0402 -0.0357  0.0645
  921MPD2    C113477   4.544   2.156  16.455 -0.1041  0.0258 -0.0268
  921MPD2    C213478   4.428   2.082  16.477 -0.3288  0.2024 -0.0189
  921MPD2    C313479   4.312   2.138  16.532  0.0039  0.6410  0.1631
  921MPD2    C413480   4.304   2.271  16.560  0.2523 -0.1551 -0.3350
  921MPD2    C513481   4.417   2.343  16.549 -0.3498 -0.0089 -0.6919
  921MPD2     H13482   4.420   1.978  16.449  0.7970  0.5882 -1.8051
  921MPD2    H113483   4.208   2.312  16.590 -0.3347 -1.2581 -0.6832
  921MPD2    H213484   4.618   2.354  16.473 -0.7023  1.0433  0.3938
  921MPD2    H313485   4.406   2.448  16.572  0.7840  0.5204 -2.5870
  921MPD2     N13486   4.197   2.055  16.542 -0.1459  0.1097 -0.0304
  921MPD2    H513487   4.105   2.095  16.553  0.1882  0.6560  0.7514
  921MPD2    N113488   4.662   2.106  16.393  0.2355 -0.2057 -0.2514
  921MPD2    H713489   0.019   2.167  16.393  0.4313 -0.4628 -0.3561
  922MPD2     C13490   0.380   4.266   0.057  0.4564 -0.0170  0.2895
  922MPD2    C113491   0.376   4.383  17.673 -0.4393  0.1927  1.0165
  922MPD2    C213492   0.290   4.382  17.568  0.1266  0.5031  0.1405
  922MPD2    C313493   0.226   4.265  17.520 -0.2576 -0.0855  1.1213
  922MPD2    C413494   0.238   4.155  17.599  0.3848  0.3207  0.0628
  922MPD2    C513495   0.314   4.154   0.018  0.0651 -0.3295 -0.0123
  922MPD2     H13496   0.281   4.474  17.510 -1.1316  0.4068  0.1884
  922MPD2    H113497   0.189   4.064  17.566  2.0257 -0.3509 -0.5567
  922MPD2    H213498   0.431   4.263   0.153 -1.8445 -0.0647  1.4922
  922MPD2    H313499   0.311   4.065   0.078  0.3467 -0.5461 -0.3140
  922MPD2     N13500   0.148   4.266  17.400 -0.5158 -0.5969  0.5993
  922MPD2    H513501   0.148   4.351  17.344 -3.2770  0.8621  2.8944
  922MPD2    N113502   0.463   4.495  17.687 -0.3051 -0.1916  0.1370
  922MPD2    H713503   0.449   4.573  17.624  2.4849 -0.6314 -1.0194
  923MPD2     C13504   3.092   3.019   8.981  0.1186 -0.3229  0.2487
  923MPD2    C113505   2.987   2.998   9.065  1.2193  0.3022 -0.3999
  923MPD2    C213506   2.994   2.907   9.170 -0.4543 -0.6772  0.2108
  923MPD2    C313507   3.117   2.840   9.189  0.7588  0.0820  0.4729
  923MPD2    C413508   3.218   2.853   9.099  0.5516  0.6103  0.0710
  923MPD2    C513509   3.207   2.942   8.998  0.7607  0.0535 -0.7588
  923MPD2     H13510   2.916   2.899   9.245 -1.7257  0.8919 -0.9294
  923MPD2    H113511   3.313   2.803   9.109  0.2018  0.0449  0.5777
  923MPD2    H213512   3.079   3.091   8.901  1.0464  3.5945  3.5905
  923MPD2    H313513   3.287   2.960   8.927  1.2153  2.4333  0.3469
  923MPD2     N13514   3.141   2.749   9.292  0.5723  0.1630  0.2639
  923MPD2    H513515   3.233   2.707   9.295 -0.0523 -1.1740  0.8339
  923MPD2    N113516   2.871   3.078   9.054 -0.3665 -0.1557  0.3062
  923MPD2    H713517   2.867   3.117   8.960  4.0226  2.4544  1.1743
  924MPD2     C13518   1.976   0.112  15.864  0.4627  0.1518 -0.0422
  924MPD2    C113519   1.893   0.124  15.974 -0.5007 -0.0627 -0.1204
  924MPD2    C213520   1.876   0.246  16.033 -0.6069 -0.8225 -1.1224
  924MPD2    C313521   1.940   0.360  15.980  0.1123 -0.1281 -0.1118
  924MPD2    C413522   2.018   0.347  15.863 -0.4447  0.7674 -0.2673
  924MPD2    C513523   2.039   0.222  15.813  0.0855 -0.9263  0.3156
  924MPD2     H13524   1.809   0.251  16.118 -1.4225  2.0995 -1.9477
  924MPD2    H113525   2.076   0.432  15.830  2.1912 -1.3472 -1.0669
  924MPD2    H213526   2.001   0.020  15.813 -0.2558 -0.5693  0.9067
  924MPD2    H313527   2.113   0.220  15.735 -0.1109  3.0326  0.0448
  924MPD2     N13528   1.917   0.489  16.037 -0.6860  0.5998 -0.2043
  924MPD2    H513529   1.949   0.565  15.977  0.6119  1.5733  1.7159
  924MPD2    N113530   1.844   0.008  16.033  0.6771 -0.3426 -0.1250
  924MPD2    H713531   1.863   4.642  15.989 -3.0157 -1.3037  0.2207
  925MPD2     C13532   0.812   2.724  14.824 -0.9928  0.2391  0.3304
  925MPD2    C113533   0.688   2.783  14.818 -0.6080  0.0955 -0.4745
  925MPD2    C213534   0.608   2.790  14.930  0.4813  0.6109 -0.4076
  925MPD2    C313535   0.649   2.730  15.051 -0.6109 -0.1101 -0.3691
  925MPD2    C413536   0.783   2.688  15.058  0.9008 -0.1261 -0.0692
  925MPD2    C513537   0.860   2.681  14.943 -1.1335 -0.4773  0.3748
  925MPD2     H13538   0.512   2.840  14.922 -0.1480 -0.1047  2.9222
  925MPD2    H113539   0.828   2.635  15.141  0.1222 -0.6857 -0.0086
  925MPD2    H213540   0.869   2.702  14.734  0.1510  0.0927  1.1008
  925MPD2    H313541   0.957   2.633  14.942 -0.9438 -0.0938  0.5928
  925MPD2     N13542   0.572   2.721  15.171  0.3721 -0.0414  0.3056
  925MPD2    H513543   0.609   2.680  15.257  1.5104 -3.0216 -1.6328
  925MPD2    N113544   0.651   2.846  14.693 -0.0513 -0.0709 -0.7222
  925MPD2    H713545   0.557   2.884  14.688 -0.4400 -1.2949 -2.4700
  926MPD2     C13546   0.021   1.128  13.356  0.1386  0.9693 -0.0698
  926MPD2    C113547   4.614   1.174  13.335  0.9630  0.0352 -0.7211
  926MPD2    C213548   4.589   1.277  13.248 -0.0021 -0.1922  0.7365
  926MPD2    C313549   4.684   1.323  13.154 -0.3608  0.2328  0.0416
  926MPD2    C413550   0.088   1.269  13.160 -0.3921  0.3471  0.4965
  926MPD2    C513551   0.115   1.175  13.265 -0.4443 -0.3650  0.0757
  926MPD2     H13552   4.485   1.308  13.258 -0.0685 -0.4532  0.8393
  926MPD2    H113553   0.166   1.297  13.090 -0.0028 -1.0622  0.3565
  926MPD2    H213554   0.043   1.053  13.431  0.9735  3.9311  2.6410
  926MPD2    H313555   0.217   1.141  13.283  0.1788  0.7111 -1.4070
  926MPD2     N13556   4.648   1.420  13.053 -0.2054 -0.3326 -0.4141
  926MPD2    H513557   4.712   1.425  12.975 -1.8930 -1.3542 -1.8409
  926MPD2    N113558   4.494   1.123  13.400 -0.2306  0.2378 -0.1088
  926MPD2    H713559   4.407   1.173  13.384  0.3744  1.6405  1.1234
  927MPD2     C13560   4.335   3.308   0.566  0.2635  0.1098 -0.0730
  927MPD2    C113561   4.277   3.410   0.495  0.8210 -0.9161 -1.0955
  927MPD2    C213562   4.270   3.401   0.359  0.5573  0.6867 -0.1492
  927MPD2    C313563   4.304   3.280   0.298  0.4411 -0.1004 -0.0408
  927MPD2    C413564   4.363   3.182   0.371 -0.2151 -0.7762  0.8604
  927MPD2    C513565   4.385   3.199   0.505  0.0973  0.4079 -1.0842
  927MPD2     H13566   4.229   3.478   0.294 -3.1958 -2.1427 -1.1013
  927MPD2    H113567   4.394   3.085   0.331 -0.8074 -0.6343  0.0505
  927MPD2    H213568   4.342   3.320   0.673  0.7262 -0.2389 -0.0660
  927MPD2    H313569   4.439   3.118   0.554 -1.8367 -0.4894 -0.4192
  927MPD2     N13570   4.270   3.259   0.165 -0.3261  0.2563  0.0588
  927MPD2    H513571   4.212   3.332   0.123  0.6670  1.1171  0.1917
  927MPD2    N113572   4.200   3.508   0.570  0.4105 -0.7162 -0.4797
  927MPD2    H713573   4.221   3.514   0.669 -1.0318 -0.1433 -0.2056
  928MPD2     C13574   1.559   1.889   1.163  0.4908 -0.5578 -0.3038
  928MPD2    C113575   1.679   1.911   1.221 -0.1268 -0.2044 -0.3479
  928MPD2    C213576   1.796   1.895   1.151 -0.1672 -0.3020 -0.2684
  928MPD2    C313577   1.790   1.844   1.024 -0.3953 -0.0958  0.2401
  928MPD2    C413578   1.678   1.798   0.969  0.6328 -0.4259 -0.0772
  928MPD2    C513579   1.560   1.826   1.034 -0.7899  0.7983  0.2039
  928MPD2     H13580   1.890   1.935   1.187 -0.5926  1.4733 -1.1757
  928MPD2    H113581   1.678   1.741   0.876 -0.6069 -0.0737 -0.3008
  928MPD2    H213582   1.466   1.915   1.211  1.5781  0.9108  0.9904
  928MPD2    H313583   1.474   1.787   0.982 -1.0949 -0.2181  1.4638
  928MPD2     N13584   1.903   1.828   0.940  0.1081  0.1401 -0.3224
  928MPD2    H513585   1.871   1.815   0.845 -0.8629  0.4291 -0.0357
  928MPD2    N113586   1.677   1.966   1.349 -0.1994 -0.4326  1.0813
  928MPD2    H713587   1.589   2.000   1.385 -0.5600 -0.6011  0.3698
  929MPD2     C13588   2.294   1.729  10.757  0.8664  0.3904 -0.3970
  929MPD2    C113589   2.224   1.614  10.712 -0.3916  0.2303  0.2885
  929MPD2    C213590   2.195   1.594  10.576 -1.1794  0.8827  0.3021
  929MPD2    C313591   2.231   1.691  10.480 -0.3478  0.3257  0.7010
  929MPD2    C413592   2.311   1.792  10.525 -0.5772  0.1633 -0.2702
  929MPD2    C513593   2.341   1.809  10.659  0.2486 -0.3175 -0.0262
  929MPD2     H13594   2.143   1.503  10.550 -1.0019  0.9174 -0.1631
  929MPD2    H113595   2.346   1.868  10.456 -0.6363  1.5453  1.2157
  929MPD2    H213596   2.324   1.749  10.859 -2.4092  3.4835 -0.0255
  929MPD2    H313597   2.409   1.889  10.685  2.1419 -1.4266 -1.5482
  929MPD2     N13598   2.205   1.688  10.339 -0.1278 -0.0253  0.6140
  929MPD2    H513599   2.231   1.769  10.284  0.9490 -0.0682  1.0650
  929MPD2    N113600   2.171   1.534  10.817  0.5311  0.2481 -0.4660
  929MPD2    H713601   2.185   1.572  10.910  1.5989 -1.3889  0.0375
  930MPD2     C13602   3.708   3.981  13.932  0.3444 -0.1867 -0.0597
  930MPD2    C113603   3.752   4.001  13.802  0.5027 -0.3916 -0.1151
  930MPD2    C213604   3.706   3.920  13.700 -0.0699  0.4429 -0.5956
  930MPD2    C313605   3.619   3.820  13.734  0.7661  0.7919  0.2370
  930MPD2    C413606   3.581   3.801  13.864  0.4861 -0.1004 -0.4129
  930MPD2    C513607   3.629   3.878  13.965 -1.1641  0.5737  0.1639
  930MPD2     H13608   3.735   3.941  13.597  0.0305  2.7993 -0.0833
  930MPD2    H113609   3.515   3.720  13.893 -1.9034  1.8501 -0.4212
  930MPD2    H213610   3.736   4.051  14.010 -0.3417 -0.7987  0.7326
  930MPD2    H313611   3.585   3.864  14.062  1.0828  0.1267  1.1281
  930MPD2     N13612   3.566   3.735  13.633  0.7699  0.0202 -0.2136
  930MPD2    H513613   3.488   3.675  13.660 -0.7695  2.6101  1.1420
  930MPD2    N113614   3.834   4.116  13.778 -0.3992 -0.4738 -0.0461
  930MPD2    H713615   3.871   4.161  13.861 -0.6568 -1.0773  0.3939
  931MPD2     C13616   4.139   3.711   1.239  0.5307  0.1428  0.0294
  931MPD2    C113617   4.151   3.612   1.146  1.2004 -0.1723  0.0121
  931MPD2    C213618   4.193   3.493   1.183  0.3170 -0.2489 -0.2896
  931MPD2    C313619   4.218   3.459   1.313  0.0643 -0.7704 -0.8695
  931MPD2    C413620   4.227   3.561   1.400 -0.4888  0.6957 -0.9484
  931MPD2    C513621   4.182   3.690   1.368  0.4802  0.4053  0.2980
  931MPD2     H13622   4.177   3.410   1.115 -0.7359 -1.6548  1.6983
  931MPD2    H113623   4.253   3.541   1.503  0.4641  2.0629 -0.9256
  931MPD2    H213624   4.109   3.813   1.216  0.2388  0.0780  0.1212
  931MPD2    H313625   4.174   3.772   1.439  0.4272 -1.7001  2.7311
  931MPD2     N13626   4.238   3.328   1.368  0.2969 -0.1859  0.0263
  931MPD2    H513627   4.234   3.314   1.468 -0.7051  1.5276  0.2176
  931MPD2    N113628   4.102   3.634   1.015  0.4931  0.3246 -0.1606
  931MPD2    H713629   4.126   3.560   0.949 -1.1187  0.9454 -1.4576
  932MPD2     C13630   1.343   1.883  10.834 -0.8063 -0.3050  0.0298
  932MPD2    C113631   1.316   1.958  10.941 -0.7538  0.0597 -0.9083
  932MPD2    C213632   1.337   1.915  11.066 -1.0446 -0.7891  0.5070
  932MPD2    C313633   1.391   1.792  11.090 -0.1088 -0.3068  0.2841
  932MPD2    C413634   1.423   1.714  10.978  0.4893 -0.4275 -0.3588
  932MPD2    C513635   1.392   1.762  10.851 -0.6325  0.7234  0.7837
  932MPD2     H13636   1.310   1.984  11.146  0.5376  0.9028 -0.4367
  932MPD2    H113637   1.462   1.614  10.994  1.4539 -0.2051 -1.3618
  932MPD2    H213638   1.321   1.911  10.731 -2.5322  3.7849  1.4956
  932MPD2    H313639   1.383   1.687  10.773  1.3012  2.8038 -1.4514
  932MPD2     N13640   1.410   1.744  11.226  0.0561  0.6639 -0.1609
  932MPD2    H513641   1.451   1.652  11.242 -0.2472  0.3389 -1.2045
  932MPD2    N113642   1.277   2.090  10.926 -0.1594  0.2630 -0.2761
  932MPD2    H713643   1.251   2.143  11.008 -3.1519 -0.5733 -0.7050
  933MPD2     C13644   1.498   2.673   1.807  0.3521  0.0804  0.2545
  933MPD2    C113645   1.512   2.602   1.696 -0.0515  0.1661  0.2546
  933MPD2    C213646   1.456   2.658   1.579 -0.0154  0.0865 -0.5876
  933MPD2    C313647   1.407   2.784   1.571 -0.6598  0.4397  0.1657
  933MPD2    C413648   1.396   2.859   1.692 -0.6458 -0.6410 -1.0495
  933MPD2    C513649   1.439   2.795   1.809  0.2661  0.6096  0.4675
  933MPD2     H13650   1.472   2.613   1.482 -1.1594 -0.9122 -0.3090
  933MPD2    H113651   1.367   2.963   1.704 -0.1831 -0.7436  0.9776
  933MPD2    H213652   1.531   2.635   1.904  0.2049 -1.7314 -0.3955
  933MPD2    H313653   1.420   2.838   1.906 -1.7114  1.4314 -0.2820
  933MPD2     N13654   1.353   2.833   1.452  0.0740 -0.3323 -0.2098
  933MPD2    H513655   1.338   2.763   1.380 -3.3247  0.0382  0.1561
  933MPD2    N113656   1.576   2.473   1.700  0.0629  0.0706 -0.0364
  933MPD2    H713657   1.623   2.451   1.787  0.8531  1.5259 -0.0876
  934MPD2     C13658   2.708   3.415   2.485 -0.3418  0.2434  1.6343
  934MPD2    C113659   2.806   3.388   2.391  0.4958 -0.2060 -0.4489
  934MPD2    C213660   2.775   3.352   2.263 -0.3613  1.0480  0.3385
  934MPD2    C313661   2.649   3.362   2.213 -0.8193  0.3797 -0.1134
  934MPD2    C413662   2.547   3.386   2.301  0.0399  0.7433  0.1983
  934MPD2    C513663   2.582   3.405   2.438 -0.0946 -0.1501  0.3921
  934MPD2     H13664   2.855   3.322   2.197 -0.9217 -2.2998  1.1396
  934MPD2    H113665   2.446   3.410   2.272 -1.3492 -1.1045  3.4631
  934MPD2    H213666   2.734   3.461   2.580  3.3985 -1.0604  1.2239
  934MPD2    H313667   2.503   3.432   2.507 -0.2555 -1.2339  0.6308
  934MPD2     N13668   2.612   3.349   2.071  0.0281  0.0205  0.3396
  934MPD2    H513669   2.516   3.377   2.052  0.6256  1.8914  0.0724
  934MPD2    N113670   2.942   3.409   2.421  0.1008 -0.6095  0.7871
  934MPD2    H713671   3.006   3.380   2.348 -0.3442 -1.3795  0.7087
  935MPD2     C13672   3.137   3.041   1.282  0.5261  0.6157 -0.6859
  935MPD2    C113673   3.010   2.996   1.267 -0.3403 -0.0046  0.2503
  935MPD2    C213674   2.912   3.057   1.336  0.0324 -0.3194 -0.0152
  935MPD2    C313675   2.941   3.146   1.441  0.5238  0.0626  0.5084
  935MPD2    C413676   3.069   3.160   1.484  0.4311 -0.3527 -1.1065
  935MPD2    C513677   3.167   3.120   1.392 -0.1399  0.2361  0.2691
  935MPD2     H13678   2.811   3.019   1.330  0.1382 -0.5839 -0.1420
  935MPD2    H113679   3.088   3.216   1.575  1.3021 -1.1619 -0.7833
  935MPD2    H213680   3.220   3.028   1.212 -0.6314 -0.8879 -1.7748
  935MPD2    H313681   3.270   3.150   1.413 -0.1875  0.5509  0.0512
  935MPD2     N13682   2.846   3.197   1.531  0.7346  0.1226 -0.5339
  935MPD2    H513683   2.876   3.260   1.605 -3.3645  0.4417  0.8650
  935MPD2    N113684   2.961   2.925   1.154  0.7561 -0.7492  0.1207
  935MPD2    H713685   2.861   2.911   1.147  0.6664 -0.4141  0.7020
  936MPD2     C13686   1.102   1.042  12.597  0.0795 -0.2273 -0.5497
  936MPD2    C113687   1.155   1.018  12.719 -0.0114 -0.3854 -0.6482
  936MPD2    C213688   1.214   1.122  12.789  0.2357 -0.1280  0.6826
  936MPD2    C313689   1.204   1.245  12.745 -0.3599  0.4384 -0.2889
  936MPD2    C413690   1.137   1.273  12.633 -0.1639  0.3087  0.3199
  936MPD2    C513691   1.087   1.174  12.554 -0.0304  0.0739  0.2939
  936MPD2     H13692   1.252   1.094  12.887  2.2128 -0.8834 -0.2997
  936MPD2    H113693   1.133   1.374  12.594  1.2703 -0.8950 -2.9563
  936MPD2    H213694   1.053   0.961  12.544  0.2701 -1.3312  0.9485
  936MPD2    H313695   1.037   1.205  12.463  0.2078  0.4457  0.2908
  936MPD2     N13696   1.256   1.359  12.815  0.2699  0.5565 -0.4560
  936MPD2    H513697   1.253   1.452  12.775  0.4258  0.9091  0.3490
  936MPD2    N113698   1.163   0.890  12.782  0.6275  0.6735  0.0810
  936MPD2    H713699   1.173   0.886  12.883  0.6968  0.5347  0.0683
  937MPD2     C13700   4.271   2.178  11.623  0.8516  0.3892  0.8790
  937MPD2    C113701   4.212   2.301  11.590  0.1378  0.1840 -0.2145
  937MPD2    C213702   4.271   2.359  11.480 -0.3911  0.5361  0.3644
  937MPD2    C313703   4.347   2.293  11.386  0.2998  0.0927  0.1093
  937MPD2    C413704   4.375   2.164  11.406  1.2637 -0.3787  0.0357
  937MPD2    C513705   4.343   2.109  11.526 -0.0001  0.1337 -0.0738
  937MPD2     H13706   4.264   2.466  11.466  1.9045  0.7709  1.0461
  937MPD2    H113707   4.418   2.098  11.332  0.2208  0.1184 -1.0067
  937MPD2    H213708   4.244   2.125  11.714 -1.8321 -0.6641 -0.5159
  937MPD2    H313709   4.375   2.007  11.543  2.7743  0.7545 -1.5147
  937MPD2     N13710   4.392   2.363  11.267 -0.1307  0.0705  0.0775
  937MPD2    H513711   4.357   2.457  11.256  0.3986  0.1434 -0.9871
  937MPD2    N113712   4.167   2.388  11.694  0.2994  0.1442  0.1812
  937MPD2    H713713   4.152   2.487  11.675 -1.5425 -0.1274  0.1752
  938MPD2     C13714   1.680   2.815   1.273 -0.0925 -0.0405  0.2251
  938MPD2    C113715   1.696   2.935   1.337  0.9267  0.2878  0.5714
  938MPD2    C213716   1.736   2.944   1.466  0.5752 -0.0722 -0.0328
  938MPD2    C313717   1.754   2.829   1.539 -0.1414  0.5835  0.9874
  938MPD2    C413718   1.748   2.707   1.473  0.5510 -0.6184 -1.0967
  938MPD2    C513719   1.710   2.702   1.342 -0.2369 -0.1548  0.8398
  938MPD2     H13720   1.743   3.042   1.512  2.4116 -0.0347 -0.4267
  938MPD2    H113721   1.781   2.615   1.520  0.9207  0.2303  0.3017
  938MPD2    H213722   1.669   2.804   1.166 -1.3750  0.4137  0.3118
  938MPD2    H313723   1.711   2.603   1.299 -0.1341 -0.0887  0.6895
  938MPD2     N13724   1.796   2.841   1.677  0.5867  0.1477  0.7008
  938MPD2    H513725   1.806   2.937   1.708 -1.0173  0.3718  0.5503
  938MPD2    N113726   1.690   3.058   1.268 -0.2013  0.3292 -0.0992
  938MPD2    H713727   1.718   3.146   1.310 -0.4035  1.8110 -3.1050
  939MPD2     C13728   2.734   4.209   1.077  0.6296  0.4075  0.3429
  939MPD2    C113729   2.850   4.278   1.039 -0.2974  0.2977  0.8011
  939MPD2    C213730   2.882   4.288   0.907  0.3193  0.5800  0.5473
  939MPD2    C313731   2.804   4.224   0.811  0.0170  0.0584  0.1588
  939MPD2    C413732   2.689   4.161   0.851  0.4651  0.2441 -0.5222
  939MPD2    C513733   2.650   4.149   0.978 -0.1385  0.2237 -1.2900
  939MPD2     H13734   2.968   4.341   0.868 -0.4532  1.3145 -0.1653
  939MPD2    H113735   2.614   4.118   0.785  0.0335  1.3747 -0.7665
  939MPD2    H213736   2.706   4.215   1.182 -1.0737  0.4715 -0.1198
  939MPD2    H313737   2.567   4.085   1.003  1.7757 -1.3226  1.1306
  939MPD2     N13738   2.851   4.231   0.681  0.1493  0.0472 -0.5771
  939MPD2    H513739   2.922   4.300   0.659  2.6616 -2.2237  0.3933
  939MPD2    N113740   2.932   4.326   1.145  0.4614 -0.0166  0.0854
  939MPD2    H713741   2.890   4.310   1.237  1.6196 -1.5277  0.3554
  940MPD2     C13742   1.968   0.467  13.298  0.3420  1.3443 -0.7269
  940MPD2    C113743   1.975   0.575  13.386  0.3738 -0.4033 -0.3114
  940MPD2    C213744   1.955   0.701  13.327  0.6024  0.0750 -0.1390
  940MPD2    C313745   1.932   0.717  13.184 -0.4077  0.6781  0.2310
  940MPD2    C413746   1.924   0.602  13.107 -0.5897 -0.2293  0.2613
  940MPD2    C513747   1.942   0.479  13.163 -0.0348 -0.6079  0.2310
  940MPD2     H13748   1.960   0.784  13.397 -1.4220 -1.6566  2.0183
  940MPD2    H113749   1.927   0.618  13.000  0.2798  1.5542  0.5366
  940MPD2    H213750   1.987   0.365  13.330 -1.8958  0.6638 -1.5655
  940MPD2    H313751   1.952   0.387  13.105 -0.9506 -1.1988  1.0033
  940MPD2     N13752   1.933   0.835  13.116 -0.3366  0.0531  0.4825
  940MPD2    H513753   1.916   0.826  13.016  0.9356  1.2887  0.1498
  940MPD2    N113754   2.006   0.570  13.523 -0.6240  0.2881  0.0908
  940MPD2    H713755   2.004   0.650  13.585  2.8821 -1.0550  1.9705
  941MPD2     C13756   1.428   0.323   9.403  0.2473 -0.0027  0.3654
  941MPD2    C113757   1.479   0.272   9.519 -0.5003  0.3515 -0.3767
  941MPD2    C213758   1.439   0.146   9.557 -0.7327 -0.3397 -0.2533
  941MPD2    C313759   1.356   0.069   9.480  0.1158  0.3003 -0.2824
  941MPD2    C413760   1.316   0.116   9.354 -0.4646  0.1548 -0.4063
  941MPD2    C513761   1.359   0.244   9.317  0.5398 -0.0355 -0.9516
  941MPD2     H13762   1.468   0.107   9.653 -2.4025 -0.2493  0.2796
  941MPD2    H113763   1.244   0.064   9.292 -0.7430  2.3777 -1.9542
  941MPD2    H213764   1.444   0.427   9.376 -1.1478  0.3323  0.8530
  941MPD2    H313765   1.332   0.289   9.222 -0.8169 -0.9461 -0.9982
  941MPD2     N13766   1.313   4.668   9.517  0.5613 -1.0945 -0.2986
  941MPD2    H513767   1.243   4.623   9.459  0.1356 -1.7211  0.7068
  941MPD2    N113768   1.575   0.338   9.599  0.6640  0.3180 -0.2679
  941MPD2    H713769   1.587   0.301   9.693  1.6655  0.4556 -0.3384
  942MPD2     C13770   1.583   2.577   8.814  0.4445  0.0780  0.1954
  942MPD2    C113771   1.715   2.560   8.839  0.4716  0.2274  0.1481
  942MPD2    C213772   1.761   2.452   8.908  0.5586 -0.3458  0.3350
  942MPD2    C313773   1.679   2.352   8.958 -0.2773  0.0683 -0.1407
  942MPD2    C413774   1.541   2.367   8.940 -0.6141  0.0725  0.0925
  942MPD2    C513775   1.497   2.478   8.863 -0.1637  0.2327  0.1625
  942MPD2     H13776   1.869   2.447   8.911  0.6286  0.8138 -0.2268
  942MPD2    H113777   1.465   2.306   8.989  0.0344 -0.3686  0.5510
  942MPD2    H213778   1.541   2.667   8.770  1.0258  0.1859 -0.1323
  942MPD2    H313779   1.394   2.505   8.843  0.7071  3.8715  0.6028
  942MPD2     N13780   1.726   2.235   9.027  0.6830 -0.4977 -0.6716
  942MPD2    H513781   1.664   2.159   9.055  0.3693 -0.2002 -0.5654
  942MPD2    N113782   1.814   2.648   8.796 -0.5857  0.1786 -0.0471
  942MPD2    H713783   1.912   2.638   8.820 -0.3131 -0.1201 -1.2773
  943MPD2     C13784   0.245   4.597   9.455  0.0612  0.5551  0.1854
  943MPD2    C113785   0.290   4.546   9.572 -0.1415  0.2730 -0.3159
  943MPD2    C213786   0.382   4.624   9.653  0.5840  0.1899  0.0475
  943MPD2    C313787   0.423   0.027   9.623 -0.4179 -0.4339  0.1769
  943MPD2    C413788   0.379   0.069   9.502  0.2895  0.1789  0.0950
  943MPD2    C513789   0.301   4.721   9.415 -0.5766 -0.1204 -0.0745
  943MPD2     H13790   0.427   4.588   9.745  1.1705  1.5507  0.2919
  943MPD2    H113791   0.436   0.155   9.469  0.7226 -0.5579 -1.1112
  943MPD2    H213792   0.169   4.548   9.395  0.2542 -0.1587  0.5318
  943MPD2    H313793   0.269   0.032   9.317 -1.7006  0.0429  0.3447
  943MPD2     N13794   0.520   0.097   9.706  0.0111 -0.1898 -0.1448
  943MPD2    H513795   0.530   0.058   9.799  0.1104 -0.2644 -0.1869
  943MPD2    N113796   0.244   4.416   9.609 -0.4016  0.2994 -0.1843
  943MPD2    H713797   0.176   4.369   9.550 -0.3768 -0.4118  0.3488
  944MPD2     C13798   4.532   3.540  10.965 -0.2599 -0.0365 -0.1893
  944MPD2    C113799   4.638   3.628  10.953 -0.0486 -0.8069  0.1605
  944MPD2    C213800   4.612   3.755  11.003  0.1718 -0.1554  0.1943
  944MPD2    C313801   4.488   3.792  11.063 -0.7764  0.4957  0.9930
  944MPD2    C413802   4.391   3.691  11.074 -0.3016 -0.4631  0.3934
  944MPD2    C513803   4.416   3.563  11.031  0.2969  0.0689  0.0830
  944MPD2     H13804   4.687   3.833  11.003  0.6866 -0.6495 -0.8804
  944MPD2    H113805   4.291   3.718  11.107 -1.1149 -1.2168 -1.4365
  944MPD2    H213806   4.548   3.437  10.934  2.0624  1.4019 -3.7502
  944MPD2    H313807   4.342   3.484  11.042  1.8344 -1.4820 -0.8770
  944MPD2     N13808   4.474   3.919  11.110  0.7435  0.0404  0.8005
  944MPD2    H513809   4.553   3.979  11.089 -1.5085  2.5144 -0.5779
  944MPD2    N113810   0.040   3.582  10.899  0.7490 -0.1632 -0.3488
  944MPD2    H713811   0.046   3.494  10.849 -0.2784 -1.4065  1.7213
    1TCq1    O113812   3.100   4.352  13.895 -0.2666  0.4974  0.0268
    1TCq1    C113813   3.009   4.253  13.915 -0.6965  0.4435 -0.0417
    1TCq1    O213814   2.968   4.181  13.828 -0.3083 -0.0313 -0.2655
    1TCq1    C213815   2.994   4.237  14.058  0.1324  0.5188 -0.1430
    1TCq1    C313816   2.978   4.114  14.109  0.2131  0.1894 -0.1575
    1TCq1    C413817   2.958   4.115  14.245 -0.5749 -0.0291 -0.0722
    1TCq1    C513818   2.950   4.229  14.319 -0.3081 -0.8901  0.4345
    1TCq1    C613819   2.947   4.351  14.259 -0.4148  0.3337  0.4776
    1TCq1    C713820   2.975   4.354  14.126 -0.1797  0.7763 -0.3400
    1TCq1    C813821   2.976   4.473  14.334 -0.5885 -0.0394  0.1348
    1TCq1    O413822   3.051   4.449  14.429  0.4472  0.6938 -0.0885
    1TCq1    C913823   2.959   3.981  14.306  0.0185  1.2500  0.0249
    1TCq1    O513824   2.999   3.882  14.237 -0.6042 -0.4423  0.0903
    1TCq1    O613825   2.942   3.970  14.429 -0.1291 -0.2723 -0.4935
    1TCq1    H113826   3.149   4.371  13.977  3.4536 -1.6776 -1.7029
    1TCq1    H213827   3.009   4.023  14.058 -1.0256 -0.2247 -0.1660
    1TCq1    H313828   2.949   4.227  14.427 -0.0094 -0.0384  0.4470
    1TCq1    H413829   2.978   4.450  14.076 -1.1050  1.1775  0.3621
    2MPD2     C13830   2.951   0.237  14.472  0.2677 -0.2442  0.4021
    2MPD2    C113831   2.848   0.218  14.384  0.7344 -0.2406  0.5821
    2MPD2    C213832   2.834   0.089  14.321 -0.3151 -0.5322 -0.4634
    2MPD2    C313833   2.926   4.714  14.356  0.3019 -0.2180 -0.2318
    2MPD2    C413834   3.010   0.008  14.461  0.4353  0.0422  0.4801
    2MPD2    C513835   3.029   0.131  14.509 -0.2021 -0.5579 -0.2953
    2MPD2     H13836   2.760   0.071  14.244 -2.5216  3.3010  0.7761
    2MPD2    H113837   3.077   4.655  14.499  1.3790  1.6293  2.0132
    2MPD2    H213838   2.966   0.337  14.512  1.9422 -0.6312  0.7454
    2MPD2    H313839   3.106   0.161  14.579 -1.2295 -1.0555  1.0404
    2MPD2     N13840   2.922   4.591  14.284  0.0502 -0.0147  0.1995
    2MPD2    H513841   2.859   4.581  14.205  0.8176  0.8120 -0.5138
    2MPD2    N113842   2.775   0.329  14.341  0.6131  0.1664  0.9253
    2MPD2    H713843   2.803   0.419  14.377 -0.3630  0.9728 -0.3290
    3TMC2    C113844   2.610   0.463  14.264 -0.1438  0.2738  0.0103
    3TMC2    C213845   2.476   0.497  14.271 -0.4413 -0.4731  0.3585
    3TMC2    C313846   2.437   0.625  14.249 -0.2661  0.0327  0.6615
    3TMC2    C413847   2.696   0.552  14.217  0.2642  0.3192  0.7926
    3TMC2    C513848   2.658   0.675  14.181  0.6560 -0.1549  0.2871
    3TMC2    C613849   2.529   0.717  14.206 -0.8155 -0.3505  0.5429
    3TMC2     C13850   2.653   0.325  14.286  0.4160 -0.2044  0.4450
    3TMC2     O13851   2.572   0.231  14.274  0.1541  0.1312  0.0506
    3TMC2     H13852   2.405   0.417  14.286  0.6061 -1.5037 -0.2054
    3TMC2    H113853   2.799   0.537  14.188 -0.1106 -0.3851 -0.1872
    3TMC2    H213854   2.495   0.818  14.186  3.0056  0.8792  0.2515
    3TMC2    C713855   2.757   0.771  14.121  0.3359  0.1674 -0.2238
    3TMC2    C813856   2.296   0.646  14.239 -0.8288  0.3867  0.3433
    3TMC2    O113857   2.874   0.753  14.149 -0.9106  0.2941  0.7234
    3TMC2    O213858   2.217   0.584  14.315 -0.3534 -0.8083  1.0763
    3TMC2    O513859   2.281   0.685  14.113  0.0247  0.2481 -0.1314
    3TMC2    H513860   2.360   0.717  14.067 -0.5357 -0.6537 -1.7160
    4MPD2     C13861   1.649   1.594  13.518 -0.1901  1.1436  1.0663
    4MPD2    C113862   1.726   1.633  13.409 -0.0025 -0.0510  0.2413
    4MPD2    C213863   1.865   1.610  13.405  0.2332  0.1205 -0.0110
    4MPD2    C313864   1.923   1.567  13.520 -0.9330 -0.3715 -0.1269
    4MPD2    C413865   1.849   1.540  13.631 -0.1514 -0.1144 -0.6811
    4MPD2    C513866   1.711   1.546  13.628  0.7535 -0.3534 -0.0890
    4MPD2     H13867   1.924   1.643  13.321  1.7884 -2.8637 -0.1164
    4MPD2    H113868   1.899   1.522  13.726  0.0589 -1.0654 -0.9698
    4MPD2    H213869   1.542   1.612  13.523 -0.6504 -1.8750  1.6654
    4MPD2    H313870   1.662   1.523  13.721  0.4445  0.0400 -0.1559
    4MPD2     N13871   2.065   1.549  13.514  0.0567  0.2500 -0.1452
    4MPD2    H513872   2.108   1.561  13.422 -0.8710  1.0613 -0.4678
    4MPD2    N113873   1.655   1.705  13.308  0.5289  1.0200 -0.0561
    4MPD2    H713874   1.556   1.715  13.325  0.3257  2.0254 -1.8444
    5TCq2    C113875   2.140   1.491  13.618  0.4160 -0.2953 -0.3401
    5TCq2    O213876   2.100   1.432  13.718  0.0884 -0.1004  0.0309
    5TCq2    C213877   2.283   1.466  13.589 -0.4260  0.9330  0.2484
    5TCq2    C313878   2.347   1.543  13.494  0.5017 -0.2623  0.5485
    5TCq2    C413879   2.478   1.516  13.478  0.1797 -0.7019  0.3297
    5TCq2    C513880   2.552   1.433  13.562 -0.2766 -0.5095 -0.0482
    5TCq2    C613881   2.481   1.376  13.662 -0.8594  0.5777 -0.5639
    5TCq2    C713882   2.343   1.383  13.673 -0.6144 -0.3863 -0.4650
    5TCq2    C813883   2.532   1.250  13.732 -1.6032  0.3455  0.3301
    5TCq2    O413884   2.446   1.175  13.768  0.1381  0.0314  0.0214
    5TCq2    C913885   2.536   1.569  13.362  0.8444  0.3686 -0.0497
    5TCq2    O513886   2.462   1.578  13.267 -0.3966 -0.1098  1.0330
    5TCq2    O613887   2.659   1.545  13.348 -0.3753  0.2892  0.1369
    5TCq2    H213888   2.286   1.596  13.422  1.0720  0.2262  0.4246
    5TCq2    H313889   2.658   1.417  13.546  0.0755  0.0679  1.7331
    5TCq2    H413890   2.296   1.338  13.760  0.5012 -2.8229 -1.1209
    6MPD1     C13891   1.309   3.494  12.848  0.7274 -0.6136 -0.1958
    6MPD1    C113892   1.374   3.426  12.746 -0.0242  0.1944 -1.1779
    6MPD1    C213893   1.347   3.288  12.739  0.1543  1.0561 -0.6740
    6MPD1    C313894   1.256   3.231  12.829  0.4943  0.2961  0.2626
    6MPD1    C413895   1.192   3.307  12.926  0.5002  0.2659  0.8853
    6MPD1    C513896   1.233   3.437  12.947  0.2933 -0.0284  0.6173
    6MPD1     H13897   1.391   3.226  12.662 -1.4952  0.0667 -0.8342
    6MPD1    H113898   1.119   3.269  12.997  1.5326 -1.9923  0.7220
    6MPD1    H213899   1.317   3.602  12.858 -1.5997 -0.3992 -0.7275
    6MPD1    H313900   1.186   3.497  13.024 -0.9460  1.1011 -1.0142
    6MPD1     N13901   1.209   3.097  12.829 -0.4727  0.3035  1.2881
    6MPD1    H513902   1.141   3.076  12.901 -2.0882  0.9549 -0.0621
    6MPD1    N113903   1.440   3.488  12.645  0.5076 -0.4365 -0.6346
    6MPD1    H613904   1.510   3.428  12.602 -2.1388 -2.5662 -1.8991
    6MPD1    H713905   1.465   3.583  12.673 -2.6451  1.2009 -3.3720
    7MPD2     C13906   1.264   2.511  13.328 -0.5151  0.6173  0.0354
    7MPD2    C113907   1.281   2.474  13.197 -0.2055  0.1995 -0.2751
    7MPD2    C213908   1.311   2.340  13.176  0.9652  0.3153  0.6269
    7MPD2    C313909   1.328   2.245  13.275 -0.0543  0.0186 -0.2966
    7MPD2    C413910   1.322   2.294  13.402  0.3927 -0.3366  0.2834
    7MPD2    C513911   1.296   2.422  13.424 -0.4412 -0.5137  0.2514
    7MPD2     H13912   1.304   2.314  13.071  0.5066  0.9075  0.5085
    7MPD2    H113913   1.325   2.233  13.491  3.6253  0.1683  0.4969
    7MPD2    H213914   1.227   2.608  13.359 -0.9645  0.0216  1.3623
    7MPD2    H313915   1.289   2.455  13.527  0.4108  2.9959 -0.7980
    7MPD2     N13916   1.345   2.101  13.255 -0.0449 -0.0321  0.2926
    7MPD2    H513917   1.383   2.042  13.328  0.7011  1.7060  1.3123
    7MPD2    N113918   1.251   2.555  13.091  0.3948  0.1569 -0.2663
    7MPD2    H713919   1.288   2.517  13.005  1.1645  0.5813 -0.1150
    8TMC3    C113920   1.378   1.909  13.121  0.2705 -0.1730 -0.2281
    8TMC3    C213921   1.494   1.891  13.190  0.4461  0.1720  1.2137
    8TMC3    C313922   1.599   1.830  13.123  0.1514  0.5907  0.6153
    8TMC3    C413923   1.370   1.876  12.990 -0.2961  0.6128 -0.1571
    8TMC3    C513924   1.475   1.834  12.916  0.8995 -0.1274 -0.4297
    8TMC3    C613925   1.593   1.817  12.987  0.4071  0.2729 -0.0100
    8TMC3     C13926   1.322   2.042  13.135 -0.0653  0.4711  0.5470
    8TMC3     O13927   1.284   2.094  13.030 -0.1472  0.9455 -0.1083
    8TMC3     H13928   1.510   1.913  13.295  3.1006  1.2996  0.5721
    8TMC3    H113929   1.266   1.876  12.958  0.4493  0.5212 -2.5416
    8TMC3    H213930   1.674   1.783  12.923 -1.1007  0.2087 -1.8714
    8TMC3    C713931   1.476   1.893  12.785  0.1195 -0.0038 -0.0661
    8TMC3    C813932   1.705   1.767  13.194 -0.1278  0.4738  0.0076
    8TMC3    O113933   1.561   1.872  12.702  0.1339 -0.4137 -0.1823
    8TMC3    O213934   1.816   1.768  13.142  0.0048 -0.0729  0.4685
    9TMC3    C113935   1.203   2.867  12.783 -0.3721 -0.3047 -0.4306
    9TMC3    C213936   1.203   2.766  12.684  0.0318 -0.1170 -0.3882
    9TMC3    C313937   1.175   2.638  12.722 -0.0422 -0.2172  0.1418
    9TMC3    C413938   1.177   2.848  12.918 -0.7830 -0.3899 -0.2858
    9TMC3    C513939   1.159   2.717  12.949 -0.8104  0.1231  0.0898
    9TMC3    C613940   1.160   2.616  12.853 -0.2880 -0.2583  0.3866
    9TMC3     C13941   1.264   2.990  12.747  0.3102  0.0679  0.0555
    9TMC3     O13942   1.339   3.000  12.650 -0.8908 -0.8540  0.1053
    9TMC3     H13943   1.236   2.785  12.583  2.8975  1.9595  0.9460
    9TMC3    H113944   1.168   2.932  12.985 -2.5812  0.6404 -1.7996
    9TMC3    H213945   1.137   2.516  12.886 -1.2376 -0.6105 -1.3353
    9TMC3    C713946   1.193   2.678  13.082 -0.3520 -0.1416  0.2866
    9TMC3    C813947   1.207   2.537  12.628 -0.7188 -0.8462  0.2689
    9TMC3    O113948   1.151   2.755  13.169  0.6597  0.0976 -0.4146
    9TMC3    O213949   1.218   2.566  12.510 -0.7572  0.2504  0.0868
   10MPD2     C13950   1.401   2.060  12.549 -0.1284  0.4550  0.0921
   10MPD2    C113951   1.365   2.077  12.680  0.6093  0.2257 -0.5805
   10MPD2    C213952   1.295   2.191  12.715  0.0880  0.3942 -0.0068
   10MPD2    C313953   1.270   2.295  12.630 -0.0150 -0.5471  0.1459
   10MPD2    C413954   1.318   2.283  12.502 -0.7108  0.4382 -0.3380
   10MPD2    C513955   1.375   2.166  12.458  0.0778 -0.6213 -0.4726
   10MPD2     H13956   1.266   2.194  12.820  2.5685  0.3430  0.6817
   10MPD2    H113957   1.300   2.365  12.432 -2.0457  2.1929  2.0628
   10MPD2    H213958   1.448   1.968  12.517  0.2367  0.6993 -0.0744
   10MPD2    H313959   1.408   2.150  12.356 -1.5229  0.9477 -1.2326
   10MPD2     N13960   1.209   2.413  12.689 -0.5004 -0.0986  0.5049
   10MPD2    H513961   1.176   2.399  12.783  0.0158 -1.6038  0.4733
   10MPD2    N113962   1.388   1.993  12.786  0.2418  0.3164 -0.0349
   10MPD2    H713963   1.342   2.011  12.875  0.0482 -0.3031 -0.0066
   11MPD2     C13964   2.904   0.988  13.963 -0.3330 -0.0399  0.0924
   11MPD2    C113965   2.768   0.965  13.962 -0.1937 -0.2292 -0.1351
   11MPD2    C213966   2.692   1.055  13.887  0.6077  0.2734  0.0062
   11MPD2    C313967   2.750   1.159  13.815  0.4280  0.5696  0.5640
   11MPD2    C413968   2.889   1.171  13.814  0.4408 -0.1260 -0.3441
   11MPD2    C513969   2.964   1.088  13.893  0.0342 -0.1763  0.5070
   11MPD2     H13970   2.585   1.060  13.901  0.4245 -0.4655 -1.1616
   11MPD2    H113971   2.937   1.257  13.769  0.5732 -0.5933 -1.0817
   11MPD2    H213972   2.974   0.927  14.019 -0.0613 -0.0233 -0.2295
   11MPD2    H313973   3.072   1.098  13.888 -0.0551 -1.4416 -3.7051
   11MPD2     N13974   2.667   1.258  13.753 -0.3424 -0.8360  0.7898
   11MPD2    H513975   2.713   1.346  13.732 -2.1690 -0.4096 -1.4384
   11MPD2    N113976   2.701   0.866  14.038  0.5034  0.2284  0.2530
   11MPD2    H713977   2.601   0.855  14.028  0.2373 -0.1111  3.2934
    1MPD1     C13978   0.904   2.022   0.017  0.1375  0.8410 -0.5509
    1MPD1    C113979   0.836   2.141  17.686 -0.6753 -0.4994  0.0434
    1MPD1    C213980   0.789   2.158  17.558 -0.0082 -0.5466  0.0795
    1MPD1    C313981   0.836   2.068  17.453 -0.7072 -0.0262  0.4102
    1MPD1    C413982   0.919   1.961  17.488  0.0055 -0.0329  0.4055
    1MPD1    C513983   0.957   1.946  17.615  0.3502 -0.3993 -0.0036
    1MPD1     H13984   0.724   2.239  17.527 -1.2935 -0.9233  1.8140
    1MPD1    H113985   0.958   1.893  17.414 -0.2680  1.1140 -0.8067
    1MPD1    H213986   0.939   2.004   0.118  2.1948 -1.5922 -1.6823
    1MPD1    H313987   1.030   1.869  17.638  1.3053  0.6207  0.3869
    1MPD1     N13988   0.797   2.069  17.321  0.0552  0.4867  0.0636
    1MPD1    H513989   0.805   1.977  17.278 -0.5592 -0.0739  1.1547
    1MPD1    N113990   0.792   2.213   0.107 -0.3493 -0.1114  0.8399
    1MPD1    H613991   0.836   2.187   0.195 -1.2700 -1.0109  1.0330
    1MPD1    H713992   0.779   2.314   0.100 -1.4196 -0.4386 -2.0591
    2MPD1     C13993   1.125   1.616  16.664 -0.2395  0.2980 -0.2133
    2MPD1    C113994   1.161   1.687  16.776 -0.5596 -0.6095 -0.1230
    2MPD1    C213995   1.076   1.781  16.829  0.0888 -0.5786 -0.5037
    2MPD1    C313996   0.949   1.784  16.786  0.2960  0.1518 -0.0459
    2MPD1    C413997   0.910   1.715  16.678  1.0587  0.4129  0.8677
    2MPD1    C513998   1.002   1.633  16.613 -0.0412  0.0384  0.8388
    2MPD1     H13999   1.114   1.845  16.908  1.8232 -1.7890 -0.3248
    2MPD1    H114000   0.814   1.734  16.632  0.7452 -0.4977  1.1559
    2MPD1    H214001   1.194   1.552  16.610 -1.1431  0.0058 -1.0054
    2MPD1    H314002   0.968   1.572  16.530  0.1860  1.0683 -0.0016
    2MPD1     N14003   0.860   1.875  16.859 -0.1090 -0.5632 -0.3298
    2MPD1    H514004   0.912   1.942  16.914 -0.2614  0.2700 -1.1899
    2MPD1    N114005   1.300   1.693  16.798  0.2064 -0.0563  0.7618
    2MPD1    H614006   1.328   1.595  16.800  0.5767  0.0223 -0.7858
    2MPD1    H714007   1.323   1.732  16.889 -1.6291  1.3360  0.6214
    3TMC3    C114008   0.662   1.977  16.930 -0.0617 -0.1362 -0.0355
    3TMC3    C214009   0.530   1.999  16.904 -0.1312  0.3614  0.6788
    3TMC3    C314010   0.456   2.061  17.005 -0.4144 -0.0772  0.2894
    3TMC3    C414011   0.721   2.022  17.045 -0.2022 -0.2728 -0.5102
    3TMC3    C514012   0.646   2.101  17.133  0.7714  0.1972 -0.2566
    3TMC3    C614013   0.513   2.120  17.116  0.9292  0.3258 -0.2691
    3TMC3     C14014   0.725   1.870  16.853 -0.2790  0.2626  0.9418
    3TMC3     O14015   0.647   1.781  16.819  0.6090 -0.1033  0.4631
    3TMC3     H14016   0.482   1.962  16.815 -1.6877  0.3197  1.5479
    3TMC3    H114017   0.817   1.984  17.076 -0.6077  1.0159  2.3921
    3TMC3    H214018   0.453   2.183  17.180  0.0177 -0.1170 -0.6936
    3TMC3    C714019   0.698   2.149  17.262  0.0778  0.0536 -0.0106
    3TMC3    C814020   0.331   2.119  16.969 -0.6899  0.8103  0.2398
    3TMC3    O114021   0.645   2.253  17.304 -0.8380 -0.1028  0.4995
    3TMC3    O214022   0.286   2.222  17.025  0.7991  0.1145  0.7176
    4MPD1     C14023   4.585   2.052  16.767  0.1704 -0.2274 -0.0186
    4MPD1    C114024   4.648   1.933  16.752  0.0270 -0.0321 -0.2255
    4MPD1    C214025   0.051   1.921  16.811  0.1838  0.3665  0.1722
    4MPD1    C314026   0.123   2.034  16.862 -0.1165 -0.8560 -0.0512
    4MPD1    C414027   0.053   2.152  16.872  0.1903 -0.1273  0.0913
    4MPD1    C514028   4.650   2.160  16.820  0.3790  0.6653  0.3517
    4MPD1     H14029   0.106   1.829  16.794 -0.2606  0.5184 -1.9702
    4MPD1    H114030   0.100   2.248  16.892 -1.4700  0.2748  2.0590
    4MPD1    H214031   4.487   2.070  16.724  1.1397  4.7000 -0.2505
    4MPD1    H314032   4.600   2.256  16.821 -0.4337  0.2682 -2.2519
    4MPD1     N14033   0.257   2.020  16.900 -0.2938 -0.2974 -0.5180
    4MPD1    H514034   0.297   1.927  16.889  0.4352 -0.0387 -0.0737
    4MPD1    N114035   4.578   1.829  16.690  0.0353 -0.0702  0.0100
    4MPD1    H614036   4.501   1.870  16.638  0.1559  0.6159  0.3732
    4MPD1    H714037   4.537   1.768  16.760 -0.0403 -0.6580 -0.5489
    1TCq1    O114038   0.709   2.255  10.643  0.2142  0.0485 -0.1270
    1TCq1    C114039   0.840   2.230  10.680 -0.0208  0.2247 -0.0365
    1TCq1    O214040   0.939   2.300  10.660 -0.0941 -0.4197 -0.3053
    1TCq1    C214041   0.831   2.139  10.788  0.2882  0.0274 -0.6421
    1TCq1    C314042   0.919   2.168  10.881  0.4851  0.7084 -0.5632
    1TCq1    C414043   0.949   2.079  10.982 -0.7659  1.0192 -0.3720
    1TCq1    C514044   0.883   1.961  10.987 -0.2959  0.3428  1.1207
    1TCq1    C614045   0.802   1.934  10.881 -0.3918 -0.2478  0.1404
    1TCq1    C714046   0.772   2.021  10.778 -0.3783  0.4652 -0.0950
    1TCq1    C814047   0.746   1.802  10.867  0.1975  0.1049  0.1576
    1TCq1    O414048   0.647   1.792  10.796 -0.4713 -0.6912  0.1427
    1TCq1    C914049   0.990   2.125  11.113  0.1770  0.4060 -0.2953
    1TCq1    O514050   1.012   2.029  11.195  0.0081 -0.5493 -0.2816
    1TCq1    O614051   0.988   2.252  11.133 -0.5584  0.0755  0.8579
    1TCq1    H114052   0.650   2.211  10.708 -0.2092 -1.1499 -1.3391
    1TCq1    H214053   0.954   2.270  10.896 -0.4575  1.0073 -0.4050
    1TCq1    H314054   0.884   1.905  11.080 -0.5682 -0.2725  0.7536
    1TCq1    H414055   0.710   1.989  10.696  0.7844 -0.2306 -0.6967
    2MPD1     C14056   0.666   1.322  11.061 -0.6009 -0.3234  0.1342
    2MPD1    C114057   0.772   1.380  11.123 -0.3933  0.1173 -0.0106
    2MPD1    C214058   0.816   1.509  11.088  0.1533  0.3532  0.3370
    2MPD1    C314059   0.754   1.579  10.992 -0.1544  0.0727 -0.2738
    2MPD1    C414060   0.664   1.509  10.919 -0.2229  0.4720  0.0722
    2MPD1    C514061   0.619   1.384  10.951 -0.3021  0.5391 -0.0607
    2MPD1     H14062   0.902   1.551  11.140 -0.0590  1.8057 -0.4917
    2MPD1    H114063   0.619   1.551  10.829 -1.2844  0.2347  0.4918
    2MPD1    H214064   0.623   1.226  11.089  0.0076 -0.4300  0.7110
    2MPD1    H314065   0.537   1.347  10.891 -0.1402 -0.3549  0.2658
    2MPD1     N14066   0.800   1.710  10.957 -0.0249 -0.1155  0.4340
    2MPD1    H514067   0.871   1.745  11.020 -0.6117  1.6449  0.1275
    2MPD1    N114068   0.813   1.310  11.236 -0.1681  0.3118  0.2181
    2MPD1    H614069   0.799   1.211  11.220  0.2430 -0.1072  2.4088
    2MPD1    H714070   0.907   1.345  11.254 -0.3501  1.6063 -1.3211
    1TCq1    O114071   3.725   2.433  10.050 -0.2339 -0.5884 -0.1868
    1TCq1    C114072   3.745   2.528   9.954 -0.4139 -0.4055  0.2767
    1TCq1    O214073   3.827   2.617   9.969  0.2481 -0.5150  0.4749
    1TCq1    C214074   3.739   2.460   9.832  0.2870 -0.4449  1.5584
    1TCq1    C314075   3.832   2.489   9.730 -0.1625 -0.8204  0.1888
    1TCq1    C414076   3.818   2.424   9.614 -0.3336 -0.4172  0.0253
    1TCq1    C514077   3.698   2.366   9.582 -0.5671  0.7912 -0.4352
    1TCq1    C614078   3.605   2.352   9.676  0.0826 -0.5534  0.0247
    1TCq1    C714079   3.623   2.389   9.808 -0.0600  0.4915  0.6225
    1TCq1    C814080   3.469   2.321   9.641 -1.0462  0.1667 -0.0627
    1TCq1    O414081   3.389   2.294   9.728 -0.1823 -0.4290  0.4264
    1TCq1    C914082   3.902   2.468   9.500  0.5450 -0.5142 -0.3731
    1TCq1    O514083   4.006   2.537   9.525 -1.0302  0.2637 -0.2930
    1TCq1    O614084   3.867   2.420   9.387 -0.2934 -0.2445 -0.7137
    1TCq1    H114085   3.665   2.357  10.034 -0.8526  0.2811 -1.9951
    1TCq1    H214086   3.919   2.545   9.761  1.4290 -2.3658 -1.5174
    1TCq1    H314087   3.680   2.316   9.487 -3.6978  2.7461 -0.8666
    1TCq1    H414088   3.538   2.402   9.875 -0.8544 -1.7591  0.0494
    2MPD1     C14089   3.099   2.287   9.289  0.5338  0.1989  0.1341
    2MPD1    C114090   3.203   2.359   9.235  0.4398  0.3469  0.4104
    2MPD1    C214091   3.314   2.368   9.310 -0.2664 -0.1673 -0.3892
    2MPD1    C314092   3.321   2.320   9.441 -0.1037  0.4423 -0.5423
    2MPD1    C414093   3.213   2.260   9.493 -0.3959 -0.5514  0.0369
    2MPD1    C514094   3.100   2.246   9.420 -0.7404 -0.5102  1.2935
    2MPD1     H14095   3.398   2.423   9.268  0.4981 -0.3601  0.8844
    2MPD1    H114096   3.201   2.232   9.597  0.9192  1.7729  0.8209
    2MPD1    H214097   3.009   2.275   9.230  2.4089 -0.4673 -2.5784
    2MPD1    H314098   3.009   2.205   9.462 -1.2000 -1.2400 -0.3886
    2MPD1     N14099   3.445   2.349   9.507 -0.0052 -0.4323 -0.3860
    2MPD1    H514100   3.515   2.404   9.456 -0.1588  0.0152 -0.1157
    2MPD1    N114101   3.203   2.387   9.093 -0.4027 -0.1023 -0.2756
    2MPD1    H614102   3.115   2.406   9.047 -0.8885 -0.1487  0.6481
    2MPD1    H714103   3.277   2.453   9.068 -1.0130  0.2529 -1.1177
    1MPD1     C14104   3.032   2.048  11.569  0.3123 -0.6146 -0.0825
    1MPD1    C114105   3.104   2.017  11.683 -0.5536  0.4268  0.0713
    1MPD1    C214106   3.242   2.004  11.666 -0.1519 -0.1953  0.1889
    1MPD1    C314107   3.305   2.011  11.546  0.4418  0.0922 -0.2349
    1MPD1    C414108   3.227   2.016  11.437  0.0075  0.1007 -0.4185
    1MPD1    C514109   3.094   2.043  11.445  0.9750  0.9296 -0.7260
    1MPD1     H14110   3.298   2.001  11.760 -1.3888 -0.6373  0.9081
    1MPD1    H114111   3.273   2.017  11.339 -1.7570 -0.6921 -1.2628
    1MPD1    H214112   2.926   2.075  11.571  1.1287  2.7182 -1.6923
    1MPD1    H314113   3.047   2.068  11.351  0.5839 -0.6891 -0.9581
    1MPD1     N14114   3.438   1.988  11.541  0.7908  0.5418  0.1296
    1MPD1    H514115   3.492   1.953  11.619 -0.2255  1.1528  1.0867
    1MPD1    N114116   3.044   2.030  11.808  0.0503  0.2073  0.1137
    1MPD1    H614117   3.106   1.997  11.882  0.2933  2.5954  0.9573
    1MPD1    H714118   2.950   1.991  11.818  0.3376  0.1997  2.7444
    2MPD1     C14119   2.466   2.457  12.168 -0.8764 -0.5682 -0.5649
    2MPD1    C114120   2.399   2.373  12.077 -0.2938 -0.1877  0.3045
    2MPD1    C214121   2.470   2.325  11.971 -0.1884  0.6624 -0.0577
    2MPD1    C314122   2.605   2.354  11.956 -0.3199  0.2141  0.1601
    2MPD1    C414123   2.670   2.427  12.053  0.2210 -0.3911 -0.7184
    2MPD1    C514124   2.601   2.472  12.161 -0.1021  0.1021  0.0150
    2MPD1     H14125   2.409   2.269  11.901 -1.0933  0.9690  0.4821
    2MPD1    H114126   2.768   2.465  12.026 -0.9172  1.9950 -1.4203
    2MPD1    H214127   2.421   2.490  12.260  1.4177 -0.2311  0.4463
    2MPD1    H314128   2.646   2.529  12.241 -1.7744  0.8104  0.4356
    2MPD1     N14129   2.681   2.323  11.843 -0.1654  0.8387  0.3363
    2MPD1    H514130   2.780   2.344  11.844  0.3843 -1.7123 -0.7586
    2MPD1    N114131   2.281   2.299  12.112  0.0299 -0.4994  0.0788
    2MPD1    H614132   2.225   2.355  12.176 -0.0471 -1.8690  1.2162
    2MPD1    H714133   2.226   2.285  12.027  1.1912  1.9379 -1.0629
    3MPD1     C14134   2.642   1.982  10.793 -0.4689  0.4152  0.0746
    3MPD1    C114135   2.766   2.036  10.814 -0.2247 -0.3667  0.6387
    3MPD1    C214136   2.804   2.065  10.938 -0.3398 -0.2392 -0.2089
    3MPD1    C314137   2.715   2.065  11.044  0.6682 -0.3042  0.1539
    3MPD1    C414138   2.600   1.990  11.023  0.2844  0.8843 -1.1077
    3MPD1    C514139   2.569   1.944  10.900 -0.2118  0.0865  0.8274
    3MPD1     H14140   2.901   2.113  10.940 -1.2572  1.6679 -0.9735
    3MPD1    H114141   2.529   1.967  11.102  0.2200  0.7081 -1.2169
    3MPD1    H214142   2.615   1.936  10.698  1.8949  1.7466 -1.2243
    3MPD1    H314143   2.469   1.904  10.885  0.0949 -0.3917  0.0533
    3MPD1     N14144   2.749   2.123  11.172 -0.0823  1.3070 -0.2128
    3MPD1    H514145   2.824   2.191  11.170  1.5341 -0.4193  1.3150
    3MPD1    N114146   2.841   2.080  10.708  0.1023  0.3436 -0.4109
    3MPD1    H614147   2.941   2.081  10.726 -0.1537  1.2116  0.9877
    3MPD1    H714148   2.824   2.025  10.625 -2.8851  1.1651 -0.3745
    4MPD2     C14149   3.761   2.544  11.698 -0.0364 -0.1818  0.2283
    4MPD2    C114150   3.770   2.496  11.570 -0.5772 -0.2556  0.0403
    4MPD2    C214151   3.761   2.578  11.467 -0.4286 -0.4968 -0.6850
    4MPD2    C314152   3.746   2.711  11.486 -0.8646  0.2266  0.9411
    4MPD2    C414153   3.752   2.758  11.612  0.6634 -0.2764  0.0302
    4MPD2    C514154   3.737   2.676  11.722 -0.6051 -0.4727 -0.7310
    4MPD2     H14155   3.762   2.533  11.369  0.5206 -1.8023 -0.0685
    4MPD2    H114156   3.759   2.861  11.644 -2.1786  0.4050 -1.4892
    4MPD2    H214157   3.750   2.480  11.785 -3.5233  1.0224  0.6688
    4MPD2    H314158   3.733   2.719  11.821  0.7416 -3.4780  0.6395
    4MPD2     N14159   3.733   2.807  11.382 -0.2472  0.1181  0.1199
    4MPD2    H514160   3.715   2.903  11.410 -1.9667 -0.1711  0.0565
    4MPD2    N114161   3.788   2.353  11.552 -0.1472  0.6752 -0.6176
    4MPD2    H714162   3.791   2.323  11.455  2.9337  0.9600 -0.6342
    5TMC3    C114163   3.805   2.122  11.582 -0.6068  0.1806  0.8378
    5TMC3    C214164   3.688   2.052  11.576 -0.1046 -0.2711 -0.4061
    5TMC3    C314165   3.656   1.991  11.452 -0.3970 -0.4670  0.4141
    5TMC3    C414166   3.876   2.135  11.464  0.8004 -0.4141 -0.8755
    5TMC3    C514167   3.831   2.086  11.347  0.1522  0.7664  0.2213
    5TMC3    C614168   3.726   1.998  11.337  0.1605 -0.6688 -0.3547
    5TMC3     C14169   3.805   2.251  11.647 -0.1075  0.2435  0.3610
    5TMC3     O14170   3.809   2.255  11.769  0.5962  0.0413 -0.3646
    5TMC3     H14171   3.636   2.057  11.671 -0.6871 -0.1901 -0.7296
    5TMC3    H114172   3.955   2.209  11.471  1.3337 -1.3054  2.7702
    5TMC3    H214173   3.692   1.961  11.240 -2.1283  0.0208  0.1891
    5TMC3    C714174   3.844   2.189  11.246 -0.1020 -0.0909 -0.3409
    5TMC3    C814175   3.514   1.998  11.422  0.7907  1.2692 -0.4269
    5TMC3    O114176   3.871   2.304  11.281  0.0988  0.4567  0.2076
    5TMC3    O214177   3.493   2.041  11.310 -0.3455 -0.2711 -0.4468
    6TMC3    C114178   2.732   2.247  11.629  0.2300 -0.7092 -0.6844
    6TMC3    C214179   2.693   2.164  11.533 -0.4594  0.7658 -0.1710
    6TMC3    C314180   2.732   2.193  11.406 -1.1407  0.3554 -0.4509
    6TMC3    C414181   2.797   2.362  11.603  0.8757 -1.1593  0.8478
    6TMC3    C514182   2.834   2.391  11.475 -0.3614  0.4430  0.4097
    6TMC3    C614183   2.797   2.312  11.373  0.0419 -0.7960 -0.1476
    6TMC3     C14184   2.630   2.259  11.733 -0.4396  0.2924  0.9054
    6TMC3     O14185   2.521   2.211  11.708 -0.0656  0.4629 -0.1449
    6TMC3     H14186   2.631   2.081  11.564  0.1977  0.4960  0.4445
    6TMC3    H114187   2.816   2.430  11.685  1.4786 -3.0954  2.3139
    6TMC3    H214188   2.808   2.347  11.271  0.9457 -1.4516 -0.2705
    6TMC3    C714189   2.948   2.479  11.445  1.0052 -0.3722 -0.3416
    6TMC3    C814190   2.680   2.110  11.293 -0.3887  0.0966  0.9914
    6TMC3    O114191   2.955   2.532  11.336  0.3068 -0.1037 -0.2283
    6TMC3    O214192   2.593   2.025  11.321  0.5890  0.4607 -0.4817
    7MPD2     C14193   3.651   2.381  10.819 -0.5869  1.0088  0.0227
    7MPD2    C114194   3.701   2.444  10.929 -0.2478 -0.4134 -0.1196
    7MPD2    C214195   3.755   2.370  11.028 -0.1978 -0.0781  0.0216
    7MPD2    C314196   3.768   2.226  11.012 -0.2823 -0.1816 -0.7484
    7MPD2    C414197   3.713   2.166  10.896  0.0939  0.0251  1.0176
    7MPD2    C514198   3.643   2.243  10.809 -0.1989 -0.1142 -0.2273
    7MPD2     H14199   3.787   2.419  11.119 -1.1599 -0.3505  0.5037
    7MPD2    H114200   3.705   2.058  10.893  1.7758 -0.1491  2.3049
    7MPD2    H214201   3.606   2.432  10.735  0.8960 -0.4112 -1.6588
    7MPD2    H314202   3.598   2.193  10.724  0.2993 -0.5788 -0.2227
    7MPD2     N14203   3.807   2.142  11.119 -0.1377 -0.3021 -0.9151
    7MPD2    H514204   3.817   2.042  11.103  0.4772 -0.2673 -0.7410
    7MPD2    N114205   3.681   2.582  10.956  0.1251  0.6075 -0.2345
    7MPD2    H714206   3.719   2.627  11.039  0.7443 -0.7206  0.2067
    8TMC3    C114207   3.585   2.797  10.967 -0.3439 -0.3056  0.3888
    8TMC3    C214208   3.457   2.809  11.023 -0.1355  0.3663  0.3239
    8TMC3    C314209   3.451   2.850  11.148 -0.1400 -0.5424  0.1030
    8TMC3    C414210   3.695   2.819  11.038  0.0279 -0.0025 -0.4117
    8TMC3    C514211   3.681   2.869  11.164 -0.1833 -0.5125 -0.3417
    8TMC3    C614212   3.561   2.891  11.220 -0.4113  0.3485 -0.0664
    8TMC3     C14213   3.595   2.670  10.893  0.5529  0.0107  0.0792
    8TMC3     O14214   3.509   2.647  10.806 -0.1303 -0.0441 -0.4137
    8TMC3     H14215   3.366   2.782  10.971 -0.6980  2.3253  0.2718
    8TMC3    H114216   3.797   2.806  11.005 -0.3632 -1.8787 -0.8889
    8TMC3    H214217   3.544   2.963  11.300 -0.7454  1.4068 -1.0807
    8TMC3    C714218   3.754   2.778  11.253 -0.4482  0.2155 -0.2207
    8TMC3    C814219   3.346   2.788  11.238 -0.4950 -0.0638 -1.0069
    8TMC3    O114220   3.811   2.681  11.202 -0.3754 -0.0350 -0.7361
    8TMC3    O214221   3.251   2.728  11.180  0.2204  0.5303 -0.2341
    9MPD2     C14222   3.365   2.719  11.600 -1.2386  0.3164  0.1571
    9MPD2    C114223   3.323   2.698  11.476  0.3003  1.0312 -0.3774
    9MPD2    C214224   3.215   2.613  11.448  0.7604 -0.4230  0.3453
    9MPD2    C314225   3.151   2.564  11.557  1.1981 -0.4852  0.8664
    9MPD2    C414226   3.199   2.578  11.684  0.6366 -0.2176 -0.4730
    9MPD2    C514227   3.310   2.657  11.708  0.0160  0.1547 -0.9232
    9MPD2     H14228   3.172   2.588  11.352  0.2507  2.3758 -0.1444
    9MPD2    H114229   3.140   2.556  11.771  3.0697 -2.5105  0.5895
    9MPD2    H214230   3.435   2.801  11.616 -0.1117 -0.8128  1.0832
    9MPD2    H314231   3.336   2.701  11.804 -0.4578  2.5154 -1.8805
    9MPD2     N14232   3.028   2.491  11.554 -0.0213 -0.3091 -0.2966
    9MPD2    H514233   2.986   2.457  11.640 -3.3798 -0.1675 -1.8905
    9MPD2    N114234   3.387   2.778  11.370  0.2246  0.2102  0.1650
    9MPD2    H714235   3.474   2.825  11.391 -0.1676  1.0409 -0.0628
    1MPD1     C14236   2.593   1.412   0.396 -0.4470 -0.3750 -0.7152
    1MPD1    C114237   2.662   1.355   0.292 -0.1601 -0.3714 -0.0692
    1MPD1    C214238   2.647   1.220   0.268  0.1302 -0.6199 -0.7302
    1MPD1    C314239   2.585   1.140   0.364 -0.0775  0.0997  0.4707
    1MPD1    C414240   2.535   1.193   0.482  0.1918 -0.0556  0.7423
    1MPD1    C514241   2.532   1.333   0.488  0.5034  0.0081  0.2513
    1MPD1     H14242   2.691   1.177   0.178  2.3135  1.1139 -0.4804
    1MPD1    H114243   2.487   1.132   0.557 -0.4786 -1.1271 -0.5593
    1MPD1    H214244   2.580   1.518   0.410 -0.3105 -0.5388  0.7439
    1MPD1    H314245   2.478   1.374   0.573 -2.2881 -2.6180 -0.2169
    1MPD1     N14246   2.564   1.001   0.352 -0.1686  0.3415  0.8307
    1MPD1    H514247   2.521   0.955   0.432 -2.3397  0.8307 -0.0539
    1MPD1    N114248   2.715   1.425   0.186  0.3348 -0.3194  0.0391
    1MPD1    H614249   2.781   1.367   0.135  1.2369 -0.0175  0.8430
    1MPD1    H714250   2.757   1.513   0.217 -1.1645  0.3389  0.2131
    2MPD1     C14251   2.305   0.481  17.227 -0.0145 -0.3503 -0.7353
    2MPD1    C114252   2.326   0.617  17.260  0.7401  0.6458  0.2112
    2MPD1    C214253   2.361   0.653  17.391  0.1755  0.4412 -0.4048
    2MPD1    C314254   2.386   0.552  17.481 -0.6396  0.4768  0.2758
    2MPD1    C414255   2.369   0.424  17.442  0.6534 -0.5354 -0.0227
    2MPD1    C514256   2.326   0.391  17.317 -0.5561  0.3358  0.2478
    2MPD1     H14257   2.370   0.756  17.424 -1.9147 -0.1793  2.0997
    2MPD1    H114258   2.375   0.340  17.511 -0.1580  0.2051  0.9555
    2MPD1    H214259   2.276   0.453  17.126  1.9831  0.0451 -1.4323
    2MPD1    H314260   2.306   0.287  17.292 -3.2613  1.0803 -0.6530
    2MPD1     N14261   2.426   0.596  17.608 -0.3481 -0.3910  0.3387
    2MPD1    H514262   2.434   0.696  17.621 -0.5158 -0.3746  0.3203
    2MPD1    N114263   2.294   0.713  17.160 -0.1871 -0.0421  0.3457
    2MPD1    H614264   2.279   0.670  17.069 -0.5340 -0.4873  0.6137
    2MPD1    H714265   2.361   0.790  17.160  0.7730 -0.8648 -0.8010
    3TCq2    C114266   2.439   0.520   0.024  0.2547 -0.6286  0.1576
    3TCq2    O214267   2.425   0.402   0.036  0.5323  0.1426  0.6526
    3TCq2    C214268   2.473   0.590   0.150 -0.8841  0.8297 -0.1712
    3TCq2    C314269   2.479   0.521   0.267 -0.0732  0.4073  0.7005
    3TCq2    C414270   2.528   0.591   0.377 -0.3193  0.2863 -0.1300
    3TCq2    C514271   2.559   0.727   0.369 -0.7854  0.1546 -0.3005
    3TCq2    C614272   2.543   0.792   0.248  0.3816 -0.9255  0.9640
    3TCq2    C714273   2.511   0.718   0.139  0.6250  0.2724 -0.0676
    3TCq2    C814274   2.578   0.931   0.236 -0.2785 -0.2245  0.7124
    3TCq2    O414275   2.607   0.971   0.121 -0.0902 -0.1129  0.5037
    3TCq2    C914276   2.559   0.522   0.495  0.1699  0.1842  0.2665
    3TCq2    O514277   2.536   0.399   0.497  0.1323 -0.1559  0.7074
    3TCq2    O614278   2.573   0.598   0.594  0.0661  0.2447 -0.2965
    3TCq2    H214279   2.441   0.421   0.282 -1.6070  0.8277 -0.3499
    3TCq2    H314280   2.584   0.778   0.461 -3.3021  1.6653 -0.4622
    3TCq2    H414281   2.512   0.770   0.044 -0.9348  1.1820  0.4215
    1TCq1    O114282   0.318   0.533  12.772 -0.2434  0.2535  0.4434
    1TCq1    C114283   0.332   0.451  12.875 -0.3293  0.4372  0.1471
    1TCq1    O214284   0.240   0.413  12.946  0.3392  0.4076  0.0896
    1TCq1    C214285   0.443   0.369  12.847  0.3506 -0.1387  0.7214
    1TCq1    C314286   0.438   0.249  12.910 -0.0320  0.1115  0.0911
    1TCq1    C414287   0.534   0.160  12.872 -0.1217 -0.3498  0.7379
    1TCq1    C514288   0.643   0.204  12.796 -1.0135 -0.6933 -0.4499
    1TCq1    C614289   0.642   0.330  12.741 -0.4168  0.0878 -0.1560
    1TCq1    C714290   0.534   0.408  12.755  0.0243 -0.1878 -0.3884
    1TCq1    C814291   0.758   0.378  12.674 -0.1048 -0.0580 -0.5222
    1TCq1    O414292   0.741   0.463  12.587 -0.0639 -0.0920  0.1946
    1TCq1    C914293   0.544   0.028  12.928 -0.8756 -0.3704 -0.3610
    1TCq1    O514294   0.448   0.000  13.009  0.3832 -0.3900 -0.2229
    1TCq1    O614295   0.625   4.677  12.871  0.0489 -0.1560  0.4195
    1TCq1    H114296   0.223   0.556  12.764 -1.0140 -3.5755 -1.5087
    1TCq1    H214297   0.348   0.222  12.965 -0.5561  0.9365 -0.3507
    1TCq1    H314298   0.716   0.126  12.775  2.0558  2.2883 -0.8727
    1TCq1    H414299   0.544   0.511  12.721 -0.4070  0.1024  0.3839
    2MPD2     C14300   1.021   0.429  12.562  0.6012 -0.3999 -0.5713
    2MPD2    C114301   1.001   0.350  12.670  0.2339 -0.8918  0.3833
    2MPD2    C214302   1.103   0.315  12.751  0.1038  0.7871 -0.1152
    2MPD2    C314303   1.233   0.356  12.716  0.7385  0.1057  0.0461
    2MPD2    C414304   1.251   0.445  12.614  0.3108  0.8672 -0.0314
    2MPD2    C514305   1.145   0.475  12.535  0.3359 -0.1098  0.2872
    2MPD2     H14306   1.086   0.240  12.828  2.3870  1.5379  1.1170
    2MPD2    H114307   1.348   0.487  12.588  0.4068  0.5413 -0.2048
    2MPD2    H214308   0.938   0.453  12.497 -0.5578  1.0854  1.4989
    2MPD2    H314309   1.167   0.544  12.455 -0.7515  0.2525  0.2994
    2MPD2     N14310   1.337   0.313  12.795 -0.3672 -0.3648 -0.2615
    2MPD2    H514311   1.333   0.221  12.837  1.6667 -1.0255 -1.5190
    2MPD2    N114312   0.875   0.318  12.718 -0.3663  0.4623 -0.1761
    2MPD2    H714313   0.864   0.266  12.805 -0.9246  0.6629 -0.1257
    3TCq1    O114314   1.582   0.421  13.296 -0.3272 -0.2591  0.0481
    3TCq1    C114315   1.670   0.327  13.251 -0.6254 -0.0734  0.1354
    3TCq1    O214316   1.732   0.259  13.334 -0.7000 -0.8402 -0.0677
    3TCq1    C214317   1.644   0.289  13.116 -0.7855  0.1808  1.0630
    3TCq1    C314318   1.693   0.159  13.087  0.2896 -0.5791 -0.5545
    3TCq1    C414319   1.654   0.107  12.968  0.1586 -0.1100 -0.4415
    3TCq1    C514320   1.576   0.181  12.882  0.1686  0.5650 -1.0955
    3TCq1    C614321   1.541   0.313  12.906 -0.0662 -0.1612 -0.7845
    3TCq1    C714322   1.571   0.367  13.032  0.1220  0.1601 -0.1496
    3TCq1    C814323   1.445   0.387  12.816  0.6634 -0.1949  0.1766
    3TCq1    O414324   1.470   0.507  12.808 -0.0788 -0.1911 -0.0940
    3TCq1    C914325   1.701   4.701  12.933 -0.1947  0.0137 -0.2869
    3TCq1    O514326   1.647   4.645  12.838 -0.4229 -0.3094  0.2067
    3TCq1    O614327   1.798   4.663  13.006 -0.9720  0.3099 -0.0359
    3TCq1    H114328   1.512   0.454  13.235 -0.0653  0.6176  0.2242
    3TCq1    H214329   1.752   0.102  13.158  0.0910  1.3072  1.1209
    3TCq1    H314330   1.548   0.141  12.785  0.4924  0.9011 -1.3264
    3TCq1    H414331   1.551   0.468  13.064  0.2409  0.1849 -0.1531
    1MPD2     C14332   0.774   1.122  14.709 -0.5187  0.3826  0.0540
    1MPD2    C114333   0.670   1.027  14.723 -0.1823  0.5218 -0.5013
    1MPD2    C214334   0.686   0.899  14.665 -0.3534  0.5404 -0.2863
    1MPD2    C314335   0.800   0.864  14.592 -0.4200 -0.0505 -0.1205
    1MPD2    C414336   0.899   0.958  14.573 -0.1757 -0.8387 -0.5407
    1MPD2    C514337   0.884   1.084  14.631  0.4337 -0.6811  0.1495
    1MPD2     H14338   0.606   0.826  14.658 -0.0372  0.2897 -1.3962
    1MPD2    H114339   0.981   0.938  14.505  0.2581 -1.2757  0.1006
    1MPD2    H214340   0.776   1.220  14.756 -1.7919  0.5577 -0.2653
    1MPD2    H314341   0.959   1.159  14.610  0.3564 -0.3946  0.8994
    1MPD2     N14342   0.801   0.743  14.529  0.0480  0.3643 -0.4949
    1MPD2    H514343   0.717   0.688  14.546 -0.7870  1.5472 -0.8556
    1MPD2    N114344   0.555   1.062  14.792  0.5529  0.6384  0.2781
    1MPD2    H714345   0.547   1.160  14.817  0.7753  0.8310 -0.4139
    2TMC3    C114346   0.344   1.025  14.903  0.3626  0.0601 -0.3047
    2TMC3    C214347   0.257   0.927  14.942  0.0807 -0.0338  0.5326
    2TMC3    C314348   0.132   0.936  14.894  0.7758  0.7529  0.4750
    2TMC3    C414349   0.303   1.138  14.834 -0.0600  0.2009 -0.2211
    2TMC3    C514350   0.167   1.148  14.799  0.1401  0.6880 -0.4577
    2TMC3    C614351   0.084   1.044  14.832  0.4590  0.5140 -0.5070
    2TMC3     C14352   0.465   0.969  14.844  0.1777 -0.2904 -0.0113
    2TMC3     O14353   0.475   0.848  14.855 -0.2579  0.3964  0.8848
    2TMC3     H14354   0.292   0.838  14.993 -0.4685 -0.2245  0.5811
    2TMC3    H114355   0.372   1.204  14.782  2.0234 -1.2561  0.6633
    2TMC3    H214356   4.703   1.053  14.806 -0.0343 -0.6652  1.0917
    2TMC3    C714357   0.116   1.269  14.740 -0.1424  0.1681  0.0396
    2TMC3    C814358   0.088   0.818  14.820 -0.0817 -0.0661  0.5119
    2TMC3    O114359   4.722   1.279  14.712 -0.2699  0.3036 -0.2339
    2TMC3    O214360   4.701   0.822  14.776  0.4203 -0.7245 -0.3114
    3TCq1    O114361   0.654   2.410  14.605  0.0065  0.1463  0.2968
    3TCq1    C114362   0.689   2.286  14.562 -0.1160  0.7637 -0.8214
    3TCq1    O214363   0.720   2.269  14.444 -0.4849  0.4062  0.4984
    3TCq1    C214364   0.623   2.190  14.653  0.2583 -0.3776 -0.4678
    3TCq1    C314365   0.620   2.217  14.783  0.5820  0.0540 -0.1522
    3TCq1    C414366   0.558   2.136  14.868  0.0641  0.0679  0.2971
    3TCq1    C514367   0.485   2.031  14.815 -0.5247  0.0713  0.4168
    3TCq1    C614368   0.500   2.013  14.679 -0.3252 -0.5824  0.6430
    3TCq1    C714369   0.570   2.095  14.595 -0.0944 -0.0193  0.1331
    3TCq1    C814370   0.426   1.917  14.609  0.4610 -0.3363 -0.4851
    3TCq1    O414371   0.409   1.937  14.490 -0.1609  0.0591 -0.3968
    3TCq1    C914372   0.529   2.174  15.002 -0.7901 -0.1216 -0.5578
    3TCq1    O514373   0.556   2.289  15.046  0.0888  1.0040 -0.3409
    3TCq1    O614374   0.452   2.098  15.064  0.0461  0.0279  0.5254
    3TCq1    H114375   0.600   2.411  14.687  1.2346  0.5196  1.0975
    3TCq1    H214376   0.666   2.302  14.832 -1.3066  0.6102  0.6570
    3TCq1    H314377   0.431   1.964  14.881 -1.1619  1.1433  0.9715
    3TCq1    H414378   0.581   2.083  14.488 -0.6740 -1.2682  0.2067
    4MPD2     C14379   0.223   1.721  14.530  0.6500 -0.1148 -0.1978
    4MPD2    C114380   0.324   1.699  14.628 -0.1438 -0.5716  0.7411
    4MPD2    C214381   0.312   1.581  14.701 -0.1253 -0.6711 -0.1575
    4MPD2    C314382   0.219   1.486  14.668  0.0793 -0.1096 -0.6287
    4MPD2    C414383   0.140   1.505  14.564 -0.1073 -0.2640 -0.2863
    4MPD2    C514384   0.137   1.624  14.496  0.2985 -0.1605  0.1184
    4MPD2     H14385   0.382   1.564  14.782 -2.8103  0.0033  2.2865
    4MPD2    H114386   0.072   1.428  14.529 -0.9743 -0.2617  1.4174
    4MPD2    H214387   0.210   1.819  14.487  2.3916 -0.4390 -1.4510
    4MPD2    H314388   0.069   1.645  14.415  1.3483  2.8126 -0.0220
    4MPD2     N14389   0.214   1.366  14.737 -0.5511  0.3353  0.0972
    4MPD2    H514390   0.288   1.342  14.802  0.2742  1.8766 -0.2804
    4MPD2    N114391   0.416   1.798  14.668 -0.0393 -0.1344  0.5580
    4MPD2    H714392   0.476   1.780  14.748  1.8891  1.6257 -0.4814
    5TMC2    C114393   0.663   0.436  14.449 -0.2143  1.0154  0.8224
    5TMC2    C214394   0.747   0.332  14.496 -0.6392  0.2893 -0.3934
    5TMC2    C314395   0.883   0.349  14.513 -0.0328  0.2353  0.2363
    5TMC2    C414396   0.726   0.543  14.395  0.5503  0.2840 -0.1260
    5TMC2    C514397   0.861   0.558  14.411 -0.1495 -0.1339 -0.3737
    5TMC2    C614398   0.941   0.463  14.470 -0.1686  0.6148 -0.5632
    5TMC2     C14399   0.556   0.478  14.537 -0.2010  0.6509  0.8080
    5TMC2     O14400   0.592   0.572  14.608 -0.2682 -0.2248  0.4962
    5TMC2     H14401   0.698   0.259  14.560 -1.9519 -0.7984 -2.6749
    5TMC2    H114402   0.670   0.629  14.358  1.6481  0.8606 -0.4386
    5TMC2    H214403   1.045   0.494  14.474 -0.0207 -0.1259  0.8931
    5TMC2    C714404   0.901   0.688  14.455  1.1429  0.1847  0.5033
    5TMC2    C814405   0.915   0.332  14.655 -0.0869  0.0833  0.2285
    5TMC2    O114406   1.020   0.717  14.452  0.0256 -0.2497  0.2362
    5TMC2    O214407   0.840   0.379  14.741 -0.3833 -0.0936 -0.1161
    5TMC2    O514408   1.046   0.338  14.668 -0.6118  0.2591  0.7337
    5TMC2    H514409   1.087   0.306  14.585 -1.8232 -0.4711  0.4221
    6MPD2     C14410   0.067   0.565  14.656 -0.5044 -0.1110 -0.1424
    6MPD2    C114411   0.185   0.618  14.709  0.5143  0.2703 -0.6065
    6MPD2    C214412   0.307   0.564  14.674  0.4532 -0.3431  0.0354
    6MPD2    C314413   0.317   0.470  14.573  0.9591 -0.0307  0.1193
    6MPD2    C414414   0.199   0.429  14.516 -0.8330  0.2168 -0.0641
    6MPD2    C514415   0.076   0.468  14.553  0.5915 -0.5174  0.2223
    6MPD2     H14416   0.393   0.606  14.726 -0.1201  0.4586  0.3246
    6MPD2    H114417   0.211   0.349  14.444 -1.5560 -1.5199  1.7418
    6MPD2    H214418   4.691   0.599  14.685 -0.0415  1.1441 -0.0206
    6MPD2    H314419   4.710   0.424  14.509 -0.3069 -0.7569  2.2551
    6MPD2     N14420   0.434   0.413  14.521  0.4316  0.4172 -0.3349
    6MPD2    H514421   0.432   0.354  14.438  1.6766 -0.5854  0.3496
    6MPD2    N114422   0.186   0.728  14.796 -0.0443  0.3328  0.6180
    6MPD2    H714423   0.274   0.748  14.843 -0.1980  1.0218  0.6114
  945NH3     N114424   3.982   0.707   0.117  0.1133 -0.3983 -0.2745
  945NH3     H214425   4.068   0.724   0.168  0.2966 -0.0901 -0.6873
  945NH3     H314426   4.018   0.664   0.032  0.4537 -2.3707  0.8597
  945NH3     H414427   3.953   0.799   0.088  1.1093  0.8177  2.5881
  946SOD     NA14428   4.713   3.815  15.074 -0.1080  0.0404  0.3743
  947SOD     NA14429   3.155   0.727  14.651  0.3091  0.5527 -0.0881
  948SOD     NA14430   4.279   0.634  11.177  0.2038  0.0480 -0.4713
  949SOD     NA14431   2.616   1.319  11.285  0.0799  0.4081  0.0260
  950SOD     NA14432   2.356   2.132   1.315 -0.6688 -0.0081 -0.3125
  951SOD     NA14433   0.145   1.774   9.179  0.2593 -0.3198 -0.0610
  952SOD     NA14434   2.526   3.625   6.807  0.0313 -0.0733 -0.2573
  953SOD     NA14435   0.721   4.369   9.514 -0.2509  0.1962  0.5231
  954SOD     NA14436   0.988   0.621  10.511  0.3959 -0.1505 -0.3714
  955SOD     NA14437   2.109   0.154  14.518  0.9125 -0.0326 -0.1243
  956SOD     NA14438   3.136   3.970  14.556  0.0203  0.2348  0.4842
  957SOD     NA14439   2.954   4.661   8.269 -0.6390  0.0803  0.6181
  958SOD     NA14440   2.868   3.713  14.193 -0.1297  0.0479 -0.3551
  959SOD     NA14441   0.399   2.268  15.196 -0.2215 -0.3789  0.0269
  960SOD     NA14442   2.198   4.489  12.929 -0.1927 -0.2702 -0.3949
  961SOD     NA14443   3.974   3.965   9.737 -0.2921 -0.2824 -0.5658
  962SOD     NA14444   0.842   4.451  10.076 -0.9809 -0.3174 -0.2732
  963SOD     NA14445   1.166   0.592   0.645 -0.1356 -0.0381 -0.1230
  964SOD     NA14446   4.636   4.332  12.805  0.0836 -0.4733 -0.2746
  965SOD     NA14447   0.308   0.267  10.299  0.4064 -0.3255  0.5567
  966SOD     NA14448   2.290   0.667  10.984  0.4815 -0.3715  0.2011
  967SOD     NA14449   2.050   2.529  10.546 -0.4148 -0.1328 -0.2343
  968SOD     NA14450   0.146   3.589   2.314 -0.3254 -0.3399  0.3386
  969SOD     NA14451   2.215   4.109  17.527 -0.7727 -0.1353  0.1658
  970SOD     NA14452   0.838   3.886  10.555 -0.3582 -0.0674  0.0166
  971SOD     NA14453   4.608   0.678  12.485 -0.0843  0.2965  0.1165
  972SOD     NA14454   1.603   4.500  11.206  0.0295 -0.2742 -0.0783
  973SOD     NA14455   4.432   2.712   9.576 -0.1221 -0.2136  0.0608
  974SOD     NA14456   0.696   4.207  12.707  0.5636  0.0359 -0.3639
  975SOD     NA14457   4.367   3.999   9.568 -0.5605 -0.2601 -0.8156
  976SOD     NA14458   2.362   1.757  13.192  0.3080 -0.4690  0.2774
  977SOD     NA14459   0.054   2.237  13.575 -0.6337 -0.4629  0.3451
  978SOD     NA14460   4.420   1.290  10.688 -0.1314 -0.2163  0.0722
  979SOD     NA14461   1.429   1.260   2.293 -0.0234 -0.0640  0.4911
  980SOD     NA14462   2.687   1.404  15.050 -0.2296 -0.6946  0.5760
  981SOD     NA14463   3.727   3.414  10.617  0.5313 -0.1830  0.0701
  982SOD     NA14464   4.154   2.338   6.892 -0.2055  0.6210 -0.1497
  983SOD     NA14465   4.452   2.838   0.122  0.5194  0.1976 -0.2533
  984SOD     NA14466   0.862   2.440  11.143  0.0090 -0.6666 -0.0395
  985SOD     NA14467   1.265   0.475  11.685 -0.1221  0.1741  0.5377
  986SOD     NA14468   1.781   1.209  15.312  0.2790  0.0561 -0.4623
  987SOD     NA14469   0.924   4.499   9.239  0.1328 -0.3560  0.2933
  988SOD     NA14470   1.065   0.942  17.602  0.1634 -0.4266 -0.1733
  989SOD     NA14471   1.169   2.307  16.196 -0.4092  0.1525 -0.1347
  990SOD     NA14472   0.778   4.293   9.792 -0.1007 -0.0788  0.2397
  991SOD     NA14473   2.131   0.729  15.329 -0.2458  0.1399  0.2575
  992SOD     NA14474   1.893   3.833  14.815  0.1063  0.1622  0.5747
  993SOD     NA14475   0.675   1.175  10.125 -0.4105  0.1085  0.1831
  994SOD     NA14476   0.699   4.325  11.037  0.5517 -0.1454  0.3391
  995SOD     NA14477   1.981   1.069  13.499  0.2833 -0.1372  0.1414
  996SOD     NA14478   3.140   2.351   0.171  0.1132  0.1519  0.0199
  997SOD     NA14479   2.949   4.027   1.560  0.6821 -0.1269  0.0200
  998SOD     NA14480   2.994   0.877   2.190 -0.3188 -0.1096 -0.0300
  999SOD     NA14481   4.198   4.539   2.798  0.0844  0.2712  0.3756
 1000SOD     NA14482   0.054   0.417   3.251 -0.1535  0.3827  0.1097
 1001SOD     NA14483   2.856   3.955  13.069  0.3397 -0.0129 -0.0313
 1002SOD     NA14484   2.258   1.053  13.741 -0.2005  0.2063  0.0109
 1003SOD     NA14485   1.414   0.771  11.825 -0.4427 -0.0637  0.8748
 1004SOD     NA14486   2.695   0.029   0.377  0.0719  0.0823 -0.2514
 1005SOD     NA14487   3.550   4.411  13.048  0.3980  0.0943  0.9034
 1006SOD     NA14488   3.078   4.419  11.953 -0.2889  0.0187 -0.2074
 1007SOD     NA14489   1.884   0.126  10.121  0.5104  0.1017  0.6605
 1008SOD     NA14490   1.128   2.059  16.544  0.3051  0.1357 -0.2739
 1009SOD     NA14491   2.981   0.344   1.874  0.0339  0.1646  0.1768
 1010SOD     NA14492   2.836   3.552   0.266  0.4495 -0.1075  0.4669
 1011SOD     NA14493   0.681   0.593  15.113 -0.0956  0.6355 -0.0611
 1012SOL     OW14494   0.518   0.014   2.334 -0.3407  0.2018 -1.2645
 1012SOL    HW114495   0.449   0.069   2.369  1.2327  2.1022 -1.1610
 1012SOL    HW214496   0.469   4.681   2.274  0.4503 -0.2991 -1.4380
 1013SOL     OW14497   1.387   1.574   1.203  0.0909 -0.1613 -0.4068
 1013SOL    HW114498   1.345   1.581   1.117 -2.0366 -2.7073  0.3956
 1013SOL    HW214499   1.370   1.481   1.219  2.4051 -0.7031 -1.1673
 1014SOL     OW14500   0.360   3.354  15.371  0.2856  0.5902 -0.6104
 1014SOL    HW114501   0.298   3.419  15.404  0.7212  0.4365  0.5227
 1014SOL    HW214502   0.298   3.288  15.341  0.1937  0.9880 -1.2833
 1015SOL     OW14503   3.845   3.369   2.419 -0.2156 -0.3835  0.2804
 1015SOL    HW114504   3.755   3.336   2.413  0.3914 -1.7046 -1.6122
 1015SOL    HW214505   3.836   3.459   2.450 -0.7959 -0.7573  1.2078
 1016SOL     OW14506   0.541   3.558   4.638  0.2431  0.5235 -0.1627
 1016SOL    HW114507   0.481   3.594   4.572  1.9322  1.8058 -0.9960
 1016SOL    HW214508   0.579   3.641   4.669 -0.2882  0.7320 -0.0722
 1017SOL     OW14509   0.857   2.876   9.750  0.7475 -0.1099  0.2908
 1017SOL    HW114510   0.831   2.784   9.741 -1.5353  0.3895  1.7826
 1017SOL    HW214511   0.796   2.903   9.819  0.7954 -1.4044  0.8398
 1018SOL     OW14512   2.583   4.294  15.503 -0.0188  0.5645  0.6489
 1018SOL    HW114513   2.508   4.314  15.559 -0.4894  3.5118 -1.0307
 1018SOL    HW214514   2.637   4.235  15.556  0.0802 -1.6391 -1.8658
 1019SOL     OW14515   0.010   4.337   9.457  0.2779 -0.1994  0.0414
 1019SOL    HW114516   4.648   4.356   9.496  1.5709  0.5331  2.5457
 1019SOL    HW214517   4.705   4.270   9.395  1.9584 -3.2513  2.5816
 1020SOL     OW14518   3.750   2.522  16.381 -0.5067  0.1551  0.3560
 1020SOL    HW114519   3.713   2.451  16.433  1.2716 -0.5881  0.6172
 1020SOL    HW214520   3.680   2.587  16.388 -1.5700 -0.9382 -0.1861
 1021SOL     OW14521   0.012   3.249  17.265  0.3103  0.0075 -0.7378
 1021SOL    HW114522   0.042   3.175  17.318 -1.6572  0.3147  0.8185
 1021SOL    HW214523   0.079   3.259  17.197  2.0724  1.8462  1.3010
 1022SOL     OW14524   3.253   0.262   7.246  0.0546 -0.0181 -0.4757
 1022SOL    HW114525   3.255   0.357   7.241  1.0083 -0.0546 -0.7940
 1022SOL    HW214526   3.208   0.238   7.165  0.8820  0.4462 -1.0745
 1023SOL     OW14527   1.928   4.334  17.175 -0.0214 -0.2624 -0.4266
 1023SOL    HW114528   1.886   4.375  17.099 -1.8739  0.2973  0.8726
 1023SOL    HW214529   1.851   4.343  17.232  1.5530  0.5896  1.5939
 1024SOL     OW14530   4.585   0.202   1.075 -0.0550  0.1230 -0.7164
 1024SOL    HW114531   4.546   0.187   0.989  2.3524 -1.3069 -1.5624
 1024SOL    HW214532   4.551   0.129   1.127  0.2184 -0.1809 -0.9586
 1025SOL     OW14533   0.132   1.642   6.794 -0.1849  0.0207 -0.1671
 1025SOL    HW114534   0.213   1.678   6.830  0.6849 -1.3902 -0.7308
 1025SOL    HW214535   0.102   1.597   6.873  0.8679 -1.3683 -0.5569
 1026SOL     OW14536   4.462   3.458   4.262 -0.1843  0.1093  0.1091
 1026SOL    HW114537   4.507   3.451   4.177  0.9434 -0.6823  0.7692
 1026SOL    HW214538   4.536   3.472   4.321 -0.4148 -0.1336  0.4538
 1027SOL     OW14539   0.863   1.542   9.925 -0.0305  0.3234  0.5975
 1027SOL    HW114540   0.901   1.629   9.937 -1.2647  1.1380 -1.4525
 1027SOL    HW214541   0.920   1.500   9.861 -0.6440 -0.2294  0.4078
 1028SOL     OW14542   0.261   0.062  17.572  0.4727  0.3449  0.2169
 1028SOL    HW114543   0.336   0.117  17.597  1.2476  0.2080 -1.8456
 1028SOL    HW214544   0.207   0.096  17.644  1.2552  2.8220 -0.3584
 1029SOL     OW14545   0.440   1.722   3.803  0.4356 -0.6610  0.1279
 1029SOL    HW114546   0.448   1.746   3.710 -0.5424  1.9683  0.7167
 1029SOL    HW214547   0.447   1.810   3.840  1.8117 -1.1699  1.0307
 1030SOL     OW14548   0.380   1.204   4.153  0.2349  0.2480  0.2496
 1030SOL    HW114549   0.401   1.140   4.221  0.8672  0.6986  0.4791
 1030SOL    HW214550   0.363   1.280   4.209 -0.6453  0.5904 -0.4855
 1031SOL     OW14551   4.365   1.690   5.877 -0.5904 -0.5254 -0.2883
 1031SOL    HW114552   4.446   1.692   5.929 -0.4868 -2.8513 -0.3379
 1031SOL    HW214553   4.387   1.754   5.810 -1.0115  0.6463  0.6997
 1032SOL     OW14554   0.590   3.353   3.934 -0.4040  0.6517  0.1225
 1032SOL    HW114555   0.595   3.434   3.883  1.1191 -1.4430 -3.0303
 1032SOL    HW214556   0.583   3.393   4.020 -1.2716  1.1257 -0.1631
 1033SOL     OW14557   1.783   3.969   8.779  0.0958 -0.0544 -0.6227
 1033SOL    HW114558   1.701   3.931   8.811  0.5529 -1.3250 -0.9971
 1033SOL    HW214559   1.842   3.902   8.813  0.5155  1.3231  1.4058
 1034SOL     OW14560   1.428   1.709   7.838  0.3202  0.9465  0.2450
 1034SOL    HW114561   1.509   1.687   7.885  0.1508  0.8228  0.4793
 1034SOL    HW214562   1.362   1.667   7.893 -0.9099  0.7543 -1.3799
 1035SOL     OW14563   3.183   2.883   7.759  0.4949 -0.1739 -0.0010
 1035SOL    HW114564   3.123   2.957   7.760 -4.1638 -3.9968  2.8407
 1035SOL    HW214565   3.260   2.899   7.814  0.2902 -1.2433  0.5936
 1036SOL     OW14566   3.645   2.819   3.147 -0.0567  0.5371  0.0900
 1036SOL    HW114567   3.668   2.895   3.200  1.6956  0.6932 -0.9179
 1036SOL    HW214568   3.724   2.766   3.138  0.8135  1.7764  0.5319
 1037SOL     OW14569   0.027   1.153   8.613 -0.4784  0.4297 -0.3042
 1037SOL    HW114570   4.708   1.089   8.557  1.0076 -0.2031 -0.6761
 1037SOL    HW214571   0.050   1.076   8.665  1.7456 -0.4628 -2.6356
 1038SOL     OW14572   0.340   0.316   6.897 -0.4616 -0.3082 -0.5984
 1038SOL    HW114573   0.333   0.240   6.954 -2.3568  0.3101 -0.0245
 1038SOL    HW214574   0.247   0.336   6.890 -0.0630  1.8836  0.3581
 1039SOL     OW14575   2.069   2.637   3.884  0.0668  0.1788  0.2540
 1039SOL    HW114576   2.004   2.567   3.885  0.0570  0.2008  1.4364
 1039SOL    HW214577   2.015   2.715   3.881  0.6040  0.4796 -1.6241
 1040SOL     OW14578   1.456   2.040   5.561  0.4744 -0.0200 -0.8077
 1040SOL    HW114579   1.421   2.080   5.640 -0.4530 -1.9215 -0.2522
 1040SOL    HW214580   1.390   1.972   5.547  0.3627 -0.0587 -0.0712
 1041SOL     OW14581   4.445   1.300   0.370  0.4336 -0.0767  0.7778
 1041SOL    HW114582   4.482   1.244   0.302 -0.1925  0.7187 -0.2149
 1041SOL    HW214583   4.436   1.384   0.326  0.8717  1.2448  3.2249
 1042SOL     OW14584   3.225   3.876  14.112  0.0821 -0.2989 -0.1577
 1042SOL    HW114585   3.248   3.784  14.121  1.8871  0.2047  0.4705
 1042SOL    HW214586   3.139   3.884  14.153  0.2770 -1.8317  0.5686
 1043SOL     OW14587   0.495   0.641   3.670  0.1742  0.0737 -0.3760
 1043SOL    HW114588   0.583   0.642   3.708 -0.0923  1.4888  0.2180
 1043SOL    HW214589   0.514   0.677   3.584  1.7625 -1.6603 -0.7596
 1044SOL     OW14590   1.819   2.071   4.550 -0.4926  0.0729 -0.5025
 1044SOL    HW114591   1.787   2.101   4.635  2.1341 -2.0964  1.2541
 1044SOL    HW214592   1.880   2.140   4.525 -0.8557  0.7070  0.4073
 1045SOL     OW14593   4.616   1.220  10.087  0.5491  0.1511 -0.1067
 1045SOL    HW114594   4.640   1.175  10.168  3.0128  1.7022 -0.0174
 1045SOL    HW214595   4.672   1.297  10.079  1.1578 -0.1786  1.0120
 1046SOL     OW14596   1.030   2.239  16.400  0.4025  0.6146  0.1674
 1046SOL    HW114597   0.938   2.212  16.398  0.7763 -0.7764  2.8039
 1046SOL    HW214598   1.029   2.317  16.456  1.0520  2.0805 -1.8222
 1047SOL     OW14599   1.446   1.169  17.252  0.4388 -0.7139 -0.1403
 1047SOL    HW114600   1.384   1.100  17.229  0.1411 -0.2507 -0.7439
 1047SOL    HW214601   1.391   1.237  17.292 -0.1868  0.3987 -2.8871
 1048SOL     OW14602   2.707   3.572   9.540  0.0663 -0.1274  0.0335
 1048SOL    HW114603   2.799   3.586   9.558 -0.5153  1.1554  2.0418
 1048SOL    HW214604   2.709   3.614   9.454  0.4619  0.4496  0.3216
 1049SOL     OW14605   1.181   3.685   2.049  0.1931 -0.1700 -0.1379
 1049SOL    HW114606   1.130   3.608   2.074 -0.5917  0.8013  1.2528
 1049SOL    HW214607   1.136   3.724   1.974 -1.6786 -0.1864  1.0071
 1050SOL     OW14608   4.565   4.136  15.187  0.6277  0.4887  0.1707
 1050SOL    HW114609   4.504   4.130  15.261  2.5626  2.3583  1.8797
 1050SOL    HW214610   4.545   4.054  15.142  3.0932 -0.4364  0.7670
 1051SOL     OW14611   2.130   1.381   5.002  0.1503 -0.7469  0.1030
 1051SOL    HW114612   2.192   1.374   4.929  1.0500 -2.0591  0.9915
 1051SOL    HW214613   2.051   1.345   4.962 -1.4190  0.0174  2.5254
 1052SOL     OW14614   1.234   1.862   4.511  0.6613 -0.2182  0.0449
 1052SOL    HW114615   1.252   1.876   4.418 -1.4166  1.2403 -0.1269
 1052SOL    HW214616   1.153   1.811   4.509 -0.7983  2.1389 -0.1092
 1053SOL     OW14617   0.840   4.476   1.237 -1.1349  0.2338  0.0092
 1053SOL    HW114618   0.812   4.561   1.205  0.7624 -0.1756 -2.7745
 1053SOL    HW214619   0.936   4.483   1.240 -1.3006  1.3503  2.5581
 1054SOL     OW14620   4.363   4.489   2.971 -0.3404  0.0252  0.4133
 1054SOL    HW114621   4.373   4.403   3.011  1.3425 -0.0636 -0.2221
 1054SOL    HW214622   4.446   4.503   2.925 -1.7237 -0.1055 -2.1675
 1055SOL     OW14623   0.566   0.448  10.417  0.7278 -0.7782  0.5591
 1055SOL    HW114624   0.547   0.523  10.472  0.5587 -1.1895  1.0662
 1055SOL    HW214625   0.491   0.397  10.446  0.0766 -0.0135  0.2049
 1056SOL     OW14626   1.278   1.342   7.042  0.0111  0.0641  0.3495
 1056SOL    HW114627   1.353   1.304   7.087  1.3322  0.6418 -1.3950
 1056SOL    HW214628   1.317   1.426   7.019 -1.1817  0.8267  1.0661
 1057SOL     OW14629   1.694   1.223   1.716 -0.3273 -0.2236  0.5052
 1057SOL    HW114630   1.740   1.140   1.702  1.0265  0.6446 -0.2188
 1057SOL    HW214631   1.636   1.230   1.640  0.0114 -2.5027  0.0280
 1058SOL     OW14632   4.209   4.484   1.646  0.6772  0.7461  0.0235
 1058SOL    HW114633   4.265   4.545   1.597  2.3417 -0.9983 -0.2336
 1058SOL    HW214634   4.147   4.546   1.686  0.6403  0.1626  0.8634
 1059SOL     OW14635   3.635   1.948   1.996 -0.2804  0.4749  0.1208
 1059SOL    HW114636   3.594   2.001   1.928 -0.2680  0.4343  0.0821
 1059SOL    HW214637   3.609   1.993   2.076 -0.5310 -0.4673  0.5694
 1060SOL     OW14638   1.739   4.556   1.726  0.9691 -0.3441  0.1144
 1060SOL    HW114639   1.790   4.481   1.696  1.8328 -0.3966  1.6977
 1060SOL    HW214640   1.762   4.550   1.819  2.3552  1.9010 -0.0854
 1061SOL     OW14641   2.624   3.646   3.552 -0.0318 -0.6946 -0.4774
 1061SOL    HW114642   2.713   3.641   3.587 -0.4670 -1.4902  0.5160
 1061SOL    HW214643   2.575   3.593   3.614 -2.0118  2.1908  0.4072
 1062SOL     OW14644   2.688   2.979   3.837  0.6136  0.0556 -0.2880
 1062SOL    HW114645   2.671   2.934   3.754  0.0232  0.5730 -0.4465
 1062SOL    HW214646   2.713   3.066   3.805 -4.4085  0.6545 -2.5037
 1063SOL     OW14647   2.039   1.681  11.034 -0.6717 -0.5782  0.2886
 1063SOL    HW114648   1.998   1.705  10.951 -1.0805 -0.7383  0.4379
 1063SOL    HW214649   1.969   1.705  11.095  0.1273 -0.4520  1.1610
 1064SOL     OW14650   2.011   2.440   6.841  0.0576  0.1938  0.4544
 1064SOL    HW114651   2.004   2.405   6.753 -0.0131 -0.4777  0.7237
 1064SOL    HW214652   1.969   2.371   6.892  2.0830 -1.3502  0.0698
 1065SOL     OW14653   1.601   4.180  12.035 -0.3170  0.3562  0.4247
 1065SOL    HW114654   1.639   4.205  12.119  4.4842  1.3989 -2.0046
 1065SOL    HW214655   1.672   4.220  11.984 -0.8635  0.0240 -0.6112
 1066SOL     OW14656   1.985   4.115   2.383 -0.5392  0.2321  0.5403
 1066SOL    HW114657   1.953   4.181   2.444  1.4372 -0.7641  2.6684
 1066SOL    HW214658   2.056   4.075   2.433  0.8166  0.9644 -0.7949
 1067SOL     OW14659   1.241   2.624   2.500 -0.2473 -0.3306 -0.1550
 1067SOL    HW114660   1.170   2.680   2.470  1.1945  0.5413 -1.9548
 1067SOL    HW214661   1.255   2.568   2.423  2.0141 -1.1055  0.8093
 1068SOL     OW14662   0.899   4.483   1.979  0.4051 -0.4643 -0.1579
 1068SOL    HW114663   0.881   4.458   1.888 -0.0003 -0.5961 -0.0424
 1068SOL    HW214664   0.850   4.564   1.971 -0.0266 -0.6392  0.7633
 1069SOL     OW14665   1.803   4.215   4.907 -0.4395  0.2574  0.1442
 1069SOL    HW114666   1.725   4.181   4.951  0.0239 -1.2020 -0.1538
 1069SOL    HW214667   1.857   4.260   4.972  0.3142 -0.6274  0.1457
 1070SOL     OW14668   0.152   2.882   6.026 -0.2008  0.4042  0.1997
 1070SOL    HW114669   0.131   2.821   5.955  1.0718  0.4986 -0.2481
 1070SOL    HW214670   0.063   2.909   6.051 -0.6728 -1.5739  0.6236
 1071SOL     OW14671   0.086   3.784   1.814 -0.1327 -0.5883 -0.2084
 1071SOL    HW114672   0.086   3.879   1.805 -1.4070 -0.4667  1.0725
 1071SOL    HW214673   0.130   3.762   1.732  0.5705 -1.7650  0.4762
 1072SOL     OW14674   1.565   1.538   1.434 -0.2216 -0.0070  0.5587
 1072SOL    HW114675   1.574   1.443   1.423 -1.3360 -0.3404  2.3798
 1072SOL    HW214676   1.513   1.560   1.356  0.0358 -2.0477 -0.1916
 1073SOL     OW14677   1.072   0.881   4.464 -0.3768  0.3797  0.2769
 1073SOL    HW114678   1.099   0.966   4.497  0.4347  0.2471 -0.0343
 1073SOL    HW214679   0.977   0.887   4.454 -0.5180  0.7138  1.7826
 1074SOL     OW14680   1.344   0.606   8.496 -0.5284  0.0389  0.4610
 1074SOL    HW114681   1.361   0.700   8.487  0.5695 -0.4267 -2.5859
 1074SOL    HW214682   1.255   0.595   8.461 -1.7327 -0.3677  3.6608
 1075SOL     OW14683   3.321   2.435   5.832 -0.1005 -0.1224  0.2737
 1075SOL    HW114684   3.264   2.358   5.826  0.2822 -0.3926  0.1301
 1075SOL    HW214685   3.251   2.500   5.826  0.2051  0.0652 -1.1955
 1076SOL     OW14686   3.643   3.792   2.609 -0.3188 -0.1960 -0.3778
 1076SOL    HW114687   3.592   3.735   2.667  0.3345  0.1777  0.5763
 1076SOL    HW214688   3.579   3.820   2.544  0.3627  0.8327 -0.6113
 1077SOL     OW14689   0.852   1.946   2.264 -0.1118 -0.3362  0.0946
 1077SOL    HW114690   0.762   1.942   2.295 -0.1072  2.2288  0.4169
 1077SOL    HW214691   0.839   2.002   2.188  1.2019  1.8130  1.4354
 1078SOL     OW14692   2.729   0.268   0.656  0.2648  0.1056 -0.3889
 1078SOL    HW114693   2.769   0.352   0.679 -0.4542  0.0535  1.0596
 1078SOL    HW214694   2.650   0.297   0.611 -0.0053 -0.8698 -0.5344
 1079SOL     OW14695   1.081   3.491   8.831  1.0637  0.2172 -0.2092
 1079SOL    HW114696   1.084   3.429   8.903 -0.0237  0.7114  0.2645
 1079SOL    HW214697   1.151   3.553   8.854  1.2309 -0.1676  0.3106
 1080SOL     OW14698   3.471   2.191   7.333  0.1703 -0.2480  0.0616
 1080SOL    HW114699   3.475   2.102   7.299  0.7063 -0.2812  0.2085
 1080SOL    HW214700   3.536   2.236   7.279  2.4382 -1.9386  1.3961
 1081SOL     OW14701   0.433   3.925   8.151  0.1903  0.1724 -0.1272
 1081SOL    HW114702   0.375   3.856   8.183 -0.6284  1.4957  1.2017
 1081SOL    HW214703   0.521   3.900   8.181 -1.4277 -1.4825  3.3363
 1082SOL     OW14704   2.801   3.709  15.197  0.4366 -0.1991  0.1168
 1082SOL    HW114705   2.796   3.625  15.150  0.3276  0.1550 -0.5023
 1082SOL    HW214706   2.795   3.682  15.289 -2.0626  0.4686  0.1417
 1083SOL     OW14707   1.579   3.761   5.768 -0.2861 -0.2284 -0.1937
 1083SOL    HW114708   1.519   3.831   5.794 -0.6548  0.0513 -1.7999
 1083SOL    HW214709   1.662   3.796   5.800 -0.7306 -0.1889  0.9354
 1084SOL     OW14710   2.881   1.128   2.486 -0.2609 -0.5674  0.1796
 1084SOL    HW114711   2.936   1.051   2.472  2.5465  1.3043  0.9711
 1084SOL    HW214712   2.792   1.097   2.505 -1.4830  1.7480 -1.7499
 1085SOL     OW14713   0.783   0.266   3.079  0.3575 -0.4697 -0.0144
 1085SOL    HW114714   0.782   0.251   2.985 -0.0900  2.1740 -0.4379
 1085SOL    HW214715   0.863   0.317   3.089  0.5961 -1.0290  1.0153
 1086SOL     OW14716   3.140   4.634   4.604  0.1628 -0.6488  0.1055
 1086SOL    HW114717   3.119   4.718   4.564  3.8690  0.5938  0.7328
 1086SOL    HW214718   3.114   4.647   4.696 -0.2192  0.3780 -0.1426
 1087SOL     OW14719   3.064   3.680   8.090  0.1422  0.0583  0.2373
 1087SOL    HW114720   3.019   3.762   8.110  1.3505  1.1705 -1.5757
 1087SOL    HW214721   3.001   3.632   8.037 -0.8792  0.6288  0.9207
 1088SOL     OW14722   2.295   2.071   1.528 -0.1600 -0.0304 -0.4340
 1088SOL    HW114723   2.283   2.152   1.578 -0.6080 -0.7530  0.6200
 1088SOL    HW214724   2.303   2.005   1.598 -3.4183 -0.7602 -0.7616
 1089SOL     OW14725   0.152   3.895   4.116 -0.1301 -0.0217 -0.5352
 1089SOL    HW114726   0.198   3.870   4.036  0.5839 -2.6679  0.7083
 1089SOL    HW214727   0.075   3.838   4.109 -0.0338 -0.4443  1.9691
 1090SOL     OW14728   4.348   4.247   6.550 -0.0177 -0.1971  0.4466
 1090SOL    HW114729   4.268   4.226   6.503 -0.8808  0.3830  1.6425
 1090SOL    HW214730   4.407   4.181   6.514 -1.0683 -0.2140 -1.2368
 1091SOL     OW14731   2.690   2.808  13.430  0.1359 -0.1463  0.2428
 1091SOL    HW114732   2.655   2.775  13.512  2.2201 -1.2245  0.7108
 1091SOL    HW214733   2.687   2.721  13.389 -3.5942 -0.2255  0.7123
 1092SOL     OW14734   1.288   3.964   2.597 -0.7909  0.1858  0.5666
 1092SOL    HW114735   1.332   4.048   2.612  0.3008  0.0652 -1.9378
 1092SOL    HW214736   1.263   3.967   2.505  0.0988 -2.1268  0.2478
 1093SOL     OW14737   2.184   4.060   9.616 -0.2340  0.3804  0.1706
 1093SOL    HW114738   2.109   4.063   9.675 -0.5249  0.2226 -0.1933
 1093SOL    HW214739   2.188   3.964   9.620 -2.4230  0.2856  0.0817
 1094SOL     OW14740   1.190   2.751   3.092 -0.2932  0.4329  0.1332
 1094SOL    HW114741   1.278   2.717   3.108 -0.0947  1.4114  1.0866
 1094SOL    HW214742   1.146   2.666   3.105  1.0354 -0.9273 -4.0970
 1095SOL     OW14743   0.440   2.535   4.222 -0.2821  0.3286  0.6062
 1095SOL    HW114744   0.406   2.463   4.169 -2.4134  1.0591  0.9787
 1095SOL    HW214745   0.528   2.543   4.184 -0.3031 -2.0409  0.0620
 1096SOL     OW14746   2.782   4.052   3.389 -0.1092 -0.3092 -0.2135
 1096SOL    HW114747   2.815   4.137   3.362 -0.5620 -0.1105 -0.1398
 1096SOL    HW214748   2.863   4.000   3.387  0.8994  1.2438  0.6495
 1097SOL     OW14749   4.019   2.262   4.521 -0.1348  0.8552  0.3031
 1097SOL    HW114750   3.993   2.350   4.495  0.7113  0.3191 -2.3456
 1097SOL    HW214751   4.019   2.223   4.434 -2.0141  0.5006  0.4652
 1098SOL     OW14752   0.871   3.584   7.694 -0.2774 -0.4176  0.4463
 1098SOL    HW114753   0.941   3.646   7.717 -0.3615 -0.8745  1.9902
 1098SOL    HW214754   0.816   3.624   7.628  0.2308  1.0192  0.8987
 1099SOL     OW14755   2.235   4.716   9.467 -0.2796  0.4845  0.2703
 1099SOL    HW114756   2.198   4.711   9.379  0.3282 -0.2904  0.0598
 1099SOL    HW214757   2.196   4.640   9.511  1.8450 -0.1525  1.0094
 1100SOL     OW14758   1.696   1.537   8.292 -0.6031  0.5708  0.3440
 1100SOL    HW114759   1.648   1.564   8.370 -2.4308  1.5155 -1.1108
 1100SOL    HW214760   1.697   1.618   8.240 -1.4350 -0.0161 -0.5999
 1101SOL     OW14761   1.036   0.568   2.138 -0.0317 -0.0142  0.0093
 1101SOL    HW114762   1.129   0.591   2.132  0.2959 -1.3391  0.1362
 1101SOL    HW214763   0.992   0.640   2.092  1.6824  2.0227  1.5144
 1102SOL     OW14764   4.343   1.319  14.127  0.3898  0.0294 -0.3145
 1102SOL    HW114765   4.419   1.342  14.181  0.2118  0.2879 -0.1759
 1102SOL    HW214766   4.388   1.249  14.081 -1.3191 -1.0807 -0.2734
 1103SOL     OW14767   1.535   1.871   3.586  0.0363 -0.6216 -0.2013
 1103SOL    HW114768   1.622   1.839   3.611 -1.6453 -3.4335  2.1065
 1103SOL    HW214769   1.481   1.834   3.656  0.6023 -1.1450 -0.0419
 1104SOL     OW14770   0.117   2.413  15.801  0.2974 -0.3619 -0.4503
 1104SOL    HW114771   0.043   2.422  15.860 -1.3255  0.5841 -2.6587
 1104SOL    HW214772   0.186   2.431  15.866  0.1822  1.5557 -0.8853
 1105SOL     OW14773   3.243   1.815   1.389 -0.0816  0.1005  0.0585
 1105SOL    HW114774   3.323   1.764   1.406 -0.0923  1.0030  2.7922
 1105SOL    HW214775   3.183   1.743   1.409 -0.4526  0.3804 -0.0464
 1106SOL     OW14776   3.706   0.636   8.156  0.0707 -0.2520 -0.4377
 1106SOL    HW114777   3.722   0.560   8.100  2.0781 -0.3140  0.2312
 1106SOL    HW214778   3.780   0.697   8.154 -2.3236  2.8326  4.7942
 1107SOL     OW14779   4.119   2.775   2.240  0.0677 -0.0520 -0.2995
 1107SOL    HW114780   4.104   2.738   2.327  1.9895  0.5508  0.2990
 1107SOL    HW214781   4.027   2.792   2.219  0.5550  3.4259  0.2740
 1108SOL     OW14782   0.674   3.290   3.326  0.2491 -0.5638 -0.1899
 1108SOL    HW114783   0.601   3.347   3.301 -0.4639 -0.8840  1.1246
 1108SOL    HW214784   0.704   3.264   3.239  1.2509 -1.1267  0.3257
 1109SOL     OW14785   2.920   0.268  14.781 -0.8418  0.0469  0.0374
 1109SOL    HW114786   2.928   0.209  14.856 -2.3768  0.6867  0.7130
 1109SOL    HW214787   3.013   0.290  14.784 -0.9271  0.3552  0.5554
 1110SOL     OW14788   1.489   2.827  12.538 -0.0081  0.0227  0.3920
 1110SOL    HW114789   1.535   2.809  12.620  2.4808 -0.0273 -1.0220
 1110SOL    HW214790   1.435   2.900  12.569  0.9920  0.6399  0.6813
 1111SOL     OW14791   1.895   0.961   8.310  0.1124 -0.1219 -0.0691
 1111SOL    HW114792   1.886   0.953   8.215 -2.2444 -1.5801  0.2774
 1111SOL    HW214793   1.988   0.945   8.328  0.0834  0.5483  0.7125
 1112SOL     OW14794   3.214   1.710   3.827 -0.1424 -0.2940 -0.5688
 1112SOL    HW114795   3.251   1.791   3.862  0.1126 -0.5887 -0.1660
 1112SOL    HW214796   3.122   1.736   3.817 -0.2431 -0.0683  1.0154
 1113SOL     OW14797   1.450   2.717   2.660 -0.3418  0.4209  0.3943
 1113SOL    HW114798   1.481   2.628   2.675 -2.2150 -0.6535 -2.0312
 1113SOL    HW214799   1.384   2.701   2.592 -1.1215 -0.5865  1.3885
 1114SOL     OW14800   0.281   1.070   8.529 -0.3306  0.7934 -0.0071
 1114SOL    HW114801   0.322   1.071   8.616 -0.3709  0.6663  0.0134
 1114SOL    HW214802   0.200   1.112   8.556 -0.4448  0.4299  0.2171
 1115SOL     OW14803   0.985   0.308  11.510 -0.4856  0.2583  0.1232
 1115SOL    HW114804   0.918   0.329  11.444 -0.6858  2.2449  0.9643
 1115SOL    HW214805   1.009   0.217  11.492 -0.6621  0.2618 -0.1410
 1116SOL     OW14806   3.921   1.872   3.517  0.1406  0.0026 -0.4187
 1116SOL    HW114807   3.946   1.957   3.553 -2.8086  0.3717  0.6983
 1116SOL    HW214808   3.853   1.904   3.459 -2.3701 -1.1545  1.9142
 1117SOL     OW14809   3.428   0.479   3.588  0.0741 -0.2546 -0.2028
 1117SOL    HW114810   3.379   0.539   3.645  0.3247 -0.1926 -0.0530
 1117SOL    HW214811   3.454   0.413   3.652 -0.4089 -0.6283 -0.3829
 1118SOL     OW14812   0.066   0.377   6.913  0.1920  0.1618  0.3501
 1118SOL    HW114813   0.010   0.416   6.846  0.7797 -0.8405 -0.7197
 1118SOL    HW214814   0.047   0.283   6.907 -1.3957  0.6530 -2.1693
 1119SOL     OW14815   2.420   0.516   1.067 -0.7620  0.0880 -0.5132
 1119SOL    HW114816   2.483   0.523   0.994 -0.2882 -3.1605 -0.3875
 1119SOL    HW214817   2.350   0.465   1.028  0.3906 -0.3138 -2.0603
 1120SOL     OW14818   2.445   1.374   3.630  0.0928 -0.2043  0.4776
 1120SOL    HW114819   2.439   1.470   3.625  1.1503 -0.1153  0.9541
 1120SOL    HW214820   2.359   1.338   3.606  1.1050 -3.0803  1.1965
 1121SOL     OW14821   4.094   2.424  12.878 -0.1310  0.1294 -0.1240
 1121SOL    HW114822   3.999   2.413  12.884 -0.0141 -1.4795 -1.2882
 1121SOL    HW214823   4.105   2.460  12.790  2.0486 -0.4190 -0.0701
 1122SOL     OW14824   0.900   1.733   1.179 -0.2598  0.1703  1.2475
 1122SOL    HW114825   0.881   1.811   1.231 -2.4858  0.8298 -0.5460
 1122SOL    HW214826   0.995   1.730   1.184 -0.4360 -2.1860  3.1393
 1123SOL     OW14827   1.654   4.106  16.847  0.0436 -0.2074  0.1507
 1123SOL    HW114828   1.720   4.063  16.903  1.5160 -0.3134 -1.6603
 1123SOL    HW214829   1.657   4.047  16.772 -3.2696  0.8079 -0.7784
 1124SOL     OW14830   4.101   2.154  10.210  0.1309  0.4513 -1.3027
 1124SOL    HW114831   4.057   2.094  10.151  1.6868 -0.6623 -1.3290
 1124SOL    HW214832   4.065   2.238  10.182  0.5846  0.5107 -1.7133
 1125SOL     OW14833   3.999   0.717  11.905  0.4790 -0.4489 -0.5468
 1125SOL    HW114834   3.932   0.697  11.838  0.0668 -0.1436 -0.2258
 1125SOL    HW214835   3.966   0.665  11.978 -1.9649  1.1442 -0.5025
 1126SOL     OW14836   3.020   0.111   5.522 -0.4545 -0.2709  0.3611
 1126SOL    HW114837   3.011   0.199   5.485  1.1123  1.6687  4.5464
 1126SOL    HW214838   3.114   0.101   5.509 -0.2868  0.8963  0.6802
 1127SOL     OW14839   1.990   0.776  17.207 -0.4458 -0.2493  0.2885
 1127SOL    HW114840   2.008   0.714  17.136 -0.3995  0.9486 -0.7557
 1127SOL    HW214841   2.077   0.776  17.247  0.7118 -0.9189 -2.2040
 1128SOL     OW14842   4.494   1.277  12.649 -0.5520  0.7371 -0.0840
 1128SOL    HW114843   4.554   1.227  12.704 -0.0726  0.0406 -1.2347
 1128SOL    HW214844   4.558   1.307  12.585 -1.6686 -0.2175 -1.6472
 1129SOL     OW14845   3.051   4.386  12.163  0.6982 -0.4651  0.6903
 1129SOL    HW114846   3.037   4.459  12.225  1.5596  0.8667 -0.6924
 1129SOL    HW214847   3.058   4.313  12.224  0.6850 -1.8205 -0.9545
 1130SOL     OW14848   4.666   1.370   3.040  0.3984 -0.8300  0.1094
 1130SOL    HW114849   0.002   1.365   3.115 -1.9029 -0.0315  2.0148
 1130SOL    HW214850   4.595   1.312   3.067 -0.0554 -0.3350 -0.0242
 1131SOL     OW14851   1.200   3.215  11.186 -0.7135  0.0799  0.3224
 1131SOL    HW114852   1.185   3.276  11.259  1.9056 -0.3377  1.1716
 1131SOL    HW214853   1.252   3.267  11.124 -0.3574 -0.7763 -0.0882
 1132SOL     OW14854   0.770   1.795   2.538  0.0581 -0.3018  0.1700
 1132SOL    HW114855   0.852   1.804   2.489  1.3236  0.9036  2.5015
 1132SOL    HW214856   0.750   1.883   2.570  1.0997 -0.0043  0.0206
 1133SOL     OW14857   0.129   1.681   0.915  0.0078  0.4462 -0.1763
 1133SOL    HW114858   0.053   1.706   0.968  0.6604  2.4562 -0.1782
 1133SOL    HW214859   0.195   1.723   0.971  0.1888  0.1682 -0.1802
 1134SOL     OW14860   4.035   0.447  16.079 -0.2464 -0.5016 -0.3033
 1134SOL    HW114861   4.067   0.393  16.007 -0.6736  0.0872 -0.9272
 1134SOL    HW214862   3.954   0.478  16.039  0.1635  0.4198 -0.4099
 1135SOL     OW14863   4.406   3.792   9.955  0.0190  0.1563 -0.3027
 1135SOL    HW114864   4.454   3.741  10.020  0.4472 -0.2286 -0.9160
 1135SOL    HW214865   4.435   3.883   9.970 -1.1511  0.6425 -1.0061
 1136SOL     OW14866   4.720   0.473   5.251  0.4438 -0.2772  0.1085
 1136SOL    HW114867   4.710   0.508   5.162  2.1400  1.4514  0.5940
 1136SOL    HW214868   4.694   0.551   5.301 -0.3561  0.6371 -1.6977
 1137SOL     OW14869   3.436   4.272  10.071 -0.1416 -0.0356  0.2067
 1137SOL    HW114870   3.409   4.213  10.142 -0.6489  2.9205  2.4550
 1137SOL    HW214871   3.529   4.283  10.089 -0.7223  1.8782  2.0787
 1138SOL     OW14872   4.273   4.628   4.940  0.2439  0.7357 -0.9704
 1138SOL    HW114873   4.223   4.691   4.888  0.5003  0.5798 -1.4101
 1138SOL    HW214874   4.357   4.648   4.898 -0.7151  1.3394 -2.6173
 1139SOL     OW14875   1.339   1.135   4.811  0.1751  0.2532 -0.2996
 1139SOL    HW114876   1.368   1.069   4.874 -1.8860 -2.0389 -1.7330
 1139SOL    HW214877   1.423   1.148   4.767  0.1983 -2.5941 -1.0802
 1140SOL     OW14878   1.992   1.106   5.300 -0.1339 -0.7606  0.9000
 1140SOL    HW114879   1.902   1.121   5.329 -0.6972 -3.5332  0.5660
 1140SOL    HW214880   1.982   1.055   5.219 -1.4858 -1.5870  1.5886
 1141SOL     OW14881   2.016   4.615   8.762  0.2850  0.0558 -0.0636
 1141SOL    HW114882   1.939   4.668   8.781 -1.1303 -1.7490 -0.8444
 1141SOL    HW214883   2.004   4.540   8.821 -1.0272  0.0982 -0.2815
 1142SOL     OW14884   0.465   1.846   2.148  0.0315  0.0351  0.1952
 1142SOL    HW114885   0.390   1.795   2.119 -2.8856  2.7124  2.9937
 1142SOL    HW214886   0.518   1.862   2.070  1.6924 -2.2296  0.8414
 1143SOL     OW14887   3.427   3.623  15.134 -0.3843  0.0646  0.3058
 1143SOL    HW114888   3.473   3.691  15.085  2.2537 -1.0199  1.2932
 1143SOL    HW214889   3.482   3.548  15.114  1.5839  1.6433 -0.1437
 1144SOL     OW14890   3.269   3.258  17.462  0.0627  0.0240  0.0669
 1144SOL    HW114891   3.210   3.331  17.444  0.1075  0.1552  0.4486
 1144SOL    HW214892   3.301   3.271  17.552 -1.1683 -0.0992  0.5130
 1145SOL     OW14893   0.759   2.018  11.289 -0.1238 -0.3812 -0.2691
 1145SOL    HW114894   0.853   2.036  11.288 -0.7076  2.7100  1.0342
 1145SOL    HW214895   0.755   1.944  11.350  1.4665  0.4876  0.8874
 1146SOL     OW14896   1.986   3.089  13.617 -0.1405  0.4162 -0.3607
 1146SOL    HW114897   1.897   3.058  13.601 -0.5757  1.0343  0.8808
 1146SOL    HW214898   2.035   3.068  13.537  0.1892  0.0645 -0.0609
 1147SOL     OW14899   2.715   3.269  16.539 -0.2512 -0.7284 -0.5593
 1147SOL    HW114900   2.647   3.202  16.533  0.4280 -1.6106  1.3870
 1147SOL    HW214901   2.681   3.336  16.480 -0.0862 -1.1704 -1.1495
 1148SOL     OW14902   2.585   4.367  16.526 -0.2000  0.1808  0.2436
 1148SOL    HW114903   2.668   4.365  16.574  0.4097  0.3975 -0.7911
 1148SOL    HW214904   2.532   4.435  16.566  1.3559  2.4977 -1.6427
 1149SOL     OW14905   1.943   2.209   7.009 -0.0097  0.1331  0.0920
 1149SOL    HW114906   1.959   2.211   7.104  0.7956  2.5142 -0.1204
 1149SOL    HW214907   1.854   2.173   7.009 -0.3700  1.0420  0.1189
 1150SOL     OW14908   3.560   3.169  11.012 -0.1861  0.4115 -0.2869
 1150SOL    HW114909   3.595   3.256  11.030  0.1491  0.2808 -0.3210
 1150SOL    HW214910   3.482   3.175  11.068 -1.2177 -1.1600 -1.5427
 1151SOL     OW14911   1.281   3.768   8.118 -0.2373 -0.3485  0.5286
 1151SOL    HW114912   1.255   3.828   8.048 -0.3321 -0.6017  0.3443
 1151SOL    HW214913   1.240   3.688   8.084 -0.5544 -0.0512  0.2061
 1152SOL     OW14914   3.114   0.364   4.626  0.1416  0.4438 -0.2251
 1152SOL    HW114915   3.088   0.455   4.615  0.4774  0.8569  2.4879
 1152SOL    HW214916   3.206   0.375   4.602  0.0367  2.0054  0.1049
 1153SOL     OW14917   0.490   4.527  15.599  0.0557 -0.4288 -0.7064
 1153SOL    HW114918   0.507   4.617  15.571 -1.8154 -0.2158 -1.0932
 1153SOL    HW214919   0.427   4.543  15.669 -0.4680  0.1935 -1.3249
 1154SOL     OW14920   3.828   2.292   1.188  0.2201  0.5946 -0.2378
 1154SOL    HW114921   3.840   2.215   1.243  1.3239 -1.1936 -2.9659
 1154SOL    HW214922   3.911   2.336   1.206  1.1600 -0.0053 -3.0729
 1155SOL     OW14923   1.368   3.191   4.954 -0.1406 -0.0552 -0.2580
 1155SOL    HW114924   1.393   3.121   5.015  1.8294  0.6802 -0.2495
 1155SOL    HW214925   1.284   3.223   4.987 -0.7411 -3.5559  1.6536
 1156SOL     OW14926   4.043   0.144   7.746 -0.4024 -0.1174 -0.2488
 1156SOL    HW114927   3.987   0.142   7.669 -0.7920 -0.8934  0.0580
 1156SOL    HW214928   4.025   0.231   7.782  0.0134 -0.1274 -0.0097
 1157SOL     OW14929   0.040   2.925   7.141  0.2346  0.1555  0.5755
 1157SOL    HW114930   0.118   2.960   7.182  0.7694  0.4589 -0.6928
 1157SOL    HW214931   4.697   2.981   7.181  0.0043 -0.6566  1.3406
 1158SOL     OW14932   2.562   0.887   4.865  0.2155 -0.0709  0.5032
 1158SOL    HW114933   2.489   0.922   4.917  1.5828  0.8929  1.7573
 1158SOL    HW214934   2.521   0.902   4.780  0.5245 -1.2175  0.1552
 1159SOL     OW14935   3.493   4.264   8.459 -0.7900 -0.1778  0.0453
 1159SOL    HW114936   3.516   4.315   8.381  0.9210  1.0733  1.3545
 1159SOL    HW214937   3.569   4.294   8.509  1.0610 -1.5897 -1.8904
 1160SOL     OW14938   1.269   0.473  16.404  0.2473 -0.0787  0.1512
 1160SOL    HW114939   1.356   0.510  16.390  0.9560 -0.5420  3.2680
 1160SOL    HW214940   1.298   0.383  16.393 -0.6893 -0.2038 -1.2601
 1161SOL     OW14941   4.380   3.131   9.487 -0.3308 -0.7369  0.0438
 1161SOL    HW114942   4.400   3.225   9.484 -1.7108 -0.4605 -0.7196
 1161SOL    HW214943   4.464   3.085   9.484  0.7056  1.1459  0.1496
 1162SOL     OW14944   1.308   1.471  15.207  0.3216  0.3394  0.2463
 1162SOL    HW114945   1.391   1.488  15.163 -0.0331 -1.6567 -1.2002
 1162SOL    HW214946   1.302   1.543  15.270  2.2744  0.2819  0.4969
 1163SOL     OW14947   3.097   1.443   4.763  0.0049  0.0778 -0.1995
 1163SOL    HW114948   3.170   1.502   4.743 -0.0792  0.4494  0.5550
 1163SOL    HW214949   3.075   1.462   4.855 -0.3341  2.0681 -0.6963
 1164SOL     OW14950   0.860   3.961   0.185 -0.6141 -0.5168 -0.2645
 1164SOL    HW114951   0.909   3.893   0.231  1.0275  0.7776 -0.0902
 1164SOL    HW214952   0.885   3.930   0.098 -1.4388 -0.2179 -0.6097
 1165SOL     OW14953   2.992   4.426   4.501 -0.0559  0.5423 -0.0781
 1165SOL    HW114954   3.057   4.491   4.525  2.4654 -2.5372  1.4573
 1165SOL    HW214955   3.043   4.345   4.496 -1.6169 -0.4397 -0.1354
 1166SOL     OW14956   2.687   1.876  14.550 -0.3465 -0.6241 -0.1767
 1166SOL    HW114957   2.629   1.834  14.614  0.9511 -2.2297 -0.0473
 1166SOL    HW214958   2.627   1.916  14.487 -0.0063  1.0159  0.5605
 1167SOL     OW14959   0.843   1.993   6.515  0.2945 -0.1893  0.4594
 1167SOL    HW114960   0.796   1.927   6.465 -0.2580  0.1795  0.4906
 1167SOL    HW214961   0.845   2.064   6.451  2.4865  0.7890  1.6208
 1168SOL     OW14962   4.408   4.711   5.751  0.0225  0.4980 -0.0075
 1168SOL    HW114963   4.404   4.623   5.788 -1.1517  0.0442 -1.2333
 1168SOL    HW214964   4.437   4.692   5.662 -1.2390 -2.0985  0.1302
 1169SOL     OW14965   3.276   3.624  13.888 -0.0218 -0.7011  0.0361
 1169SOL    HW114966   3.279   3.616  13.984 -1.1269 -0.8655  0.0569
 1169SOL    HW214967   3.292   3.532  13.869  1.1682 -0.4033 -0.4364
 1170SOL     OW14968   1.428   4.660   3.264 -1.1177 -1.2642  0.1779
 1170SOL    HW114969   1.367   4.586   3.260 -2.2687 -0.3911  1.5574
 1170SOL    HW214970   1.509   4.611   3.251  0.7780  1.8906  0.1052
 1171SOL     OW14971   4.438   2.289   5.650  0.3435 -0.2239  0.0104
 1171SOL    HW114972   4.514   2.233   5.663 -0.1700 -1.0512 -0.5913
 1171SOL    HW214973   4.473   2.378   5.642 -0.1059  0.1291  2.1392
 1172SOL     OW14974   3.508   1.732   3.756 -0.1218  0.1634 -0.3661
 1172SOL    HW114975   3.516   1.822   3.788  0.2105 -0.1166  0.3181
 1172SOL    HW214976   3.474   1.741   3.666  1.2146  1.4535 -0.7430
 1173SOL     OW14977   1.704   2.724  16.432  0.3964 -0.0133 -0.0331
 1173SOL    HW114978   1.760   2.760  16.501  1.9650 -0.4316 -1.0768
 1173SOL    HW214979   1.633   2.787  16.436 -1.3146 -2.0209  1.1722
 1174SOL     OW14980   2.217   4.675   2.426  0.2779  0.6256  0.3852
 1174SOL    HW114981   2.253   4.697   2.512  1.3463 -1.4374  0.4779
 1174SOL    HW214982   2.291   4.689   2.367  0.2265 -0.5042  0.0514
 1175SOL     OW14983   3.735   0.999  12.286 -0.2805 -0.4197  0.3980
 1175SOL    HW114984   3.719   1.093  12.296 -0.1332 -0.6920  3.1812
 1175SOL    HW214985   3.665   0.957  12.335 -1.0779  0.6362  0.1605
 1176SOL     OW14986   0.561   2.775   0.482  0.1752  0.8368 -0.2132
 1176SOL    HW114987   0.473   2.810   0.495 -0.3433 -1.0173  1.3597
 1176SOL    HW214988   0.610   2.846   0.442  0.3829  0.3362 -0.8498
 1177SOL     OW14989   3.322   1.680  10.976  0.3219  0.2070  0.1869
 1177SOL    HW114990   3.337   1.685  11.070 -1.7866  2.4136  0.4084
 1177SOL    HW214991   3.244   1.625  10.973  0.3577  0.0776  1.5550
 1178SOL     OW14992   0.089   4.408  16.841  1.1652  0.5093 -0.2568
 1178SOL    HW114993   0.057   4.468  16.909 -2.0033  0.1030 -1.3780
 1178SOL    HW214994   0.018   4.416  16.777  0.2568 -0.9544  0.5714
 1179SOL     OW14995   1.672   1.987   2.204 -0.5886  0.0200 -0.0503
 1179SOL    HW114996   1.646   1.895   2.204  0.7387 -0.3487 -0.9174
 1179SOL    HW214997   1.747   2.000   2.262 -0.5731 -1.9898  0.3855
 1180SOL     OW14998   1.798   4.599   7.832 -0.0280  0.3489  0.2415
 1180SOL    HW114999   1.844   4.595   7.916  2.0777 -0.5414 -0.9466
 1180SOL    HW215000   1.809   4.690   7.806 -2.1210  0.1902 -1.2447
 1181SOL     OW15001   2.997   3.657  13.963 -0.2354  0.7899 -0.4800
 1181SOL    HW115002   3.056   3.601  13.913  2.7894  0.7654  3.1134
 1181SOL    HW215003   3.066   3.703  14.011  3.0338 -1.9147 -2.5939
 1182SOL     OW15004   4.674   3.393   8.549 -0.5157  0.9805  1.1619
 1182SOL    HW115005   4.704   3.437   8.629 -0.4108  1.2723  0.9600
 1182SOL    HW215006   0.004   3.434   8.481  0.9022 -1.7038  0.6473
 1183SOL     OW15007   3.463   2.868   8.290  0.3928 -0.5915 -0.0398
 1183SOL    HW115008   3.548   2.878   8.249  0.7263 -1.1779  0.5088
 1183SOL    HW215009   3.404   2.929   8.245 -0.3241 -2.2311 -1.3304
 1184SOL     OW15010   1.963   2.444   8.147 -0.0549  0.2431  0.6380
 1184SOL    HW115011   1.870   2.423   8.154 -0.1687  1.2944  2.4239
 1184SOL    HW215012   2.009   2.361   8.155 -2.0430 -1.0395 -1.2002
 1185SOL     OW15013   1.153   4.452   0.875  0.3835 -0.2385 -0.7843
 1185SOL    HW115014   1.205   4.385   0.920 -0.2529  0.6205  1.1762
 1185SOL    HW215015   1.218   4.468   0.806  0.2291 -2.7206 -1.5147
 1186SOL     OW15016   1.155   3.892   9.625 -0.1119 -0.4488  0.7595
 1186SOL    HW115017   1.207   3.918   9.701  0.9453 -2.3615  0.6907
 1186SOL    HW215018   1.078   3.949   9.629  0.3877  0.1132  2.4060
 1187SOL     OW15019   1.216   2.417  11.857  0.0211 -0.3173 -0.3459
 1187SOL    HW115020   1.120   2.413  11.860 -0.1248  1.3270 -2.5492
 1187SOL    HW215021   1.224   2.373  11.942 -2.1959  0.0939  0.0898
 1188SOL     OW15022   2.419   3.560   6.225  0.4223  0.0580  0.0541
 1188SOL    HW115023   2.361   3.541   6.152  0.6387  1.0733 -0.3823
 1188SOL    HW215024   2.431   3.472   6.260 -2.5305 -0.1090  0.6310
 1189SOL     OW15025   1.105   3.257   9.780 -0.1951 -0.3644  0.2836
 1189SOL    HW115026   1.071   3.243   9.869 -1.8477  1.2144 -0.1079
 1189SOL    HW215027   1.101   3.166   9.750  0.4107 -0.9806  2.0490
 1190SOL     OW15028   0.461   4.376   1.117  0.0057  0.3432  0.3056
 1190SOL    HW115029   0.475   4.461   1.159 -0.7269  0.0383  1.1514
 1190SOL    HW215030   0.411   4.337   1.189 -1.3519  0.3002 -0.6688
 1191SOL     OW15031   1.401   0.215  11.319 -0.6540 -0.0194 -0.0498
 1191SOL    HW115032   1.374   0.297  11.278 -0.1519  1.6480  2.9647
 1191SOL    HW215033   1.374   0.240  11.408 -1.5635 -1.6956  0.1593
 1192SOL     OW15034   2.138   1.712   1.620  0.3103 -0.4481  0.2437
 1192SOL    HW115035   2.119   1.648   1.690  0.7197  1.1444  1.8120
 1192SOL    HW215036   2.143   1.788   1.678 -2.3490 -1.1145  1.3859
 1193SOL     OW15037   4.640   3.104   4.675  0.2748 -0.1196 -0.2294
 1193SOL    HW115038   4.614   3.077   4.587 -0.7600  0.5425 -0.1384
 1193SOL    HW215039   4.714   3.046   4.690  1.3872  1.1041 -0.9387
 1194SOL     OW15040   0.790   3.909  15.649  0.0375  0.5643  0.3874
 1194SOL    HW115041   0.810   3.876  15.736  0.7884  1.4603  0.5540
 1194SOL    HW215042   0.752   3.831  15.609 -1.3372  1.6664 -0.4646
 1195SOL     OW15043   3.627   0.858  16.032 -0.4876  0.1570  0.2605
 1195SOL    HW115044   3.619   0.947  15.998 -1.8443  1.0057  2.7663
 1195SOL    HW215045   3.576   0.803  15.973  0.7501 -1.8696  1.0798
 1196SOL     OW15046   3.257   3.594   1.894 -0.4937  0.4282  0.6504
 1196SOL    HW115047   3.296   3.681   1.890 -1.6548  0.9280  0.3998
 1196SOL    HW215048   3.163   3.602   1.910 -0.3367 -0.7398  2.1579
 1197SOL     OW15049   4.529   0.417   2.883  0.1422  0.0503 -0.2309
 1197SOL    HW115050   4.558   0.464   2.962  0.7538  1.1414 -1.1030
 1197SOL    HW215051   4.444   0.458   2.866  0.1535 -0.4109 -1.3669
 1198SOL     OW15052   4.654   0.660   2.727  0.0758 -0.7187 -0.0869
 1198SOL    HW115053   4.560   0.677   2.732  0.2438  0.3847 -0.7240
 1198SOL    HW215054   4.647   0.569   2.755 -2.8902 -0.7821 -1.0191
 1199SOL     OW15055   3.617   2.833   7.604  0.6006 -0.3338  0.0777
 1199SOL    HW115056   3.693   2.781   7.576  0.0960 -0.7223 -0.5493
 1199SOL    HW215057   3.660   2.894   7.664 -1.3488 -0.5452  1.6817
 1200SOL     OW15058   0.601   1.328   6.399  0.4239 -0.9452  0.4041
 1200SOL    HW115059   0.511   1.325   6.367  0.1082 -2.6549  1.4250
 1200SOL    HW215060   0.622   1.421   6.387 -0.7200 -0.6186  0.8786
 1201SOL     OW15061   2.517   2.143   3.653 -0.0561 -0.3727  0.2261
 1201SOL    HW115062   2.480   2.218   3.700 -0.8942  0.4712 -1.7582
 1201SOL    HW215063   2.537   2.084   3.726  0.4545  0.9258  1.1358
 1202SOL     OW15064   0.432   0.913   1.972 -0.1960  0.3091 -0.2733
 1202SOL    HW115065   0.421   0.974   1.899 -1.4777  1.8891  1.2171
 1202SOL    HW215066   0.487   0.969   2.027 -1.9440 -0.4583  2.2764
 1203SOL     OW15067   2.256   0.647   9.967 -0.0289 -0.2253  0.0816
 1203SOL    HW115068   2.337   0.631   9.919  0.7071  3.1880  0.1502
 1203SOL    HW215069   2.199   0.672   9.894 -2.2658 -1.1163  1.4958
 1204SOL     OW15070   2.887   3.988   6.489  0.2743 -0.1810  0.4400
 1204SOL    HW115071   2.857   3.901   6.463  0.9374 -0.3286  0.1817
 1204SOL    HW215072   2.907   3.983   6.582 -0.7427  0.9152  0.7174
 1205SOL     OW15073   4.040   3.559  13.633  0.8257 -0.5452  0.6598
 1205SOL    HW115074   3.963   3.527  13.587 -0.7933  1.3402  2.1102
 1205SOL    HW215075   4.015   3.594  13.718  0.3331  1.0926 -0.1621
 1206SOL     OW15076   1.841   0.861   4.159  0.1184  0.0842 -0.2738
 1206SOL    HW115077   1.824   0.788   4.099  2.0564 -0.7342  0.1880
 1206SOL    HW215078   1.782   0.836   4.230 -0.3504  0.7498 -0.4275
 1207SOL     OW15079   3.762   2.046   8.856 -0.0616 -0.3461 -0.3359
 1207SOL    HW115080   3.704   2.009   8.923  0.1836  1.3602  0.8080
 1207SOL    HW215081   3.779   1.972   8.797  0.1596 -0.8256  0.3242
 1208SOL     OW15082   1.864   1.464  14.899  0.6209  0.2933 -0.8139
 1208SOL    HW115083   1.866   1.373  14.871  1.3957  0.2610 -0.6462
 1208SOL    HW215084   1.781   1.494  14.861 -0.3674 -1.9353 -0.4026
 1209SOL     OW15085   4.477   1.035   8.606  0.1565 -0.6009 -0.0052
 1209SOL    HW115086   4.382   1.038   8.596  0.2067  0.5297 -0.2339
 1209SOL    HW215087   4.482   1.045   8.701  1.8506  1.9245 -0.3496
 1210SOL     OW15088   3.532   1.348   3.757 -0.6192 -0.4986 -0.1855
 1210SOL    HW115089   3.560   1.377   3.671  1.3627  0.7025  0.8727
 1210SOL    HW215090   3.448   1.395   3.751  0.4836  1.8120  2.2384
 1211SOL     OW15091   2.697   3.260   4.970 -0.0454 -0.1979 -0.3827
 1211SOL    HW115092   2.695   3.346   4.928 -5.1675  0.5748  1.4515
 1211SOL    HW215093   2.681   3.289   5.060  0.8253 -0.0347 -0.2730
 1212SOL     OW15094   2.324   1.237   2.991  0.4172  0.1287 -0.0831
 1212SOL    HW115095   2.409   1.197   2.973  0.0549 -0.9498  0.5749
 1212SOL    HW215096   2.265   1.166   2.964  1.0679 -1.8533  3.6256
 1213SOL     OW15097   2.403   0.325   8.817  0.1410 -0.5768 -0.4694
 1213SOL    HW115098   2.434   0.358   8.902 -2.0602 -0.1788  0.1804
 1213SOL    HW215099   2.475   0.280   8.774  0.7954  1.6521 -1.7135
 1214SOL     OW15100   2.063   2.192   8.221 -0.6038  0.4363 -0.2284
 1214SOL    HW115101   2.027   2.146   8.297  2.9027 -0.3224  0.9744
 1214SOL    HW215102   2.156   2.195   8.242 -0.4222  1.0266 -1.1263
 1215SOL     OW15103   2.822   3.547   1.302  0.4090 -0.2799  0.6642
 1215SOL    HW115104   2.889   3.575   1.239  0.7348 -3.1706 -0.2410
 1215SOL    HW215105   2.876   3.539   1.381  0.7430 -2.0250  0.2490
 1216SOL     OW15106   3.248   1.969   3.989  0.3366  0.1144  0.4872
 1216SOL    HW115107   3.314   1.980   4.057 -0.0723  1.8193  0.6101
 1216SOL    HW215108   3.172   1.940   4.039 -1.3537  1.0892 -1.5071
 1217SOL     OW15109   3.881   1.700   2.337  0.2237 -0.5583  0.2812
 1217SOL    HW115110   3.935   1.738   2.267 -2.0293  0.6405 -0.8453
 1217SOL    HW215111   3.810   1.665   2.283 -1.2508  0.2791  1.6820
 1218SOL     OW15112   2.257   4.438   6.141 -0.1669 -0.4706  0.5181
 1218SOL    HW115113   2.312   4.417   6.066 -2.3834 -0.5563 -1.0922
 1218SOL    HW215114   2.243   4.531   6.126 -2.3191 -1.0187 -0.9279
 1219SOL     OW15115   4.246   2.572   7.696  0.4347  0.2486  0.2351
 1219SOL    HW115116   4.204   2.502   7.746 -0.2115  0.7447  0.3882
 1219SOL    HW215117   4.337   2.543   7.699 -0.8035 -3.5849  0.5548
 1220SOL     OW15118   0.025   4.247   5.137 -0.0688 -0.3831  0.2004
 1220SOL    HW115119   4.723   4.226   5.227 -0.0790  0.8994  0.4833
 1220SOL    HW215120   4.701   4.177   5.091  1.8995 -0.4207 -1.8008
 1221SOL     OW15121   2.930   2.689   1.857  0.2009  0.2692 -1.1041
 1221SOL    HW115122   2.947   2.716   1.947 -0.8461  0.2977 -0.9142
 1221SOL    HW215123   3.000   2.627   1.837 -0.2318 -1.1274  1.7213
 1222SOL     OW15124   2.664   3.503   4.893  0.0725 -0.0229 -0.2117
 1222SOL    HW115125   2.594   3.562   4.866 -0.1740 -0.8842 -1.4259
 1222SOL    HW215126   2.677   3.534   4.983  3.2349  1.1823 -1.0917
 1223SOL     OW15127   3.682   3.389   5.161 -0.1774 -0.1040 -0.1422
 1223SOL    HW115128   3.690   3.320   5.227 -2.7486  0.5399  0.8083
 1223SOL    HW215129   3.590   3.414   5.169 -0.0397  0.6028 -0.7314
 1224SOL     OW15130   3.133   2.087   8.127  0.0721 -0.0447 -0.0755
 1224SOL    HW115131   3.126   2.178   8.155  1.3184  0.2158 -0.6504
 1224SOL    HW215132   3.111   2.091   8.034  3.5679 -0.2768 -0.8964
 1225SOL     OW15133   2.524   3.411   6.935  0.1747  0.0279  0.2606
 1225SOL    HW115134   2.463   3.337   6.932  0.2368  0.1113 -3.1662
 1225SOL    HW215135   2.515   3.428   7.029 -2.9465  0.3406 -0.1179
 1226SOL     OW15136   1.760   3.790  10.497 -0.3253 -0.0150  0.0909
 1226SOL    HW115137   1.776   3.805  10.590 -0.0041  2.0764 -0.3150
 1226SOL    HW215138   1.785   3.873  10.457 -1.3729  0.2064 -0.0938
 1227SOL     OW15139   1.937   1.987   3.850 -0.0181  0.0672 -0.1464
 1227SOL    HW115140   1.912   1.934   3.925  2.8670 -2.1547 -0.7865
 1227SOL    HW215141   1.859   2.042   3.838 -0.0535  0.5280  2.1110
 1228SOL     OW15142   1.068   1.135  15.188 -0.1071  0.0785 -0.3205
 1228SOL    HW115143   1.009   1.070  15.226 -1.4523  2.1387  1.1307
 1228SOL    HW215144   1.076   1.113  15.095  1.4796 -1.6883  0.2315
 1229SOL     OW15145   1.738   4.629   8.875  0.7493 -0.0294 -0.1082
 1229SOL    HW115146   1.668   4.693   8.888  1.4599  0.9644 -1.1309
 1229SOL    HW215147   1.723   4.604   8.783  0.8479  1.0866 -0.4293
 1230SOL     OW15148   4.358   1.799   9.721 -0.3260 -0.0901  0.3126
 1230SOL    HW115149   4.441   1.843   9.704 -0.9490  0.6625 -0.8178
 1230SOL    HW215150   4.392   1.724   9.770 -0.3824 -0.8321 -0.7575
 1231SOL     OW15151   3.286   1.215   7.443  0.1711  0.5199  0.8723
 1231SOL    HW115152   3.287   1.145   7.508 -0.7553  0.4185  0.7753
 1231SOL    HW215153   3.192   1.207   7.424  0.5512  1.0566 -1.2485
 1232SOL     OW15154   1.935   1.764   4.756 -0.0963  0.0256 -0.2775
 1232SOL    HW115155   2.012   1.819   4.766 -0.2248  0.0593  0.5605
 1232SOL    HW215156   1.902   1.813   4.680  0.0942 -1.0972 -1.0864
 1233SOL     OW15157   4.666   0.060  11.715  0.2720 -0.0746  0.2085
 1233SOL    HW115158   4.589   0.009  11.692  0.2586 -0.0391  0.1742
 1233SOL    HW215159   4.723   0.019  11.650 -0.4113  1.3519 -1.2763
 1234SOL     OW15160   3.946   3.941   3.715 -0.0202 -0.1963  0.2151
 1234SOL    HW115161   3.875   3.960   3.775 -0.5873 -0.5828 -0.3381
 1234SOL    HW215162   3.900   3.925   3.632  0.9403  0.2780 -0.4142
 1235SOL     OW15163   0.317   1.523   5.229  0.4635  0.3364  0.8071
 1235SOL    HW115164   0.311   1.617   5.208 -2.1159  0.0918  0.4725
 1235SOL    HW215165   0.261   1.510   5.305  1.6919  1.6780  1.9445
 1236SOL     OW15166   4.022   3.186   5.678  0.1839 -0.1431 -0.1619
 1236SOL    HW115167   3.988   3.176   5.767  1.8551  2.1571  0.7180
 1236SOL    HW215168   3.955   3.176   5.610  0.2565 -1.4952 -0.0490
 1237SOL     OW15169   1.729   4.153   6.345  0.1594  0.4716 -0.1321
 1237SOL    HW115170   1.813   4.148   6.391 -0.0200 -2.3099 -0.1008
 1237SOL    HW215171   1.762   4.197   6.266  0.3830 -0.9935 -0.8437
 1238SOL     OW15172   2.739   4.134   7.224 -0.6058 -0.4402  0.3186
 1238SOL    HW115173   2.819   4.111   7.272 -1.2402 -2.8995  0.1927
 1238SOL    HW215174   2.682   4.168   7.292  1.9763  2.6665  0.9367
 1239SOL     OW15175   2.574   2.592   3.436  0.1676 -0.0133 -0.8109
 1239SOL    HW115176   2.569   2.497   3.448  0.8477 -0.0005 -0.4619
 1239SOL    HW215177   2.665   2.606   3.462 -0.4346  0.4695  1.0003
 1240SOL     OW15178   3.247   0.263   2.989 -0.0680 -0.5209 -0.1493
 1240SOL    HW115179   3.277   0.354   2.997  0.6019 -0.8796  1.2948
 1240SOL    HW215180   3.211   0.233   3.072  3.1486 -0.2237  1.3425
 1241SOL     OW15181   2.032   0.330  11.854 -0.6066 -0.4138 -0.7324
 1241SOL    HW115182   2.076   0.335  11.939 -2.1996  1.8920 -0.0332
 1241SOL    HW215183   2.021   0.422  11.831 -2.2615 -0.3076  0.4813
 1242SOL     OW15184   2.640   2.252  13.263  0.6260  0.0991 -0.7311
 1242SOL    HW115185   2.688   2.180  13.306  2.7215  0.8033 -1.8627
 1242SOL    HW215186   2.659   2.320  13.328  0.3172 -0.3439 -0.1723
 1243SOL     OW15187   2.032   0.693   2.930 -0.0367  0.1001  0.4853
 1243SOL    HW115188   1.999   0.638   3.001  1.3588 -1.0853  0.2163
 1243SOL    HW215189   2.124   0.668   2.935  0.2052  0.5328 -1.9683
 1244SOL     OW15190   4.243   0.616   0.257 -0.2249 -0.1956  0.6811
 1244SOL    HW115191   4.309   0.659   0.312 -0.9313  0.7298  0.8131
 1244SOL    HW215192   4.272   0.629   0.167 -2.4930 -0.8042 -0.1587
 1245SOL     OW15193   4.076   3.341  15.450 -0.2891 -0.2746 -0.4177
 1245SOL    HW115194   4.092   3.252  15.419 -1.3907 -1.1399  1.5310
 1245SOL    HW215195   4.068   3.315  15.542 -1.6080 -0.0411 -0.4711
 1246SOL     OW15196   3.286   2.354   1.899 -0.0334 -0.2803 -0.6972
 1246SOL    HW115197   3.366   2.399   1.873 -1.5575  1.7524 -1.8551
 1246SOL    HW215198   3.215   2.415   1.876 -2.3536 -1.9576  2.0040
 1247SOL     OW15199   3.831   1.545  13.410  0.3801 -0.6287  0.1418
 1247SOL    HW115200   3.780   1.486  13.465  0.0137  0.9581  1.4959
 1247SOL    HW215201   3.761   1.610  13.401  2.1459  1.6024  2.4908
 1248SOL     OW15202   3.793   0.850   6.132 -0.2314 -0.7365 -0.2891
 1248SOL    HW115203   3.711   0.896   6.110 -0.0909 -1.2009 -1.7757
 1248SOL    HW215204   3.772   0.761   6.103 -0.5720 -0.2656 -1.5096
 1249SOL     OW15205   1.319   4.047   0.819  0.1417 -0.1892 -0.3781
 1249SOL    HW115206   1.256   3.977   0.836  1.5418 -1.4745 -0.4662
 1249SOL    HW215207   1.387   4.002   0.769  0.7749 -0.5756  0.8301
 1250SOL     OW15208   0.531   0.945   0.604  0.1047  0.1223 -0.3205
 1250SOL    HW115209   0.448   0.990   0.594 -0.0796 -0.0205  0.5938
 1250SOL    HW215210   0.559   1.003   0.674 -2.6336  1.5692 -0.4273
 1251SOL     OW15211   2.762   0.277   1.991 -0.3138 -0.4668 -0.1465
 1251SOL    HW115212   2.720   0.195   1.966 -0.6213 -0.7003  1.1355
 1251SOL    HW215213   2.689   0.316   2.041 -1.2545 -1.1914 -0.9733
 1252SOL     OW15214   1.367   3.361   8.359  0.3543  0.1310 -0.0657
 1252SOL    HW115215   1.420   3.312   8.421 -0.1181  1.8670  1.7076
 1252SOL    HW215216   1.397   3.331   8.273 -0.5073  0.4059 -0.4644
 1253SOL     OW15217   3.250   3.129   7.323  0.2083 -0.4652 -0.2342
 1253SOL    HW115218   3.169   3.178   7.315  1.0953  1.0082 -0.1854
 1253SOL    HW215219   3.216   3.047   7.360 -0.7037  0.9678  2.1018
 1254SOL     OW15220   2.701   4.156   7.842 -0.1130 -0.0246  0.1513
 1254SOL    HW115221   2.773   4.097   7.866 -1.0991 -0.6796  1.5523
 1254SOL    HW215222   2.634   4.112   7.896 -0.8059  0.6078 -0.1909
 1255SOL     OW15223   4.710   0.074  12.983  1.0623  0.0341  0.5295
 1255SOL    HW115224   0.056   0.053  12.920 -0.1121  0.9677 -1.0581
 1255SOL    HW215225   0.043   0.092  13.059  2.8554 -0.6172 -0.6281
 1256SOL     OW15226   3.532   0.516  11.234  0.0971  0.0014  0.1930
 1256SOL    HW115227   3.491   0.520  11.147  1.3395  0.2495 -0.3791
 1256SOL    HW215228   3.512   0.429  11.269  0.6377 -0.1578  0.1060
 1257SOL     OW15229   2.600   4.251   6.908  0.4779 -0.0110  0.1872
 1257SOL    HW115230   2.630   4.281   6.994  0.1699  0.4571  0.1251
 1257SOL    HW215231   2.505   4.259   6.911  0.6965  2.0055  1.6451
 1258SOL     OW15232   0.795   4.191   2.699  0.3711 -0.3805  0.3272
 1258SOL    HW115233   0.758   4.277   2.681 -0.0716 -0.5252  0.5401
 1258SOL    HW215234   0.842   4.175   2.618 -1.2730  0.0061 -0.7086
 1259SOL     OW15235   3.480   3.160   5.307  0.1975  0.2688 -0.7116
 1259SOL    HW115236   3.463   3.136   5.216  0.3541  1.2983 -1.0092
 1259SOL    HW215237   3.575   3.160   5.317 -0.3758 -0.4608  4.6090
 1260SOL     OW15238   0.142   0.799   8.862 -0.1449 -0.3512  0.1122
 1260SOL    HW115239   0.201   0.731   8.828  0.8620  0.9582 -0.7558
 1260SOL    HW215240   0.074   0.805   8.794 -0.2013 -0.3214  0.1713
 1261SOL     OW15241   0.681   1.061  15.127  0.2269 -0.0007 -0.1765
 1261SOL    HW115242   0.752   1.036  15.186  0.4132  2.1512  0.5421
 1261SOL    HW215243   0.708   1.148  15.096 -2.1963 -0.1507 -2.6940
 1262SOL     OW15244   3.848   4.484   5.826  0.2217  0.3945 -1.1241
 1262SOL    HW115245   3.849   4.570   5.784 -1.2344  0.8835 -0.1838
 1262SOL    HW215246   3.752   4.477   5.826  0.2260  0.2065  1.3006
 1263SOL     OW15247   1.745   0.717   6.869  0.0026 -0.7310 -0.3703
 1263SOL    HW115248   1.830   0.676   6.854 -0.6406 -2.3944  0.5211
 1263SOL    HW215249   1.774   0.808   6.874 -0.8545 -0.5193  0.8201
 1264SOL     OW15250   3.535   0.940   8.595 -0.5885  0.0896  0.1235
 1264SOL    HW115251   3.500   1.008   8.652  0.4506  1.0374 -0.3537
 1264SOL    HW215252   3.618   0.916   8.638 -1.7148  0.0253  2.2524
 1265SOL     OW15253   2.041   0.531  15.235  0.3939  0.1213 -0.1235
 1265SOL    HW115254   1.957   0.566  15.206  0.5670 -0.1601 -0.9823
 1265SOL    HW215255   2.028   0.436  15.237 -1.4586  0.3533 -1.2658
 1266SOL     OW15256   2.215   0.785  13.566 -0.1816 -0.3798  0.3529
 1266SOL    HW115257   2.276   0.795  13.639  1.3504  0.9053 -1.1102
 1266SOL    HW215258   2.170   0.869  13.556 -0.5577 -0.6813 -0.5100
 1267SOL     OW15259   2.087   3.822   4.210  0.4311 -0.1354 -0.5184
 1267SOL    HW115260   2.013   3.882   4.208 -0.7389 -1.5608 -0.0114
 1267SOL    HW215261   2.072   3.774   4.129 -1.1260  0.7847 -0.7494
 1268SOL     OW15262   3.706   1.389   3.960  0.4494  0.2584  0.0852
 1268SOL    HW115263   3.755   1.471   3.959 -1.0799  1.1889  0.7918
 1268SOL    HW215264   3.664   1.386   3.874 -0.1376  0.7816  0.3593
 1269SOL     OW15265   0.625   2.985   3.296  0.7072 -0.1538  0.4918
 1269SOL    HW115266   0.635   2.917   3.230  0.1910  1.3075 -1.0752
 1269SOL    HW215267   0.674   3.051   3.248  2.0991 -0.2105  1.8375
 1270SOL     OW15268   3.734   1.669   1.722 -0.3370 -0.2834  0.3953
 1270SOL    HW115269   3.792   1.745   1.720 -0.8252  0.0880  0.0702
 1270SOL    HW215270   3.740   1.644   1.814 -1.2513  0.8713  0.7682
 1271SOL     OW15271   0.730   2.118   3.461 -0.0633 -0.0809  0.3678
 1271SOL    HW115272   0.739   2.197   3.408 -1.0290 -0.2981 -0.1214
 1271SOL    HW215273   0.658   2.079   3.411 -0.4327  0.9771  0.0630
 1272SOL     OW15274   2.491   0.994   3.548 -0.5284 -0.4359 -0.6430
 1272SOL    HW115275   2.480   1.036   3.463 -0.4788  0.4230 -0.2280
 1272SOL    HW215276   2.528   0.909   3.524  2.0816  0.4180  0.3072
 1273SOL     OW15277   1.928   1.792   7.620 -0.3497 -0.0376  0.0066
 1273SOL    HW115278   1.951   1.824   7.707 -3.2873  2.6218 -0.1777
 1273SOL    HW215279   1.988   1.718   7.610 -0.4280 -0.0243 -0.5754
 1274SOL     OW15280   3.695   0.666  15.568  0.4607 -0.5225 -0.0057
 1274SOL    HW115281   3.698   0.754  15.531 -0.5769  0.4316  2.1569
 1274SOL    HW215282   3.704   0.606  15.494  0.0393 -1.0246  0.3467
 1275SOL     OW15283   3.710   2.619   4.580  0.1719  0.8087 -0.4053
 1275SOL    HW115284   3.753   2.689   4.629  2.4794  0.8667 -2.5710
 1275SOL    HW215285   3.615   2.634   4.585 -0.0319 -0.7267  0.5690
 1276SOL     OW15286   4.410   0.541   1.904  0.4040  0.4049  0.3658
 1276SOL    HW115287   4.477   0.579   1.846 -0.7755  3.3177  0.9188
 1276SOL    HW215288   4.462   0.512   1.979  3.4405  0.3346 -1.7708
 1277SOL     OW15289   1.464   3.034   6.821  0.1602 -0.1961  0.5835
 1277SOL    HW115290   1.407   3.047   6.745 -0.6657 -1.5895  0.9640
 1277SOL    HW215291   1.433   3.107   6.874  1.8508  1.9085 -1.2931
 1278SOL     OW15292   3.891   1.167   7.839 -0.3942 -0.1417 -0.5383
 1278SOL    HW115293   3.955   1.190   7.907 -1.9748 -0.9522  1.2176
 1278SOL    HW215294   3.949   1.181   7.765  0.3225 -1.3577 -0.2077
 1279SOL     OW15295   0.655   3.277  16.125  0.5799 -0.0569 -0.3833
 1279SOL    HW115296   0.615   3.203  16.170  3.3196 -1.7334 -0.6987
 1279SOL    HW215297   0.632   3.251  16.036 -0.5434  1.5361 -0.5631
 1280SOL     OW15298   0.012   3.508   1.654  0.3257 -0.5186  0.1140
 1280SOL    HW115299   0.077   3.542   1.592  1.7094  0.4365  2.1099
 1280SOL    HW215300   0.043   3.540   1.739  1.1959 -0.2344 -0.3011
 1281SOL     OW15301   0.993   3.635   0.691 -0.5989 -0.7887 -0.2058
 1281SOL    HW115302   1.052   3.564   0.716  0.0046  0.1260  0.9955
 1281SOL    HW215303   1.055   3.692   0.644 -0.8809 -1.0660 -0.9064
 1282SOL     OW15304   3.306   3.832   1.566  0.4785 -0.2003  0.2717
 1282SOL    HW115305   3.381   3.794   1.519  1.1361  1.4027  0.0302
 1282SOL    HW215306   3.337   3.878   1.644 -1.4759 -2.0124  2.1456
 1283SOL     OW15307   4.670   3.998   0.255 -0.0623 -0.2740 -0.1757
 1283SOL    HW115308   4.647   4.087   0.230  0.7068 -0.7901 -2.6973
 1283SOL    HW215309   4.717   3.968   0.177  1.5831 -1.2390  1.1754
 1284SOL     OW15310   0.130   4.186   6.604 -0.1743  0.0918 -0.0482
 1284SOL    HW115311   0.067   4.206   6.535 -0.0903 -0.2225 -0.2139
 1284SOL    HW215312   0.091   4.241   6.673  0.5722 -1.0947  1.3202
 1285SOL     OW15313   2.778   4.205   5.587 -0.6185 -0.0073 -0.2720
 1285SOL    HW115314   2.873   4.188   5.587  0.0310  3.6764 -1.3410
 1285SOL    HW215315   2.772   4.300   5.596  0.6738  0.3352 -2.7899
 1286SOL     OW15316   1.871   4.705   9.701  0.0145 -0.3171 -0.5428
 1286SOL    HW115317   1.839   4.627   9.656 -1.3471  0.8500 -1.5898
 1286SOL    HW215318   1.810   4.708   9.775  1.0371  2.1180  0.2077
 1287SOL     OW15319   1.225   1.277  16.472  0.0015  0.0081  0.1982
 1287SOL    HW115320   1.238   1.269  16.377  1.4943 -0.8075  0.4668
 1287SOL    HW215321   1.312   1.307  16.497  0.2616 -1.4066  0.9625
 1288SOL     OW15322   2.332   1.794   4.955  0.1284  0.1022  0.4141
 1288SOL    HW115323   2.351   1.814   5.046 -0.7821  0.6488  0.4821
 1288SOL    HW215324   2.241   1.766   4.967  0.6987 -1.5899  0.7949
 1289SOL     OW15325   3.046   1.765   7.508  0.3532 -0.8739  0.1838
 1289SOL    HW115326   3.010   1.770   7.597  0.4357  1.7258  0.0622
 1289SOL    HW215327   3.137   1.794   7.516  0.2409 -0.5879  0.4242
 1290SOL     OW15328   0.976   3.220   1.957  0.3150 -0.0950 -0.1085
 1290SOL    HW115329   1.035   3.283   1.999  0.6604  1.1647 -2.4902
 1290SOL    HW215330   1.023   3.173   1.889  1.6679  0.5324  0.3938
 1291SOL     OW15331   3.315   0.102   2.780  0.3621  0.6119 -0.3134
 1291SOL    HW115332   3.287   0.159   2.709 -2.9930 -2.1616 -1.2229
 1291SOL    HW215333   3.302   0.160   2.856  1.9339  2.3123 -1.3317
 1292SOL     OW15334   1.667   3.484   5.351  0.2704 -0.0120  0.0387
 1292SOL    HW115335   1.598   3.419   5.370  1.2923 -0.1911  3.2205
 1292SOL    HW215336   1.634   3.536   5.278 -0.0647 -0.7139 -0.3194
 1293SOL     OW15337   0.747   1.019   9.626 -0.1984 -0.4894  0.0038
 1293SOL    HW115338   0.716   0.998   9.538 -3.7156  0.5039  0.9921
 1293SOL    HW215339   0.803   0.945   9.649  2.4555  1.2089 -0.9591
 1294SOL     OW15340   3.699   2.019   3.820  0.1504  0.1068  0.3900
 1294SOL    HW115341   3.786   2.056   3.802  1.3004 -2.9145 -0.1894
 1294SOL    HW215342   3.683   2.055   3.907  0.2606  0.9045  0.0811
 1295SOL     OW15343   0.628   3.874  10.101  0.4556 -0.3646 -0.0061
 1295SOL    HW115344   0.648   3.809  10.169  1.6241 -0.8957 -0.8489
 1295SOL    HW215345   0.682   3.948  10.127  0.3159 -1.2198  2.8347
 1296SOL     OW15346   3.409   2.592   8.983 -0.0425 -0.0568  0.6448
 1296SOL    HW115347   3.375   2.645   8.910  2.7365  2.0346  0.8693
 1296SOL    HW215348   3.494   2.564   8.950 -0.2919  1.6466 -1.5024
 1297SOL     OW15349   0.267   0.650   0.413  0.4533 -0.0608  0.7268
 1297SOL    HW115350   0.330   0.653   0.485  1.3158  0.7365 -0.0532
 1297SOL    HW215351   0.226   0.565   0.429  0.5409  0.1253  1.9471
 1298SOL     OW15352   3.014   3.611  17.644 -0.0504  0.9122 -0.0454
 1298SOL    HW115353   3.017   3.546   0.020  1.2377 -0.3511 -1.2587
 1298SOL    HW215354   2.930   3.655  17.660 -0.8493 -0.8265  0.6571
 1299SOL     OW15355   3.228   4.026  14.899 -0.8368 -0.1260  0.0257
 1299SOL    HW115356   3.272   3.974  14.831 -2.4950 -0.4294 -0.8113
 1299SOL    HW215357   3.307   4.061  14.940 -1.7760  1.0038  0.8540
 1300SOL     OW15358   0.337   0.309   8.105 -0.2003 -0.9570 -0.1102
 1300SOL    HW115359   0.395   0.246   8.148  0.2171 -0.2063  0.4238
 1300SOL    HW215360   0.355   0.377   8.170 -1.0491  0.5346 -1.4577
 1301SOL     OW15361   4.676   0.334  17.636  0.5336 -0.3861  0.1422
 1301SOL    HW115362   4.590   0.292  17.633  1.8000 -3.0617  1.7195
 1301SOL    HW215363   4.664   0.387   0.021  0.2145  0.0601 -0.2005
 1302SOL     OW15364   1.194   0.097   1.811 -0.4284  0.1892 -0.3810
 1302SOL    HW115365   1.186   0.022   1.871 -0.5779  1.0107  0.6309
 1302SOL    HW215366   1.288   0.114   1.809 -0.5408  1.1261  2.0925
 1303SOL     OW15367   3.405   0.814   6.542  0.1375 -0.0114  0.0431
 1303SOL    HW115368   3.388   0.720   6.552 -0.0354  0.1389  1.2487
 1303SOL    HW215369   3.319   0.842   6.576  0.4330 -0.0975  0.8690
 1304SOL     OW15370   2.385   3.961  17.625 -0.0927  0.0088 -0.0359
 1304SOL    HW115371   2.387   3.875  17.666  3.5262  0.1396  0.0202
 1304SOL    HW215372   2.472   3.972  17.588  0.7160 -1.6862  1.4208
 1305SOL     OW15373   2.828   2.767  11.258  0.4477 -0.0202  0.0167
 1305SOL    HW115374   2.861   2.678  11.251  0.4155 -0.2851  3.1632
 1305SOL    HW215375   2.757   2.765  11.323  0.7631  0.6874  0.3823
 1306SOL     OW15376   1.523   1.592   9.058  0.5270  0.6339  0.7086
 1306SOL    HW115377   1.600   1.557   9.103  1.0315 -2.4077 -2.5298
 1306SOL    HW215378   1.545   1.567   8.968 -0.2564 -1.3826  1.0755
 1307SOL     OW15379   0.079   0.111   4.122 -0.1827  0.2038  0.0740
 1307SOL    HW115380   0.172   0.092   4.136 -0.5252 -0.5227  1.3480
 1307SOL    HW215381   0.045   0.125   4.210  0.0233  1.1269  0.0153
 1308SOL     OW15382   3.859   4.492   7.707 -0.2711 -0.0493  0.4894
 1308SOL    HW115383   3.897   4.412   7.745  2.4324  2.6075  3.4018
 1308SOL    HW215384   3.772   4.457   7.688 -0.2070  0.8274 -1.4429
 1309SOL     OW15385   4.203   2.135   9.195 -0.4860 -0.4245 -0.0331
 1309SOL    HW115386   4.139   2.082   9.149 -0.6912  0.6373 -0.9680
 1309SOL    HW215387   4.138   2.164   9.259  0.0831  0.4471  0.1581
 1310SOL     OW15388   3.395   2.520   3.576  0.0514  0.0638  0.5138
 1310SOL    HW115389   3.422   2.431   3.598  0.1381  0.2409  1.1221
 1310SOL    HW215390   3.473   2.570   3.599 -0.4927  1.8689 -1.4756
 1311SOL     OW15391   4.275   4.647  17.611 -0.4681 -0.4674  0.2179
 1311SOL    HW115392   4.340   4.643  17.681 -0.4270 -0.1539  0.1949
 1311SOL    HW215393   4.213   4.707  17.652 -0.8666  0.6630 -2.0377
 1312SOL     OW15394   1.262   4.371   4.152  0.0348  0.3237  0.0495
 1312SOL    HW115395   1.210   4.396   4.077  0.8877  0.5000 -0.4854
 1312SOL    HW215396   1.212   4.303   4.197  0.5454  0.2929  0.5744
 1313SOL     OW15397   1.089   1.331   1.742  0.1461 -0.6624 -0.2008
 1313SOL    HW115398   1.054   1.405   1.691  1.4269 -2.3081 -3.4095
 1313SOL    HW215399   1.006   1.288   1.761 -0.4902  0.8661  0.5049
 1314SOL     OW15400   3.124   2.923   8.419 -0.5877 -0.5602  0.4809
 1314SOL    HW115401   3.193   2.949   8.481  0.7241 -1.8410 -0.4301
 1314SOL    HW215402   3.108   3.007   8.377 -1.5806 -1.4524 -0.9162
 1315SOL     OW15403   4.562   2.644   3.203  0.2606 -0.5420  0.3767
 1315SOL    HW115404   4.549   2.560   3.159  1.7730 -0.8338  0.5170
 1315SOL    HW215405   4.657   2.647   3.212 -0.0617  1.0451  3.2384
 1316SOL     OW15406   0.058   3.094   0.827 -0.8271 -0.0802  0.3112
 1316SOL    HW115407   0.052   3.005   0.792  1.2211  0.1402 -0.6038
 1316SOL    HW215408   0.118   3.132   0.762 -3.1373  0.7606 -1.3364
 1317SOL     OW15409   2.045   4.657   4.750 -0.0519 -0.3557  0.1428
 1317SOL    HW115410   2.004   4.667   4.664 -0.0589  1.7766  0.3937
 1317SOL    HW215411   1.975   4.677   4.812  0.9085  5.4975 -0.6334
 1318SOL     OW15412   1.382   2.284   7.950 -0.3923 -0.0159  0.1061
 1318SOL    HW115413   1.371   2.194   7.979 -1.2869  0.1404  0.2294
 1318SOL    HW215414   1.290   2.308   7.949  0.0440  1.6302 -2.1623
 1319SOL     OW15415   1.387   1.895   2.262 -0.4218  0.3346  0.2039
 1319SOL    HW115416   1.478   1.867   2.272 -0.5630 -0.4773 -0.8439
 1319SOL    HW215417   1.363   1.840   2.187  0.8911  2.1862 -1.5701
 1320SOL     OW15418   1.938   2.704   2.433 -0.3287 -0.0223 -0.2813
 1320SOL    HW115419   2.033   2.715   2.423 -0.8317  0.4877 -4.5697
 1320SOL    HW215420   1.914   2.778   2.489  0.7349  0.9267 -1.0737
 1321SOL     OW15421   3.956   2.099   5.818  0.4059  0.2029  0.4053
 1321SOL    HW115422   4.003   2.125   5.739  0.5687  0.1583  0.4869
 1321SOL    HW215423   3.865   2.100   5.788  0.2640  0.4616  0.8443
 1322SOL     OW15424   2.481   2.307  10.148  0.0611 -0.1951 -0.4086
 1322SOL    HW115425   2.556   2.347  10.192 -1.5583  0.5786  1.6653
 1322SOL    HW215426   2.502   2.215  10.160 -1.8148 -0.4085  1.1211
 1323SOL     OW15427   1.352   0.474   6.442 -0.3493 -0.1715 -0.1462
 1323SOL    HW115428   1.439   0.453   6.474  0.1814  1.5271 -0.4472
 1323SOL    HW215429   1.389   0.519   6.365 -1.2198  2.1806  0.7913
 1324SOL     OW15430   3.320   4.567   8.456 -0.8120  0.0547 -0.6448
 1324SOL    HW115431   3.247   4.630   8.456 -0.3918  0.5422 -1.4654
 1324SOL    HW215432   3.347   4.591   8.545 -1.3098  1.3252 -0.8260
 1325SOL     OW15433   0.734   2.997   0.001  0.0896 -0.5450  0.1500
 1325SOL    HW115434   0.783   2.950   0.069 -0.4654 -1.8533 -0.3421
 1325SOL    HW215435   0.797   2.973  17.628 -0.9678  1.5020 -1.5658
 1326SOL     OW15436   0.776   2.509   8.171  0.1247 -0.2485 -0.3537
 1326SOL    HW115437   0.696   2.516   8.119  1.7932  0.9453 -2.8051
 1326SOL    HW215438   0.805   2.601   8.170  2.2953 -0.9431  0.1665
 1327SOL     OW15439   4.339   3.918   9.206 -0.1322 -0.2113  0.3185
 1327SOL    HW115440   4.402   3.847   9.200  0.9346  0.5098  2.8331
 1327SOL    HW215441   4.387   3.979   9.263  1.0391 -1.3676  0.5709
 1328SOL     OW15442   0.836   3.438   3.098  0.4619  0.0540  0.1140
 1328SOL    HW115443   0.885   3.395   3.028  1.0193 -1.3076  1.3390
 1328SOL    HW215444   0.860   3.391   3.177 -1.6471 -0.3788  0.4859
 1329SOL     OW15445   0.731   4.012   5.008  0.2022  0.6289  0.3641
 1329SOL    HW115446   0.721   4.055   4.923 -0.1940  1.8775  1.0311
 1329SOL    HW215447   0.825   3.999   5.019  0.2104  0.0107 -0.4188
 1330SOL     OW15448   1.229   1.190   2.204  0.0930 -0.8727  0.5773
 1330SOL    HW115449   1.241   1.160   2.114  1.1429 -0.4225  0.5659
 1330SOL    HW215450   1.134   1.183   2.216  0.0907  2.0765  2.2957
 1331SOL     OW15451   0.913   2.039   7.345  0.5629 -0.2315  0.4837
 1331SOL    HW115452   0.819   2.055   7.334  0.5572 -0.1603  0.6492
 1331SOL    HW215453   0.934   2.102   7.413 -0.9080  0.0931  0.6307
 1332SOL     OW15454   3.549   0.082   5.708  0.3600 -0.0755  0.2379
 1332SOL    HW115455   3.545   4.711   5.724  1.5521  0.0288  1.1738
 1332SOL    HW215456   3.460   0.105   5.736 -0.9408 -1.9634 -2.3796
 1333SOL     OW15457   0.156   3.511   6.397 -0.1741  0.3564 -0.5790
 1333SOL    HW115458   0.163   3.416   6.387  0.7583  0.3256  0.4652
 1333SOL    HW215459   0.146   3.516   6.492  0.2458 -3.0699 -0.3619
 1334SOL     OW15460   3.395   0.783   3.782 -0.5210 -0.3023  0.1990
 1334SOL    HW115461   3.416   0.846   3.713  0.6428 -0.3773  0.4708
 1334SOL    HW215462   3.481   0.743   3.799 -0.1644 -0.4516 -1.9432
 1335SOL     OW15463   0.234   4.004   7.575 -0.2076  0.4029 -0.6488
 1335SOL    HW115464   0.295   4.034   7.508 -1.3639  2.1804 -0.9206
 1335SOL    HW215465   0.153   4.051   7.556 -1.0889 -0.7624  0.1760
 1336SOL     OW15466   1.601   0.363   1.025 -0.0425 -0.6130  0.1807
 1336SOL    HW115467   1.518   0.361   1.073  1.2054  1.1898  2.4296
 1336SOL    HW215468   1.594   0.452   0.992  1.1883 -0.6843 -0.2727
 1337SOL     OW15469   0.433   1.768   4.120  0.0649 -0.5276  0.0576
 1337SOL    HW115470   0.476   1.717   4.189  1.7596  2.0825  0.9516
 1337SOL    HW215471   0.429   1.704   4.049  0.3835  0.3338 -0.7411
 1338SOL     OW15472   3.385   4.664   6.567 -0.5864 -0.4592  0.0653
 1338SOL    HW115473   3.478   4.672   6.546 -0.7516  1.6404  0.1871
 1338SOL    HW215474   3.350   0.018   6.523 -0.3705 -0.8412 -0.7848
 1339SOL     OW15475   0.328   3.925   0.845  0.0843  0.4714  0.3477
 1339SOL    HW115476   0.419   3.951   0.860  1.3736 -2.4641 -2.5921
 1339SOL    HW215477   0.331   3.838   0.807 -0.0629  0.8687 -0.5825
 1340SOL     OW15478   0.175   1.640   9.363  0.2867 -0.2552  0.2970
 1340SOL    HW115479   0.198   1.700   9.434 -0.9829  1.0962 -0.4428
 1340SOL    HW215480   0.120   1.576   9.408 -0.4844  0.8823  0.9852
 1341SOL     OW15481   2.093   0.567  10.811 -0.3252 -0.0189 -0.2826
 1341SOL    HW115482   2.070   0.475  10.824 -1.1760  0.3762  1.0699
 1341SOL    HW215483   2.012   0.602  10.849  0.4788  1.5912 -0.0197
 1342SOL     OW15484   2.559   4.244   7.361  0.5561 -0.4586  0.0419
 1342SOL    HW115485   2.524   4.321   7.316  2.0113 -1.7814 -3.3132
 1342SOL    HW215486   2.559   4.277   7.451  0.6141  1.6504 -0.7299
 1343SOL     OW15487   4.067   1.380  17.371  0.2329 -0.3539  0.1928
 1343SOL    HW115488   4.083   1.454  17.313 -0.5015 -0.0893  0.3264
 1343SOL    HW215489   4.005   1.423  17.430  0.3692  0.6327 -0.3748
 1344SOL     OW15490   4.593   2.911   6.033  0.0475  0.1310 -0.3135
 1344SOL    HW115491   4.577   3.004   6.018  2.6689  0.6299  0.0940
 1344SOL    HW215492   4.508   2.869   6.022  0.0414 -0.3142  1.5039
 1345SOL     OW15493   4.396   2.740   4.362  0.0259  0.3854 -0.0629
 1345SOL    HW115494   4.483   2.776   4.347 -1.0769  2.8794 -0.4010
 1345SOL    HW215495   4.349   2.809   4.316  0.7310  0.6729 -0.3437
 1346SOL     OW15496   1.461   1.048  17.642 -0.8837 -0.0330  0.0593
 1346SOL    HW115497   1.468   1.056   0.042  2.2083 -0.5619 -0.1253
 1346SOL    HW215498   1.462   1.139  17.612 -3.1672 -0.2332 -0.6859
 1347SOL     OW15499   2.977   3.944   5.956  0.2626  0.0481 -0.1382
 1347SOL    HW115500   2.949   3.853   5.942 -0.0655  0.2351 -0.7048
 1347SOL    HW215501   2.941   3.953   6.044  1.8061 -0.3515  0.5261
 1348SOL     OW15502   2.172   3.226  16.772  0.0576 -0.6981  0.2585
 1348SOL    HW115503   2.135   3.176  16.699  1.4998 -2.0911  0.4806
 1348SOL    HW215504   2.091   3.254  16.813  0.3217  1.5396 -0.7170
 1349SOL     OW15505   1.076   0.981   2.709 -0.4519  0.5048 -0.5267
 1349SOL    HW115506   1.036   0.935   2.635  0.6720 -1.4595  0.0884
 1349SOL    HW215507   1.023   1.061   2.709 -0.5685  0.4219 -1.1934
 1350SOL     OW15508   2.533   0.192   8.172  0.3025  0.0206 -0.7240
 1350SOL    HW115509   2.478   0.217   8.246  1.8061  1.9742 -0.2380
 1350SOL    HW215510   2.483   0.115   8.145 -0.1897 -0.0886  0.5006
 1351SOL     OW15511   0.030   2.828   0.589 -0.2188 -0.4494 -0.5234
 1351SOL    HW115512   4.719   2.763   0.529 -5.1735 -2.6691  4.6749
 1351SOL    HW215513   4.673   2.853   0.634  1.3910  1.1485  1.4857
 1352SOL     OW15514   2.215   2.280   4.345 -0.5553 -0.1371  0.8885
 1352SOL    HW115515   2.229   2.315   4.432 -0.8688 -0.4014  1.0423
 1352SOL    HW215516   2.172   2.354   4.301 -2.6021 -1.8206  0.0472
 1353SOL     OW15517   3.918   2.284   2.700 -0.0027 -0.6215 -0.1707
 1353SOL    HW115518   3.845   2.323   2.748 -0.9982 -2.6476 -0.0185
 1353SOL    HW215519   3.865   2.214   2.661 -0.1228 -0.2555 -0.6574
 1354SOL     OW15520   3.502   4.065   9.604 -0.3911 -0.0554  0.3842
 1354SOL    HW115521   3.437   4.088   9.538  0.2146 -0.7616 -0.4449
 1354SOL    HW215522   3.549   4.148   9.596 -0.4912 -0.0702 -0.3718
 1355SOL     OW15523   3.982   2.486   6.005  0.2950 -0.3368  0.7666
 1355SOL    HW115524   3.999   2.469   5.912 -0.3615  0.9498  0.4096
 1355SOL    HW215525   4.027   2.565   6.033 -0.1056  0.1505  0.0473
 1356SOL     OW15526   3.376   1.871  13.480  0.3998  0.2403  0.4084
 1356SOL    HW115527   3.356   1.960  13.509 -0.4639 -0.2942  1.4727
 1356SOL    HW215528   3.319   1.870  13.403  0.3896 -1.1345  0.4182
 1357SOL     OW15529   3.477   4.007   8.130 -0.2808 -0.0684 -0.3060
 1357SOL    HW115530   3.531   4.073   8.173  0.1807  1.6731 -3.5602
 1357SOL    HW215531   3.465   4.048   8.044  0.2366  0.0967 -0.2987
 1358SOL     OW15532   0.711   0.787   7.816  0.3652  0.0216 -0.3784
 1358SOL    HW115533   0.616   0.785   7.831  0.0361 -0.8467 -2.5652
 1358SOL    HW215534   0.735   0.869   7.859  1.3120  0.3166 -1.4954
 1359SOL     OW15535   3.097   4.193  12.343  0.8629 -0.3444 -0.3655
 1359SOL    HW115536   3.046   4.117  12.373 -0.0115  0.4560  0.1720
 1359SOL    HW215537   3.144   4.207  12.425 -1.1549 -1.1689  0.9352
 1360SOL     OW15538   4.003   0.466  10.287  0.1108  0.0516 -0.6519
 1360SOL    HW115539   3.910   0.452  10.270 -0.5239  0.0883  2.7107
 1360SOL    HW215540   4.018   0.541  10.230 -0.6510  1.0783  0.4943
 1361SOL     OW15541   4.183   3.520  14.907  0.3015 -0.0802  0.0148
 1361SOL    HW115542   4.272   3.549  14.925  0.7471 -1.2406 -0.3027
 1361SOL    HW215543   4.205   3.441  14.856 -2.7832 -2.3298  2.1281
 1362SOL     OW15544   2.344   3.733   4.266  0.2019 -0.0037 -0.1370
 1362SOL    HW115545   2.248   3.734   4.266  0.1916 -1.6530 -0.3124
 1362SOL    HW215546   2.360   3.776   4.182 -0.5698 -1.5071 -1.0618
 1363SOL     OW15547   1.373   2.191   1.161 -0.0333 -0.0802 -0.1573
 1363SOL    HW115548   1.303   2.126   1.159 -0.9481  0.8931  0.7766
 1363SOL    HW215549   1.363   2.219   1.070  3.1697  1.8664  0.0999
 1364SOL     OW15550   4.663   0.871   1.963  0.1579  0.3444 -0.3750
 1364SOL    HW115551   4.579   0.915   1.976 -0.0594 -0.1503 -0.1069
 1364SOL    HW215552   4.714   0.920   2.027 -1.9566  1.8933  0.1196
 1365SOL     OW15553   2.404   3.532   6.629 -0.0745 -0.0931 -0.0503
 1365SOL    HW115554   2.462   3.559   6.558  0.3778 -0.6603  0.1028
 1365SOL    HW215555   2.318   3.566   6.605  0.6588  1.5206 -0.4135
 1366SOL     OW15556   3.776   3.849  16.779 -0.1568  0.0928  0.1086
 1366SOL    HW115557   3.768   3.848  16.684 -0.0930  3.7160  0.0606
 1366SOL    HW215558   3.686   3.858  16.812 -0.1228  2.8736 -0.5657
 1367SOL     OW15559   0.311   0.365   8.964  0.4480 -0.0655 -0.0268
 1367SOL    HW115560   0.291   0.411   9.045  0.1923  0.4172 -0.3623
 1367SOL    HW215561   0.329   0.275   8.993  0.4193 -0.4826 -1.2724
 1368SOL     OW15562   3.573   0.409  10.508  0.0180 -0.0881 -0.2477
 1368SOL    HW115563   3.609   0.416  10.419  1.0742 -0.8424  0.1296
 1368SOL    HW215564   3.537   0.321  10.511 -0.2204 -0.0063 -0.6987
 1369SOL     OW15565   2.964   4.458   8.171  0.0724  0.3904 -0.0038
 1369SOL    HW115566   3.041   4.423   8.216 -1.2112 -0.8731  1.1784
 1369SOL    HW215567   2.936   4.387   8.113 -0.2423  0.2926  0.2711
 1370SOL     OW15568   2.920   0.681   2.794 -0.1320  0.3419 -0.0598
 1370SOL    HW115569   2.868   0.600   2.792 -1.0883  0.9428  0.2893
 1370SOL    HW215570   2.854   0.750   2.788 -0.0715  0.3140 -0.9682
 1371SOL     OW15571   1.368   2.711   3.375  0.2332 -0.5125 -1.0539
 1371SOL    HW115572   1.378   2.633   3.321  1.2355  0.1584 -1.8402
 1371SOL    HW215573   1.448   2.758   3.353 -0.4897  0.4615 -1.5811
 1372SOL     OW15574   0.525   1.558   8.806  0.2166 -0.1766  1.0481
 1372SOL    HW115575   0.595   1.623   8.814  0.0713  0.2161 -0.7777
 1372SOL    HW215576   0.451   1.617   8.799 -2.2404 -3.2513  1.2757
 1373SOL     OW15577   4.723   0.555   9.079 -0.3743 -0.0662 -0.4388
 1373SOL    HW115578   0.035   0.639   9.110 -2.1655  0.1096  1.1098
 1373SOL    HW215579   4.635   0.589   9.061 -1.0051 -1.6268 -0.2911
 1374SOL     OW15580   1.718   3.740   4.986 -0.4215  0.3311  0.4507
 1374SOL    HW115581   1.654   3.746   4.915  0.0781  2.0856  0.1504
 1374SOL    HW215582   1.667   3.704   5.059 -1.5415 -0.6927 -0.8323
 1375SOL     OW15583   4.360   1.693   5.214  0.0113  0.5381  0.5860
 1375SOL    HW115584   4.304   1.616   5.204 -1.1600  1.3406  0.9575
 1375SOL    HW215585   4.425   1.676   5.146  0.5562  0.2198  1.1867
 1376SOL     OW15586   1.513   3.946  11.846 -0.4233  0.0673 -0.0210
 1376SOL    HW115587   1.552   4.013  11.903  0.2633 -0.4074  0.0703
 1376SOL    HW215588   1.526   3.872  11.905  2.8462  0.1225 -0.6290
 1377SOL     OW15589   1.650   0.374   6.442  0.1735  0.0748  0.2507
 1377SOL    HW115590   1.721   0.408   6.387  0.9806  2.6180  2.8981
 1377SOL    HW215591   1.625   0.293   6.397  1.6204 -0.3377  0.1884
 1378SOL     OW15592   1.724   4.619  17.255  0.5326 -0.0917  0.0127
 1378SOL    HW115593   1.784   4.641  17.184  0.2346  1.0622  0.1211
 1378SOL    HW215594   1.710   4.525  17.252 -0.0646 -0.0176  0.4943
 1379SOL     OW15595   2.125   4.644  14.922 -0.3036  0.1494 -0.0259
 1379SOL    HW115596   2.195   4.679  14.867 -1.1402  1.3735 -0.3178
 1379SOL    HW215597   2.072   4.611  14.849 -1.5718 -1.2926  1.5275
 1380SOL     OW15598   0.910   3.982   4.246 -0.1009  0.1243  0.1714
 1380SOL    HW115599   0.873   3.951   4.163  1.7962 -0.0481 -0.6214
 1380SOL    HW215600   0.994   3.938   4.255  0.5163  0.7880 -2.2865
 1381SOL     OW15601   3.691   2.606   1.286 -0.5292 -0.0990 -0.2730
 1381SOL    HW115602   3.740   2.550   1.347 -0.9716 -2.1741 -1.8054
 1381SOL    HW215603   3.701   2.562   1.202 -0.6195  0.4717 -0.5803
 1382SOL     OW15604   3.059   2.996   5.996  0.3502 -1.0673 -0.0715
 1382SOL    HW115605   3.106   3.074   5.966 -0.4860 -0.1154  1.0558
 1382SOL    HW215606   3.027   2.962   5.913  1.3489 -0.3260 -0.7589
 1383SOL     OW15607   2.957   2.238   9.922  0.2788 -0.2923 -0.0471
 1383SOL    HW115608   2.946   2.331   9.900 -0.1935 -0.9705 -2.6384
 1383SOL    HW215609   3.051   2.230   9.941  0.7731  3.2514 -1.0105
 1384SOL     OW15610   3.095   4.354   6.088  0.1807  0.2380  0.6376
 1384SOL    HW115611   3.071   4.304   6.010 -1.0325 -0.0902  1.2204
 1384SOL    HW215612   3.010   4.376   6.126  0.7269  3.4271  0.0085
 1385SOL     OW15613   3.479   2.255   3.620 -0.2553  0.1490 -0.3801
 1385SOL    HW115614   3.557   2.206   3.643  0.5473  0.7050 -1.9400
 1385SOL    HW215615   3.416   2.184   3.628 -0.2387  0.1079 -0.6185
 1386SOL     OW15616   4.002   2.201   0.892 -0.0804 -0.4430  0.4846
 1386SOL    HW115617   4.046   2.286   0.898 -1.0870 -0.0273  2.0651
 1386SOL    HW215618   4.014   2.196   0.797  0.5135  1.3780  0.4639
 1387SOL     OW15619   1.233   3.064   5.784  0.1482  0.0355  0.0590
 1387SOL    HW115620   1.151   3.104   5.813  0.2825  0.6500 -0.4233
 1387SOL    HW215621   1.301   3.129   5.801 -0.8946  1.2966 -0.6136
 1388SOL     OW15622   2.444   0.651   5.682 -0.1712  0.2073  0.1319
 1388SOL    HW115623   2.489   0.653   5.597  2.7155  3.1415  1.7298
 1388SOL    HW215624   2.470   0.569   5.723 -0.1761 -0.3203 -0.9321
 1389SOL     OW15625   4.117   4.021   7.559 -0.4588  0.3333 -0.1126
 1389SOL    HW115626   4.140   4.065   7.477 -0.1442 -0.2878 -0.3651
 1389SOL    HW215627   4.168   4.066   7.627 -0.9844 -0.6363  0.9202
 1390SOL     OW15628   1.345   0.297   4.339 -0.4340  0.4466 -0.4149
 1390SOL    HW115629   1.357   0.343   4.256 -0.0195  2.5930  0.8278
 1390SOL    HW215630   1.250   0.287   4.342 -0.6719  2.2753 -1.9839
 1391SOL     OW15631   1.356   0.248   0.121  0.3319  0.2745 -0.0021
 1391SOL    HW115632   1.388   0.196   0.048  0.3851 -1.7121  1.4441
 1391SOL    HW215633   1.376   0.180   0.186 -3.5649 -0.6554  0.1918
 1392SOL     OW15634   0.355   2.073  10.533 -0.6412 -0.0552 -0.1931
 1392SOL    HW115635   0.316   2.004  10.478 -0.2809  1.5424 -2.4739
 1392SOL    HW215636   0.371   2.029  10.616  2.4718 -0.4399 -0.9974
 1393SOL     OW15637   1.997   4.561  12.847  0.5348 -0.3696  0.1110
 1393SOL    HW115638   1.936   4.588  12.915  0.2640  1.0441 -0.6843
 1393SOL    HW215639   1.938   4.542  12.774 -0.5014  0.3587  0.7569
 1394SOL     OW15640   2.640   1.352   1.401  0.2484 -0.4590 -0.0383
 1394SOL    HW115641   2.614   1.261   1.410 -0.7464  0.0743  2.5046
 1394SOL    HW215642   2.673   1.380   1.487  1.3355  0.7678 -0.8550
 1395SOL     OW15643   2.139   1.077   8.452 -0.1573 -0.1584 -0.0593
 1395SOL    HW115644   2.175   1.147   8.505 -0.1257 -0.9637  0.9820
 1395SOL    HW215645   2.207   1.071   8.385  1.1472 -1.3889  1.3760
 1396SOL     OW15646   3.868   1.842   7.219 -0.0309  0.2097  0.2455
 1396SOL    HW115647   3.955   1.804   7.219 -0.9702 -1.9585 -1.1833
 1396SOL    HW215648   3.881   1.890   7.301  0.6962 -1.2169  0.9603
 1397SOL     OW15649   0.142   3.196  11.104 -0.1038  0.3328 -0.3970
 1397SOL    HW115650   0.145   3.174  11.011  2.3687  1.0067 -0.4701
 1397SOL    HW215651   0.183   3.282  11.114 -1.3451  0.5227  3.2616
 1398SOL     OW15652   1.892   3.908   6.753 -0.4261  0.3355  0.0038
 1398SOL    HW115653   1.869   3.973   6.687  3.0612  0.8091 -0.7136
 1398SOL    HW215654   1.880   3.954   6.837  1.1462  0.3486  0.2211
 1399SOL     OW15655   2.523   2.210   7.683 -0.0602 -0.2414  0.3524
 1399SOL    HW115656   2.464   2.265   7.734 -1.1214 -1.7403  0.7544
 1399SOL    HW215657   2.474   2.127   7.690 -0.6479  0.1412  0.8046
 1400SOL     OW15658   0.005   4.669   0.172  0.4467  0.0520 -0.5291
 1400SOL    HW115659   0.064   0.013   0.139  1.0140  0.2779  0.9216
 1400SOL    HW215660   0.075   4.607   0.193  0.3335 -0.0402 -0.4226
 1401SOL     OW15661   3.651   4.395  13.330 -0.0468 -0.2276 -0.1698
 1401SOL    HW115662   3.607   4.338  13.393  1.2975  0.0472  1.0025
 1401SOL    HW215663   3.654   4.320  13.271  0.1871 -1.8288  1.9055
 1402SOL     OW15664   2.247   0.399   8.582 -0.8196 -0.1124  0.0603
 1402SOL    HW115665   2.224   0.489   8.556 -0.4576 -0.3383 -1.0360
 1402SOL    HW215666   2.302   0.410   8.660 -0.4402 -1.3700 -0.0352
 1403SOL     OW15667   1.056   0.265  17.557 -0.0491  0.4093  0.3292
 1403SOL    HW115668   1.123   0.310  17.505 -0.3712 -1.5530 -1.7963
 1403SOL    HW215669   1.011   0.328  17.613  0.8616  0.4484  1.0057
 1404SOL     OW15670   3.510   0.190   7.299  0.1401 -0.7670  0.3555
 1404SOL    HW115671   3.455   0.204   7.222 -3.7086  1.3443  3.4610
 1404SOL    HW215672   3.453   0.127   7.342  1.8411 -2.6327 -0.1450
 1405SOL     OW15673   3.119   1.220   8.946  0.2392 -0.0150  0.4560
 1405SOL    HW115674   3.177   1.275   8.999  0.8026 -2.0065  1.9138
 1405SOL    HW215675   3.077   1.292   8.899 -0.7635  0.0481  1.4383
 1406SOL     OW15676   1.446   2.966   3.213  0.0679  0.1039  0.0089
 1406SOL    HW115677   1.517   2.910   3.182 -0.5437 -1.1490  0.8372
 1406SOL    HW215678   1.380   2.957   3.144  1.0376 -0.0156 -0.8930
 1407SOL     OW15679   0.458   3.500   2.629 -0.5583 -0.2110  0.8038
 1407SOL    HW115680   0.381   3.443   2.636 -0.2314 -0.6907  0.5081
 1407SOL    HW215681   0.433   3.575   2.683 -0.5964  0.4270 -0.0943
 1408SOL     OW15682   2.004   4.515   6.414  0.1079  0.4485  0.2434
 1408SOL    HW115683   2.052   4.490   6.493 -1.9439 -1.5704  0.8370
 1408SOL    HW215684   1.930   4.569   6.441 -1.6959 -2.4425  1.0295
 1409SOL     OW15685   4.145   2.702   0.813 -0.4144  0.2836  0.3210
 1409SOL    HW115686   4.079   2.715   0.745  0.7435  0.5427 -0.7534
 1409SOL    HW215687   4.181   2.790   0.822  0.5757 -0.2769  1.8697
 1410SOL     OW15688   1.422   0.244   9.857 -0.3491 -0.2630  0.0437
 1410SOL    HW115689   1.470   0.252   9.939  1.7710  1.5228 -1.3523
 1410SOL    HW215690   1.372   0.326   9.864  0.8230  0.1766  3.0939
 1411SOL     OW15691   0.091   4.388   2.133  0.1307  0.8153 -0.1903
 1411SOL    HW115692   0.133   4.422   2.054 -0.6981  0.9713 -0.5616
 1411SOL    HW215693   0.010   4.352   2.096 -1.7163  0.2429  4.3810
 1412SOL     OW15694   2.741   1.776   7.108  0.0768  0.2584 -0.5287
 1412SOL    HW115695   2.820   1.828   7.117  1.5117 -1.9413 -0.4773
 1412SOL    HW215696   2.760   1.716   7.036  1.9753  1.6862 -1.2017
 1413SOL     OW15697   4.404   1.683   6.797 -0.5079  0.1089 -0.0780
 1413SOL    HW115698   4.428   1.612   6.737 -0.9336 -0.8569  0.8903
 1413SOL    HW215699   4.490   1.724   6.800 -0.5560  0.0433  1.8593
 1414SOL     OW15700   3.101   3.423   3.572  0.0528 -0.6426 -0.4833
 1414SOL    HW115701   3.118   3.485   3.643 -0.6908 -0.7287 -0.2361
 1414SOL    HW215702   3.140   3.468   3.497 -2.4662  0.7668 -0.9435
 1415SOL     OW15703   4.251   3.797   6.331  0.4118  0.2456 -0.2812
 1415SOL    HW115704   4.279   3.708   6.352 -1.2041  0.3156  2.1076
 1415SOL    HW215705   4.157   3.794   6.351  0.5326 -0.9378  0.1307
 1416SOL     OW15706   2.472   2.547   6.012  0.3242 -0.6998 -0.8126
 1416SOL    HW115707   2.464   2.642   6.015  1.4515 -0.5705 -1.8966
 1416SOL    HW215708   2.379   2.529   5.997  0.5821 -1.6868 -1.1931
 1417SOL     OW15709   0.857   1.676   3.171 -0.2316  0.6964 -0.0797
 1417SOL    HW115710   0.864   1.717   3.257 -0.7416  0.6186  0.0003
 1417SOL    HW215711   0.895   1.749   3.122  1.1956 -1.1787 -1.7957
 1418SOL     OW15712   2.279   2.530   7.474 -0.2313 -0.0924  0.6360
 1418SOL    HW115713   2.350   2.476   7.440 -0.4630  0.2013 -0.3295
 1418SOL    HW215714   2.252   2.581   7.397  0.0792 -0.1968  0.4569
 1419SOL     OW15715   1.322   1.930   7.688  0.1830 -0.0845  0.0280
 1419SOL    HW115716   1.412   1.964   7.687  0.5300 -1.0548 -0.9618
 1419SOL    HW215717   1.334   1.835   7.697  0.9877  0.2719  2.6937
 1420SOL     OW15718   3.820   0.472   8.463  0.3360  0.4987  0.2082
 1420SOL    HW115719   3.829   0.456   8.557  1.3042  1.5934  0.3000
 1420SOL    HW215720   3.800   0.382   8.437 -2.0530  0.2135  3.0003
 1421SOL     OW15721   2.843   2.166   2.464 -0.3039  0.1289 -0.0867
 1421SOL    HW115722   2.914   2.115   2.503 -0.4329  1.2355  1.5898
 1421SOL    HW215723   2.767   2.113   2.490  1.0503 -1.3736  0.7924
 1422SOL     OW15724   3.045   1.387   4.241 -0.2548  0.0958 -0.4545
 1422SOL    HW115725   3.101   1.459   4.209  0.4889 -0.8178 -1.2218
 1422SOL    HW215726   3.018   1.348   4.158 -1.4135  0.4308 -0.2266
 1423SOL     OW15727   1.086   2.036  11.457  0.0448 -0.0910  0.5406
 1423SOL    HW115728   1.041   2.061  11.376  0.4500 -0.5668  0.1757
 1423SOL    HW215729   1.168   1.996  11.430 -1.0578 -0.9853 -1.4542
 1424SOL     OW15730   1.737   4.572  11.816  0.0569 -0.5383 -0.1120
 1424SOL    HW115731   1.793   4.641  11.781  0.8812 -0.7539  0.7891
 1424SOL    HW215732   1.689   4.617  11.886 -0.0902  0.1234 -0.6332
 1425SOL     OW15733   3.221   1.964  12.026 -0.5136 -0.5507  0.3982
 1425SOL    HW115734   3.207   1.993  12.117  0.1307 -2.7647  1.2104
 1425SOL    HW215735   3.303   1.915  12.035  0.1610  0.7127  1.1080
 1426SOL     OW15736   4.633   1.144   9.082 -0.2963  0.0676 -0.3811
 1426SOL    HW115737   4.635   1.135   9.177  0.9109  1.6100 -0.2564
 1426SOL    HW215738   0.001   1.164   9.059 -0.3053 -0.8793 -1.2311
 1427SOL     OW15739   3.311   0.230   6.925  0.2618  0.3922 -0.3882
 1427SOL    HW115740   3.249   0.284   6.875 -0.1740 -0.1740 -0.4582
 1427SOL    HW215741   3.271   0.144   6.933 -1.7784  1.0488 -3.4254
 1428SOL     OW15742   3.352   2.721   8.741 -0.2279 -0.3510  0.2567
 1428SOL    HW115743   3.292   2.796   8.735 -2.4614 -2.1611  0.2144
 1428SOL    HW215744   3.422   2.749   8.682  0.4259 -0.4075  1.0019
 1429SOL     OW15745   1.628   0.629   7.812 -0.1284 -0.2817  0.7776
 1429SOL    HW115746   1.553   0.650   7.867  1.4344 -0.6197  3.0461
 1429SOL    HW215747   1.697   0.625   7.878 -0.1494  1.5959  0.9075
 1430SOL     OW15748   0.787   3.371   7.550 -0.0024 -0.1557 -0.2039
 1430SOL    HW115749   0.811   3.288   7.592  0.3928 -0.4215 -0.9677
 1430SOL    HW215750   0.814   3.434   7.618  1.7215  2.0020 -2.8754
 1431SOL     OW15751   0.305   1.065   3.017 -0.6310 -0.0525 -0.1919
 1431SOL    HW115752   0.266   1.152   3.013  0.8777  0.5519 -2.1212
 1431SOL    HW215753   0.257   1.024   3.089 -0.4890  1.6220  0.8638
 1432SOL     OW15754   0.548   0.266   0.598 -0.2527  0.3887  0.2624
 1432SOL    HW115755   0.572   0.301   0.684 -1.9810 -0.7346  1.2018
 1432SOL    HW215756   0.465   0.228   0.625 -0.6007  1.2077  0.3349
 1433SOL     OW15757   3.579   1.841   6.508  0.4774 -0.0671 -0.2809
 1433SOL    HW115758   3.519   1.835   6.433  0.3341  0.0604 -0.1766
 1433SOL    HW215759   3.654   1.883   6.465 -1.8130  3.4861 -0.7921
 1434SOL     OW15760   4.490   0.767   8.498 -0.3468  0.4861  0.3721
 1434SOL    HW115761   4.487   0.775   8.403  0.6865 -0.8683  0.2193
 1434SOL    HW215762   4.447   0.847   8.526 -0.0720  0.9718 -0.5994
 1435SOL     OW15763   0.363   2.444   4.461 -0.3204 -0.2546 -0.7887
 1435SOL    HW115764   0.289   2.430   4.402 -0.3144  0.7329 -1.0197
 1435SOL    HW215765   0.422   2.487   4.398  1.6579 -0.8933  0.6348
 1436SOL     OW15766   2.029   2.922  11.796 -0.3428  0.5058 -0.5562
 1436SOL    HW115767   2.114   2.936  11.838 -0.0806 -0.8579 -0.6173
 1436SOL    HW215768   2.050   2.916  11.702  2.3384 -0.7218  0.1340
 1437SOL     OW15769   3.196   0.983  17.274  0.0524 -0.5779  0.0883
 1437SOL    HW115770   3.226   0.910  17.328  1.4438 -0.4352 -0.5017
 1437SOL    HW215771   3.116   0.942  17.243 -1.2769  1.4279  0.8146
 1438SOL     OW15772   0.241   3.558   2.833 -0.0276  0.4235  0.6150
 1438SOL    HW115773   0.150   3.589   2.830  0.1917  1.0431  0.3418
 1438SOL    HW215774   0.247   3.462   2.834  0.8311  0.5161  2.8755
 1439SOL     OW15775   2.960   3.972   7.254 -0.2595 -0.2845  0.7172
 1439SOL    HW115776   3.018   3.938   7.323  0.9869 -1.7683 -1.0816
 1439SOL    HW215777   3.000   3.936   7.175 -0.6381 -2.0958  1.3651
 1440SOL     OW15778   2.059   0.553   8.870 -0.4067 -0.3234  0.1037
 1440SOL    HW115779   2.089   0.614   8.938  1.3836 -1.4213  0.2896
 1440SOL    HW215780   1.976   0.525   8.908 -0.7764 -0.6459 -0.9438
 1441SOL     OW15781   0.859   2.298   4.882  0.1275 -0.1314 -0.1395
 1441SOL    HW115782   0.800   2.374   4.881  2.2408  1.5143 -0.8336
 1441SOL    HW215783   0.941   2.348   4.885  1.4308 -2.3348  0.4612
 1442SOL     OW15784   4.681   2.808   7.945  0.4388 -0.1500 -0.7294
 1442SOL    HW115785   4.590   2.801   7.976  0.3827  2.8376 -0.2517
 1442SOL    HW215786   4.699   2.902   7.946 -1.5309  0.2154  1.1786
 1443SOL     OW15787   2.123   3.982   5.078 -0.1536  0.1079  0.0612
 1443SOL    HW115788   2.156   4.025   5.157 -0.3836  1.0739 -0.3661
 1443SOL    HW215789   2.041   3.954   5.120 -1.5198  1.1368 -1.9175
 1444SOL     OW15790   4.202   2.370   5.757  0.4708 -0.0164  0.1272
 1444SOL    HW115791   4.284   2.351   5.711 -0.0432 -3.1788  0.5529
 1444SOL    HW215792   4.178   2.457   5.724  1.3883  0.8705  1.7857
 1445SOL     OW15793   4.599   2.249  12.046 -0.0369  0.8595  0.3881
 1445SOL    HW115794   4.642   2.301  11.978  1.1004 -0.5262  0.0341
 1445SOL    HW215795   4.625   2.298  12.124 -2.3407  0.9115  1.1172
 1446SOL     OW15796   1.928   3.356   0.674  0.0404  0.0701  0.2522
 1446SOL    HW115797   1.862   3.414   0.635 -1.9767 -2.4372 -0.0165
 1446SOL    HW215798   1.918   3.381   0.766  1.6388 -0.6953  0.6452
 1447SOL     OW15799   0.055   1.299   2.055  0.6085  0.4993  0.4227
 1447SOL    HW115800   4.697   1.340   2.084 -1.0240 -1.4922 -1.4126
 1447SOL    HW215801   0.085   1.266   2.140 -1.1379  0.0986  0.8878
 1448SOL     OW15802   1.588   2.779   3.960 -0.1608  0.7142 -0.1279
 1448SOL    HW115803   1.576   2.867   3.995 -1.9637  0.8757 -1.1527
 1448SOL    HW215804   1.504   2.767   3.916  1.1971 -0.2096 -2.4678
 1449SOL     OW15805   1.284   2.104   5.773 -0.1543  0.1505  0.2016
 1449SOL    HW115806   1.209   2.045   5.764  0.9299 -1.4774  1.6503
 1449SOL    HW215807   1.240   2.188   5.782 -0.0464  0.0394  1.7583
 1450SOL     OW15808   0.883   0.291   3.632 -0.6492 -0.0926  0.2191
 1450SOL    HW115809   0.942   0.349   3.680  0.1489 -0.0289 -0.8512
 1450SOL    HW215810   0.907   0.311   3.542  2.2712  0.0675  1.0252
 1451SOL     OW15811   4.172   1.851   1.587  0.3059 -0.2609 -0.6827
 1451SOL    HW115812   4.198   1.818   1.500 -1.7985  2.3581 -2.2892
 1451SOL    HW215813   4.088   1.882   1.553 -0.2017 -1.3069 -0.3947
 1452SOL     OW15814   2.616   4.386   3.418 -0.4055 -0.0280 -0.3426
 1452SOL    HW115815   2.552   4.456   3.430 -1.8589 -1.5556  0.9137
 1452SOL    HW215816   2.658   4.434   3.347  0.3890  1.3024  1.0356
 1453SOL     OW15817   2.801   1.536   4.938  0.0715  0.0377  0.3985
 1453SOL    HW115818   2.779   1.495   4.854  0.0097 -2.3873  1.5755
 1453SOL    HW215819   2.788   1.624   4.905  1.4976  0.7424  1.7394
 1454SOL     OW15820   2.521   1.349   8.327  0.4614 -0.4535  0.3984
 1454SOL    HW115821   2.598   1.386   8.284  1.1500 -1.0223  1.1339
 1454SOL    HW215822   2.565   1.281   8.378  1.6912  0.3479  0.3998
 1455SOL     OW15823   3.013   2.851   4.798 -0.2428  0.4210 -0.0043
 1455SOL    HW115824   2.950   2.850   4.870  0.3041 -3.4986  0.3982
 1455SOL    HW215825   3.095   2.824   4.840 -1.0267  0.5200  1.5729
 1456SOL     OW15826   1.165   0.393  14.919 -0.0061  0.8453  0.3024
 1456SOL    HW115827   1.133   0.405  14.830 -0.2343  1.9216  0.5367
 1456SOL    HW215828   1.157   0.476  14.965 -0.5712 -0.3549  2.3669
 1457SOL     OW15829   4.242   3.481  15.877  0.3558  0.1888  0.2426
 1457SOL    HW115830   4.188   3.422  15.824  1.8810  0.0230 -1.1183
 1457SOL    HW215831   4.177   3.535  15.923  0.0764 -0.6266  0.8088
 1458SOL     OW15832   0.605   3.726   5.862  0.3301  0.7896  0.7708
 1458SOL    HW115833   0.650   3.807   5.885 -2.8909  2.3376  1.6904
 1458SOL    HW215834   0.611   3.726   5.766  0.7326 -0.7101  0.7963
 1459SOL     OW15835   4.575   4.294   2.067 -0.5027  0.3499 -0.4459
 1459SOL    HW115836   4.485   4.325   2.060 -0.6378 -0.2790 -1.4686
 1459SOL    HW215837   4.565   4.199   2.061 -0.4704  0.4493 -2.2367
 1460SOL     OW15838   1.799   1.128   4.892 -0.4220 -0.1949  0.0585
 1460SOL    HW115839   1.768   1.037   4.902 -0.9265 -0.1353 -0.9699
 1460SOL    HW215840   1.891   1.109   4.877 -0.7415 -1.4775 -0.3047
 1461SOL     OW15841   0.765   3.617   6.588  0.5369 -0.4855 -0.1224
 1461SOL    HW115842   0.750   3.523   6.575  1.3851 -0.8131  1.2742
 1461SOL    HW215843   0.679   3.646   6.617  1.2280  2.5574 -1.1123
 1462SOL     OW15844   1.169   1.536   1.953 -0.3950  0.2957  0.5687
 1462SOL    HW115845   1.142   1.517   1.863  0.6125  1.4130  0.0288
 1462SOL    HW215846   1.098   1.502   2.007 -1.1038  0.6862 -0.1159
 1463SOL     OW15847   0.263   1.308   9.817 -0.0216 -0.1080 -0.2155
 1463SOL    HW115848   0.283   1.348   9.733 -1.2763  0.0614 -0.4346
 1463SOL    HW215849   0.189   1.259   9.780  0.2820 -1.0475  0.4070
 1464SOL     OW15850   4.464   4.469  17.441 -0.0472  0.3388  0.1901
 1464SOL    HW115851   4.403   4.400  17.467 -2.1182  1.1252 -2.5240
 1464SOL    HW215852   4.436   4.533  17.506  0.5905 -0.0516  0.8482
 1465SOL     OW15853   4.305   2.916   7.632  0.3603  0.3366 -0.5520
 1465SOL    HW115854   4.310   2.885   7.541 -0.9786  1.2168 -0.9232
 1465SOL    HW215855   4.400   2.906   7.642  0.3645 -2.3354 -3.3010
 1466SOL     OW15856   2.566   1.243  12.740  0.2681  0.0993  0.2969
 1466SOL    HW115857   2.473   1.244  12.763  0.0195 -1.8736 -0.5541
 1466SOL    HW215858   2.599   1.212  12.825  1.2800 -2.7255 -1.1112
 1467SOL     OW15859   2.685   2.938   4.550 -0.1235 -0.3652  0.0618
 1467SOL    HW115860   2.713   2.972   4.465 -0.9994 -0.0632 -0.1038
 1467SOL    HW215861   2.676   3.016   4.606 -0.0718  0.3762 -0.9722
 1468SOL     OW15862   0.061   0.886   3.562 -0.0628  0.3068  0.1029
 1468SOL    HW115863   0.146   0.895   3.519  0.1407  0.0882  0.4676
 1468SOL    HW215864   0.086   0.892   3.654  1.5540  0.7536 -0.3540
 1469SOL     OW15865   2.497   1.385  17.509  0.4118  0.2732  0.4225
 1469SOL    HW115866   2.430   1.430  17.458  0.5561 -0.1210 -0.1139
 1469SOL    HW215867   2.465   1.411  17.596  3.0083  1.1143  1.1188
 1470SOL     OW15868   1.076   1.823   7.366 -0.2270  0.1941 -0.3564
 1470SOL    HW115869   1.153   1.878   7.349 -0.3128  0.9026  1.6068
 1470SOL    HW215870   1.007   1.890   7.368 -0.3148  0.0318  1.9957
 1471SOL     OW15871   1.150   0.299   4.865 -0.3039 -0.7718 -0.2188
 1471SOL    HW115872   1.200   0.234   4.815 -0.6417 -1.5190  0.4263
 1471SOL    HW215873   1.083   0.239   4.896 -0.4737 -1.1743 -1.3762
 1472SOL     OW15874   1.192   0.649   5.522  0.0949  0.5159  0.6281
 1472SOL    HW115875   1.127   0.707   5.562 -0.6616  0.6049 -0.7381
 1472SOL    HW215876   1.280   0.668   5.556 -0.7708 -0.9048  3.6459
 1473SOL     OW15877   1.174   4.391  14.860 -0.1642  0.5715  0.7562
 1473SOL    HW115878   1.247   4.370  14.802 -0.8137 -1.9771  0.8765
 1473SOL    HW215879   1.143   4.481  14.848  0.6890  0.7947  0.1949
 1474SOL     OW15880   0.199   1.926   8.993  0.8091  0.0472  0.7546
 1474SOL    HW115881   0.265   1.994   8.984 -0.3210  1.2037  1.1699
 1474SOL    HW215882   0.118   1.966   8.962  2.1141  0.9602 -1.4904
 1475SOL     OW15883   0.082   1.821   5.019  0.0962  0.4089  0.1138
 1475SOL    HW115884   0.096   1.877   5.096  0.0565 -0.1180  0.5039
 1475SOL    HW215885   0.021   1.760   5.061  0.3001  0.2642  0.2037
 1476SOL     OW15886   0.432   3.595   6.021 -0.1330  0.0843  0.0360
 1476SOL    HW115887   0.449   3.675   6.071  1.1794  0.3764 -0.8608
 1476SOL    HW215888   0.484   3.618   5.944 -0.5223 -0.0855 -0.2758
 1477SOL     OW15889   4.196   4.467   6.883 -0.0027 -0.2609  0.3515
 1477SOL    HW115890   4.126   4.434   6.938  0.1555 -0.0116  0.7016
 1477SOL    HW215891   4.242   4.385   6.864  1.9352  0.3977  2.2372
 1478SOL     OW15892   4.361   2.473   9.210  0.0801  0.1503  0.3073
 1478SOL    HW115893   4.349   2.398   9.152  0.7577  1.5736 -1.7010
 1478SOL    HW215894   4.280   2.521   9.194 -0.2212  0.0510  1.5407
 1479SOL     OW15895   2.317   4.080   2.765  0.1828  0.6459 -0.1182
 1479SOL    HW115896   2.305   4.141   2.838  0.3195 -2.1823  2.2857
 1479SOL    HW215897   2.411   4.065   2.768 -0.1275 -1.5507 -1.3836
 1480SOL     OW15898   4.384   0.747   2.731 -0.2780  0.1360  0.1041
 1480SOL    HW115899   4.410   0.823   2.678 -0.7741  1.3750  1.6443
 1480SOL    HW215900   4.310   0.716   2.679 -0.2360  0.9242 -0.4248
 1481SOL     OW15901   4.387   2.970   6.258  0.2581 -0.2987 -0.5471
 1481SOL    HW115902   4.355   3.013   6.179 -0.5702  0.3429  0.1455
 1481SOL    HW215903   4.423   3.044   6.307 -0.8274  0.5136 -0.9780
 1482SOL     OW15904   0.534   1.462   4.681 -0.4539  0.1418 -0.7478
 1482SOL    HW115905   0.580   1.470   4.597  2.0498 -1.1783  0.5028
 1482SOL    HW215906   0.566   1.529   4.741  0.6577 -0.0855 -1.0868
 1483SOL     OW15907   1.544   1.939  17.203  0.4782 -0.2195  0.2003
 1483SOL    HW115908   1.603   1.955  17.129 -0.0593 -2.4819 -0.7017
 1483SOL    HW215909   1.518   2.024  17.240  1.3438 -0.9105  2.3818
 1484SOL     OW15910   2.646   3.439  16.006  0.8673 -0.6018  0.2393
 1484SOL    HW115911   2.670   3.408  16.093  0.2572  0.4450  0.7936
 1484SOL    HW215912   2.687   3.526  16.011 -0.1690 -0.0203 -1.1878
 1485SOL     OW15913   2.628   0.544  15.560  0.0842  0.7328  0.0045
 1485SOL    HW115914   2.669   0.459  15.575 -1.3944  0.4240  2.3772
 1485SOL    HW215915   2.599   0.543  15.469 -1.6682 -0.2488  0.5690
 1486SOL     OW15916   4.270   4.209   7.388  0.2657 -0.0395 -0.9412
 1486SOL    HW115917   4.325   4.261   7.329  1.8875  0.3240  0.8749
 1486SOL    HW215918   4.313   4.221   7.473 -0.0057  0.4380 -0.8718
 1487SOL     OW15919   1.060   2.672  15.276 -0.0056  0.1807 -0.2489
 1487SOL    HW115920   1.011   2.752  15.292 -1.2932 -0.5869 -0.3431
 1487SOL    HW215921   1.128   2.709  15.219 -0.3103  1.3972  0.1943
 1488SOL     OW15922   0.670   4.431   3.446  0.2476 -0.3741  0.2091
 1488SOL    HW115923   0.595   4.470   3.492  0.0262  0.6829 -1.0609
 1488SOL    HW215924   0.691   4.494   3.377 -1.4420 -0.5530 -0.4637
 1489SOL     OW15925   0.501   3.533   5.415  0.1330  0.5055  0.2121
 1489SOL    HW115926   0.430   3.509   5.475  0.7372 -1.5001  0.1054
 1489SOL    HW215927   0.467   3.505   5.330  0.3695  1.9335 -0.3634
 1490SOL     OW15928   0.930   4.620  16.302  0.6816 -0.5242 -0.4656
 1490SOL    HW115929   0.979   4.622  16.220  2.3636 -2.1606  0.4999
 1490SOL    HW215930   0.984   4.545  16.326  1.1923  0.3145  1.0620
 1491SOL     OW15931   3.959   0.682  14.526  0.2714 -0.0185  1.2009
 1491SOL    HW115932   4.002   0.692  14.611  2.5658 -0.2358  0.0534
 1491SOL    HW215933   4.027   0.635  14.479  0.7518 -0.0774  1.9566
 1492SOL     OW15934   0.447   2.144   9.276 -0.2521  0.7580 -0.0180
 1492SOL    HW115935   0.378   2.198   9.314 -1.0413 -1.4730  1.7455
 1492SOL    HW215936   0.410   2.055   9.276 -1.9597  1.4683 -1.3784
 1493SOL     OW15937   2.778   2.803   7.597 -0.4860  0.0518 -0.2786
 1493SOL    HW115938   2.840   2.876   7.600  0.1695 -0.4381 -1.6441
 1493SOL    HW215939   2.832   2.726   7.617  0.3538  0.6588 -0.2272
 1494SOL     OW15940   2.989   2.319   7.457 -0.0256 -0.1886  0.3119
 1494SOL    HW115941   3.056   2.256   7.484 -2.0520 -1.3600  2.6271
 1494SOL    HW215942   2.916   2.286   7.509 -1.3793  1.0414 -0.8123
 1495SOL     OW15943   1.802   2.552  10.168  0.1135  0.5060  0.3784
 1495SOL    HW115944   1.747   2.572  10.243 -2.1779 -0.2433 -1.1088
 1495SOL    HW215945   1.805   2.457  10.172 -0.0728  0.3839 -2.2565
 1496SOL     OW15946   0.785   3.646   5.115 -0.4033 -0.2315 -0.6004
 1496SOL    HW115947   0.771   3.572   5.055 -2.7784 -0.2115 -0.0893
 1496SOL    HW215948   0.849   3.700   5.069 -0.2633 -2.2733 -2.8274
 1497SOL     OW15949   0.492   0.998   6.695  0.2577  0.5440 -0.0945
 1497SOL    HW115950   0.456   0.953   6.619 -1.2525 -1.0006  1.5237
 1497SOL    HW215951   0.474   0.947   6.774 -0.7246  4.0661  1.9632
 1498SOL     OW15952   3.192   3.535  14.635  0.3007  0.4234  0.4915
 1498SOL    HW115953   3.149   3.561  14.716 -0.3154  1.4242 -0.1582
 1498SOL    HW215954   3.146   3.588  14.571 -0.3315 -0.0854  0.5288
 1499SOL     OW15955   2.666   1.126  11.213  0.7845 -0.7751  0.0919
 1499SOL    HW115956   2.756   1.101  11.195  0.6816 -0.2525 -1.1235
 1499SOL    HW215957   2.621   1.047  11.181  1.6077 -1.2694  0.1433
 1500SOL     OW15958   1.135   1.317  14.416 -0.4766 -0.9376 -0.0504
 1500SOL    HW115959   1.090   1.400  14.434  0.8588 -0.1069 -0.5857
 1500SOL    HW215960   1.209   1.354  14.369 -0.5063  1.5371  1.8520
 1501SOL     OW15961   1.114   2.763   5.404  0.6477 -0.8030 -0.0295
 1501SOL    HW115962   1.079   2.701   5.340  0.6394 -0.6864 -0.1400
 1501SOL    HW215963   1.082   2.847   5.371  0.3392 -0.4252  1.2255
 1502SOL     OW15964   3.504   3.228   5.973  0.2998  0.3342  0.3937
 1502SOL    HW115965   3.542   3.311   6.002  1.9720 -0.0469 -0.7314
 1502SOL    HW215966   3.455   3.214   6.054  0.0335 -0.2225  0.1348
 1503SOL     OW15967   3.279   3.779   6.296 -0.2795  0.2960  0.2234
 1503SOL    HW115968   3.279   3.872   6.318  0.1068  0.4185 -0.2751
 1503SOL    HW215969   3.198   3.764   6.344  0.1075 -5.4213 -0.8871
 1504SOL     OW15970   3.590   1.233   7.624 -0.2893 -0.3716  0.1920
 1504SOL    HW115971   3.602   1.153   7.573  3.1059  0.7650 -0.7711
 1504SOL    HW215972   3.521   1.208   7.685  0.6522 -0.5123  1.1765
 1505SOL     OW15973   1.801   2.940   7.816  0.4400 -0.3024 -0.2389
 1505SOL    HW115974   1.874   2.994   7.785  1.6387 -2.2417 -0.7751
 1505SOL    HW215975   1.817   2.850   7.786  1.3955 -0.7805  1.7089
 1506SOL     OW15976   3.916   1.185   6.257 -0.5728  0.3246  0.4879
 1506SOL    HW115977   3.933   1.198   6.350 -2.0096  0.3790  0.7414
 1506SOL    HW215978   3.892   1.093   6.249  2.1248 -0.2811 -0.9073
 1507SOL     OW15979   1.626   2.907   2.446  0.7980  0.4838  0.0299
 1507SOL    HW115980   1.592   2.826   2.407  0.3529  1.1696 -1.0285
 1507SOL    HW215981   1.648   2.951   2.363  1.9960 -2.9335 -1.4474
 1508SOL     OW15982   4.226   2.582   6.953 -0.8071  0.2031  0.6401
 1508SOL    HW115983   4.162   2.605   7.021 -0.6291 -1.0516  1.2398
 1508SOL    HW215984   4.286   2.539   7.014 -0.3607 -1.6526 -1.1250
 1509SOL     OW15985   3.139   3.059   2.899 -0.1900  0.4561  0.2959
 1509SOL    HW115986   3.159   3.101   2.983  0.6989  3.1518 -1.2834
 1509SOL    HW215987   3.043   3.052   2.899 -0.0268 -1.8633  0.6698
 1510SOL     OW15988   2.510   1.674  12.430  0.0864 -0.1405 -0.0511
 1510SOL    HW115989   2.479   1.583  12.426 -0.7326  0.0589  1.5972
 1510SOL    HW215990   2.601   1.659  12.455  0.0073 -0.7582 -0.1324
 1511SOL     OW15991   0.562   1.266  12.330 -0.3333  0.0379 -0.5032
 1511SOL    HW115992   0.561   1.348  12.281 -2.2398 -0.3979 -1.2127
 1511SOL    HW215993   0.649   1.241  12.299 -0.5373 -0.0923 -0.9745
 1512SOL     OW15994   2.111   1.052   0.618 -0.4736 -0.3042 -0.6712
 1512SOL    HW115995   2.033   1.105   0.608  0.1932  1.0323  1.1519
 1512SOL    HW215996   2.134   1.057   0.711  3.3523 -2.6076 -1.4606
 1513SOL     OW15997   0.579   1.619  10.139 -0.3563 -0.1248 -0.0514
 1513SOL    HW115998   0.548   1.662  10.060 -2.5224 -1.1383  0.2237
 1513SOL    HW215999   0.622   1.548  10.092  0.9931  0.2148  0.6685
 1514SOL     OW16000   4.486   3.257   4.853 -0.4158 -0.2485  0.2168
 1514SOL    HW116001   4.426   3.310   4.801 -0.5292  0.3432  0.9473
 1514SOL    HW216002   4.529   3.219   4.777 -1.5535  0.4918 -0.7970
 1515SOL     OW16003   3.836   1.342   5.306 -0.3440 -0.4974 -0.3114
 1515SOL    HW116004   3.759   1.294   5.275 -0.3872 -1.5569  1.4134
 1515SOL    HW216005   3.855   1.402   5.234  2.9890 -1.6248 -0.3610
 1516SOL     OW16006   2.612   2.417   0.260  0.1224 -0.3336 -0.6567
 1516SOL    HW116007   2.600   2.324   0.280  0.1636 -0.1401  0.3103
 1516SOL    HW216008   2.621   2.456   0.347 -0.8535  0.2691 -0.8255
 1517SOL     OW16009   0.015   4.701   0.440  0.2628 -0.0415 -0.3727
 1517SOL    HW116010   0.032   4.607   0.443 -0.9637 -0.2039  1.8394
 1517SOL    HW216011   4.701   4.700   0.352 -1.4500 -2.3433  0.3757
 1518SOL     OW16012   3.884   1.441  16.092 -0.4091  0.0609  0.4214
 1518SOL    HW116013   3.806   1.484  16.127  0.0789  0.8134  0.5818
 1518SOL    HW216014   3.902   1.371  16.154 -0.2496 -1.4646 -1.3604
 1519SOL     OW16015   1.495   1.334  17.564 -0.1000 -0.1033 -0.1456
 1519SOL    HW116016   1.463   1.378  17.485 -0.7748 -0.6878 -0.1979
 1519SOL    HW216017   1.564   1.396  17.589 -0.7815  1.2938 -1.7416
 1520SOL     OW16018   1.402   1.752   2.879  0.0215  0.1714 -0.2650
 1520SOL    HW116019   1.339   1.697   2.833  0.9643 -3.2511  2.6050
 1520SOL    HW216020   1.471   1.758   2.812 -1.6772  1.2778 -1.9244
 1521SOL     OW16021   0.458   3.840   1.586 -0.1548 -0.4558  0.0330
 1521SOL    HW116022   0.543   3.795   1.583  0.2777  0.3775 -0.2166
 1521SOL    HW216023   0.422   3.808   1.669 -0.1253  2.2727  1.1038
 1522SOL     OW16024   2.594   0.155   0.014 -0.5361  0.4755 -0.2142
 1522SOL    HW116025   2.602   0.250   0.020  1.0229  0.3946 -0.8344
 1522SOL    HW216026   2.684   0.133   0.038 -1.2714  1.3007  3.2861
 1523SOL     OW16027   2.528   4.424   3.119  0.3022  0.1836 -0.6176
 1523SOL    HW116028   2.550   4.466   3.036  1.1424  1.5311  0.2851
 1523SOL    HW216029   2.585   4.465   3.185 -0.1916 -2.2261  1.3387
 1524SOL     OW16030   0.537   4.232   1.483  0.3233 -0.0283  0.1167
 1524SOL    HW116031   0.631   4.219   1.500  0.3862  0.4145  0.1103
 1524SOL    HW216032   0.520   4.160   1.422 -3.2228  0.2723  0.8015
 1525SOL     OW16033   3.781   0.077   5.375 -0.2965 -0.4774  0.8348
 1525SOL    HW116034   3.708   0.102   5.318 -0.1303 -1.2025  0.3003
 1525SOL    HW216035   3.824   0.161   5.390  3.4837 -2.2089 -0.2246
 1526SOL     OW16036   2.794   3.772   0.644 -0.3507 -0.4561 -0.1504
 1526SOL    HW116037   2.739   3.721   0.584 -1.0378  0.9465 -0.7256
 1526SOL    HW216038   2.759   3.858   0.619  1.4583  0.2361 -0.2463
 1527SOL     OW16039   4.640   3.851   6.069 -0.3848  0.3853 -0.1006
 1527SOL    HW116040   4.549   3.873   6.086 -0.7642 -1.0133 -0.3350
 1527SOL    HW216041   4.652   3.771   6.120  0.4434 -0.1576 -1.1428
 1528SOL     OW16042   1.473   1.276   5.614  0.2169  0.5353 -0.1145
 1528SOL    HW116043   1.416   1.203   5.639 -0.1639  1.6655  2.3206
 1528SOL    HW216044   1.497   1.299   5.703  0.0177  0.8994 -0.1527
 1529SOL     OW16045   0.545   1.954   5.623 -0.1396 -0.1317 -0.0675
 1529SOL    HW116046   0.496   1.996   5.553 -1.0110 -2.0327 -0.5919
 1529SOL    HW216047   0.487   1.969   5.697  1.0839  2.0467  0.4326
 1530SOL     OW16048   2.466   3.538   9.676  0.0663 -0.2404  0.2158
 1530SOL    HW116049   2.487   3.531   9.770  1.0125  0.6453  0.0734
 1530SOL    HW216050   2.552   3.515   9.640  0.2572 -0.8697  1.0593
 1531SOL     OW16051   3.816   1.184   5.026 -0.5370  0.3478 -0.3752
 1531SOL    HW116052   3.871   1.262   5.030 -1.3504  0.9459 -0.8311
 1531SOL    HW216053   3.797   1.174   4.933 -0.9325 -0.4009 -0.2152
 1532SOL     OW16054   2.992   0.117  10.848  0.1673 -0.2685  0.1420
 1532SOL    HW116055   2.957   0.068  10.773  2.3622 -0.0910 -0.9964
 1532SOL    HW216056   2.983   0.200  10.801 -1.0898  0.3082  1.3687
 1533SOL     OW16057   3.098   1.555  10.932  0.0466  0.0320 -0.4406
 1533SOL    HW116058   3.150   1.475  10.917  0.1583  0.0412 -0.1043
 1533SOL    HW216059   3.011   1.520  10.911  0.3838 -0.7175 -0.6107
 1534SOL     OW16060   1.357   0.986  14.898 -0.1303  0.0278 -0.1067
 1534SOL    HW116061   1.302   1.052  14.939  0.9986 -0.1787  1.7650
 1534SOL    HW216062   1.437   0.988  14.951  1.0093 -0.8925 -1.7962
 1535SOL     OW16063   0.681   2.914   5.505  0.0337  0.0139  0.8898
 1535SOL    HW116064   0.695   2.826   5.540 -2.1601  0.0327  1.7701
 1535SOL    HW216065   0.598   2.902   5.460  0.8838 -0.0559 -0.6821
 1536SOL     OW16066   1.961   2.145  16.610 -0.3677  0.3643  0.5911
 1536SOL    HW116067   1.866   2.147  16.622 -0.5577 -0.0625 -0.7593
 1536SOL    HW216068   1.988   2.071  16.664  3.9884  1.0129 -0.7065
 1537SOL     OW16069   3.286   0.082   9.517  0.4125 -0.5164 -0.2474
 1537SOL    HW116070   3.348   0.155   9.522  0.9363 -1.0209  0.5756
 1537SOL    HW216071   3.335   0.016   9.566  1.8269 -0.3623 -1.4693
 1538SOL     OW16072   1.224   0.979   3.377  0.9168 -0.0151 -1.2199
 1538SOL    HW116073   1.141   1.019   3.353  0.6496  0.6551  0.8487
 1538SOL    HW216074   1.215   0.981   3.472  0.4077  1.7495 -1.3004
 1539SOL     OW16075   2.473   3.552  13.185 -0.3313  0.1017 -0.6477
 1539SOL    HW116076   2.560   3.511  13.195  0.3597  1.8669  0.5512
 1539SOL    HW216077   2.470   3.603  13.265 -0.1751  0.6472 -0.9878
 1540SOL     OW16078   3.685   2.503   3.218  0.2707  0.4839  0.3783
 1540SOL    HW116079   3.660   2.433   3.278 -1.6940  0.0575 -0.9602
 1540SOL    HW216080   3.609   2.510   3.160  0.9160 -0.3513 -0.5590
 1541SOL     OW16081   1.818   1.830   6.354  0.5297 -0.5725  0.1877
 1541SOL    HW116082   1.797   1.891   6.284  0.4899 -0.5721  0.1996
 1541SOL    HW216083   1.907   1.860   6.372 -0.1275 -0.7943  3.9170
 1542SOL     OW16084   4.131   3.294   5.267  0.3323 -0.0856  0.5275
 1542SOL    HW116085   4.095   3.343   5.341 -1.9342 -1.5656  0.4179
 1542SOL    HW216086   4.130   3.204   5.299  2.7129 -0.5949 -0.8016
 1543SOL     OW16087   0.961   3.868   8.356 -0.6187  0.5148  0.6145
 1543SOL    HW116088   1.052   3.837   8.355 -0.6272  0.4904  0.5755
 1543SOL    HW216089   0.972   3.955   8.317 -0.1579 -0.1515 -0.7307
 1544SOL     OW16090   3.101   4.008   9.181  0.1128  0.9346  0.2833
 1544SOL    HW116091   3.099   3.955   9.261 -1.9870 -0.4466 -0.6815
 1544SOL    HW216092   3.018   4.056   9.187 -0.5444 -0.0295 -1.1965
 1545SOL     OW16093   3.906   3.313   9.335  0.0573  0.2389  0.1803
 1545SOL    HW116094   3.957   3.325   9.415  0.7167 -0.0188 -0.2054
 1545SOL    HW216095   3.847   3.244   9.366  3.0849 -1.6537  1.7241
 1546SOL     OW16096   4.460   1.328  14.796  0.4561  0.1996  0.2592
 1546SOL    HW116097   4.552   1.323  14.769  0.6659 -1.2767  1.2683
 1546SOL    HW216098   4.415   1.306  14.715  0.3053  1.6782 -0.0497
 1547SOL     OW16099   1.345   0.408   1.449 -0.8446  0.4437  0.1398
 1547SOL    HW116100   1.257   0.376   1.427 -0.4879  1.2607 -2.4559
 1547SOL    HW216101   1.377   0.322   1.478 -0.2869  1.0040  1.1695
 1548SOL     OW16102   4.425   0.721   3.189  0.7111  0.0582 -0.1684
 1548SOL    HW116103   4.431   0.814   3.167 -0.8358 -0.0808 -1.2061
 1548SOL    HW216104   4.340   0.709   3.232  1.2575 -2.9089  0.0823
 1549SOL     OW16105   1.350   1.525  14.562  0.1524  0.6951 -0.4235
 1549SOL    HW116106   1.422   1.587  14.547 -1.2505  1.9308 -2.0959
 1549SOL    HW216107   1.384   1.440  14.534 -0.9858  0.2092 -0.3356
 1550SOL     OW16108   2.728   4.610   8.076 -0.1058  0.2939 -0.4576
 1550SOL    HW116109   2.794   4.560   8.027  0.8202  2.6282 -1.5636
 1550SOL    HW216110   2.679   4.654   8.008  1.3399 -1.5431 -2.6970
 1551SOL     OW16111   1.950   2.805   4.125 -0.1051  0.3602 -0.2116
 1551SOL    HW116112   1.882   2.748   4.161  0.4384 -0.4107 -0.4165
 1551SOL    HW216113   1.910   2.830   4.041  0.3933 -1.1772 -0.9132
 1552SOL     OW16114   3.141   3.629   7.169  0.0147  0.2090  0.1438
 1552SOL    HW116115   3.146   3.606   7.261 -0.7278 -0.6272 -0.0163
 1552SOL    HW216116   3.185   3.713   7.176  3.1012 -1.2996 -0.9926
 1553SOL     OW16117   3.337   4.461   9.909 -0.7767 -0.1765 -0.1135
 1553SOL    HW116118   3.420   4.491   9.872 -0.8907 -1.6922 -1.5939
 1553SOL    HW216119   3.364   4.403   9.980 -0.7745  0.5519  0.4804
 1554SOL     OW16120   3.065   0.740   0.977 -0.0662 -0.0326  0.9704
 1554SOL    HW116121   2.974   0.769   0.972  0.7538  2.7728  2.2637
 1554SOL    HW216122   3.064   0.703   0.889 -1.4918 -0.0837  0.9961
 1555SOL     OW16123   3.604   4.714   7.485 -0.1569 -0.0909 -0.6276
 1555SOL    HW116124   3.576   0.017   7.572 -0.7835  1.5499 -1.3270
 1555SOL    HW216125   3.694   0.019   7.498 -0.5974  1.2684 -0.5212
 1556SOL     OW16126   2.682   3.614  14.253 -0.6817  0.2461  0.5297
 1556SOL    HW116127   2.621   3.541  14.261 -0.5953  0.0611 -0.4074
 1556SOL    HW216128   2.703   3.652  14.337 -1.3032  1.5533  0.0920
 1557SOL     OW16129   3.574   3.666   7.089 -0.0454 -0.3407 -0.4906
 1557SOL    HW116130   3.662   3.674   7.124 -0.7967  0.5027  1.2417
 1557SOL    HW216131   3.579   3.728   7.017  2.5330 -0.5719 -0.4993
 1558SOL     OW16132   3.413   1.218   7.874  0.0689  0.4201  0.6193
 1558SOL    HW116133   3.491   1.231   7.928 -0.3843  1.5160  0.9967
 1558SOL    HW216134   3.387   1.131   7.907 -1.7802  0.6523 -0.2570
 1559SOL     OW16135   2.177   1.443   6.993 -0.1872 -0.0668 -0.3159
 1559SOL    HW116136   2.170   1.531   6.956 -2.2031  0.0676  0.3925
 1559SOL    HW216137   2.098   1.442   7.046  0.8708 -1.4755  1.2541
 1560SOL     OW16138   4.142   0.880   3.050 -0.0974  0.3687  0.5185
 1560SOL    HW116139   4.143   0.942   3.123  1.5758  0.5986  0.3130
 1560SOL    HW216140   4.159   0.807   3.110  0.2425  0.8463  1.0010
 1561SOL     OW16141   3.707   4.014   7.351  0.4072  0.3184  0.0415
 1561SOL    HW116142   3.699   4.104   7.382 -0.0015  0.3149 -0.0576
 1561SOL    HW216143   3.658   3.974   7.423  0.0154 -0.7463 -0.8169
 1562SOL     OW16144   0.395   1.441   7.893 -0.1101  0.1508 -0.1804
 1562SOL    HW116145   0.307   1.455   7.857 -0.0448  0.4563 -0.2245
 1562SOL    HW216146   0.452   1.406   7.825 -1.9873 -0.2622 -1.5204
 1563SOL     OW16147   4.296   2.899  10.295 -0.3374 -0.0486 -0.0913
 1563SOL    HW116148   4.321   2.832  10.231  1.0331  1.5501 -1.2355
 1563SOL    HW216149   4.255   2.844  10.362  1.7601  0.8229  1.9044
 1564SOL     OW16150   4.089   0.712   5.466  0.0969 -0.0914 -0.1147
 1564SOL    HW116151   4.129   0.627   5.450 -0.3992 -0.8273  2.4510
 1564SOL    HW216152   4.083   0.743   5.376  0.7982 -0.9212 -0.4418
 1565SOL     OW16153   0.756   2.911   5.245 -0.1359  0.3157  0.6749
 1565SOL    HW116154   0.730   2.821   5.224 -0.5741  0.0276  2.5103
 1565SOL    HW216155   0.746   2.913   5.340 -0.5623  1.2276  0.6143
 1566SOL     OW16156   1.801   2.997   5.725  0.0546  0.6219 -0.0443
 1566SOL    HW116157   1.826   3.065   5.787  1.7969  0.0008 -0.0560
 1566SOL    HW216158   1.879   2.988   5.670  2.1392  1.1842  2.8272
 1567SOL     OW16159   1.110   2.833   8.023  0.4063  0.3873 -0.9785
 1567SOL    HW116160   1.131   2.753   8.070 -0.5690 -0.4291 -1.9167
 1567SOL    HW216161   1.121   2.905   8.085 -0.5872  1.2341 -1.7773
 1568SOL     OW16162   3.842   3.531  17.693  0.8456  0.5008  0.7683
 1568SOL    HW116163   3.812   3.571  17.611  0.4230 -0.5414  0.4152
 1568SOL    HW216164   3.771   3.471   0.022  2.3528 -1.1451  1.0800
 1569SOL     OW16165   1.984   3.990  10.414  0.0156  0.2778 -0.1593
 1569SOL    HW116166   2.059   4.033  10.456  1.1549 -0.7237 -1.1420
 1569SOL    HW216167   1.914   4.044  10.449  1.0280  0.5715  1.3974
 1570SOL     OW16168   3.098   4.314   9.411 -0.9272  0.3880 -0.5693
 1570SOL    HW116169   3.028   4.293   9.473 -2.5478 -3.8689 -3.8539
 1570SOL    HW216170   3.063   4.396   9.377  0.7076  0.4520 -2.0807
 1571SOL     OW16171   3.733   2.226   0.865  0.3025  0.2180 -0.4866
 1571SOL    HW116172   3.823   2.232   0.898 -0.0894  1.0071  0.4416
 1571SOL    HW216173   3.720   2.134   0.889 -0.8950  0.6002  0.3016
 1572SOL     OW16174   2.526   0.034  13.980 -0.2446 -0.6874  0.3650
 1572SOL    HW116175   2.540   0.125  14.005  1.0216 -0.1486 -2.2999
 1572SOL    HW216176   2.530   0.037  13.884 -1.7361  1.5495  0.3900
 1573SOL     OW16177   3.513   4.343   2.427  0.5069 -0.3046  0.2603
 1573SOL    HW116178   3.492   4.388   2.509  0.2142 -0.2670  0.1659
 1573SOL    HW216179   3.584   4.400   2.397  0.8941 -0.8621  0.1239
 1574SOL     OW16180   3.957   4.025   1.234  0.4154 -0.1202  0.1225
 1574SOL    HW116181   3.972   3.955   1.170 -0.8781 -2.7767  2.7606
 1574SOL    HW216182   3.984   4.102   1.182 -0.8003  0.0722 -0.2218
 1575SOL     OW16183   0.227   0.523  10.914  0.7207  1.0873 -0.4076
 1575SOL    HW116184   0.308   0.539  10.962  0.7712 -2.3403  0.6665
 1575SOL    HW216185   0.263   0.481  10.836 -0.1153 -0.4241  0.0126
 1576SOL     OW16186   0.454   0.218   1.455 -0.0708  0.4530  0.0139
 1576SOL    HW116187   0.529   0.272   1.479 -0.4766  1.6642 -1.4685
 1576SOL    HW216188   0.469   0.146   1.516  2.6656  0.9595 -0.0843
 1577SOL     OW16189   0.606   3.616   7.247  0.0168  0.6684 -0.2193
 1577SOL    HW116190   0.686   3.612   7.196  0.6548  2.7192  0.6136
 1577SOL    HW216191   0.556   3.542   7.212 -0.9459  1.4512 -0.5242
 1578SOL     OW16192   4.278   1.135   5.188  0.1629  0.0253  0.0880
 1578SOL    HW116193   4.191   1.097   5.171  1.1964 -2.7001  0.9943
 1578SOL    HW216194   4.315   1.139   5.100 -0.4102  1.4184 -0.0896
 1579SOL     OW16195   3.599   2.794   4.351  0.0045  0.0642  1.5126
 1579SOL    HW116196   3.516   2.780   4.306 -0.0519 -2.0449  2.2557
 1579SOL    HW216197   3.588   2.884   4.379 -2.6264  0.9004 -2.1792
 1580SOL     OW16198   0.622   2.053   8.229  0.4158 -0.3260  0.5630
 1580SOL    HW116199   0.675   2.132   8.224 -0.7643  0.4893  1.0443
 1580SOL    HW216200   0.620   2.036   8.323 -0.8710  0.0871  0.6102
 1581SOL     OW16201   0.983   3.498  13.219 -0.1306  0.7084  0.2276
 1581SOL    HW116202   0.945   3.410  13.215  1.0984  0.1983 -0.3087
 1581SOL    HW216203   0.910   3.548  13.257 -0.3611 -0.6392  1.5573
 1582SOL     OW16204   3.489   2.248  15.277 -0.6577  0.0501  0.4470
 1582SOL    HW116205   3.406   2.260  15.324  0.2360 -1.3755  2.3665
 1582SOL    HW216206   3.552   2.308  15.318 -1.5809  0.2511  1.5845
 1583SOL     OW16207   0.203   4.116  16.088 -0.4030 -0.0619  0.2206
 1583SOL    HW116208   0.213   4.042  16.149  0.9354  1.3684  1.7324
 1583SOL    HW216209   0.107   4.124  16.096 -0.3366 -0.8258  1.8665
 1584SOL     OW16210   4.140   4.719   7.388 -0.1620 -0.4551  0.2987
 1584SOL    HW116211   4.228   4.685   7.405 -0.2585 -0.9066 -0.1043
 1584SOL    HW216212   4.089   4.644   7.419  0.4366 -0.9204  0.1561
 1585SOL     OW16213   4.545   3.081   3.829 -0.0539  0.7037 -0.1947
 1585SOL    HW116214   4.544   3.024   3.906  2.9077  1.4939  0.4373
 1585SOL    HW216215   4.461   3.052   3.795 -0.1089  2.1233 -1.2432
 1586SOL     OW16216   3.171   0.758   3.380 -0.0584  0.4956  0.0031
 1586SOL    HW116217   3.161   0.829   3.444  0.1890  1.7158 -1.3085
 1586SOL    HW216218   3.200   0.816   3.309 -1.9926  2.1546  0.5669
 1587SOL     OW16219   0.548   3.961   9.667 -0.2425 -0.1796 -0.1832
 1587SOL    HW116220   0.525   3.891   9.728 -0.0271 -1.1668 -1.2315
 1587SOL    HW216221   0.486   3.942   9.596  0.4987  0.2139 -0.9467
 1588SOL     OW16222   4.720   3.843  11.749  0.0409  0.4774 -0.3443
 1588SOL    HW116223   4.625   3.833  11.749  0.0642  0.2781 -1.1026
 1588SOL    HW216224   4.719   3.938  11.736 -0.2460  0.4386 -0.6063
 1589SOL     OW16225   1.899   1.367   3.897 -0.4072 -0.4868  0.1416
 1589SOL    HW116226   1.888   1.288   3.950  0.8701 -0.7713 -0.0115
 1589SOL    HW216227   1.987   1.359   3.860 -1.2133  1.1504 -2.1409
 1590SOL     OW16228   2.406   0.964   4.666 -0.9539  0.2645  0.5732
 1590SOL    HW116229   2.355   0.889   4.635  1.9310 -1.8888  1.0731
 1590SOL    HW216230   2.352   1.036   4.632 -0.0453  1.5283  1.8160
 1591SOL     OW16231   2.153   0.723   7.790 -0.0741  0.2769 -0.0196
 1591SOL    HW116232   2.189   0.767   7.866  0.3373 -0.9486  0.5006
 1591SOL    HW216233   2.154   0.794   7.726 -0.0693  3.0998  3.1356
 1592SOL     OW16234   4.407   0.941  11.792  0.0078 -0.1835 -0.4669
 1592SOL    HW116235   4.326   0.936  11.843  1.1491  2.3778  1.5758
 1592SOL    HW216236   4.426   0.848  11.779  0.2282 -0.2653  0.4523
 1593SOL     OW16237   1.817   2.336   3.302 -0.0285  0.0565 -0.0951
 1593SOL    HW116238   1.858   2.421   3.285  1.0114 -0.1911  1.2249
 1593SOL    HW216239   1.894   2.299   3.344  0.3137 -1.3315 -1.9078
 1594SOL     OW16240   4.400   0.208   4.624  0.1729  0.6130  0.6524
 1594SOL    HW116241   4.437   0.189   4.538  0.6424  0.8636  0.7942
 1594SOL    HW216242   4.431   0.129   4.668  0.2490  0.5776  0.5364
 1595SOL     OW16243   1.047   3.301   0.586  0.1388 -0.4500 -0.2010
 1595SOL    HW116244   1.032   3.285   0.679 -1.1905  0.5713 -0.2373
 1595SOL    HW216245   1.128   3.351   0.592 -0.4952  0.2573  2.6341
 1596SOL     OW16246   4.511   3.291   9.087  0.2052 -0.3973  0.3853
 1596SOL    HW116247   4.514   3.196   9.076 -0.0884 -0.1654 -1.7701
 1596SOL    HW216248   4.589   3.306   9.141  1.2030  0.4114 -1.2769
 1597SOL     OW16249   0.182   4.421   3.722 -0.3631 -0.6735  0.1372
 1597SOL    HW116250   0.192   4.482   3.796 -2.2259  1.2964 -1.2474
 1597SOL    HW216251   0.191   4.339   3.770  4.7938  0.5286  1.2811
 1598SOL     OW16252   2.678   3.486  17.070  0.0144  0.8914 -0.3605
 1598SOL    HW116253   2.714   3.536  16.997 -0.1925  0.3349 -0.8469
 1598SOL    HW216254   2.584   3.504  17.069 -0.2609 -0.5591 -1.4268
 1599SOL     OW16255   0.622   4.100   8.972 -0.7328 -0.0173  0.4953
 1599SOL    HW116256   0.683   4.026   8.972  0.4144  0.9240 -0.6960
 1599SOL    HW216257   0.544   4.048   8.952 -1.0253  0.8795 -0.7097
 1600SOL     OW16258   0.369   3.422   5.715 -0.4459 -0.4328  0.2151
 1600SOL    HW116259   0.329   3.372   5.786 -0.8779 -0.9377 -0.3796
 1600SOL    HW216260   0.294   3.427   5.655  0.3706  1.0290 -0.7008
 1601SOL     OW16261   4.529   0.328  12.412  0.2009  0.3410  0.1350
 1601SOL    HW116262   4.577   0.380  12.477 -1.5077 -0.1559  1.7799
 1601SOL    HW216263   4.465   0.393  12.384  0.1842 -0.9008 -2.6822
 1602SOL     OW16264   3.536   2.282  16.606 -0.6984  0.2391 -0.4613
 1602SOL    HW116265   3.568   2.275  16.516 -0.7007 -0.9570 -0.3690
 1602SOL    HW216266   3.568   2.194  16.627 -0.1091  0.9605  1.6686
 1603SOL     OW16267   0.299   4.320   2.610 -0.0383  0.3233  0.3554
 1603SOL    HW116268   0.343   4.319   2.525 -0.5968 -2.6997  0.1035
 1603SOL    HW216269   0.336   4.242   2.652 -0.5938  0.0689  0.3657
 1604SOL     OW16270   3.305   0.219   8.285 -0.0634 -0.4582 -0.4857
 1604SOL    HW116271   3.333   0.281   8.353 -0.1037  0.9216 -1.7138
 1604SOL    HW216272   3.387   0.181   8.256  1.3838  2.2639  0.0820
 1605SOL     OW16273   4.462   2.487   3.629 -0.4060 -0.8303  0.1335
 1605SOL    HW116274   4.504   2.434   3.697 -1.4845 -0.6599  0.9386
 1605SOL    HW216275   4.392   2.521   3.685 -0.1078 -0.3849  0.2333
 1606SOL     OW16276   4.171   0.837  11.186  0.6974  0.4269  0.8462
 1606SOL    HW116277   4.091   0.890  11.191  0.4043  0.0819 -0.2735
 1606SOL    HW216278   4.234   0.901  11.217  0.6926  0.8989 -0.1243
 1607SOL     OW16279   4.373   0.746   9.897  0.1076 -0.2630  0.1902
 1607SOL    HW116280   4.428   0.740   9.819  1.4952 -2.5180  1.3163
 1607SOL    HW216281   4.433   0.802   9.947 -0.1305  1.4472 -1.4394
 1608SOL     OW16282   2.024   4.191   9.075  0.2072  0.4208  0.4694
 1608SOL    HW116283   2.026   4.178   9.169  1.3151  0.9953  0.5205
 1608SOL    HW216284   2.043   4.104   9.038  0.2627  0.0585  1.3538
 1609SOL     OW16285   3.769   1.928   8.378 -0.2345  0.2297 -0.1270
 1609SOL    HW116286   3.803   1.947   8.291 -0.9194  2.5366  0.1058
 1609SOL    HW216287   3.827   1.856   8.405  0.7747  1.8438  2.0185
 1610SOL     OW16288   3.280   2.991   4.021 -0.3216 -0.4089  0.1884
 1610SOL    HW116289   3.320   3.069   3.983 -1.6404  0.2031  0.0387
 1610SOL    HW216290   3.190   3.024   4.029  0.1739  1.1093 -0.4164
 1611SOL     OW16291   0.995   4.412   4.634 -0.1691  0.4515 -0.4050
 1611SOL    HW116292   1.058   4.483   4.649 -0.6598  0.4282  1.7123
 1611SOL    HW216293   0.916   4.437   4.682  0.7383  2.4640  0.0484
 1612SOL     OW16294   0.586   1.685   9.840  0.0661 -0.4704  0.0301
 1612SOL    HW116295   0.618   1.595   9.848  0.4350 -0.2000  1.6034
 1612SOL    HW216296   0.502   1.669   9.798 -0.7421  2.9211  0.3441
 1613SOL     OW16297   2.287   1.798   2.602  0.4387  0.3840  0.2642
 1613SOL    HW116298   2.340   1.841   2.535  0.8569  0.7752  0.8473
 1613SOL    HW216299   2.350   1.731   2.628 -0.4406 -0.2585  0.7125
 1614SOL     OW16300   2.941   0.707  14.738  0.1024 -0.1498 -0.5951
 1614SOL    HW116301   2.912   0.795  14.760 -0.2517  0.1717 -2.3468
 1614SOL    HW216302   2.940   0.671  14.827  4.4308 -1.0366 -0.9246
 1615SOL     OW16303   1.331   3.743   6.377 -0.6679 -0.2196 -0.1400
 1615SOL    HW116304   1.347   3.777   6.465 -0.8501 -1.0617  0.2247
 1615SOL    HW216305   1.238   3.763   6.369 -1.1969 -1.9654  1.5192
 1616SOL     OW16306   2.490   0.052  13.064  0.5182 -0.2734  0.0001
 1616SOL    HW116307   2.551   0.125  13.064 -1.0785  1.0487  3.1399
 1616SOL    HW216308   2.543   4.708  13.107 -0.1072 -0.8499 -0.1235
 1617SOL     OW16309   0.194   2.284  16.335 -0.0475  0.0889  0.1119
 1617SOL    HW116310   0.170   2.357  16.392 -1.2327 -0.2268  0.0176
 1617SOL    HW216311   0.283   2.266  16.364 -0.0084 -1.9175 -1.2674
 1618SOL     OW16312   4.161   1.495   2.176 -0.1813  0.5224 -0.0087
 1618SOL    HW116313   4.186   1.556   2.106  0.9710  0.9715  0.8023
 1618SOL    HW216314   4.217   1.527   2.247 -0.6768 -0.5923  0.8751
 1619SOL     OW16315   3.738   0.226   5.965 -0.4660 -0.7104 -0.8151
 1619SOL    HW116316   3.751   0.228   5.870 -1.5458 -0.7048 -0.9649
 1619SOL    HW216317   3.660   0.172   5.971 -1.2526  0.2818 -1.9872
 1620SOL     OW16318   1.305   2.457  16.342  0.3470 -0.4460  0.3846
 1620SOL    HW116319   1.270   2.545  16.355 -0.3579 -0.6218 -0.3220
 1620SOL    HW216320   1.395   2.479  16.319 -0.6458 -0.0848 -3.1044
 1621SOL     OW16321   0.322   0.787  10.186  0.3086  0.1112  0.4539
 1621SOL    HW116322   0.341   0.717  10.123 -2.3243  0.5261 -0.7801
 1621SOL    HW216323   0.405   0.780  10.233 -1.0161  2.6348  3.1941
 1622SOL     OW16324   2.199   1.584  15.718  0.0957  0.3063 -0.2368
 1622SOL    HW116325   2.275   1.532  15.742  0.2730  0.0968 -1.2677
 1622SOL    HW216326   2.158   1.592  15.804 -0.6203  2.2803 -0.7494
 1623SOL     OW16327   1.496   3.716   6.108 -0.1110 -0.3567 -0.5126
 1623SOL    HW116328   1.454   3.713   6.193 -2.7127  0.3604 -1.7642
 1623SOL    HW216329   1.537   3.801   6.095 -1.5868  0.6899  1.7758
 1624SOL     OW16330   3.697   3.375   9.586 -0.7363  0.0034 -0.0125
 1624SOL    HW116331   3.786   3.355   9.617 -1.1392  0.6677  1.5624
 1624SOL    HW216332   3.686   3.296   9.533  0.9085 -0.7659  0.8138
 1625SOL     OW16333   0.326   1.600   9.749 -0.5034  0.6804  0.6285
 1625SOL    HW116334   0.273   1.593   9.829 -0.0658  0.7304  0.9182
 1625SOL    HW216335   0.262   1.650   9.698  0.8240  1.2019 -0.5246
 1626SOL     OW16336   0.724   3.304   4.672  0.3928  0.1227  0.2439
 1626SOL    HW116337   0.722   3.274   4.581 -0.5178 -0.8456  0.5881
 1626SOL    HW216338   0.737   3.399   4.667  1.0820  0.2417  4.3495
 1627SOL     OW16339   2.740   0.783  16.644  0.1511  0.2569 -0.7324
 1627SOL    HW116340   2.690   0.743  16.572  0.6104 -1.5467 -0.0412
 1627SOL    HW216341   2.678   0.770  16.715  1.2137  0.5225  0.2308
 1628SOL     OW16342   2.478   2.938   0.047 -0.1665  0.6046  0.3366
 1628SOL    HW116343   2.568   2.935   0.013 -0.6072  0.1830 -0.8056
 1628SOL    HW216344   2.471   2.846   0.072 -2.7511  1.2241  1.8719
 1629SOL     OW16345   0.650   0.944  13.051  0.3224  0.6365  0.3812
 1629SOL    HW116346   0.727   0.959  12.996 -0.8435  1.2823 -1.0636
 1629SOL    HW216347   0.600   0.883  12.996 -1.3166  3.0521 -0.8251
 1630SOL     OW16348   2.492   1.519  12.753 -0.0416 -0.2222  0.2995
 1630SOL    HW116349   2.461   1.461  12.684 -1.8602  2.0684 -0.7922
 1630SOL    HW216350   2.564   1.477  12.800  0.8562  0.6704 -0.2860
 1631SOL     OW16351   2.201   4.121  15.713 -0.1158  0.3581  0.3718
 1631SOL    HW116352   2.277   4.178  15.722  1.7517 -2.0211 -0.3133
 1631SOL    HW216353   2.150   4.165  15.645 -0.7475 -1.7442 -0.5058
 1632SOL     OW16354   4.193   0.434   5.378 -0.5668 -0.0869 -0.1881
 1632SOL    HW116355   4.271   0.434   5.433  0.6280 -0.1533 -1.8803
 1632SOL    HW216356   4.151   0.350   5.394 -2.8060  0.9324 -0.6611
 1633SOL     OW16357   0.392   0.109  12.176 -0.2894 -0.4178  0.0075
 1633SOL    HW116358   0.460   0.065  12.124 -0.9180  0.2498 -1.3880
 1633SOL    HW216359   0.441   0.177  12.221 -2.4978  0.3497  1.2419
 1634SOL     OW16360   3.571   1.013   5.653  0.0485 -0.5681  0.4706
 1634SOL    HW116361   3.520   1.094   5.663  0.9555  0.1027 -0.3652
 1634SOL    HW216362   3.521   0.978   5.580  1.2521 -0.0627 -0.5829
 1635SOL     OW16363   4.527   3.851  12.960 -0.0221 -0.1078  0.2861
 1635SOL    HW116364   4.508   3.757  12.954 -2.8386  0.5069 -0.7516
 1635SOL    HW216365   4.449   3.879  13.009  0.1575  0.5035  0.2124
 1636SOL     OW16366   4.380   0.088  12.515  0.2002 -0.2505 -0.1649
 1636SOL    HW116367   4.442   0.156  12.487 -0.2127 -1.1056 -3.1230
 1636SOL    HW216368   4.364   0.116  12.605 -2.0743  1.3766 -1.0817
 1637SOL     OW16369   0.602   4.049  16.246 -0.6965 -0.5656 -0.3510
 1637SOL    HW116370   0.556   4.111  16.189  0.1330 -0.2714 -0.6993
 1637SOL    HW216371   0.521   3.999  16.258 -1.2998  0.1138 -1.5443
 1638SOL     OW16372   1.394   3.299   7.801 -0.2249 -0.6801 -0.4617
 1638SOL    HW116373   1.413   3.216   7.756 -1.1247 -0.2456 -1.6251
 1638SOL    HW216374   1.339   3.273   7.875 -1.2166 -0.5222 -1.1464
 1639SOL     OW16375   2.296   0.340  15.510 -0.3791  0.2348 -0.2653
 1639SOL    HW116376   2.327   0.346  15.600  2.0974 -0.8095 -1.0406
 1639SOL    HW216377   2.271   0.248  15.499 -1.0359 -0.0579  3.7534
 1640SOL     OW16378   2.146   0.902   4.467  0.0434 -0.5847  0.0532
 1640SOL    HW116379   2.176   0.860   4.386 -4.3467 -2.4137 -0.6089
 1640SOL    HW216380   2.053   0.915   4.451  0.0275  0.5018  1.0873
 1641SOL     OW16381   1.931   0.079  11.762 -0.2977 -0.1300  0.4797
 1641SOL    HW116382   1.965   0.023  11.832 -1.0498 -0.6426  0.4342
 1641SOL    HW216383   1.956   0.166  11.794  0.9989 -0.3015 -0.0985
 1642SOL     OW16384   4.060   3.499   7.643  0.0258  0.0308  0.3098
 1642SOL    HW116385   4.109   3.580   7.648  1.8099 -1.0800  0.7584
 1642SOL    HW216386   4.039   3.497   7.550  3.0242 -0.4666 -0.3571
 1643SOL     OW16387   1.975   4.151   6.430 -0.1027  0.2853  0.3069
 1643SOL    HW116388   2.000   4.141   6.522 -0.0597  0.9409  0.3683
 1643SOL    HW216389   2.056   4.193   6.400  0.4709 -1.4866 -0.5790
 1644SOL     OW16390   0.901   2.611   9.928  0.6778 -0.0497  0.0170
 1644SOL    HW116391   0.815   2.628   9.967 -0.9035 -1.7438 -2.6649
 1644SOL    HW216392   0.899   2.516   9.938  1.1025  0.5119  5.2545
 1645SOL     OW16393   1.382   1.290   1.253 -0.4419 -0.0487  0.6304
 1645SOL    HW116394   1.358   1.197   1.245  1.9159 -0.6811  0.7599
 1645SOL    HW216395   1.308   1.327   1.300  1.0711  2.6813  0.8788
 1646SOL     OW16396   0.933   3.479   3.391 -0.0341 -0.1111 -0.1567
 1646SOL    HW116397   0.875   3.446   3.460  0.2048 -1.1424 -0.4474
 1646SOL    HW216398   0.866   3.513   3.332 -0.7288 -1.3122 -0.0601
 1647SOL     OW16399   1.618   0.607   0.422  0.3897 -0.5759  0.4974
 1647SOL    HW116400   1.625   0.523   0.467  0.9999 -0.5578  0.4372
 1647SOL    HW216401   1.645   0.666   0.493  1.3191  3.7100 -3.3994
 1648SOL     OW16402   4.686   0.847   9.096 -0.5337 -0.0796 -0.4965
 1648SOL    HW116403   0.022   0.905   9.143 -1.3649  1.3361 -1.1937
 1648SOL    HW216404   4.696   0.859   9.002 -0.0158  2.3541 -0.1300
 1649SOL     OW16405   3.489   3.702   9.922 -0.1776 -0.1637 -0.5606
 1649SOL    HW116406   3.517   3.792   9.940  2.9277 -0.9213 -1.5005
 1649SOL    HW216407   3.465   3.709   9.830 -1.9809  0.1375 -0.0673
 1650SOL     OW16408   2.390   1.588  11.018  0.1034  0.0500 -0.2216
 1650SOL    HW116409   2.473   1.633  11.032  0.1456 -1.3733  4.1210
 1650SOL    HW216410   2.414   1.540  10.939 -1.9808 -0.2861 -0.6411
 1651SOL     OW16411   0.669   3.257   2.867 -0.2210 -0.3322  0.2103
 1651SOL    HW116412   0.731   3.240   2.796  0.9593 -0.2099  1.2076
 1651SOL    HW216413   0.667   3.353   2.868 -1.5127 -0.3300 -1.3336
 1652SOL     OW16414   2.941   1.522   8.441  0.5247  0.4657  0.6369
 1652SOL    HW116415   3.030   1.510   8.475  0.9005  0.5988 -0.2979
 1652SOL    HW216416   2.909   1.577   8.512 -0.6800  0.5569  0.0307
 1653SOL     OW16417   4.351   4.577   7.177  0.4397 -0.3639 -0.0884
 1653SOL    HW116418   4.335   4.485   7.153 -3.8700  0.5629 -0.7436
 1653SOL    HW216419   4.325   4.615   7.093 -0.9681  1.1485  1.0239
 1654SOL     OW16420   1.138   4.460   3.568 -0.8527 -0.2328 -0.1175
 1654SOL    HW116421   1.127   4.453   3.473 -0.7578  0.4958 -0.1799
 1654SOL    HW216422   1.095   4.545   3.576 -1.3974 -0.6852  1.7622
 1655SOL     OW16423   4.164   0.416   8.251  0.5722 -0.1343  0.0085
 1655SOL    HW116424   4.106   0.492   8.249 -2.8134 -2.7618 -1.5691
 1655SOL    HW216425   4.166   0.400   8.345  2.2182  1.4906  0.2640
 1656SOL     OW16426   3.816   3.648   4.614 -0.4655  0.1411  0.1833
 1656SOL    HW116427   3.906   3.666   4.587 -0.9032  0.9100 -0.7705
 1656SOL    HW216428   3.819   3.659   4.709 -0.5551  2.0065 -0.0285
 1657SOL     OW16429   3.677   4.257  10.162 -0.1667 -0.4312 -0.0336
 1657SOL    HW116430   3.703   4.260  10.254  0.5419  1.7861 -0.2966
 1657SOL    HW216431   3.747   4.201  10.130 -0.3623 -1.1858  0.8848
 1658SOL     OW16432   4.301   1.342   4.924  0.1630 -0.8371  0.2127
 1658SOL    HW116433   4.242   1.268   4.910 -2.1485  1.1907 -0.9439
 1658SOL    HW216434   4.278   1.401   4.851  2.7537 -0.4237 -0.2536
 1659SOL     OW16435   0.006   1.378  10.321 -0.2162  0.0490 -0.6468
 1659SOL    HW116436   0.065   1.378  10.396 -2.5166 -1.3549  1.1829
 1659SOL    HW216437   0.079   1.370  10.260  0.7905 -1.6900  0.7797
 1660SOL     OW16438   3.750   4.554   3.209  0.1489  0.0991  0.0824
 1660SOL    HW116439   3.769   4.610   3.284  1.2243  0.4929 -0.4818
 1660SOL    HW216440   3.729   4.465   3.238  0.4651 -0.3684 -1.1078
 1661SOL     OW16441   3.152   0.335   4.071  0.4998 -0.1847  0.3854
 1661SOL    HW116442   3.131   0.268   4.137 -0.8943 -3.1814 -3.1116
 1661SOL    HW216443   3.247   0.340   4.082  0.4523  0.4338  0.5636
 1662SOL     OW16444   0.661   0.914   0.896 -0.0092  0.4431 -0.1502
 1662SOL    HW116445   0.681   0.836   0.844 -5.1109 -0.8574 -0.1776
 1662SOL    HW216446   0.597   0.885   0.961  1.5144 -0.6062  0.8694
 1663SOL     OW16447   3.451   0.295   5.460 -0.4567  0.5533 -0.0855
 1663SOL    HW116448   3.520   0.307   5.525  1.2050 -1.1257 -1.5395
 1663SOL    HW216449   3.506   0.277   5.384 -0.6946  3.0743 -0.8611
 1664SOL     OW16450   3.429   2.707   1.294 -0.3539  0.3698 -0.4564
 1664SOL    HW116451   3.411   2.769   1.223 -1.5165  1.0987  0.4781
 1664SOL    HW216452   3.517   2.674   1.276 -0.5970 -0.4819 -0.0493
 1665SOL     OW16453   0.829   1.278   1.915  0.1797 -0.0750 -0.1457
 1665SOL    HW116454   0.752   1.330   1.895  1.1651  0.9167 -1.3781
 1665SOL    HW216455   0.881   1.345   1.958 -0.3194  0.6274 -0.6453
 1666SOL     OW16456   3.343   0.946   5.428  0.0299  0.0295 -0.1910
 1666SOL    HW116457   3.306   0.860   5.413  0.5439 -0.5965  2.0493
 1666SOL    HW216458   3.319   0.983   5.344  1.1859  0.7961 -0.1889
 1667SOL     OW16459   1.517   3.242   5.388 -0.6084 -0.9751  0.3624
 1667SOL    HW116460   1.550   3.217   5.474  1.2002  1.3911  0.3509
 1667SOL    HW216461   1.424   3.253   5.408 -0.3783  3.0976 -0.6249
 1668SOL     OW16462   0.869   0.966  15.306  0.5743 -0.2890 -0.2589
 1668SOL    HW116463   0.915   0.884  15.325  1.2509  0.5350  1.6263
 1668SOL    HW216464   0.813   0.963  15.384  1.0707  2.2125  0.1972
 1669SOL     OW16465   0.967   3.781   4.987 -0.2584 -0.0104 -0.4978
 1669SOL    HW116466   0.992   3.871   4.968 -0.8835  0.7306  2.3042
 1669SOL    HW216467   1.034   3.721   4.951  0.1591  0.2211 -0.1014
 1670SOL     OW16468   2.600   2.269   5.417  0.1956  0.1243 -0.2462
 1670SOL    HW116469   2.595   2.329   5.491  3.9244 -0.6130  0.6123
 1670SOL    HW216470   2.507   2.257   5.400  0.4508 -0.9193 -0.9337
 1671SOL     OW16471   3.263   1.266   6.599  0.7711 -0.3226  0.2412
 1671SOL    HW116472   3.296   1.351   6.570  0.3196  0.0934  0.9402
 1671SOL    HW216473   3.175   1.285   6.630  0.7149 -1.6701  0.9313
 1672SOL     OW16474   4.569   3.804   4.674 -0.2629 -0.4391 -0.1946
 1672SOL    HW116475   4.611   3.885   4.701 -0.7747 -0.1801 -0.1762
 1672SOL    HW216476   4.559   3.754   4.755  1.6316  0.6351  0.7136
 1673SOL     OW16477   2.253   1.792   8.094  0.0649  0.0022  0.1812
 1673SOL    HW116478   2.227   1.711   8.137 -3.1049  0.3092 -1.1835
 1673SOL    HW216479   2.265   1.849   8.170  0.6740  1.6076 -1.1244
 1674SOL     OW16480   2.029   2.307   5.063  0.5375  0.3781  0.2105
 1674SOL    HW116481   2.078   2.388   5.048  1.5403 -0.4463 -0.9932
 1674SOL    HW216482   1.953   2.344   5.108  0.3837  0.1005  0.1758
 1675SOL     OW16483   2.422   2.641   1.477 -0.5024 -0.1628 -0.2818
 1675SOL    HW116484   2.478   2.719   1.481  0.5373 -1.1110  4.1465
 1675SOL    HW216485   2.463   2.590   1.547 -1.1177  1.8468  1.5116
 1676SOL     OW16486   0.885   0.250   0.716  0.3577  0.6839 -0.1532
 1676SOL    HW116487   0.845   0.252   0.629  1.0561  0.2147 -0.4945
 1676SOL    HW216488   0.829   0.193   0.768 -0.7113  1.3325 -0.6138
 1677SOL     OW16489   0.990   2.588   4.059 -0.1815  0.0061  0.3035
 1677SOL    HW116490   1.004   2.495   4.078 -1.7805 -0.0502  1.1825
 1677SOL    HW216491   1.069   2.623   4.100  1.1991  0.4379 -2.7291
 1678SOL     OW16492   4.658   2.252   0.360  0.3742  0.3253 -0.2393
 1678SOL    HW116493   4.629   2.172   0.404  0.9545 -0.7662 -1.8550
 1678SOL    HW216494   0.020   2.224   0.327 -0.5766  0.2510 -2.6392
 1679SOL     OW16495   0.297   3.781   5.524 -0.7624 -0.4427  0.2903
 1679SOL    HW116496   0.260   3.782   5.436 -0.2733 -0.9246  0.0813
 1679SOL    HW216497   0.269   3.868   5.551  0.9359  0.3105 -0.4074
 1680SOL     OW16498   0.846   3.708   6.332  0.3579  0.0598 -0.4966
 1680SOL    HW116499   0.818   3.675   6.418 -0.3252  1.9168  0.0038
 1680SOL    HW216500   0.798   3.791   6.328  1.4956  0.7283 -0.1024
 1681SOL     OW16501   4.053   3.345  12.167  0.5276 -0.9597 -0.2281
 1681SOL    HW116502   4.131   3.307  12.127  0.7888 -0.4492 -0.2114
 1681SOL    HW216503   4.001   3.266  12.179 -0.7802 -0.1768 -0.6902
 1682SOL     OW16504   4.602   2.609   7.407  0.3397 -0.0006  0.0548
 1682SOL    HW116505   4.560   2.535   7.451  1.6777  0.3274  1.9019
 1682SOL    HW216506   4.681   2.569   7.370  1.2992  1.4590  0.5130
 1683SOL     OW16507   0.635   0.050   3.922 -0.1621  0.1908  0.6765
 1683SOL    HW116508   0.646   0.139   3.889 -1.6687 -0.8283 -2.6248
 1683SOL    HW216509   0.542   0.026   3.914 -0.1189  0.3692 -0.3625
 1684SOL     OW16510   1.911   0.265   8.182  0.3134 -0.1098 -0.0288
 1684SOL    HW116511   1.864   0.299   8.106  1.2382 -1.4170 -1.1959
 1684SOL    HW216512   1.877   0.323   8.250  1.3933 -0.6941  1.0034
 1685SOL     OW16513   1.918   2.089   8.409  0.2164 -0.1131 -0.7099
 1685SOL    HW116514   1.866   2.143   8.468  0.1656  0.2129 -1.0500
 1685SOL    HW216515   1.879   2.003   8.429 -0.1538  0.3305  0.4961
 1686SOL     OW16516   4.611   1.631   2.569  0.4273 -0.4074  0.0191
 1686SOL    HW116517   4.554   1.611   2.644  1.9050  1.3610  1.6235
 1686SOL    HW216518   4.577   1.556   2.520 -0.4601 -0.4466  0.6870
 1687SOL     OW16519   0.997   0.731  15.373  0.6157 -0.3252  0.5190
 1687SOL    HW116520   1.060   0.725  15.445 -0.1697 -0.2408  1.2124
 1687SOL    HW216521   1.058   0.728  15.300 -0.3470 -0.1997 -0.2873
 1688SOL     OW16522   3.218   1.536  12.512 -0.2866  0.1184  0.3633
 1688SOL    HW116523   3.145   1.565  12.567 -0.0893  0.2899  0.5327
 1688SOL    HW216524   3.293   1.535  12.571 -0.2278 -0.4264  0.2863
 1689SOL     OW16525   4.521   0.046   7.313  0.2460 -0.0265 -0.2084
 1689SOL    HW116526   4.500   0.055   7.406  3.4158  1.6149  0.3800
 1689SOL    HW216527   4.458   4.703   7.287 -1.9116  1.5344  1.0930
 1690SOL     OW16528   0.343   2.110   3.675  0.2475  0.1542 -0.3385
 1690SOL    HW116529   0.415   2.067   3.720 -0.7242  0.3517  1.3899
 1690SOL    HW216530   0.323   2.186   3.730 -0.1594  1.4214 -2.2400
 1691SOL     OW16531   4.064   0.516   5.151 -1.0327 -0.2911 -0.1112
 1691SOL    HW116532   4.004   0.442   5.141 -1.1658 -0.3484  1.0842
 1691SOL    HW216533   4.116   0.484   5.225 -1.0255  1.8641  0.8268
 1692SOL     OW16534   3.311   3.127  11.141  0.3845  0.0346  0.0108
 1692SOL    HW116535   3.225   3.134  11.100  0.5296  1.2073 -0.1057
 1692SOL    HW216536   3.286   3.153  11.230  2.1628  0.5994  0.3507
 1693SOL     OW16537   2.178   3.567   4.825  0.4587 -0.1172  0.6802
 1693SOL    HW116538   2.128   3.490   4.853  2.4918 -1.1747  1.4285
 1693SOL    HW216539   2.146   3.582   4.736  2.1855  3.1686  0.6395
 1694SOL     OW16540   0.716   1.374   6.784  0.1123  0.4187  0.3775
 1694SOL    HW116541   0.746   1.415   6.865 -0.8104  1.4074  0.2186
 1694SOL    HW216542   0.789   1.382   6.723 -0.1982 -1.5696 -0.2490
 1695SOL     OW16543   1.664   4.480   3.815 -0.1295  0.2261  0.3538
 1695SOL    HW116544   1.609   4.408   3.846 -0.2477 -0.7341 -2.1188
 1695SOL    HW216545   1.676   4.537   3.891 -2.8339  1.5010 -0.1756
 1696SOL     OW16546   3.029   0.932  16.542  0.5084  0.1191  0.7084
 1696SOL    HW116547   2.962   0.960  16.604 -0.2002 -0.1116  0.0565
 1696SOL    HW216548   3.037   0.837  16.549 -0.2755  0.1962  2.4626
 1697SOL     OW16549   3.942   1.396   4.881  0.5295 -0.5374  0.1518
 1697SOL    HW116550   3.979   1.446   4.807 -0.4972  0.7373  0.5037
 1697SOL    HW216551   3.923   1.467   4.942 -1.8194 -1.0116 -0.0640
 1698SOL     OW16552   1.920   0.621   2.163  0.5476 -0.0864  0.0810
 1698SOL    HW116553   1.876   0.536   2.160  1.9145 -0.7600 -0.8853
 1698SOL    HW216554   2.004   0.601   2.121  0.3858  0.3250 -0.4331
 1699SOL     OW16555   4.188   4.325   2.745 -0.2385 -0.2818  0.4232
 1699SOL    HW116556   4.227   4.297   2.662 -0.0624 -1.3253  0.8561
 1699SOL    HW216557   4.104   4.286   2.770 -0.8163 -0.1756 -1.3269
 1700SOL     OW16558   0.448   4.185  16.081  0.3656 -0.1913 -0.1283
 1700SOL    HW116559   0.471   4.261  16.028  0.1401 -1.0470 -1.4326
 1700SOL    HW216560   0.352   4.179  16.077  0.2963 -1.1846  2.5953
 1701SOL     OW16561   1.838   3.152   7.067 -0.1075  1.1933  0.1119
 1701SOL    HW116562   1.824   3.127   7.158 -0.1203  1.2101  0.1145
 1701SOL    HW216563   1.921   3.199   7.073  0.1752  0.5126  1.4786
 1702SOL     OW16564   4.255   1.011   0.433  0.0601  1.0549  0.3710
 1702SOL    HW116565   4.273   0.917   0.432  0.0424  1.0707 -1.4788
 1702SOL    HW216566   4.240   1.026   0.340 -1.0420  1.6781  0.6459
 1703SOL     OW16567   4.036   1.396   8.949 -0.1062  0.5657 -0.1592
 1703SOL    HW116568   4.131   1.397   8.933  0.5975  0.3698  3.9441
 1703SOL    HW216569   4.021   1.344   9.028 -2.9481 -0.4117 -1.3481
 1704SOL     OW16570   1.975   3.712   3.990 -0.1314  0.3268  0.2569
 1704SOL    HW116571   1.988   3.741   3.900 -2.1127 -0.5572 -0.3102
 1704SOL    HW216572   1.882   3.688   3.986 -0.0675  0.2492 -0.5940
 1705SOL     OW16573   0.187   2.142   0.289  0.1227  0.7717  0.0821
 1705SOL    HW116574   0.276   2.175   0.302  0.4359  0.1619 -0.4994
 1705SOL    HW216575   0.182   2.097   0.205 -0.3316  0.9202  0.0291
 1706SOL     OW16576   2.439   2.911   8.091  0.1818 -0.2772  0.1969
 1706SOL    HW116577   2.411   2.845   8.027  1.2591 -1.1268  0.5978
 1706SOL    HW216578   2.468   2.852   8.161  1.2511  0.6760  0.5494
 1707SOL     OW16579   0.671   4.418   0.440 -0.3228 -0.3366  0.3064
 1707SOL    HW116580   0.694   4.327   0.456 -0.3219 -0.1382  1.3765
 1707SOL    HW216581   0.659   4.412   0.345  0.1952 -1.5204  0.3136
 1708SOL     OW16582   4.316   1.421   7.778  0.2435  0.0800  0.3249
 1708SOL    HW116583   4.329   1.478   7.854  0.3305  0.5664 -0.0545
 1708SOL    HW216584   4.318   1.490   7.712  0.0806 -1.3340 -1.1608
 1709SOL     OW16585   4.485   0.693   9.658  0.3218 -0.0526  0.1033
 1709SOL    HW116586   4.577   0.718   9.650  0.3604  0.5456  2.3285
 1709SOL    HW216587   4.477   0.660   9.569  1.0783 -1.2025  0.4596
 1710SOL     OW16588   3.228   1.666   2.151 -0.3167 -0.8420  0.2470
 1710SOL    HW116589   3.258   1.744   2.198 -3.7402  0.2113  0.6718
 1710SOL    HW216590   3.299   1.662   2.087 -1.5272  3.2068 -1.3400
 1711SOL     OW16591   1.357   0.743   8.959  0.0761  0.0922  0.5942
 1711SOL    HW116592   1.375   0.685   8.885 -0.6066  2.8948 -1.7621
 1711SOL    HW216593   1.347   0.676   9.027  0.9711 -1.2320 -0.5698
 1712SOL     OW16594   3.213   0.062  11.497 -0.8513 -0.0468  0.3853
 1712SOL    HW116595   3.194   0.121  11.424 -3.1173 -1.2659 -0.0122
 1712SOL    HW216596   3.277   0.000  11.460 -2.0206 -0.9800 -0.0855
 1713SOL     OW16597   0.154   2.520   3.944  0.8831 -0.2842  0.7602
 1713SOL    HW116598   0.191   2.599   3.905 -0.3389 -0.0848  0.0076
 1713SOL    HW216599   0.212   2.450   3.912  1.4233 -0.3344  1.8312
 1714SOL     OW16600   1.595   1.172   4.709 -0.3229 -0.0971  0.4310
 1714SOL    HW116601   1.666   1.158   4.772 -0.8708  0.5590  1.1950
 1714SOL    HW216602   1.643   1.191   4.628 -1.5812  0.9456 -0.0657
 1715SOL     OW16603   2.737   1.841   7.986 -0.5143  0.4643 -0.5983
 1715SOL    HW116604   2.821   1.843   8.031 -1.6051 -0.7885  1.4614
 1715SOL    HW216605   2.686   1.779   8.038  0.8402  0.4740  0.7431
 1716SOL     OW16606   0.084   1.982   8.060  0.1068  0.1113  0.2398
 1716SOL    HW116607   0.177   1.984   8.036  0.1670  2.8620  0.7266
 1716SOL    HW216608   0.078   1.887   8.046  4.1516 -0.4219  1.9253
 1717SOL     OW16609   2.797   3.123   8.099  0.0761  0.2074 -0.3655
 1717SOL    HW116610   2.751   3.075   8.167  1.2767 -0.8975 -0.3191
 1717SOL    HW216611   2.764   3.210   8.122 -3.4242 -1.2506  0.1676
 1718SOL     OW16612   1.276   4.709  17.603  0.1421  0.2562 -0.3499
 1718SOL    HW116613   1.227   4.695  17.522 -2.4572 -1.5127  1.5747
 1718SOL    HW216614   1.220   0.048  17.650  0.1939 -0.1741  0.2803
 1719SOL     OW16615   3.206   0.889   5.836  0.0985  0.3111  0.0690
 1719SOL    HW116616   3.121   0.893   5.881  0.4833  1.5739  0.7075
 1719SOL    HW216617   3.271   0.870   5.904 -0.7189  0.8291  0.9958
 1720SOL     OW16618   4.453   0.194   5.281  0.2184  0.2685 -0.1870
 1720SOL    HW116619   4.416   0.215   5.195  3.3747  0.3120 -1.5116
 1720SOL    HW216620   4.374   0.192   5.335 -0.2374  0.1850 -0.8513
 1721SOL     OW16621   3.751   3.472   7.908  0.0525 -0.8775  0.4072
 1721SOL    HW116622   3.713   3.535   7.846  1.0698 -1.4272 -0.7799
 1721SOL    HW216623   3.839   3.509   7.918  0.5597 -1.9859  0.1323
 1722SOL     OW16624   4.585   1.462  10.629 -0.2485  0.3341  0.3478
 1722SOL    HW116625   4.666   1.439  10.583 -0.3013  0.5225  0.1588
 1722SOL    HW216626   4.618   1.499  10.711 -0.2207  1.1570 -0.0292
 1723SOL     OW16627   2.672   2.460   8.411 -0.2546 -0.2793 -0.0643
 1723SOL    HW116628   2.719   2.521   8.354  2.4968 -1.5402  0.8704
 1723SOL    HW216629   2.619   2.517   8.467  1.0016 -1.7115  2.5977
 1724SOL     OW16630   3.075   3.498   4.966  0.2828  0.0252  0.5011
 1724SOL    HW116631   3.024   3.430   5.010  1.2512 -0.7124  0.4769
 1724SOL    HW216632   3.024   3.577   4.983 -0.3609 -0.2303 -0.2305
 1725SOL     OW16633   2.162   0.496  11.086 -0.2122  0.1669  0.6660
 1725SOL    HW116634   2.097   0.426  11.081 -0.5517  0.4748  0.7827
 1725SOL    HW216635   2.182   0.473  11.177  0.6624  1.3814  0.7866
 1726SOL     OW16636   3.815   4.059  10.055  0.0821 -0.0320 -0.1526
 1726SOL    HW116637   3.904   4.026  10.068  0.0426 -0.8233 -1.9098
 1726SOL    HW216638   3.820   4.107   9.972  1.4625  0.3810  0.1647
 1727SOL     OW16639   1.918   4.048   4.194  0.2306  0.3685  0.0614
 1727SOL    HW116640   1.863   4.102   4.137  1.0077 -1.2672 -2.2287
 1727SOL    HW216641   2.000   4.098   4.191  0.3732  0.2107  1.2469
 1728SOL     OW16642   0.286   3.272   7.369 -0.0955 -0.1324  0.5715
 1728SOL    HW116643   0.204   3.320   7.357 -0.3133 -0.8830 -1.0551
 1728SOL    HW216644   0.313   3.300   7.456 -1.5497  0.9043  0.6863
 1729SOL     OW16645   2.807   4.352   2.738  0.3557 -0.5695  0.5847
 1729SOL    HW116646   2.840   4.271   2.700  3.4266  0.9133  0.0839
 1729SOL    HW216647   2.717   4.343   2.706  0.1698 -0.0108  0.9391
 1730SOL     OW16648   0.602   0.994  10.966  0.8192 -0.5946  0.0596
 1730SOL    HW116649   0.508   0.994  10.984  0.5989  1.0509 -1.1574
 1730SOL    HW216650   0.607   1.013  10.873  1.3713  0.8070  0.3739
 1731SOL     OW16651   2.443   3.656   3.362 -0.4003 -0.7347  0.5031
 1731SOL    HW116652   2.511   3.657   3.429  1.5389 -1.1033 -1.4567
 1731SOL    HW216653   2.419   3.749   3.359  1.4216 -0.3408 -1.3989
 1732SOL     OW16654   1.595   3.357  14.702  0.0258  0.8285  0.0040
 1732SOL    HW116655   1.648   3.277  14.710 -1.0437  0.2217  1.1217
 1732SOL    HW216656   1.567   3.371  14.792  2.6758 -1.2620  1.1904
 1733SOL     OW16657   4.174   2.913   5.299 -0.1430  0.3974 -0.2604
 1733SOL    HW116658   4.268   2.906   5.319  0.4119  1.7194 -2.4578
 1733SOL    HW216659   4.170   2.825   5.260  3.4443  0.0567  0.1056
 1734SOL     OW16660   0.093   2.637   3.602  0.4171 -1.2390  0.3492
 1734SOL    HW116661   0.019   2.673   3.652  0.9582  0.5494 -0.1698
 1734SOL    HW216662   0.166   2.674   3.652 -0.2650  0.0832  0.3658
 1735SOL     OW16663   1.332   0.800   2.685  0.3897  0.8020  0.2252
 1735SOL    HW116664   1.396   0.859   2.724 -0.6813  0.7193  2.1031
 1735SOL    HW216665   1.268   0.859   2.644 -0.3198  0.0861  0.2961
 1736SOL     OW16666   3.612   0.978   4.864  0.1154  0.0721  0.1627
 1736SOL    HW116667   3.643   1.057   4.819  0.5407  0.9140  1.9505
 1736SOL    HW216668   3.519   1.000   4.871  0.6053  1.7619  1.1338
 1737SOL     OW16669   4.084   3.034   8.809 -0.1031 -0.3154 -0.4300
 1737SOL    HW116670   4.133   3.039   8.727  0.2478 -0.9723 -0.2591
 1737SOL    HW216671   4.146   3.064   8.875 -0.8678  1.6756 -0.6104
 1738SOL     OW16672   1.278   4.047   4.066 -0.2716 -0.0849 -0.2297
 1738SOL    HW116673   1.259   4.132   4.026  0.9825 -0.4485 -1.6350
 1738SOL    HW216674   1.196   3.998   4.063  1.3190 -2.7634  0.6232
 1739SOL     OW16675   1.847   3.890  15.036 -0.2702  0.2597 -0.2115
 1739SOL    HW116676   1.921   3.881  15.096  2.0971 -0.8060 -3.2586
 1739SOL    HW216677   1.818   3.977  15.063 -1.2941 -0.2961  0.4920
 1740SOL     OW16678   2.034   0.082   7.071 -0.7232 -0.0001  0.4289
 1740SOL    HW116679   1.977   0.157   7.083 -0.7294 -0.1455  1.3061
 1740SOL    HW216680   2.032   0.058   6.979  1.7337 -0.6199  0.5219
 1741SOL     OW16681   2.714   0.618   6.100  0.0670  0.1109  0.0773
 1741SOL    HW116682   2.661   0.574   6.032 -0.1917  0.0933  0.2891
 1741SOL    HW216683   2.672   0.588   6.181 -1.0385  1.9978  0.2044
 1742SOL     OW16684   1.860   0.353   1.799  0.9285  0.3723 -0.4809
 1742SOL    HW116685   1.846   0.259   1.785 -1.5622  0.8745 -1.4217
 1742SOL    HW216686   1.939   0.345   1.851  0.9752 -2.0952 -0.9292
 1743SOL     OW16687   4.718   0.571   4.966  0.0769 -0.1221 -0.2124
 1743SOL    HW116688   0.087   0.587   4.951  0.3395  0.2436  1.7421
 1743SOL    HW216689   4.683   0.552   4.879  0.9333  2.4976 -1.1127
 1744SOL     OW16690   3.018   3.544  14.258  0.6560 -0.3158  0.2879
 1744SOL    HW116691   3.102   3.562  14.217  0.7964  1.7622  1.5066
 1744SOL    HW216692   2.982   3.482  14.195  1.0728  0.2759 -0.5211
 1745SOL     OW16693   2.507   0.640   5.415 -0.6731  0.6484 -0.2001
 1745SOL    HW116694   2.498   0.544   5.410 -0.5697  0.5435  1.6206
 1745SOL    HW216695   2.465   0.671   5.335 -1.7104 -0.7589 -0.2033
 1746SOL     OW16696   4.561   3.938   7.724 -0.0446  0.4614 -0.1550
 1746SOL    HW116697   4.619   3.869   7.693 -0.4435 -0.4217  1.0488
 1746SOL    HW216698   4.504   3.893   7.787  1.7199 -0.8463  0.5380
 1747SOL     OW16699   2.785   3.327   6.207 -0.3354  0.6072 -0.2537
 1747SOL    HW116700   2.835   3.345   6.127 -0.0144  0.2221 -0.1430
 1747SOL    HW216701   2.815   3.236   6.215 -0.5058  0.6655  0.9876
 1748SOL     OW16702   0.581   0.430   4.840  0.3281 -0.3966  0.4123
 1748SOL    HW116703   0.571   0.494   4.910 -1.4093 -0.8124  0.5373
 1748SOL    HW216704   0.675   0.411   4.845  0.4210  0.4151  1.6984
 1749SOL     OW16705   0.781   0.042  13.215  0.3874  0.4623  0.4366
 1749SOL    HW116706   0.696   0.056  13.257  0.6428  2.4487  0.2762
 1749SOL    HW216707   0.841   0.078  13.280  0.3040 -1.5606  1.6338
 1750SOL     OW16708   4.034   2.608   5.485 -0.2042 -0.1076 -0.2299
 1750SOL    HW116709   3.999   2.520   5.476  0.1828 -0.1614 -1.1984
 1750SOL    HW216710   3.953   2.656   5.502  0.1571  0.7500 -0.8943
 1751SOL     OW16711   0.758   4.088  10.541 -0.1210  0.2920 -0.4367
 1751SOL    HW116712   0.702   4.145  10.489 -0.4238  1.3665  1.0689
 1751SOL    HW216713   0.729   4.115  10.628 -1.0425 -0.2268 -0.5782
 1752SOL     OW16714   3.316   2.688   6.463 -0.2820  0.6001  0.0614
 1752SOL    HW116715   3.275   2.709   6.547 -0.4437  1.5500 -0.2486
 1752SOL    HW216716   3.406   2.719   6.472 -0.6198  1.4596  0.4751
 1753SOL     OW16717   1.066   2.649  13.623 -0.4902  0.1827  0.1249
 1753SOL    HW116718   1.084   2.742  13.635 -0.0458  0.1049  0.0653
 1753SOL    HW216719   1.040   2.617  13.709 -1.4217 -0.1078 -0.2647
 1754SOL     OW16720   1.670   4.159   6.881  0.0519  0.1615  0.1958
 1754SOL    HW116721   1.612   4.187   6.810 -0.1887 -0.8572 -0.0056
 1754SOL    HW216722   1.623   4.084   6.919  0.2007  0.4058  0.8766
 1755SOL     OW16723   3.886   3.306   1.278 -0.0283 -0.7596  0.9274
 1755SOL    HW116724   3.822   3.243   1.244 -1.3881  1.7906 -1.2536
 1755SOL    HW216725   3.878   3.289   1.372  2.2203 -0.2098  1.2276
 1756SOL     OW16726   0.130   4.288   3.484 -0.5672 -0.1460  0.0319
 1756SOL    HW116727   0.050   4.317   3.440  0.9500 -0.1682 -2.8043
 1756SOL    HW216728   0.094   4.214   3.531 -0.4148 -1.2389 -1.5611
 1757SOL     OW16729   4.399   2.311   4.569  0.2174 -0.2474 -1.2462
 1757SOL    HW116730   4.474   2.335   4.514  1.8701  1.8225  1.9229
 1757SOL    HW216731   4.417   2.217   4.579 -0.9408 -0.5449 -1.9883
 1758SOL     OW16732   1.168   3.046  13.495 -0.4478 -0.2356 -0.4399
 1758SOL    HW116733   1.120   3.008  13.422  0.6268  0.9543 -1.7717
 1758SOL    HW216734   1.256   3.009  13.486  0.9492  2.9078  0.2260
 1759SOL     OW16735   0.113   0.939   9.333  0.0564  0.0116  0.1058
 1759SOL    HW116736   0.171   1.007   9.366 -0.3863  0.0921  0.7202
 1759SOL    HW216737   0.179   0.869   9.334  0.7701  0.6957  0.4393
 1760SOL     OW16738   0.254   1.006   7.505  0.6040 -0.2121 -0.3385
 1760SOL    HW116739   0.336   1.009   7.554  1.2473 -0.7901 -1.3642
 1760SOL    HW216740   0.180   1.004   7.565 -1.3002 -1.0519 -2.6831
 1761SOL     OW16741   3.528   0.896   2.583 -0.0453  0.3868 -0.3500
 1761SOL    HW116742   3.524   0.807   2.548 -0.1441  1.2928 -2.6460
 1761SOL    HW216743   3.538   0.874   2.676 -0.6936  1.1267 -0.1075
 1762SOL     OW16744   1.876   0.132   7.768  0.5494 -0.6361  0.2202
 1762SOL    HW116745   1.965   0.117   7.801  1.0343  1.8330  0.0620
 1762SOL    HW216746   1.885   0.226   7.754 -1.7885 -0.6737 -1.5257
 1763SOL     OW16747   1.212   2.618   9.536  0.9431  0.0177 -0.0194
 1763SOL    HW116748   1.266   2.613   9.456  1.4184  0.5837  0.2627
 1763SOL    HW216749   1.198   2.524   9.546  0.2465  0.0770 -0.4457
 1764SOL     OW16750   4.061   2.404   0.426  0.0643  0.1453  0.5799
 1764SOL    HW116751   4.147   2.440   0.445  0.4340 -1.3697  1.7596
 1764SOL    HW216752   4.013   2.470   0.375  0.7708 -0.5590 -0.9882
 1765SOL     OW16753   1.378   1.263   8.759  0.1304 -0.1350 -0.1366
 1765SOL    HW116754   1.435   1.194   8.792  0.6671  0.6737  0.6216
 1765SOL    HW216755   1.433   1.340   8.775 -1.0063  0.4805  0.8485
 1766SOL     OW16756   4.360   2.782  17.017 -0.1910  0.1215  0.4141
 1766SOL    HW116757   4.341   2.836  17.094  1.4421 -0.6496  1.3753
 1766SOL    HW216758   4.427   2.829  16.967 -0.1218  0.1074  0.4925
 1767SOL     OW16759   2.317   1.121  17.427  0.1069 -0.2127  0.6534
 1767SOL    HW116760   2.345   1.158  17.511 -0.4907  0.7512  0.4181
 1767SOL    HW216761   2.399   1.085  17.392 -0.5697  0.2354 -1.3750
 1768SOL     OW16762   1.686   4.329   5.312 -0.6986  0.4007  0.1753
 1768SOL    HW116763   1.622   4.395   5.288 -2.0547 -1.5965 -1.7263
 1768SOL    HW216764   1.670   4.266   5.242 -1.3706 -0.2073  0.8738
 1769SOL     OW16765   0.455   0.319   4.584 -0.3128 -0.1551  0.2870
 1769SOL    HW116766   0.498   0.233   4.588  0.7818  0.3431 -0.7673
 1769SOL    HW216767   0.494   0.363   4.659 -0.8284  0.2149  0.3327
 1770SOL     OW16768   0.608   2.035   2.589 -0.0837 -0.4528  0.3690
 1770SOL    HW116769   0.553   2.107   2.620  0.2728 -0.5001  1.1158
 1770SOL    HW216770   0.579   2.035   2.497 -1.4214  0.7664  0.7919
 1771SOL     OW16771   3.293   4.202   8.811 -0.1549  0.2665 -0.2852
 1771SOL    HW116772   3.257   4.119   8.780 -4.1458  1.5734  0.7661
 1771SOL    HW216773   3.215   4.252   8.835  0.2369  1.2217 -1.0065
 1772SOL     OW16774   2.825   3.477   5.755  0.1996 -0.1251 -0.8469
 1772SOL    HW116775   2.729   3.471   5.760 -0.0117  1.0273 -3.5465
 1772SOL    HW216776   2.842   3.507   5.666 -1.3891  1.5424 -0.5994
 1773SOL     OW16777   4.599   2.732   5.184 -0.2298  0.3704  0.3078
 1773SOL    HW116778   4.651   2.711   5.261  0.3116  0.7597  0.0423
 1773SOL    HW216779   4.661   2.730   5.111 -0.7858  0.8751 -0.1850
 1774SOL     OW16780   4.409   1.487  15.193  0.4279 -0.6446  0.2149
 1774SOL    HW116781   4.353   1.519  15.263 -0.9351 -0.9773 -0.7165
 1774SOL    HW216782   4.485   1.536  15.224 -0.0055  0.2873 -0.2133
 1775SOL     OW16783   2.630   0.430   8.109  0.0298 -0.1126 -0.2700
 1775SOL    HW116784   2.578   0.350   8.107 -0.3985  0.1803 -0.5716
 1775SOL    HW216785   2.701   0.392   8.161  1.0449  1.7112 -0.3003
 1776SOL     OW16786   2.657   4.611  11.022  0.1277  0.5898 -0.3599
 1776SOL    HW116787   2.607   4.691  11.035  1.8486  1.5199  0.5458
 1776SOL    HW216788   2.621   4.557  11.093  2.0587  0.2126  0.3521
 1777SOL     OW16789   0.733   4.306   1.044  0.0470  0.1973 -0.3520
 1777SOL    HW116790   0.641   4.294   1.063  0.4154 -1.8561  0.1105
 1777SOL    HW216791   0.765   4.357   1.118 -0.9778  1.7824 -1.0125
 1778SOL     OW16792   1.350   2.055   9.513 -0.3052  0.5030  0.9391
 1778SOL    HW116793   1.301   1.984   9.471 -0.5171  0.5023  1.1864
 1778SOL    HW216794   1.298   2.073   9.591 -1.0628 -2.1010  1.0619
 1779SOL     OW16795   0.594   3.959  14.440 -0.1706 -0.0743 -0.2677
 1779SOL    HW116796   0.611   4.030  14.501  0.8668  0.1962 -0.8813
 1779SOL    HW216797   0.514   3.916  14.472  0.0796 -0.1509  0.2453
 1780SOL     OW16798   4.296   1.614   6.383 -0.1149 -0.4054 -0.1875
 1780SOL    HW116799   4.224   1.552   6.371 -1.1587  1.1619 -1.9275
 1780SOL    HW216800   4.275   1.666   6.305 -4.0759  0.1444  1.2375
 1781SOL     OW16801   1.203   2.640   7.807 -0.2909 -0.1062  0.6522
 1781SOL    HW116802   1.295   2.626   7.784 -0.2903 -0.1614  0.6874
 1781SOL    HW216803   1.182   2.563   7.860 -1.8702  0.0702  0.2703
 1782SOL     OW16804   4.157   0.749   4.178  0.0879  0.2088 -0.2639
 1782SOL    HW116805   4.226   0.724   4.118 -0.1787 -2.3530  0.5126
 1782SOL    HW216806   4.191   0.691   4.246  1.7852 -0.7677 -1.9578
 1783SOL     OW16807   0.716   0.582   7.021 -0.4014 -0.3789  0.2920
 1783SOL    HW116808   0.745   0.653   7.077  0.5059 -0.5298  0.0285
 1783SOL    HW216809   0.753   0.606   6.936 -0.7185 -0.5460  0.1056
 1784SOL     OW16810   0.414   3.040  13.077  0.0544 -0.2247 -0.6246
 1784SOL    HW116811   0.426   2.996  13.162 -0.3784  1.5097  0.3194
 1784SOL    HW216812   0.505   3.071  13.074  0.0541 -0.4309 -2.6117
 1785SOL     OW16813   2.503   3.770  12.167 -0.8623 -0.2768  0.5970
 1785SOL    HW116814   2.458   3.835  12.114  2.0864  0.9877 -0.3566
 1785SOL    HW216815   2.523   3.825  12.243  0.5222  1.6406 -1.1832
 1786SOL     OW16816   0.068   1.932  10.966  0.9110 -0.0100  0.3483
 1786SOL    HW116817   4.715   1.886  10.929  0.1736  0.6107  1.0913
 1786SOL    HW216818   0.137   1.866  10.959 -0.3695 -1.2757 -0.5238
 1787SOL     OW16819   0.794   1.865   9.872 -0.1857 -0.4697 -0.2251
 1787SOL    HW116820   0.714   1.814   9.861  0.5673 -1.9539  1.0688
 1787SOL    HW216821   0.763   1.955   9.878 -0.7299 -0.7382  1.1355
 1788SOL     OW16822   4.696   3.318  10.790 -0.0335  0.4712 -0.2180
 1788SOL    HW116823   4.617   3.318  10.735 -1.4767  3.4763  1.8954
 1788SOL    HW216824   4.665   3.265  10.863  0.1917  0.8833  0.1734
 1789SOL     OW16825   4.299   4.230   2.498  0.3020  0.2190 -0.1129
 1789SOL    HW116826   4.322   4.323   2.489 -1.1750  0.7231  1.2596
 1789SOL    HW216827   4.217   4.223   2.448  0.5136 -0.3972 -0.3735
 1790SOL     OW16828   2.674   0.722   8.338  0.4949  0.1545 -0.1225
 1790SOL    HW116829   2.707   0.787   8.401 -2.0878  3.1603 -1.8636
 1790SOL    HW216830   2.742   0.720   8.270  1.0377 -0.1048  0.4223
 1791SOL     OW16831   3.376   3.268   0.332 -0.2026  0.5466  0.1601
 1791SOL    HW116832   3.453   3.242   0.383 -1.9509 -1.8927  1.5856
 1791SOL    HW216833   3.350   3.357   0.356  0.9885  1.0816 -0.5507
 1792SOL     OW16834   2.191   0.249  13.111 -0.0971 -0.4607 -0.7412
 1792SOL    HW116835   2.249   0.195  13.164  1.0833  2.0451  0.5301
 1792SOL    HW216836   2.113   0.195  13.125  0.0408 -1.2087 -2.8247
 1793SOL     OW16837   4.129   2.778  12.771 -0.0937 -0.3240  0.9843
 1793SOL    HW116838   4.086   2.755  12.853 -0.8589  1.5420  1.1107
 1793SOL    HW216839   4.214   2.737  12.780 -0.9020 -2.4412 -1.0554
 1794SOL     OW16840   4.561   1.348   8.669 -0.5960 -0.3726 -0.3089
 1794SOL    HW116841   4.558   1.378   8.760 -1.8354 -0.0253 -0.4664
 1794SOL    HW216842   4.616   1.270   8.671  2.7296  2.0026  2.6289
 1795SOL     OW16843   4.710   3.267   3.165  0.4458 -0.5052  0.0855
 1795SOL    HW116844   4.657   3.283   3.243  0.1355 -1.2637  0.0312
 1795SOL    HW216845   0.062   3.324   3.177 -1.0776  1.5475 -0.1592
 1796SOL     OW16846   2.346   2.343   1.231  0.0985  0.1641  0.2269
 1796SOL    HW116847   2.291   2.420   1.241  1.5226  1.1120  0.6398
 1796SOL    HW216848   2.354   2.349   1.136  0.8230 -0.1422  0.2677
 1797SOL     OW16849   3.768   4.678   2.970 -0.1458  0.0742 -0.0568
 1797SOL    HW116850   3.676   4.661   2.952  0.5992 -1.0895 -2.6614
 1797SOL    HW216851   3.773   4.633   3.055 -0.9003  1.7619  0.8892
 1798SOL     OW16852   2.633   0.901   7.565  0.1981 -0.7251 -0.2306
 1798SOL    HW116853   2.590   0.817   7.584  0.4664 -0.0042  3.6404
 1798SOL    HW216854   2.676   0.913   7.650 -0.9248 -0.9832  0.3751
 1799SOL     OW16855   1.218   0.822   0.068 -0.0705  0.1889  0.3665
 1799SOL    HW116856   1.282   0.889   0.046 -2.1637  1.3956 -2.0070
 1799SOL    HW216857   1.206   0.852   0.158 -0.3810  3.8372 -0.8986
 1800SOL     OW16858   0.756   1.660   1.998 -0.3642 -0.2545  0.7740
 1800SOL    HW116859   0.690   1.592   1.989  1.4897 -1.6578 -2.2705
 1800SOL    HW216860   0.704   1.737   1.976 -0.4553 -0.5830 -0.1455
 1801SOL     OW16861   3.998   0.832   2.799  0.6324  0.4031  0.3206
 1801SOL    HW116862   3.906   0.829   2.826  0.4758 -1.6603 -0.4017
 1801SOL    HW216863   4.038   0.861   2.880  0.2037  1.4009  0.1804
 1802SOL     OW16864   0.177   1.447   1.826  0.3333 -0.2242  0.5111
 1802SOL    HW116865   0.109   1.441   1.759 -1.1633  3.7647  1.6669
 1802SOL    HW216866   0.149   1.390   1.898 -0.4110 -3.0479 -2.0133
 1803SOL     OW16867   0.534   2.841   2.552 -0.0435 -0.1413 -0.4404
 1803SOL    HW116868   0.519   2.870   2.462 -2.6999  0.3836  0.1792
 1803SOL    HW216869   0.491   2.914   2.596  1.6266  0.4998  0.1337
 1804SOL     OW16870   2.009   3.261   2.342 -0.6429 -0.4051 -0.3693
 1804SOL    HW116871   1.953   3.194   2.302 -0.8753  0.5241 -1.6188
 1804SOL    HW216872   2.066   3.201   2.388 -1.4580  0.8436  2.2527
 1805SOL     OW16873   4.611   3.766   6.863 -0.5850 -0.4799 -0.3966
 1805SOL    HW116874   4.703   3.740   6.874 -0.2905 -0.8159 -3.7886
 1805SOL    HW216875   4.614   3.848   6.814  1.6342  0.1617  0.8035
 1806SOL     OW16876   4.688   2.525   2.240 -0.0911 -0.5042 -0.6730
 1806SOL    HW116877   4.594   2.540   2.229  0.2650  1.5062 -0.9020
 1806SOL    HW216878   4.717   2.616   2.247  1.5522 -1.0950  0.3140
 1807SOL     OW16879   0.445   4.713   1.606  0.1836  0.1144  0.0804
 1807SOL    HW116880   0.515   4.653   1.581 -1.6508 -2.5079  1.2606
 1807SOL    HW216881   0.365   4.668   1.582 -0.8047  0.8691  1.9139
 1808SOL     OW16882   3.901   0.895   2.161  0.1436  0.0418  0.6243
 1808SOL    HW116883   3.884   0.989   2.166 -3.6346 -0.6782  1.7817
 1808SOL    HW216884   3.929   0.891   2.070 -0.9177  0.8946  0.2533
 1809SOL     OW16885   1.144   2.655   4.971 -0.6310  0.0621  0.2949
 1809SOL    HW116886   1.164   2.738   5.014  1.4082 -0.6597  0.7138
 1809SOL    HW216887   1.056   2.672   4.935  0.2421  2.3898 -0.7715
 1810SOL     OW16888   3.052   1.002   7.342 -0.2478  0.4711  0.3364
 1810SOL    HW116889   3.119   0.978   7.278  0.1041 -1.4942  1.4130
 1810SOL    HW216890   3.065   0.936   7.411  1.6020  1.2170  0.6823
 1811SOL     OW16891   2.824   1.127   8.914 -0.6352 -0.2884 -0.2270
 1811SOL    HW116892   2.917   1.148   8.902 -1.1444  3.1735  2.1983
 1811SOL    HW216893   2.816   1.036   8.883  0.9796 -0.9527  1.3246
 1812SOL     OW16894   1.543   2.482   5.626 -0.2246  0.3002  0.1443
 1812SOL    HW116895   1.605   2.497   5.554 -0.1511  0.5969  0.2678
 1812SOL    HW216896   1.539   2.571   5.661 -0.5420  1.1213 -1.9652
 1813SOL     OW16897   4.314   3.809   4.932 -0.6621  0.1352 -0.0074
 1813SOL    HW116898   4.265   3.788   5.011 -0.3438  0.2745  0.2286
 1813SOL    HW216899   4.278   3.895   4.911 -1.6462 -0.6538 -1.5003
 1814SOL     OW16900   2.987   3.520   1.116  0.9745  0.1130 -0.0804
 1814SOL    HW116901   3.002   3.425   1.115 -2.2550 -0.4397  1.8975
 1814SOL    HW216902   2.944   3.532   1.031 -1.1004 -1.7401  0.7093
 1815SOL     OW16903   4.117   4.540   8.689 -0.4059  0.1836 -0.6833
 1815SOL    HW116904   4.061   4.487   8.746 -0.4955 -0.1059 -1.0429
 1815SOL    HW216905   4.080   4.499   8.611  0.7804 -1.8872 -0.1475
 1816SOL     OW16906   0.023   0.977   0.266 -0.5819 -0.5536 -0.2552
 1816SOL    HW116907   4.700   0.986   0.350  2.0757 -0.7481  1.2494
 1816SOL    HW216908   0.074   1.058   0.271  0.1346 -0.9316 -1.5651
 1817SOL     OW16909   0.949   3.061  13.004  0.1106  0.4004  0.1748
 1817SOL    HW116910   0.888   2.993  12.975  0.8116 -0.3364  0.4178
 1817SOL    HW216911   0.888   3.125  13.041  1.5125  0.6527  2.0829
 1818SOL     OW16912   2.501   1.048  10.951  0.3948  0.6277  0.3156
 1818SOL    HW116913   2.546   1.004  10.879  1.5296 -3.9143  3.8684
 1818SOL    HW216914   2.539   1.014  11.032  2.4369  0.0539 -0.8754
 1819SOL     OW16915   0.065   3.436  11.293  0.4737  0.2812  0.1147
 1819SOL    HW116916   0.055   3.530  11.307  2.3925  0.5773 -0.4758
 1819SOL    HW216917   0.132   3.435  11.225 -1.1701 -2.6286 -1.4452
 1820SOL     OW16918   3.574   0.362   6.461 -0.1628  0.2893 -0.2307
 1820SOL    HW116919   3.611   0.296   6.519  2.3562  1.8463 -0.0747
 1820SOL    HW216920   3.549   0.314   6.381  2.1804 -0.3623 -0.5846
 1821SOL     OW16921   1.312   4.501   7.449 -0.7717  0.5358 -0.2845
 1821SOL    HW116922   1.356   4.584   7.431 -1.9849  1.1113 -0.5688
 1821SOL    HW216923   1.290   4.468   7.362  0.6326 -0.6823 -0.1817
 1822SOL     OW16924   2.786   1.322   9.133 -0.0475 -0.3995 -0.2260
 1822SOL    HW116925   2.782   1.257   9.063  1.6087 -0.1879 -0.5092
 1822SOL    HW216926   2.850   1.384   9.099 -0.2135  0.9456  1.9369
 1823SOL     OW16927   0.228   2.290   7.159 -0.4604  0.4731 -0.1858
 1823SOL    HW116928   0.188   2.326   7.080 -3.0182 -0.8546  0.4919
 1823SOL    HW216929   0.318   2.313   7.137 -1.1179  0.1539 -3.2244
 1824SOL     OW16930   0.760   3.049   8.909 -0.6778  0.0186  0.7805
 1824SOL    HW116931   0.852   3.044   8.883 -1.3726  1.4913 -1.9618
 1824SOL    HW216932   0.765   2.994   8.988  1.7393  0.6345  1.0603
 1825SOL     OW16933   3.558   3.741   4.627 -0.4767 -0.1613 -0.2116
 1825SOL    HW116934   3.638   3.698   4.598  0.0683 -1.7774  3.6768
 1825SOL    HW216935   3.493   3.671   4.634 -0.2755 -0.5008 -1.7065
 1826SOL     OW16936   4.265   3.050   8.615  0.3112 -0.4080 -0.6565
 1826SOL    HW116937   4.300   3.135   8.640 -1.9602  0.1196  0.7044
 1826SOL    HW216938   4.265   3.062   8.520 -1.1070  0.4302 -0.5554
 1827SOL     OW16939   0.708   0.547  14.874  0.6424  0.4841  0.1139
 1827SOL    HW116940   0.743   0.472  14.825 -1.6927 -1.0006  0.6750
 1827SOL    HW216941   0.657   0.594  14.808 -2.2637 -1.5016  0.9445
 1828SOL     OW16942   2.687   0.215  15.199  0.2686 -0.2098  0.1598
 1828SOL    HW116943   2.706   0.279  15.131  1.4169  0.6682  1.2924
 1828SOL    HW216944   2.616   0.265  15.239 -1.0073 -1.7090 -0.2462
 1829SOL     OW16945   1.016   2.438  16.059 -0.5519 -0.7085  0.0986
 1829SOL    HW116946   0.924   2.444  16.085 -0.3981 -0.2905  0.5408
 1829SOL    HW216947   1.052   2.525  16.041 -1.3710 -0.0778  1.5292
 1830SOL     OW16948   0.095   2.510   7.276 -0.3311  0.5394 -0.7315
 1830SOL    HW116949   0.138   2.425   7.265  1.5426  1.6097 -1.6130
 1830SOL    HW216950   0.169   2.569   7.261 -0.6441  1.3981  1.1407
 1831SOL     OW16951   2.026   3.590  10.623 -0.6723 -0.1736 -0.2991
 1831SOL    HW116952   2.085   3.576  10.696  0.2268 -0.8799 -1.1609
 1831SOL    HW216953   1.939   3.574  10.660  0.4565 -1.0210  1.9467
 1832SOL     OW16954   3.389   1.733  14.820  0.1683 -0.0520 -0.4582
 1832SOL    HW116955   3.424   1.663  14.764 -1.4975 -1.4474  0.2460
 1832SOL    HW216956   3.462   1.770  14.868 -1.2482 -0.4155  1.9711
 1833SOL     OW16957   0.665   2.021   6.780  0.3308  0.6733  0.2764
 1833SOL    HW116958   0.716   2.083   6.727  0.3386 -0.2142 -0.7683
 1833SOL    HW216959   0.602   1.988   6.716  0.3523  2.3890 -0.6341
 1834SOL     OW16960   1.859   0.615   7.995  0.1551 -0.3427 -0.0924
 1834SOL    HW116961   1.852   0.710   8.007  2.4394 -0.0360 -1.1728
 1834SOL    HW216962   1.928   0.600   8.060  0.2827 -1.9827 -0.6247
 1835SOL     OW16963   0.412   2.510   4.982 -0.1077 -0.1043  0.3886
 1835SOL    HW116964   0.376   2.556   4.906  0.8806 -1.1970 -0.7415
 1835SOL    HW216965   0.414   2.568   5.058 -2.1479  0.5650 -0.0746
 1836SOL     OW16966   4.156   2.281   4.759 -0.3133  0.0590 -0.0242
 1836SOL    HW116967   4.103   2.262   4.681 -1.7470  0.0942  0.9403
 1836SOL    HW216968   4.238   2.303   4.715 -0.8373  1.2395 -0.3895
 1837SOL     OW16969   0.429   2.824   9.538 -0.7374  0.3807 -0.2254
 1837SOL    HW116970   0.434   2.751   9.599 -3.4689 -0.6964 -1.2886
 1837SOL    HW216971   0.360   2.870   9.586 -0.6853  1.6661 -1.3790
 1838SOL     OW16972   3.171   1.024  11.346  0.6581 -0.4019  0.1300
 1838SOL    HW116973   3.204   0.935  11.339  2.0581 -0.0060  1.7539
 1838SOL    HW216974   3.251   1.073  11.366  0.5103 -0.0573 -0.1197
 1839SOL     OW16975   1.802   3.912   0.564  0.0906  0.0035  0.3269
 1839SOL    HW116976   1.851   3.895   0.644 -1.8321 -0.8823  1.3001
 1839SOL    HW216977   1.792   3.822   0.534  0.1912 -0.4229  1.5778
 1840SOL     OW16978   1.980   1.858  11.900  0.1525 -0.3482 -0.0047
 1840SOL    HW116979   2.037   1.895  11.832  1.5447  0.1411  1.4282
 1840SOL    HW216980   1.903   1.910  11.878  1.0752 -0.1616 -2.7669
 1841SOL     OW16981   4.214   1.371  12.620  0.4375  0.3779 -0.7042
 1841SOL    HW116982   4.162   1.346  12.697 -1.2382  1.2539 -1.5399
 1841SOL    HW216983   4.301   1.333  12.625 -0.0739 -0.9321 -1.8207
 1842SOL     OW16984   0.361   4.416   9.151 -0.4643  0.2420 -0.1206
 1842SOL    HW116985   0.371   4.337   9.206 -0.9340  0.7095  0.6435
 1842SOL    HW216986   0.435   4.408   9.091  1.8975  1.3438  2.6213
 1843SOL     OW16987   4.461   2.008   7.561  0.5990 -0.5665  0.3314
 1843SOL    HW116988   4.437   2.090   7.603  1.2041  0.5339 -1.5179
 1843SOL    HW216989   4.389   1.988   7.502 -0.7501 -0.4666  1.9290
 1844SOL     OW16990   2.280   2.009   3.505 -0.2465 -0.2969 -0.2398
 1844SOL    HW116991   2.292   2.008   3.410 -1.3338  1.0594 -0.3870
 1844SOL    HW216992   2.336   2.084   3.526  0.9360 -1.1238 -0.4547
 1845SOL     OW16993   3.073   2.714   3.357  0.0609  0.1934  0.2930
 1845SOL    HW116994   3.129   2.785   3.326  1.3496 -0.2842  1.5021
 1845SOL    HW216995   3.035   2.686   3.274  0.8424 -0.1574  0.0583
 1846SOL     OW16996   4.401   1.221   4.219 -0.0143 -1.3569  0.2932
 1846SOL    HW116997   4.388   1.244   4.311 -0.7518  1.0049 -0.3984
 1846SOL    HW216998   4.311   1.213   4.188  0.4690 -1.6213 -1.0485
 1847SOL     OW16999   1.032   2.499   9.199  0.4686 -0.0750 -0.0049
 1847SOL    HW117000   1.010   2.541   9.117 -0.5952  1.9561  1.3200
 1847SOL    HW217001   1.123   2.516   9.220 -0.3097  1.6667  1.9807
 1848SOL     OW17002   2.369   3.899   6.031  0.8341 -0.4071  0.3673
 1848SOL    HW117003   2.345   3.807   6.019 -1.4058  0.0650  1.2762
 1848SOL    HW217004   2.316   3.940   5.963  1.0640  1.5392  1.3641
 1849SOL     OW17005   0.620   3.588  15.964  0.2510 -0.1997 -0.7841
 1849SOL    HW117006   0.628   3.591  16.060 -0.5823  1.3925 -0.7647
 1849SOL    HW217007   0.595   3.679  15.952  0.3147  0.1274  1.5304
 1850SOL     OW17008   2.266   1.188   7.050 -0.2952 -0.2635  0.4851
 1850SOL    HW117009   2.181   1.161   7.083 -0.2181 -1.9672 -0.6832
 1850SOL    HW217010   2.243   1.276   7.019  1.4322 -0.5372 -1.6383
 1851SOL     OW17011   0.676   1.132   1.095  0.0255 -0.0789 -0.4465
 1851SOL    HW117012   0.694   1.063   1.031  0.1720  0.2375 -0.7459
 1851SOL    HW217013   0.763   1.172   1.100 -1.0008  1.8887  1.3061
 1852SOL     OW17014   0.446   3.288   4.321 -0.3215  0.5576 -0.3962
 1852SOL    HW117015   0.381   3.227   4.287  1.1331 -0.6984 -0.9159
 1852SOL    HW217016   0.387   3.357   4.351 -0.5381  1.0618 -1.9834
 1853SOL     OW17017   1.638   4.158   2.397  0.9000  0.2984 -0.0226
 1853SOL    HW117018   1.570   4.218   2.429 -0.9650 -1.5248 -0.6329
 1853SOL    HW217019   1.716   4.213   2.398  0.2552  1.2180 -0.9020
 1854SOL     OW17020   1.586   2.268   3.160 -0.0996 -0.4185 -0.2846
 1854SOL    HW117021   1.665   2.316   3.186 -0.0700  0.2550 -1.6228
 1854SOL    HW217022   1.600   2.176   3.181 -1.8444 -0.5845  0.1465
 1855SOL     OW17023   2.932   3.396   7.736 -0.0017 -0.2950 -0.2621
 1855SOL    HW117024   2.864   3.376   7.671 -0.5178  2.7200 -0.6566
 1855SOL    HW217025   2.997   3.436   7.679  1.2254 -2.0584 -0.0819
 1856SOL     OW17026   2.425   2.459   3.174 -0.3684 -0.5142  0.2082
 1856SOL    HW117027   2.471   2.421   3.249  1.6307  1.1863 -0.1557
 1856SOL    HW217028   2.401   2.543   3.213  0.7088  0.3541 -0.9752
 1857SOL     OW17029   2.069   0.616   6.048 -0.4645  0.2307  0.2392
 1857SOL    HW117030   2.018   0.696   6.038 -0.5590  0.4448  2.6399
 1857SOL    HW217031   2.136   0.649   5.989  0.5762 -1.1538  0.6456
 1858SOL     OW17032   3.422   4.063  16.530 -0.6947 -0.1661  0.3338
 1858SOL    HW117033   3.473   3.994  16.572  1.1729  1.2334  0.3800
 1858SOL    HW217034   3.461   4.131  16.586 -2.4254  0.7122  0.4753
 1859SOL     OW17035   0.531   2.739   1.608  0.2291 -0.6132 -0.4028
 1859SOL    HW117036   0.525   2.772   1.698  2.5663  0.6014 -0.6735
 1859SOL    HW217037   0.571   2.654   1.626 -0.5318 -0.5500  1.6286
 1860SOL     OW17038   0.932   4.334   2.927  0.0337 -0.0773 -0.1807
 1860SOL    HW117039   1.016   4.292   2.946 -0.1387 -0.4215 -0.1684
 1860SOL    HW217040   0.909   4.276   2.855 -0.0705 -1.8482  1.2714
 1861SOL     OW17041   1.380   0.300   5.635  0.5214 -0.8899 -0.3442
 1861SOL    HW117042   1.338   0.276   5.717  0.6601  0.9538  0.2570
 1861SOL    HW217043   1.445   0.356   5.676  0.8992 -2.8041  1.6558
 1862SOL     OW17044   1.631   2.510   7.550 -0.2279 -0.4320  0.8346
 1862SOL    HW117045   1.574   2.557   7.490 -0.4232  1.5759  2.5928
 1862SOL    HW217046   1.686   2.461   7.489  0.7284 -0.7807  1.9897
 1863SOL     OW17047   4.362   2.358   6.458 -0.0657  0.3449  0.2652
 1863SOL    HW117048   4.404   2.277   6.430 -0.5742 -0.0554  0.6587
 1863SOL    HW217049   4.305   2.368   6.381 -0.9033 -0.6516  0.7615
 1864SOL     OW17050   2.673   0.230   6.631 -0.0730  0.3815 -0.6186
 1864SOL    HW117051   2.693   0.148   6.586  0.4188 -0.0115  0.3391
 1864SOL    HW217052   2.751   0.279   6.605 -0.7522  0.6136 -2.2175
 1865SOL     OW17053   2.715   0.909   4.552  0.4068 -0.0287  0.6451
 1865SOL    HW117054   2.750   0.838   4.498 -0.6479 -0.9836  1.2120
 1865SOL    HW217055   2.626   0.879   4.571  0.0082  0.4653 -0.4652
 1866SOL     OW17056   2.412   1.961   7.925  0.3808  0.2324 -0.0680
 1866SOL    HW117057   2.377   1.898   7.989 -1.8996  1.4288 -0.1244
 1866SOL    HW217058   2.469   1.905   7.872 -0.9915 -1.3069  0.0781
 1867SOL     OW17059   3.757   3.376   3.421  0.1937  0.0452 -0.6724
 1867SOL    HW117060   3.787   3.380   3.330  0.9642 -2.3382 -0.5091
 1867SOL    HW217061   3.821   3.322   3.467 -0.2598 -1.4471 -1.8010
 1868SOL     OW17062   3.016   1.747  16.204  0.0465 -0.4131 -0.2507
 1868SOL    HW117063   3.043   1.813  16.140 -0.1157  0.3846  0.4878
 1868SOL    HW217064   3.047   1.669  16.158 -1.3240 -0.8475 -0.4223
 1869SOL     OW17065   3.856   3.809   6.627 -0.1906 -0.7491  0.6776
 1869SOL    HW117066   3.801   3.731   6.616  2.2688 -2.1777 -1.4449
 1869SOL    HW217067   3.861   3.828   6.721 -0.2190  1.0876  0.3092
 1870SOL     OW17068   3.026   4.529   2.566 -0.8473 -0.2646  0.1582
 1870SOL    HW117069   3.105   4.506   2.518 -0.7518  0.1493  0.1191
 1870SOL    HW217070   3.051   4.528   2.659  2.2670 -0.4724 -0.7007
 1871SOL     OW17071   4.623   3.390   2.445  0.4570  0.2568  0.3396
 1871SOL    HW117072   4.578   3.468   2.411 -0.3011  0.4768  1.8243
 1871SOL    HW217073   4.679   3.366   2.372  0.3353  0.5173  0.1573
 1872SOL     OW17074   3.663   0.187   6.695  0.2459 -0.1657  0.7182
 1872SOL    HW117075   3.615   0.213   6.774  0.8041  1.7685  0.4188
 1872SOL    HW217076   3.733   0.139   6.740  0.0901  0.3357  1.5083
 1873SOL     OW17077   2.926   2.392   9.006  0.0201 -0.0195 -0.3872
 1873SOL    HW117078   2.857   2.325   9.001  1.8258 -2.0385  1.5569
 1873SOL    HW217079   2.883   2.468   9.045 -1.4064 -0.2085 -1.5549
 1874SOL     OW17080   3.663   3.715   8.200 -0.0787  0.1330  0.0752
 1874SOL    HW117081   3.629   3.744   8.285 -3.4963  0.7684 -1.4884
 1874SOL    HW217082   3.693   3.630   8.230  0.6176  0.5975  0.6762
 1875SOL     OW17083   2.978   2.027   4.151 -0.4398  0.3362  0.3576
 1875SOL    HW117084   2.922   1.951   4.171  1.2598 -0.6823  1.2560
 1875SOL    HW217085   3.023   2.038   4.234  0.5532  1.5102 -0.3484
 1876SOL     OW17086   2.970   4.605   0.878 -0.1839  0.6068 -1.0261
 1876SOL    HW117087   2.958   4.546   0.804 -1.3918 -0.1192 -0.2380
 1876SOL    HW217088   3.036   4.557   0.929  2.6465  2.5400 -2.8364
 1877SOL     OW17089   2.814   3.813  17.535 -0.3148  0.2583 -0.3126
 1877SOL    HW117090   2.824   3.902  17.569 -2.6145  0.6016 -0.5358
 1877SOL    HW217091   2.776   3.767  17.610  0.4251 -0.6706 -0.5017
 1878SOL     OW17092   0.191   1.264  16.812 -0.1178  0.1183 -0.0160
 1878SOL    HW117093   0.183   1.356  16.838  0.2907 -0.2888  1.5198
 1878SOL    HW217094   0.200   1.273  16.717 -1.2662  0.0421 -0.1312
 1879SOL     OW17095   0.173   2.912   8.307 -0.4364 -0.0172  0.3368
 1879SOL    HW117096   0.243   2.869   8.258 -0.8663  0.1359 -0.4127
 1879SOL    HW217097   0.220   2.965   8.371  0.3554  1.3980 -1.4067
 1880SOL     OW17098   1.698   2.196  10.719  0.3350  0.2820 -0.8864
 1880SOL    HW117099   1.632   2.206  10.651 -0.5273 -0.8817 -0.2258
 1880SOL    HW217100   1.710   2.101  10.729 -0.0477  0.2439 -0.7966
 1881SOL     OW17101   0.261   3.502   8.104 -0.1047  0.4829 -0.0548
 1881SOL    HW117102   0.281   3.560   8.030 -0.4615  0.2467 -0.3386
 1881SOL    HW217103   0.217   3.429   8.059 -0.3699  0.3345  0.4490
 1882SOL     OW17104   2.050   1.666   2.635 -0.4184 -0.1186  0.0091
 1882SOL    HW117105   2.115   1.736   2.624 -0.8239  0.3949  0.9565
 1882SOL    HW217106   1.975   1.714   2.599 -2.4640 -0.7405  3.4355
 1883SOL     OW17107   4.503   1.096   3.433 -0.2289 -0.0998 -0.2472
 1883SOL    HW117108   4.583   1.127   3.476  0.8001  0.2130 -2.4037
 1883SOL    HW217109   4.539   1.061   3.352  0.0523  0.3469 -0.3162
 1884SOL     OW17110   4.227   1.715   6.142 -0.0275  0.1905  0.2766
 1884SOL    HW117111   4.277   1.736   6.064  0.6459 -1.2634  0.3174
 1884SOL    HW217112   4.158   1.667   6.097 -0.0246  0.2394  0.2208
 1885SOL     OW17113   3.805   4.095   8.043  0.5730 -0.1623  0.1586
 1885SOL    HW117114   3.805   4.016   7.990  0.5493  0.8157 -1.2936
 1885SOL    HW217115   3.820   4.061   8.131  0.7601 -0.9601 -0.1831
 1886SOL     OW17116   3.840   1.043   1.175 -0.3564 -0.4435  0.0336
 1886SOL    HW117117   3.853   1.067   1.084 -0.8271 -0.6803 -0.0943
 1886SOL    HW217118   3.929   1.075   1.195 -1.0242  0.8460  0.9993
 1887SOL     OW17119   3.294   3.199  12.825  0.7596  0.1804  0.4474
 1887SOL    HW117120   3.362   3.222  12.762  0.7946 -0.3390  0.2950
 1887SOL    HW217121   3.295   3.273  12.886  1.5923  2.4540 -2.2968
 1888SOL     OW17122   2.698   0.596   5.178  0.3748  0.1143  0.4674
 1888SOL    HW117123   2.608   0.606   5.147  0.9639  0.3620 -1.1907
 1888SOL    HW217124   2.692   0.520   5.236 -0.2044 -0.5475 -0.4644
 1889SOL     OW17125   0.533   4.362  15.873 -0.3928  0.0567 -0.0737
 1889SOL    HW117126   0.495   4.310  15.802 -1.4569  0.8148 -0.0424
 1889SOL    HW217127   0.628   4.345  15.871  0.0530  2.5792  0.7066
 1890SOL     OW17128   2.971   1.640  12.960  0.5467  0.2173 -0.0333
 1890SOL    HW117129   3.013   1.642  13.046  0.7445 -1.4183 -0.0869
 1890SOL    HW217130   2.922   1.558  12.959  0.4737  0.2490  0.9694
 1891SOL     OW17131   1.705   1.032  12.988  0.3060 -0.0210  0.5275
 1891SOL    HW117132   1.686   1.060  13.077  0.6000 -0.8892  0.8647
 1891SOL    HW217133   1.617   1.019  12.952  0.9869 -1.7157 -0.4945
 1892SOL     OW17134   3.391   0.409   3.333  0.1032 -0.4211  0.6253
 1892SOL    HW117135   3.406   0.426   3.426  1.4793  1.7262  0.0009
 1892SOL    HW217136   3.454   0.336   3.333  0.2163 -0.3145  1.4939
 1893SOL     OW17137   2.187   2.933   3.263  0.1900  0.3630  0.0980
 1893SOL    HW117138   2.247   2.859   3.252  0.7904  0.7619  0.6372
 1893SOL    HW217139   2.207   2.983   3.184 -1.1205  1.8857  0.7236
 1894SOL     OW17140   1.744   2.230   2.614 -1.0309 -0.3423 -0.8027
 1894SOL    HW117141   1.824   2.184   2.587 -0.3994 -0.0267  0.4862
 1894SOL    HW217142   1.773   2.280   2.691 -0.7942 -1.4934 -0.1381
 1895SOL     OW17143   2.913   0.926   6.734 -0.0340  0.2030 -0.1235
 1895SOL    HW117144   2.860   0.962   6.664  1.2018 -1.0093 -1.6943
 1895SOL    HW217145   2.863   0.963   6.806  0.8320  0.4707  0.3465
 1896SOL     OW17146   1.289   0.184   3.985 -0.1521  0.3447 -0.9882
 1896SOL    HW117147   1.308   0.225   3.900  0.4109  2.2936  0.0698
 1896SOL    HW217148   1.353   0.233   4.036  2.3951 -2.7827 -1.1857
 1897SOL     OW17149   1.695   3.495   0.655 -0.5779  0.4248 -0.2915
 1897SOL    HW117150   1.671   3.536   0.738  1.0048 -1.2090  0.9941
 1897SOL    HW217151   1.627   3.428   0.658 -1.7711  1.6541  0.1321
 1898SOL     OW17152   2.052   3.632  14.391  0.4392  0.0071  0.3138
 1898SOL    HW117153   1.978   3.647  14.332  1.0017  2.4699  0.2291
 1898SOL    HW217154   2.100   3.715  14.379 -0.5257  0.3140 -1.3747
 1899SOL     OW17155   3.144   1.869  10.927 -0.5888 -0.0666  0.3018
 1899SOL    HW117156   3.189   1.905  11.003  1.1632  0.7150 -1.1052
 1899SOL    HW217157   3.208   1.800  10.912 -2.5104 -2.3012  2.5544
 1900SOL     OW17158   1.416   0.104   2.665 -0.2700 -0.5746  0.4415
 1900SOL    HW117159   1.321   0.098   2.664 -0.1723 -1.9382 -1.8724
 1900SOL    HW217160   1.424   0.010   2.679  0.1953 -0.8234 -1.5092
 1901SOL     OW17161   3.317   4.407   6.617  0.1426 -0.2906  0.6361
 1901SOL    HW117162   3.252   4.367   6.560  1.4476 -1.0790 -0.3008
 1901SOL    HW217163   3.330   4.494   6.578 -0.6231 -0.1075  0.8003
 1902SOL     OW17164   1.034   0.146  16.202  0.7317 -0.7149  0.3466
 1902SOL    HW117165   1.007   0.111  16.287 -1.5257  1.0328  0.3483
 1902SOL    HW217166   1.057   0.067  16.153  2.7403  0.4950 -0.6925
 1903SOL     OW17167   4.607   1.109   9.408  1.1126  0.0355 -0.0066
 1903SOL    HW117168   4.562   1.108   9.493 -0.2417  2.5315 -0.7076
 1903SOL    HW217169   4.680   1.046   9.407 -0.2757 -1.5812 -0.0851
 1904SOL     OW17170   1.741   4.530  11.375 -0.0738 -0.2617  0.7569
 1904SOL    HW117171   1.741   4.479  11.456 -0.6442 -2.1612 -0.4259
 1904SOL    HW217172   1.757   4.613  11.418 -0.4978  0.2143 -0.0054
 1905SOL     OW17173   2.694   3.393   0.195 -0.3891  0.1590  0.1996
 1905SOL    HW117174   2.604   3.425   0.201 -0.6099 -0.5395  0.6287
 1905SOL    HW217175   2.675   3.302   0.174 -3.0020  0.6117  0.5670
 1906SOL     OW17176   4.017   4.122   1.772  0.3585  0.1677  0.0992
 1906SOL    HW117177   3.991   4.122   1.679  0.4200  0.2833  0.0822
 1906SOL    HW217178   4.093   4.064   1.770  1.2625  1.4259 -1.8508
 1907SOL     OW17179   4.041   2.832   2.846 -0.0117  0.0834  0.6381
 1907SOL    HW117180   4.055   2.857   2.755  1.6221 -0.6489  0.6780
 1907SOL    HW217181   4.003   2.746   2.828  0.1308  0.6146 -2.1528
 1908SOL     OW17182   2.861   3.573   1.842  0.2772  0.2274  0.2985
 1908SOL    HW117183   2.810   3.634   1.788  0.5999  0.3158  0.0953
 1908SOL    HW217184   2.899   3.518   1.773  1.4598 -0.4604  1.5040
 1909SOL     OW17185   0.993   3.141  15.553  0.2945 -0.3254  0.0291
 1909SOL    HW117186   0.982   3.212  15.616  1.9809 -0.5438  0.5781
 1909SOL    HW217187   0.899   3.127  15.538 -0.2538  1.8536  1.4173
 1910SOL     OW17188   2.846   2.672  13.758 -0.7283 -0.0863  0.2395
 1910SOL    HW117189   2.838   2.582  13.726  0.0138  0.8347 -2.5807
 1910SOL    HW217190   2.763   2.694  13.801 -0.9724 -1.5390  0.5054
 1911SOL     OW17191   3.959   0.014   5.182  0.1739  0.2781  0.3382
 1911SOL    HW117192   3.868   0.016   5.210 -0.0457  0.6872 -0.4021
 1911SOL    HW217193   3.941   4.689   5.102 -2.2868 -0.7634  1.5115
 1912SOL     OW17194   0.907   1.311   2.330  0.2693  0.4401  0.4905
 1912SOL    HW117195   0.921   1.243   2.264 -2.1183 -0.5303  0.9851
 1912SOL    HW217196   0.821   1.337   2.299  0.4204  0.5250  0.1431
 1913SOL     OW17197   1.408   4.332  11.182  0.0243 -1.0520 -0.7560
 1913SOL    HW117198   1.387   4.410  11.130  1.5704  0.8870  1.5406
 1913SOL    HW217199   1.345   4.271  11.144 -2.7321  1.2372  0.1256
 1914SOL     OW17200   1.725   3.271   2.758  0.2549 -0.2724 -0.5370
 1914SOL    HW117201   1.789   3.200   2.755 -1.6272 -2.0814  2.0272
 1914SOL    HW217202   1.649   3.215   2.740  1.8206 -2.3292 -0.8423
 1915SOL     OW17203   1.543   3.418  14.162 -0.1402 -0.6124  0.6010
 1915SOL    HW117204   1.501   3.341  14.123 -0.8180  1.0992 -2.0645
 1915SOL    HW217205   1.548   3.408  14.257  0.0595  1.3683  0.7995
 1916SOL     OW17206   0.217   3.000   1.759 -0.1588  0.3003  0.1733
 1916SOL    HW117207   0.267   3.049   1.825  0.9747 -3.5343  2.1390
 1916SOL    HW217208   0.131   3.043   1.762 -0.5000 -0.4043  0.4738
 1917SOL     OW17209   4.217   0.726   9.367  0.2755 -0.1618 -0.0535
 1917SOL    HW117210   4.210   0.734   9.462 -1.3073  1.2504 -0.2929
 1917SOL    HW217211   4.299   0.678   9.370  1.9156  2.6436 -0.0973
 1918SOL     OW17212   3.796   0.373   0.118 -0.1870  0.5891  0.4472
 1918SOL    HW117213   3.831   0.427   0.189  3.0793  0.4239 -1.0763
 1918SOL    HW217214   3.827   0.425   0.044 -0.5449 -1.0138 -0.8261
 1919SOL     OW17215   1.881   1.027   4.490 -0.0070 -0.1123 -0.6150
 1919SOL    HW117216   1.827   0.997   4.562 -0.2699  1.2070 -0.2676
 1919SOL    HW217217   1.819   1.092   4.456 -1.8898 -1.7546 -0.3369
 1920SOL     OW17218   2.192   2.544   7.031  0.1734 -0.0717 -0.0678
 1920SOL    HW117219   2.120   2.508   6.979 -1.3306  0.4872  1.6131
 1920SOL    HW217220   2.142   2.610   7.081  1.9663 -0.0757  1.7157
 1921SOL     OW17221   2.390   3.920   3.372 -0.1518 -0.1549  0.2048
 1921SOL    HW117222   2.444   3.985   3.417 -1.7577  0.9008  0.6092
 1921SOL    HW217223   2.310   3.910   3.423  0.3311  0.2707  1.0474
 1922SOL     OW17224   2.642   0.913   9.086  0.3973 -0.1047 -0.0352
 1922SOL    HW117225   2.663   0.865   9.006 -0.6613 -0.0107 -0.3723
 1922SOL    HW217226   2.710   0.979   9.097  0.0946 -0.4074  3.8663
 1923SOL     OW17227   3.690   1.304   8.010  0.8097  0.2384 -0.3356
 1923SOL    HW117228   3.740   1.243   7.956 -0.7002 -0.8429 -0.5115
 1923SOL    HW217229   3.750   1.378   8.018 -1.5728  2.2463 -1.2804
 1924SOL     OW17230   1.067   0.648   2.694 -0.1099 -0.0460  0.1069
 1924SOL    HW117231   1.158   0.672   2.680 -0.7856  1.4094 -1.7297
 1924SOL    HW217232   1.030   0.701   2.624  1.2620  2.0320  0.9673
 1925SOL     OW17233   0.555   4.273   7.511  0.4756  0.1820  0.0748
 1925SOL    HW117234   0.483   4.327   7.479  0.9589  0.7515 -0.0589
 1925SOL    HW217235   0.559   4.307   7.601 -1.5124  1.9611 -0.4961
 1926SOL     OW17236   3.385   3.581   6.477  0.0133  0.3409 -0.0579
 1926SOL    HW117237   3.330   3.660   6.469 -0.6934  0.0552  1.8553
 1926SOL    HW217238   3.429   3.571   6.393  0.0066  2.9203 -0.3702
 1927SOL     OW17239   2.188   4.103  11.348  0.3929  0.2097  0.2188
 1927SOL    HW117240   2.256   4.066  11.291 -0.4303 -2.1328  0.7278
 1927SOL    HW217241   2.235   4.105  11.432  1.8285  2.6270 -0.6532
 1928SOL     OW17242   0.365   4.452   6.672  0.1038 -0.3129  0.0659
 1928SOL    HW117243   0.336   4.534   6.712  1.1374  0.3607 -0.5514
 1928SOL    HW217244   0.295   4.440   6.608 -1.2730 -1.1406  1.7589
 1929SOL     OW17245   1.031   0.695   1.658  0.3122 -0.2451 -0.0583
 1929SOL    HW117246   1.007   0.610   1.694  0.0089  0.9741  2.7027
 1929SOL    HW217247   1.067   0.730   1.740 -0.8754 -0.1135  0.4031
 1930SOL     OW17248   3.220   1.395   5.167  0.0036  0.2039 -0.2660
 1930SOL    HW117249   3.245   1.484   5.143  1.2462 -0.2198 -0.5162
 1930SOL    HW217250   3.138   1.376   5.120 -0.5961  2.4699 -0.1708
 1931SOL     OW17251   1.435   2.202   7.551  0.3253  0.5363 -0.1035
 1931SOL    HW117252   1.470   2.135   7.611 -0.1777 -1.7092 -2.3237
 1931SOL    HW217253   1.512   2.257   7.542 -0.3062  1.4147 -0.1049
 1932SOL     OW17254   0.081   4.329   9.122 -0.1242  0.0136 -0.1546
 1932SOL    HW117255   0.151   4.371   9.172 -0.5882  1.2312 -0.5331
 1932SOL    HW217256   0.020   4.294   9.186 -0.6271  0.6650 -0.2783
 1933SOL     OW17257   1.939   4.062  14.766  0.2929  0.3195  0.8350
 1933SOL    HW117258   1.955   4.145  14.811 -1.9278  1.0203  0.3278
 1933SOL    HW217259   1.862   4.095  14.720 -0.0354 -1.9078 -0.2059
 1934SOL     OW17260   2.427   3.479   3.172 -0.3673  0.4995  0.0005
 1934SOL    HW117261   2.332   3.489   3.170 -0.1961  2.2640  0.5991
 1934SOL    HW217262   2.436   3.532   3.251  2.1006 -0.9539  0.6789
 1935SOL     OW17263   4.018   2.378   3.120 -0.3726  0.2207  0.6553
 1935SOL    HW117264   4.078   2.386   3.193  1.5566 -2.0688 -0.6602
 1935SOL    HW217265   4.072   2.408   3.047 -0.9403 -2.5128 -0.9188
 1936SOL     OW17266   2.571   1.091   5.872 -0.0738  0.0581  0.3220
 1936SOL    HW117267   2.542   1.075   5.782  1.1404 -0.3226 -0.0125
 1936SOL    HW217268   2.617   1.172   5.852  1.7104 -0.8121  0.8604
 1937SOL     OW17269   2.009   4.415  13.344 -0.7356 -0.2862 -0.0314
 1937SOL    HW117270   2.017   4.341  13.405 -1.4908  0.0104  0.4223
 1937SOL    HW217271   1.915   4.429  13.354 -0.5171  0.4805  0.8830
 1938SOL     OW17272   2.888   0.594   3.215  0.3074  0.1512  0.1492
 1938SOL    HW117273   2.833   0.616   3.291 -0.4461  1.0563 -0.6636
 1938SOL    HW217274   2.951   0.541   3.264 -0.9643 -2.1569 -0.7580
 1939SOL     OW17275   2.040   3.602  12.450 -0.5783 -0.7295 -0.0051
 1939SOL    HW117276   2.040   3.572  12.359  2.5877 -1.2819  0.1664
 1939SOL    HW217277   1.960   3.561  12.480 -0.6163 -0.7118 -0.0817
 1940SOL     OW17278   2.042   3.942  11.026  0.5585  0.1088 -0.3268
 1940SOL    HW117279   1.949   3.950  11.006  0.6672  0.7609 -0.5737
 1940SOL    HW217280   2.036   3.969  11.117 -0.1286 -0.1019 -0.3101
 1941SOL     OW17281   1.007   1.093   1.288 -0.5235  0.1326 -0.7166
 1941SOL    HW117282   1.043   1.005   1.278 -0.1774  0.2014 -0.0370
 1941SOL    HW217283   1.025   1.126   1.200  0.5535 -0.1835 -0.6107
 1942SOL     OW17284   4.670   3.234   1.029  0.0624 -0.2681 -0.7396
 1942SOL    HW117285   0.023   3.206   1.079 -0.5260 -0.5119  0.0153
 1942SOL    HW217286   4.696   3.208   0.940  0.1062 -1.4178 -0.3824
 1943SOL     OW17287   0.159   0.969   4.352  0.0187 -0.1656  0.0337
 1943SOL    HW117288   0.116   1.054   4.342 -1.1962 -1.1857 -3.1856
 1943SOL    HW217289   0.098   0.904   4.318 -0.1145  1.9736 -3.8278
 1944SOL     OW17290   1.344   2.944  11.101  0.3252  0.1530  0.0178
 1944SOL    HW117291   1.263   2.894  11.100 -0.3320  1.2141  0.2948
 1944SOL    HW217292   1.401   2.887  11.152 -0.1580 -0.8074 -0.5236
 1945SOL     OW17293   2.587   1.316  15.981 -0.5209  0.0321  0.0767
 1945SOL    HW117294   2.632   1.398  15.964 -0.4047 -0.1102 -0.3013
 1945SOL    HW217295   2.625   1.257  15.916  1.9747 -0.5609  2.0901
 1946SOL     OW17296   3.920   4.231   9.891 -0.3574 -0.0916 -0.5854
 1946SOL    HW117297   3.994   4.292   9.901  0.4383 -1.3041  0.8700
 1946SOL    HW217298   3.936   4.204   9.801  1.1276 -0.8029 -0.1078
 1947SOL     OW17299   3.166   3.573   3.799  0.6531 -0.5577  0.0598
 1947SOL    HW117300   3.223   3.645   3.825  0.5554 -1.1228  1.8879
 1947SOL    HW217301   3.175   3.513   3.874 -3.2247  0.6727  1.5067
 1948SOL     OW17302   4.653   4.038   3.895  0.2956 -0.3090  0.3284
 1948SOL    HW117303   4.559   4.057   3.893  0.3981 -0.0201 -1.9192
 1948SOL    HW217304   4.656   3.954   3.942  0.1014 -0.6147 -0.2047
 1949SOL     OW17305   2.668   3.758   4.622 -0.2301 -0.2252  0.4708
 1949SOL    HW117306   2.731   3.695   4.658  2.2021  1.5134 -0.7704
 1949SOL    HW217307   2.667   3.736   4.529 -1.4683 -2.4333  1.0012
 1950SOL     OW17308   3.977   3.566  12.024  0.1801  0.3654 -0.2167
 1950SOL    HW117309   4.049   3.597  11.968  0.6922 -0.9597 -0.2913
 1950SOL    HW217310   4.016   3.510  12.090 -0.2776 -0.4081 -0.6074
 1951SOL     OW17311   2.538   2.010  13.572  0.0864 -0.1268 -0.3022
 1951SOL    HW117312   2.630   1.983  13.563 -0.2281  0.4079 -5.4051
 1951SOL    HW217313   2.532   2.039  13.663 -0.1540 -1.1361  0.0021
 1952SOL     OW17314   1.742   1.473  10.267  0.0432  0.1323  0.4514
 1952SOL    HW117315   1.789   1.412  10.323  1.0483 -0.0655 -0.6002
 1952SOL    HW217316   1.649   1.448  10.263  0.5524 -1.6862 -0.2045
 1953SOL     OW17317   0.172   3.449   9.013  0.4620 -0.1612 -0.1876
 1953SOL    HW117318   0.264   3.471   8.998  1.2555 -1.6935  2.4451
 1953SOL    HW217319   0.185   3.355   9.000 -0.7279 -0.2132 -0.9816
 1954SOL     OW17320   3.617   1.763  13.352  0.1280  0.1987 -0.1763
 1954SOL    HW117321   3.551   1.786  13.417  1.4938 -0.5632  1.4846
 1954SOL    HW217322   3.677   1.836  13.370  0.5768 -0.0032 -0.8321
 1955SOL     OW17323   4.272   0.880   3.735 -0.3100 -0.1359 -0.3995
 1955SOL    HW117324   4.334   0.810   3.715  1.3579  1.1125  0.4053
 1955SOL    HW217325   4.186   0.839   3.730  0.3107 -1.3167 -1.3196
 1956SOL     OW17326   4.371   4.628   0.567  0.2785  0.1093  0.0344
 1956SOL    HW117327   4.449   4.640   0.620 -0.4824 -1.2749  1.4784
 1956SOL    HW217328   4.297   4.645   0.626  0.0642 -1.8065  0.3173
 1957SOL     OW17329   3.002   2.348   4.164 -0.3596 -0.3357  0.1839
 1957SOL    HW117330   2.935   2.386   4.107 -0.9191  0.0792  1.1144
 1957SOL    HW217331   2.990   2.256   4.142 -1.7466  0.1251 -0.9750
 1958SOL     OW17332   1.645   4.413  14.937 -0.4403 -0.1172 -0.2297
 1958SOL    HW117333   1.717   4.465  14.903 -1.2695  2.1129  1.4275
 1958SOL    HW217334   1.638   4.455  15.023  0.3585  2.3035 -1.3491
 1959SOL     OW17335   2.019   4.520   5.602  0.5313 -0.4190  0.3981
 1959SOL    HW117336   2.079   4.471   5.658  2.0698  2.2923  1.1181
 1959SOL    HW217337   1.959   4.450   5.577  1.6944 -0.9593 -0.8556
 1960SOL     OW17338   0.097   1.542   6.152 -0.3719  0.4800  0.3517
 1960SOL    HW117339   0.139   1.603   6.213 -0.5951 -3.2198  4.2490
 1960SOL    HW217340   0.169   1.504   6.102 -0.6251  1.0755 -0.4664
 1961SOL     OW17341   0.525   0.014  13.270  0.3088  0.1124 -0.0016
 1961SOL    HW117342   0.490   4.651  13.292 -1.8417  0.9361 -0.1643
 1961SOL    HW217343   0.502   0.023  13.177  0.8583  0.0027 -0.1447
 1962SOL     OW17344   2.303   4.580   5.049  0.1535  0.2727 -0.5257
 1962SOL    HW117345   2.239   4.646   5.075 -2.8567 -2.6700 -0.5217
 1962SOL    HW217346   2.281   4.512   5.112 -2.8032  2.2598  0.5688
 1963SOL     OW17347   1.823   3.963   2.989  0.6099  0.4456 -0.3180
 1963SOL    HW117348   1.750   3.983   2.931 -1.1311  2.2736  2.5234
 1963SOL    HW217349   1.894   3.986   2.929 -0.7027  3.0047 -0.8979
 1964SOL     OW17350   1.824   4.608  14.852  0.0799  0.0020 -0.3485
 1964SOL    HW117351   1.898   4.581  14.798  0.1356  2.4956 -1.5031
 1964SOL    HW217352   1.782   4.667  14.789 -1.2943  0.5644  1.0982
 1965SOL     OW17353   3.872   0.074   8.637  0.6483  0.1017 -0.0734
 1965SOL    HW117354   3.886   0.091   8.730  0.3274  2.7119 -0.4905
 1965SOL    HW217355   3.783   0.108   8.630  0.5005 -0.2000  0.3637
 1966SOL     OW17356   0.720   0.638   2.788  0.5057  0.3001  0.4084
 1966SOL    HW117357   0.725   0.729   2.759  0.6037  0.4415  0.8607
 1966SOL    HW217358   0.678   0.595   2.714  2.5292 -1.8501  0.4967
 1967SOL     OW17359   3.501   2.937   7.385 -0.3802  0.6130  0.2493
 1967SOL    HW117360   3.407   2.933   7.399 -0.5357  3.2883 -0.1085
 1967SOL    HW217361   3.542   2.913   7.468 -0.3223 -0.6278 -0.1380
 1968SOL     OW17362   1.932   3.579   7.770 -0.0599 -0.0077  0.1953
 1968SOL    HW117363   1.843   3.612   7.780 -0.0442  0.0426  0.1726
 1968SOL    HW217364   1.975   3.592   7.854 -0.3824 -0.4024  0.4191
 1969SOL     OW17365   3.260   2.417   6.873 -0.0606  0.4586 -0.0951
 1969SOL    HW117366   3.174   2.455   6.855 -0.1851  0.5133  0.6413
 1969SOL    HW217367   3.311   2.459   6.803 -1.1665  3.5405  0.9361
 1970SOL     OW17368   2.623   1.722  10.223  0.0645  0.1894 -0.2715
 1970SOL    HW117369   2.606   1.781  10.297 -0.1318  1.0692 -1.0239
 1970SOL    HW217370   2.588   1.774  10.151 -0.4726 -3.2407 -2.4963
 1971SOL     OW17371   0.797   2.605  12.143 -0.5126  0.1748  0.3138
 1971SOL    HW117372   0.748   2.547  12.085  0.0064 -2.8524  2.9357
 1971SOL    HW217373   0.856   2.642  12.077 -1.0563 -2.1970 -1.4743
 1972SOL     OW17374   4.529   1.897   4.969  0.1357  0.6609 -0.2276
 1972SOL    HW117375   4.515   1.809   4.933 -1.3130  0.2839  1.2672
 1972SOL    HW217376   4.620   1.922   4.953  0.5178 -1.3644 -1.2526
 1973SOL     OW17377   2.212   2.632   2.448  0.2351  0.0820  0.4028
 1973SOL    HW117378   2.229   2.657   2.357 -0.2702 -2.7866 -0.4736
 1973SOL    HW217379   2.284   2.678   2.491  0.7997 -0.3972 -0.0296
 1974SOL     OW17380   1.532   2.540  12.146  0.4440 -0.0673  0.2989
 1974SOL    HW117381   1.451   2.583  12.120  0.8195  0.6633  0.3562
 1974SOL    HW217382   1.584   2.609  12.187  0.4934  0.0331  0.0627
 1975SOL     OW17383   0.762   2.909   8.547  0.2845  0.3293  0.2907
 1975SOL    HW117384   0.818   2.986   8.557  3.3976 -1.9336  0.3627
 1975SOL    HW217385   0.815   2.853   8.490  0.8902  2.4132 -1.1872
 1976SOL     OW17386   1.283   0.964   7.620  0.5161  0.2087 -0.6484
 1976SOL    HW117387   1.316   0.879   7.652  0.4759  0.9079  1.2522
 1976SOL    HW217388   1.190   0.962   7.642  1.4044  1.0782  3.2876
 1977SOL     OW17389   1.157   2.810   5.999 -0.3102  0.5447  0.3788
 1977SOL    HW117390   1.128   2.868   5.929 -0.8498  1.9881  1.7981
 1977SOL    HW217391   1.190   2.736   5.949 -1.8944 -0.9731  1.6064
 1978SOL     OW17392   3.835   2.217   0.479 -0.0025 -0.2895 -0.0335
 1978SOL    HW117393   3.864   2.126   0.469 -0.4969 -0.3097 -1.3086
 1978SOL    HW217394   3.891   2.244   0.552 -0.7045 -0.0661  0.4255
 1979SOL     OW17395   1.305   0.581   2.178  0.6766 -0.0517 -0.4657
 1979SOL    HW117396   1.301   0.602   2.084  0.0414  0.1933 -0.3881
 1979SOL    HW217397   1.399   0.565   2.187  0.9341  1.8283  0.0762
 1980SOL     OW17398   1.304   1.465   6.287  0.0890 -0.0007 -0.0689
 1980SOL    HW117399   1.389   1.502   6.310 -0.8162  0.7696  2.0379
 1980SOL    HW217400   1.276   1.535   6.228  1.9265  0.6384 -0.1955
 1981SOL     OW17401   2.785   0.973   2.193 -0.3849  0.3128 -0.2714
 1981SOL    HW117402   2.746   1.058   2.175 -1.8220 -0.1309  0.7831
 1981SOL    HW217403   2.720   0.939   2.254  2.0029 -0.9183  1.6212
 1982SOL     OW17404   3.407   3.634   8.660  0.2951  1.3235 -0.4280
 1982SOL    HW117405   3.459   3.677   8.593 -0.5471 -0.0930 -2.0158
 1982SOL    HW217406   3.340   3.590   8.607 -0.3132  0.4958  1.0149
 1983SOL     OW17407   2.720   2.298   3.792  0.3570 -0.3407  0.2298
 1983SOL    HW117408   2.678   2.371   3.838 -4.0097 -1.9803 -1.1081
 1983SOL    HW217409   2.759   2.242   3.858  0.4015 -0.9791 -0.3382
 1984SOL     OW17410   2.706   0.160   2.605  0.2458  0.3476  0.3162
 1984SOL    HW117411   2.743   0.243   2.576 -0.2860  0.7761  0.8752
 1984SOL    HW217412   2.768   0.103   2.560  1.1363  1.0770  0.6147
 1985SOL     OW17413   1.093   2.732   7.036  0.0932  0.4871 -0.1100
 1985SOL    HW117414   1.154   2.799   7.067  1.6698 -1.7912  1.7758
 1985SOL    HW217415   1.122   2.659   7.091 -1.0822 -0.1321 -0.3268
 1986SOL     OW17416   0.431   3.390   3.612 -0.0103  0.0826 -0.8149
 1986SOL    HW117417   0.340   3.368   3.589  0.8163 -3.1139 -0.9343
 1986SOL    HW217418   0.454   3.303   3.644 -1.3765  0.7950  2.0615
 1987SOL     OW17419   3.348   2.746   0.700 -0.3072 -0.4535 -0.4440
 1987SOL    HW117420   3.281   2.731   0.633  0.7909 -0.9838 -1.4242
 1987SOL    HW217421   3.284   2.761   0.770  0.7377 -0.7288  0.5630
 1988SOL     OW17422   3.320   3.547   0.112 -0.3284  0.6703 -0.6223
 1988SOL    HW117423   3.298   3.632   0.149 -3.1189 -0.0676 -0.6268
 1988SOL    HW217424   3.411   3.551   0.141  0.2217 -1.6160 -1.9563
 1989SOL     OW17425   3.516   1.738   8.200  0.4898 -0.6806 -0.6524
 1989SOL    HW117426   3.588   1.797   8.225 -1.0833  2.8171 -4.3930
 1989SOL    HW217427   3.465   1.780   8.131 -0.5357  0.7512  0.9891
 1990SOL     OW17428   0.367   3.244   8.742  0.1726 -0.7906 -0.2676
 1990SOL    HW117429   0.417   3.202   8.812 -0.9234  1.1844  1.6913
 1990SOL    HW217430   0.416   3.326   8.728  0.1625 -0.6788  0.3338
 1991SOL     OW17431   0.233   1.458  10.996 -0.6047  0.3668 -0.2531
 1991SOL    HW117432   0.269   1.418  11.076 -2.1458  1.6636  1.0839
 1991SOL    HW217433   0.234   1.385  10.934 -1.2410 -1.7600  2.2192
 1992SOL     OW17434   0.079   0.738   5.720  0.8072 -0.2392 -0.0837
 1992SOL    HW117435   0.046   0.674   5.782  3.0876 -2.5193 -1.1969
 1992SOL    HW217436   0.023   0.815   5.727 -0.6084 -1.4506  1.8086
 1993SOL     OW17437   0.484   4.055  10.484  0.0475  0.2585 -0.1275
 1993SOL    HW117438   0.497   4.095  10.398  0.4629  0.8046  0.1951
 1993SOL    HW217439   0.532   3.973  10.478 -0.7269 -0.3068  1.2514
 1994SOL     OW17440   4.643   0.479   0.167  0.1661 -0.1648 -0.1159
 1994SOL    HW117441   4.683   0.562   0.192  1.0922 -0.6234 -0.0616
 1994SOL    HW217442   4.636   0.445   0.256 -0.9763 -1.0227 -0.5241
 1995SOL     OW17443   3.577   3.885   7.558  0.2066  0.2424  0.1637
 1995SOL    HW117444   3.611   3.880   7.647  2.0020 -0.4649 -0.5728
 1995SOL    HW217445   3.537   3.798   7.547 -1.1504  0.7717  0.8419
 1996SOL     OW17446   4.616   3.310  16.381 -0.0915 -0.1068  0.2607
 1996SOL    HW117447   4.594   3.240  16.443 -0.1065 -0.7614 -0.4824
 1996SOL    HW217448   4.679   3.271  16.321 -1.2019 -0.7379 -0.4962
 1997SOL     OW17449   2.310   1.268  14.504 -0.1550 -0.2988  0.2342
 1997SOL    HW117450   2.305   1.312  14.419 -2.7457 -2.8096 -0.9332
 1997SOL    HW217451   2.227   1.293  14.543  0.8803 -0.7521  2.7226
 1998SOL     OW17452   3.193   2.535   6.246  0.3564  0.7853 -0.3244
 1998SOL    HW117453   3.232   2.599   6.306 -3.0353 -0.1111  2.8356
 1998SOL    HW217454   3.136   2.477   6.296  0.8520  0.1473 -0.4941
 1999SOL     OW17455   1.865   4.009   7.001  0.5174 -0.3374  0.0151
 1999SOL    HW117456   1.936   4.073   7.005 -0.0828  0.2631  0.9935
 1999SOL    HW217457   1.791   4.064   6.972  1.7353  1.6415  0.6488
 2000SOL     OW17458   4.068   1.613   3.742 -0.1126 -0.1220  0.1697
 2000SOL    HW117459   4.156   1.589   3.773  0.4189 -0.1620 -1.3711
 2000SOL    HW217460   4.095   1.674   3.673 -0.0138 -1.3944 -0.9282
 2001SOL     OW17461   1.594   3.978   2.830 -0.0446  0.3483  0.0396
 2001SOL    HW117462   1.568   3.984   2.739  0.3458 -0.6882 -0.1468
 2001SOL    HW217463   1.635   3.893   2.813 -0.8310 -0.1880  0.8098
 2002SOL     OW17464   3.333   3.052   8.564 -0.0053  0.0507  0.0554
 2002SOL    HW117465   3.376   3.123   8.515  0.2704  1.5322  2.4187
 2002SOL    HW217466   3.400   2.983   8.565 -0.7299 -0.6505 -0.1092
 2003SOL     OW17467   4.673   1.402   0.479  0.1618  0.1422  0.2747
 2003SOL    HW117468   4.584   1.399   0.443  0.5314 -0.0719 -0.6204
 2003SOL    HW217469   4.689   1.496   0.471 -0.9795  0.0723 -2.5500
 2004SOL     OW17470   2.646   1.035  16.513  0.7737 -0.3038  0.1776
 2004SOL    HW117471   2.557   1.061  16.537  0.8935 -1.3106  1.7346
 2004SOL    HW217472   2.662   0.957  16.565  0.5563 -0.2520  0.3223
 2005SOL     OW17473   0.462   3.647   1.765  0.0527 -0.5835  0.4614
 2005SOL    HW117474   0.515   3.654   1.844  0.7136 -0.4458  0.0095
 2005SOL    HW217475   0.519   3.608   1.698 -2.1196 -0.0004 -1.7078
 2006SOL     OW17476   4.628   1.499   8.170  0.6127  0.1853  0.6659
 2006SOL    HW117477   4.668   1.583   8.150  2.4382 -1.1763 -1.4002
 2006SOL    HW217478   4.706   1.447   8.153 -0.1409 -0.1551 -1.7861
 2007SOL     OW17479   1.655   0.991   6.636  0.5333 -0.4268  0.3840
 2007SOL    HW117480   1.696   1.018   6.718  1.3450  0.4785 -0.3278
 2007SOL    HW217481   1.721   0.939   6.590 -2.5500 -2.9163 -1.2393
 2008SOL     OW17482   1.542   1.623  12.234  0.6450 -0.5794 -0.4290
 2008SOL    HW117483   1.604   1.692  12.255  0.6873 -0.7418 -0.0163
 2008SOL    HW217484   1.564   1.592  12.146 -1.6991 -1.3863 -0.7335
 2009SOL     OW17485   0.919   3.305  15.767  0.4350 -0.4037  0.1901
 2009SOL    HW117486   0.887   3.255  15.842 -0.0560 -1.5728 -0.8007
 2009SOL    HW217487   0.898   3.392  15.800 -0.8446 -0.4876 -0.3787
 2010SOL     OW17488   0.661   0.370   5.852  0.0791 -0.1258 -0.2548
 2010SOL    HW117489   0.752   0.342   5.848 -0.5602 -2.2368  0.0441
 2010SOL    HW217490   0.673   0.461   5.880  1.9719 -0.6915  0.8196
 2011SOL     OW17491   1.001   3.993  14.151 -0.4522 -0.1600 -0.4133
 2011SOL    HW117492   0.992   3.985  14.246  1.5337  1.1546 -0.1329
 2011SOL    HW217493   0.927   3.942  14.117  0.3637 -1.0120 -0.9181
 2012SOL     OW17494   4.721   1.399  11.794 -0.2933  0.8904  0.1220
 2012SOL    HW117495   0.044   1.332  11.844  0.2315  0.1172 -1.4015
 2012SOL    HW217496   0.077   1.428  11.749  0.3611 -2.5416 -0.8945
 2013SOL     OW17497   1.746   2.874   3.545 -0.1564 -0.2007 -0.1589
 2013SOL    HW117498   1.655   2.899   3.530 -0.0175  0.6602  0.5034
 2013SOL    HW217499   1.797   2.944   3.505  0.4160  0.0782  1.0678
 2014SOL     OW17500   4.646   1.668   3.230 -0.1166  0.3966  0.0874
 2014SOL    HW117501   4.635   1.746   3.284  2.1651  1.2196 -0.6542
 2014SOL    HW217502   4.711   1.614   3.276  2.3557  1.4974 -2.1660
 2015SOL     OW17503   0.697   0.408  17.351  0.0088 -0.2225  0.4643
 2015SOL    HW117504   0.672   0.322  17.317  1.7660  0.0637 -1.5510
 2015SOL    HW217505   0.619   0.463  17.340  1.5663  2.1622  1.4456
 2016SOL     OW17506   1.946   2.653   3.585  0.0802 -0.1306 -0.7512
 2016SOL    HW117507   1.927   2.602   3.663 -0.7263 -1.9060 -2.1174
 2016SOL    HW217508   1.868   2.708   3.578 -0.8094 -1.6471 -2.7035
 2017SOL     OW17509   1.271   2.298   1.513 -0.3840 -0.1949 -0.6342
 2017SOL    HW117510   1.202   2.349   1.472  0.8019  0.2293 -2.1397
 2017SOL    HW217511   1.349   2.349   1.489 -0.3139  0.1451  0.3358
 2018SOL     OW17512   0.315   1.644  10.253 -0.3812  0.5853  1.0065
 2018SOL    HW117513   0.324   1.694  10.334  0.8878  1.1266  0.5357
 2018SOL    HW217514   0.402   1.662  10.216  0.3823 -0.8230  2.0810
 2019SOL     OW17515   2.766   4.682   2.181 -0.1053  0.4516 -0.1991
 2019SOL    HW117516   2.747   4.669   2.088  0.5621  0.3099 -0.3164
 2019SOL    HW217517   2.816   4.604   2.206 -0.9021  0.3206  0.9425
 2020SOL     OW17518   3.034   2.000   6.147  0.0854 -0.7979 -0.7842
 2020SOL    HW117519   2.971   1.947   6.098 -1.8257 -1.5398  2.4801
 2020SOL    HW217520   3.003   2.088   6.126 -0.6406 -0.8430  0.0933
 2021SOL     OW17521   3.120   3.489   7.587 -0.5284 -0.4966  0.2646
 2021SOL    HW117522   3.174   3.476   7.510  0.2334 -1.5014  0.9686
 2021SOL    HW217523   3.151   3.578   7.603 -0.5558  0.0420 -2.6828
 2022SOL     OW17524   3.517   1.646  13.620 -0.1843  0.0139  0.2522
 2022SOL    HW117525   3.488   1.564  13.581 -3.0576  1.4399 -0.5697
 2022SOL    HW217526   3.452   1.701  13.577 -0.5167 -1.0062 -0.5462
 2023SOL     OW17527   3.490   0.707   6.235  0.0726  0.0852 -0.1183
 2023SOL    HW117528   3.489   0.799   6.261 -0.1202 -0.0380  0.3176
 2023SOL    HW217529   3.400   0.698   6.204  0.0418 -0.6649  0.1874
 2024SOL     OW17530   2.864   2.159   5.721 -0.1503 -0.0250  0.2311
 2024SOL    HW117531   2.823   2.196   5.643  0.8480 -1.2887 -0.8946
 2024SOL    HW217532   2.820   2.214   5.787  0.8934  1.4364 -0.2935
 2025SOL     OW17533   4.024   1.537   7.381 -0.1368 -0.0271  0.0917
 2025SOL    HW117534   4.062   1.579   7.304 -0.1619 -0.3168 -0.0768
 2025SOL    HW217535   3.933   1.545   7.353  0.0289  0.8661 -0.1822
 2026SOL     OW17536   3.591   3.432  11.104 -0.4055 -0.3204 -0.3672
 2026SOL    HW117537   3.640   3.513  11.093  1.2960 -0.7700  3.6425
 2026SOL    HW217538   3.593   3.435  11.200 -0.7132 -0.8143 -0.3473
 2027SOL     OW17539   4.232   2.754   0.100  0.4031 -0.3445 -0.3223
 2027SOL    HW117540   4.253   2.681   0.043  0.6094 -1.3816  1.0902
 2027SOL    HW217541   4.148   2.773   0.058  0.7426 -0.5379 -1.0769
 2028SOL     OW17542   1.295   1.521   4.916 -0.3482 -0.6260  0.6242
 2028SOL    HW117543   1.386   1.513   4.943 -0.3591  0.1581  0.8893
 2028SOL    HW217544   1.300   1.606   4.871  0.4276  0.2039  2.2744
 2029SOL     OW17545   0.416   1.868  15.957 -0.6996  0.5685 -0.3925
 2029SOL    HW117546   0.464   1.830  15.884  0.3502  2.9836 -0.9570
 2029SOL    HW217547   0.342   1.808  15.949  0.2084 -1.1053  3.6700
 2030SOL     OW17548   2.941   4.283   9.678 -0.0746 -0.2236 -0.3601
 2030SOL    HW117549   2.939   4.374   9.708  2.1227 -0.2711 -0.0422
 2030SOL    HW217550   2.850   4.254   9.688  0.2012 -0.0409  2.7739
 2031SOL     OW17551   1.342   3.219   3.951 -0.8007 -0.4302 -0.0919
 2031SOL    HW117552   1.280   3.239   4.022  0.7748  1.1701  0.8321
 2031SOL    HW217553   1.292   3.212   3.870 -0.9260 -1.9509  0.1233
 2032SOL     OW17554   3.123   1.511  13.460 -0.7353  0.5728 -0.3697
 2032SOL    HW117555   3.138   1.461  13.540 -0.4822  0.2689 -0.6065
 2032SOL    HW217556   3.039   1.554  13.478 -0.2137  1.4446 -0.0361
 2033SOL     OW17557   1.501   1.016  11.638  0.3241  0.0931  0.1760
 2033SOL    HW117558   1.572   0.961  11.671 -1.0994 -1.0758  1.2875
 2033SOL    HW217559   1.536   1.030  11.549 -1.2225  2.5431 -0.0483
 2034SOL     OW17560   0.512   1.707   9.436 -0.3063 -0.1444  0.2841
 2034SOL    HW117561   0.586   1.650   9.457 -0.0065 -0.1776 -0.8626
 2034SOL    HW217562   0.482   1.730   9.524  3.3725 -0.1877  1.5678
 2035SOL     OW17563   2.188   4.100   5.316 -0.9480  0.4645  0.1941
 2035SOL    HW117564   2.268   4.088   5.368 -2.7469 -0.3849  2.8040
 2035SOL    HW217565   2.123   4.059   5.373 -0.6885  1.9026  1.5574
 2036SOL     OW17566   1.677   1.536   3.198  0.3789  0.5276 -0.0250
 2036SOL    HW117567   1.692   1.455   3.148  0.9229  0.1971  0.6751
 2036SOL    HW217568   1.767   1.570   3.195  1.0365 -1.2703 -0.6858
 2037SOL     OW17569   2.202   2.618  12.309  0.6555 -0.3270  0.1606
 2037SOL    HW117570   2.212   2.654  12.396 -2.0546  2.4599 -0.6909
 2037SOL    HW217571   2.234   2.691  12.256 -1.0159  1.8209  2.1114
 2038SOL     OW17572   0.162   1.400   1.413 -0.3882  0.0907 -0.0066
 2038SOL    HW117573   0.070   1.376   1.421 -0.2214 -0.5807 -0.0985
 2038SOL    HW217574   0.195   1.315   1.385  0.1107  0.7523 -1.4395
 2039SOL     OW17575   2.346   2.037  11.799 -0.5367 -0.0753  0.2630
 2039SOL    HW117576   2.417   2.080  11.753 -1.4445  2.1231  0.9148
 2039SOL    HW217577   2.392   1.956  11.822 -0.6103 -0.4140 -0.8065
 2040SOL     OW17578   3.345   3.513  10.862 -0.0922  0.3915  0.2164
 2040SOL    HW117579   3.298   3.437  10.829  0.8985 -0.1924  0.1354
 2040SOL    HW217580   3.401   3.551  10.794 -1.7424 -0.5177 -1.6490
 2041SOL     OW17581   4.059   1.373  10.010  0.1149  0.8604  0.2095
 2041SOL    HW117582   4.152   1.351  10.017  0.6552  2.6612 -1.4957
 2041SOL    HW217583   4.035   1.320   9.934 -2.3282  1.0381  0.8579
 2042SOL     OW17584   4.263   0.688  16.358  0.7637  0.5644  0.0395
 2042SOL    HW117585   4.297   0.778  16.364  4.9013 -1.1604  2.4728
 2042SOL    HW217586   4.192   0.689  16.294  1.3082  0.6418 -0.5681
 2043SOL     OW17587   2.387   1.120   0.050 -0.2020 -0.5090 -0.1478
 2043SOL    HW117588   2.378   1.179   0.125 -1.2057  0.0205 -0.6866
 2043SOL    HW217589   2.471   1.076   0.061 -0.3709 -0.7719  0.0800
 2044SOL     OW17590   1.202   2.875  17.199  1.2342 -0.1664  0.3823
 2044SOL    HW117591   1.284   2.897  17.242  0.5652  2.2088  0.4146
 2044SOL    HW217592   1.168   2.840  17.282  2.5046  0.0246  0.9782
 2045SOL     OW17593   0.598   0.515   4.129 -0.1160 -0.2365 -0.2975
 2045SOL    HW117594   0.599   0.609   4.112 -0.4901 -0.0550  0.7479
 2045SOL    HW217595   0.563   0.508   4.217 -0.4616  1.3405 -0.3123
 2046SOL     OW17596   0.570   2.838  11.425  0.2277  0.0368  0.2728
 2046SOL    HW117597   0.504   2.877  11.484  0.4147 -0.0791  0.5554
 2046SOL    HW217598   0.525   2.853  11.342  0.8419 -0.4322 -0.1371
 2047SOL     OW17599   1.434   2.186   8.322 -0.2509 -0.0353 -0.1843
 2047SOL    HW117600   1.478   2.220   8.400 -0.4263  2.4957 -1.1916
 2047SOL    HW217601   1.383   2.263   8.297  0.4473  0.6378  0.4700
 2048SOL     OW17602   4.521   1.028   4.726 -0.1172  0.1687 -0.2438
 2048SOL    HW117603   4.595   0.968   4.721 -1.1851 -1.1175 -0.6972
 2048SOL    HW217604   4.506   1.027   4.821 -0.1674  3.0413 -0.2114
 2049SOL     OW17605   3.536   3.123   9.204  0.6652 -0.1418  0.2894
 2049SOL    HW117606   3.587   3.204   9.209  0.4765  0.0839 -1.3483
 2049SOL    HW217607   3.528   3.110   9.109 -0.4691 -2.2297  0.6558
 2050SOL     OW17608   2.990   1.420   5.389 -0.0146  0.4308  0.8858
 2050SOL    HW117609   3.058   1.421   5.322 -0.2267 -1.9453  0.6366
 2050SOL    HW217610   2.955   1.509   5.384  1.4516  1.0018  0.7178
 2051SOL     OW17611   1.443   2.171   2.015  0.7780  0.1003 -0.1411
 2051SOL    HW117612   1.393   2.216   1.946  1.8688 -1.8391 -2.1941
 2051SOL    HW217613   1.388   2.171   2.093 -1.7474  3.1024 -1.9003
 2052SOL     OW17614   1.036   3.426   5.902  0.4948 -0.7581 -0.1611
 2052SOL    HW117615   1.018   3.333   5.894  0.0854 -0.6885 -0.0679
 2052SOL    HW217616   1.106   3.421   5.967  2.0303  1.3653 -1.6376
 2053SOL     OW17617   4.511   4.494  11.643 -0.0403 -0.5834  0.4542
 2053SOL    HW117618   4.509   4.580  11.602 -1.3284 -0.7854  0.0808
 2053SOL    HW217619   4.419   4.487  11.672  0.3081  2.1127  2.1386
 2054SOL     OW17620   2.742   0.857   7.263 -0.3754 -0.2037  0.1187
 2054SOL    HW117621   2.744   0.763   7.250 -4.4688 -0.0823 -1.3670
 2054SOL    HW217622   2.780   0.857   7.351  1.3966 -0.7403 -0.6578
 2055SOL     OW17623   0.733   1.211   0.453 -0.3460 -0.5147 -0.8122
 2055SOL    HW117624   0.681   1.290   0.464 -0.7637 -0.7854 -0.8490
 2055SOL    HW217625   0.821   1.249   0.448  0.1555 -1.5217  0.1284
 2056SOL     OW17626   0.487   2.608   6.939 -0.4998 -0.4056  0.0295
 2056SOL    HW117627   0.551   2.674   6.965  0.5698 -0.9941 -1.0975
 2056SOL    HW217628   0.465   2.641   6.852 -0.7261 -1.5819 -0.3610
 2057SOL     OW17629   2.089   0.301   3.926 -0.0580  0.1686 -0.8754
 2057SOL    HW117630   2.036   0.368   3.969  0.9357 -0.9341  2.0557
 2057SOL    HW217631   2.034   0.284   3.850 -1.3263  1.3354 -0.2322
 2058SOL     OW17632   2.959   4.580  16.811  0.0783  0.1272 -0.0405
 2058SOL    HW117633   2.983   4.575  16.904 -0.5934 -0.8440  0.0767
 2058SOL    HW217634   3.022   4.648  16.786 -1.4395  1.7313  0.4358
 2059SOL     OW17635   3.061   2.240   3.528  0.7856 -0.3946 -0.2311
 2059SOL    HW117636   2.990   2.304   3.533  1.9611  0.8164  1.0666
 2059SOL    HW217637   3.103   2.246   3.614  1.7877  2.3283 -0.9150
 2060SOL     OW17638   2.440   1.001   6.444  0.3012  0.4211 -0.1526
 2060SOL    HW117639   2.478   1.009   6.356  2.4968 -2.6579  0.5371
 2060SOL    HW217640   2.348   0.975   6.432  0.4235  0.6070 -1.5702
 2061SOL     OW17641   2.814   2.147   7.567  0.3094 -0.2254  0.2023
 2061SOL    HW117642   2.812   2.165   7.661 -2.0911 -1.0962  0.3390
 2061SOL    HW217643   2.849   2.058   7.561  3.7944  1.1219  0.6622
 2062SOL     OW17644   1.747   1.171   5.402 -0.1293  0.1661  0.3279
 2062SOL    HW117645   1.662   1.136   5.428  0.4806 -0.2939  1.7039
 2062SOL    HW217646   1.718   1.262   5.402  0.7687  0.4344 -2.0341
 2063SOL     OW17647   1.601   2.112  14.971  0.2414  0.2625  0.3565
 2063SOL    HW117648   1.631   2.075  14.888 -1.1467 -0.5920  0.2468
 2063SOL    HW217649   1.599   2.206  14.952  1.5571  0.3930  0.8509
 2064SOL     OW17650   1.201   0.801   2.372  0.0679 -0.0161 -0.7835
 2064SOL    HW117651   1.287   0.838   2.352  0.5787 -1.7463 -1.8112
 2064SOL    HW217652   1.219   0.710   2.350  0.5401 -0.1956  0.3365
 2065SOL     OW17653   1.988   1.261  16.182 -0.1644 -0.3213 -0.2936
 2065SOL    HW117654   2.020   1.347  16.209 -0.1295 -0.2618 -0.5280
 2065SOL    HW217655   2.013   1.250  16.090  2.2390 -0.0306  0.3293
 2066SOL     OW17656   0.690   0.580   6.286  0.8420 -0.7847  0.1324
 2066SOL    HW117657   0.650   0.635   6.353  0.8782  0.3972 -0.8201
 2066SOL    HW217658   0.728   0.649   6.230  2.7574 -1.2716  0.8270
 2067SOL     OW17659   4.675   3.745   4.002 -0.3632  0.3631 -0.7370
 2067SOL    HW117660   4.677   3.663   4.050  0.0552  0.6293 -0.2985
 2067SOL    HW217661   4.594   3.731   3.953 -0.4482  0.5391 -0.6471
 2068SOL     OW17662   2.969   1.032  16.304 -0.6931 -0.1595  0.0278
 2068SOL    HW117663   2.980   0.993  16.391 -1.0301 -2.5891 -1.0282
 2068SOL    HW217664   2.878   1.063  16.307 -0.7677 -0.3366 -0.4718
 2069SOL     OW17665   4.690   1.160   1.105 -0.2062 -1.1324  0.6226
 2069SOL    HW117666   0.035   1.157   1.038 -0.0512  0.4132  0.7222
 2069SOL    HW217667   4.689   1.247   1.144  0.6899 -0.7240 -0.2676
 2070SOL     OW17668   1.701   1.761   3.892 -0.2811 -0.5632 -0.2882
 2070SOL    HW117669   1.656   1.677   3.880 -1.3738 -0.1065  0.6317
 2070SOL    HW217670   1.709   1.785   3.800  0.0164  0.9201  0.1306
 2071SOL     OW17671   0.932   3.241   9.988 -0.2352 -0.1943 -0.4265
 2071SOL    HW117672   0.890   3.161  10.020 -1.4291  1.3050  1.7595
 2071SOL    HW217673   0.864   3.300  10.022 -1.9458 -2.1929 -0.4079
 2072SOL     OW17674   1.395   2.874   6.127  0.0343 -0.7844  0.2696
 2072SOL    HW117675   1.400   2.825   6.208 -0.3244 -0.6756  0.3575
 2072SOL    HW217676   1.309   2.850   6.093  0.1543  0.9046 -1.2533
 2073SOL     OW17677   2.103   1.834   6.299  0.3589  0.2945 -0.1776
 2073SOL    HW117678   2.165   1.762   6.289 -1.5848 -1.2076 -1.3238
 2073SOL    HW217679   2.153   1.908   6.265 -0.2103  1.3462  1.2511
 2074SOL     OW17680   1.203   2.130   8.626 -0.3616  0.2680 -0.1253
 2074SOL    HW117681   1.193   2.058   8.688  2.9414  0.3660  0.5296
 2074SOL    HW217682   1.125   2.182   8.641  0.1969  0.8522  0.7639
 2075SOL     OW17683   2.560   4.357   5.072 -0.2739 -0.4568  0.1551
 2075SOL    HW117684   2.590   4.281   5.022  1.2584  0.4328 -0.2813
 2075SOL    HW217685   2.509   4.397   5.002  0.9993  0.2701 -0.3548
 2076SOL     OW17686   0.536   0.380   3.252  0.3573 -0.2410 -0.8089
 2076SOL    HW117687   0.498   0.358   3.337 -0.0458 -1.6716 -1.3685
 2076SOL    HW217688   0.500   0.316   3.191  1.4166 -2.6021  1.0328
 2077SOL     OW17689   1.949   1.407  15.831  0.3018 -0.3792 -0.8861
 2077SOL    HW117690   1.931   1.499  15.848 -1.5049 -1.0413  0.6760
 2077SOL    HW217691   1.876   1.354  15.863  0.5728 -0.2038  0.0198
 2078SOL     OW17692   2.236   0.225   4.975  0.4077 -0.0765 -0.0558
 2078SOL    HW117693   2.256   0.147   4.923  1.4965  0.1068  0.0726
 2078SOL    HW217694   2.201   0.179   5.050  1.7499  1.2913  1.4254
 2079SOL     OW17695   1.083   4.390  11.310 -0.4468 -0.6749  0.3500
 2079SOL    HW117696   1.134   4.330  11.363  1.3530 -0.2280 -0.8948
 2079SOL    HW217697   1.021   4.328  11.271  0.4917 -1.1061 -0.4520
 2080SOL     OW17698   1.895   1.175   0.563 -1.0464 -0.0617 -0.3906
 2080SOL    HW117699   1.842   1.230   0.621  0.7492  0.8815  0.3459
 2080SOL    HW217700   1.846   1.168   0.482 -0.0595 -1.0374 -0.9080
 2081SOL     OW17701   2.022   2.698  10.014 -0.2473  0.0282  1.1047
 2081SOL    HW117702   1.972   2.656  10.084  0.2075 -1.6100  0.4422
 2081SOL    HW217703   1.968   2.682   9.936  3.5331  1.7398 -1.8341
 2082SOL     OW17704   4.337   1.675   3.045 -0.4070  0.3057 -0.1955
 2082SOL    HW117705   4.286   1.756   3.051  0.2906  0.8132 -1.2196
 2082SOL    HW217706   4.391   1.691   2.968 -0.0663 -0.5832 -0.1392
 2083SOL     OW17707   0.775   3.639   3.586 -0.0923 -0.1418  0.0721
 2083SOL    HW117708   0.865   3.671   3.582 -0.0812 -0.2997 -1.0463
 2083SOL    HW217709   0.731   3.670   3.507  2.7994 -0.2195 -1.5801
 2084SOL     OW17710   1.948   3.830  16.311 -0.5326  0.7369 -0.0743
 2084SOL    HW117711   1.868   3.791  16.277 -0.4887  1.3274 -0.8695
 2084SOL    HW217712   1.943   3.816  16.405 -1.1871 -1.5265 -0.4461
 2085SOL     OW17713   3.008   0.571   2.534 -0.5576  0.0967 -0.2099
 2085SOL    HW117714   3.089   0.527   2.560 -0.3701  0.7349  0.3102
 2085SOL    HW217715   2.990   0.622   2.614 -0.6201  0.8883 -0.7292
 2086SOL     OW17716   2.436   4.042   5.429  0.0105  0.6103 -0.4300
 2086SOL    HW117717   2.509   3.997   5.386  0.0583  0.3481 -0.0786
 2086SOL    HW217718   2.466   4.039   5.520 -0.3397  2.0791 -0.2590
 2087SOL     OW17719   2.535   2.050  10.148 -0.0923 -0.5299 -1.1216
 2087SOL    HW117720   2.468   1.998  10.192  1.1719  0.7369  2.3423
 2087SOL    HW217721   2.562   1.983  10.085 -1.3049 -1.5349 -0.5769
 2088SOL     OW17722   2.940   4.285   3.341 -0.0714 -0.0980 -0.3128
 2088SOL    HW117723   3.019   4.249   3.381  0.4098  0.8631 -0.4164
 2088SOL    HW217724   2.963   4.371   3.307  0.3878  0.3299  1.1055
 2089SOL     OW17725   2.247   0.317   2.337 -0.2436  0.0490  0.2554
 2089SOL    HW117726   2.189   0.263   2.391 -2.3183 -0.8251 -2.8599
 2089SOL    HW217727   2.222   0.292   2.248  2.4570 -2.7945  0.3032
 2090SOL     OW17728   2.801   2.142   3.987  0.4842  0.5984 -0.6424
 2090SOL    HW117729   2.878   2.099   4.026 -0.9953 -0.9917  0.5231
 2090SOL    HW217730   2.730   2.134   4.050  0.7281 -0.7557 -0.5314
 2091SOL     OW17731   3.099   0.954   8.690  0.4748  0.4112 -0.0484
 2091SOL    HW117732   3.113   1.012   8.764  1.4350  0.8950 -0.5979
 2091SOL    HW217733   3.107   1.022   8.623  3.4384 -0.0222 -0.1602
 2092SOL     OW17734   0.974   2.631  13.353  0.0379 -0.2148 -0.1098
 2092SOL    HW117735   0.997   2.634  13.446  1.0584  0.6901 -0.4107
 2092SOL    HW217736   1.039   2.678  13.302 -0.3910  0.3386 -0.1521
 2093SOL     OW17737   0.818   0.621   9.397 -0.0662 -0.4903  0.2345
 2093SOL    HW117738   0.756   0.646   9.465 -0.7846 -2.5818  0.3691
 2093SOL    HW217739   0.890   0.593   9.454  1.3284  1.4800 -0.5557
 2094SOL     OW17740   3.816   0.485   0.955 -0.1065 -0.0815 -0.0325
 2094SOL    HW117741   3.857   0.444   1.031 -1.8574  0.5205  1.2265
 2094SOL    HW217742   3.891   0.526   0.911 -0.1232 -0.0784 -0.0583
 2095SOL     OW17743   2.413   0.911   0.575  0.0165  0.2069 -0.4553
 2095SOL    HW117744   2.341   0.969   0.601  0.7870 -0.2023  2.5347
 2095SOL    HW217745   2.422   0.862   0.656  0.1195  0.0389 -0.5683
 2096SOL     OW17746   0.153   2.713   4.267  0.1205 -0.2022 -0.5864
 2096SOL    HW117747   0.246   2.722   4.289  0.3123  0.6123 -1.7485
 2096SOL    HW217748   0.144   2.623   4.235  0.7283 -0.7977  0.9163
 2097SOL     OW17749   0.324   4.686   8.563  0.0948  0.3775 -0.5214
 2097SOL    HW117750   0.366   0.033   8.613  0.5635 -0.3286  0.0803
 2097SOL    HW217751   0.247   4.681   8.620 -0.1246  0.8733 -0.7761
 2098SOL     OW17752   1.772   1.170   7.509 -0.3568 -0.3869  0.3948
 2098SOL    HW117753   1.773   1.105   7.439 -2.4664  0.5188 -0.4967
 2098SOL    HW217754   1.679   1.166   7.531 -0.3003  2.4094  1.1593
 2099SOL     OW17755   2.912   0.139   5.889 -0.5506 -0.2131 -0.1812
 2099SOL    HW117756   2.992   0.188   5.908 -0.8214  0.3206 -0.4472
 2099SOL    HW217757   2.947   0.084   5.818  1.4401  1.0504 -0.1875
 2100SOL     OW17758   0.129   2.920  15.020  0.3457  0.0102  0.1032
 2100SOL    HW117759   0.216   2.882  15.030 -0.0365 -0.8320  0.1829
 2100SOL    HW217760   0.073   2.843  15.020 -0.5334  0.6414 -1.3190
 2101SOL     OW17761   3.328   2.451   0.670 -0.0344  0.0283 -0.3454
 2101SOL    HW117762   3.375   2.508   0.730  0.9773 -2.0796  0.8711
 2101SOL    HW217763   3.246   2.501   0.674 -0.2767 -0.3103 -0.9963
 2102SOL     OW17764   1.503   0.059   6.600  0.1552  0.0868  0.0136
 2102SOL    HW117765   1.418   0.016   6.593 -1.0150  2.3848  0.1740
 2102SOL    HW217766   1.506   0.082   6.692 -0.3410  1.1998 -0.2448
 2103SOL     OW17767   4.630   0.239   6.611  0.6927  0.5741 -0.7077
 2103SOL    HW117768   4.618   0.326   6.649 -2.9739 -0.4028  0.4534
 2103SOL    HW217769   4.581   0.248   6.530  0.2726 -1.2706 -0.6659
 2104SOL     OW17770   0.015   0.384   5.741  0.2073 -0.2510 -0.5344
 2104SOL    HW117771   0.071   0.384   5.663  0.7631 -0.7476 -0.1323
 2104SOL    HW217772   4.657   0.358   5.697  1.5929  0.5986 -3.6217
 2105SOL     OW17773   1.223   1.857   4.241 -0.3612  0.3590  0.1929
 2105SOL    HW117774   1.168   1.893   4.172  3.1201 -0.2963 -2.9660
 2105SOL    HW217775   1.291   1.824   4.181  1.1987  0.1882  2.0541
 2106SOL     OW17776   4.711   1.511   3.729  0.4493  0.2554 -0.2148
 2106SOL    HW117777   0.062   1.533   3.785  0.2071  0.5290 -0.0015
 2106SOL    HW217778   4.653   1.573   3.773  0.2608 -0.4727  0.5584
 2107SOL     OW17779   4.066   4.074  12.940  0.6752 -0.4306 -0.1994
 2107SOL    HW117780   3.970   4.070  12.934  0.6391 -0.6467  0.4944
 2107SOL    HW217781   4.098   4.129  12.868 -2.7702  0.2469 -1.2358
 2108SOL     OW17782   3.361   1.137   6.825 -0.3268  0.3216 -0.0119
 2108SOL    HW117783   3.388   1.213   6.877 -0.8782  1.7670 -1.8361
 2108SOL    HW217784   3.327   1.182   6.747  0.2942 -0.0614 -0.5031
 2109SOL     OW17785   3.824   3.262   4.381  0.4332 -0.0308 -0.2630
 2109SOL    HW117786   3.798   3.293   4.468 -0.7848  0.9347 -0.9706
 2109SOL    HW217787   3.897   3.211   4.416 -1.4284 -1.3787  1.7170
 2110SOL     OW17788   3.988   3.399   2.824 -0.2156  0.8634 -0.2971
 2110SOL    HW117789   4.020   3.438   2.743  0.8346 -0.3388 -0.4516
 2110SOL    HW217790   3.908   3.351   2.802  1.3136 -0.6257 -2.4252
 2111SOL     OW17791   3.407   3.893   8.370  0.3313 -0.2804  0.4734
 2111SOL    HW117792   3.433   3.934   8.287  2.3923  1.9201  2.2116
 2111SOL    HW217793   3.382   3.805   8.342 -0.1790 -0.3545  1.1610
 2112SOL     OW17794   2.098   3.870  12.456 -0.6209 -0.3446 -0.2040
 2112SOL    HW117795   2.029   3.920  12.501 -0.7296 -1.2878  0.6821
 2112SOL    HW217796   2.068   3.779  12.461  1.8510 -1.1138  0.7174
 2113SOL     OW17797   0.942   0.891   8.160  0.1509 -0.1989  0.3758
 2113SOL    HW117798   1.020   0.873   8.106 -0.4082  1.3835 -0.9548
 2113SOL    HW217799   0.903   0.803   8.155  2.1993 -1.1288  0.6152
 2114SOL     OW17800   0.606   1.483  12.166 -0.3493 -0.0877 -0.0572
 2114SOL    HW117801   0.525   1.507  12.120 -0.3623 -2.5160 -1.3003
 2114SOL    HW217802   0.669   1.523  12.105 -2.5697  1.2276 -1.4664
 2115SOL     OW17803   3.966   0.529   0.309  0.5137 -0.1582 -0.1010
 2115SOL    HW117804   4.061   0.532   0.316  0.4626  2.1286 -0.2891
 2115SOL    HW217805   3.955   0.594   0.239  2.4165  0.7148  0.4285
 2116SOL     OW17806   4.139   3.653   8.903 -0.2912  0.0871  0.0450
 2116SOL    HW117807   4.079   3.645   8.977  0.3006  2.0117  0.7144
 2116SOL    HW217808   4.209   3.590   8.921  0.5953  1.4651  1.3726
 2117SOL     OW17809   2.456   2.790   6.354 -0.3581 -0.4160 -0.6375
 2117SOL    HW117810   2.399   2.843   6.412 -0.9560 -2.4278  0.5997
 2117SOL    HW217811   2.435   2.701   6.383  0.9749 -0.8825 -1.1259
 2118SOL     OW17812   2.479   4.536   6.979  0.0252 -0.1898 -0.2268
 2118SOL    HW117813   2.438   4.476   6.917  2.2957 -0.5839 -1.3417
 2118SOL    HW217814   2.432   4.507   7.057 -0.8663 -0.7645 -0.9926
 2119SOL     OW17815   2.521   3.047  12.489 -0.0268 -0.3017 -0.0781
 2119SOL    HW117816   2.566   3.124  12.522 -1.2407 -0.0277  0.9643
 2119SOL    HW217817   2.526   2.989  12.565 -1.1345 -1.2038 -0.6820
 2120SOL     OW17818   4.700   4.217   5.400 -0.0562  0.6465  0.1938
 2120SOL    HW117819   4.687   4.204   5.494  0.0183  1.8003  0.3700
 2120SOL    HW217820   0.021   4.302   5.401 -2.2093  1.7757  0.6403
 2121SOL     OW17821   0.389   2.257   2.357 -0.1196 -0.1742 -0.0512
 2121SOL    HW117822   0.320   2.277   2.294 -0.5049 -1.2615  0.0184
 2121SOL    HW217823   0.453   2.233   2.290 -0.7182 -1.4146 -0.1711
 2122SOL     OW17824   4.124   3.673   5.124 -0.0349 -0.3534  0.2382
 2122SOL    HW117825   4.058   3.628   5.176  0.1349 -0.2463  0.5461
 2122SOL    HW217826   4.071   3.746   5.093  0.6010 -0.9624 -2.3206
 2123SOL     OW17827   3.806   4.241   2.334  0.0425  0.3065  0.1096
 2123SOL    HW117828   3.842   4.279   2.253  2.8841 -1.7577  0.4125
 2123SOL    HW217829   3.756   4.314   2.371  0.9876  1.1325 -0.2182
 2124SOL     OW17830   4.433   3.635   3.904 -0.3381 -0.3276  0.1083
 2124SOL    HW117831   4.395   3.548   3.891  0.8211 -0.7191 -0.7010
 2124SOL    HW217832   4.439   3.668   3.814  0.6823 -0.5567  0.0950
 2125SOL     OW17833   3.939   0.946   3.402  0.3441 -0.5573  0.9702
 2125SOL    HW117834   3.853   0.905   3.416 -0.8646  1.6895  0.1408
 2125SOL    HW217835   3.942   1.001   3.480 -1.9617 -0.6364  1.1108
 2126SOL     OW17836   2.274   3.292   8.656 -0.2084  0.1337  0.0111
 2126SOL    HW117837   2.277   3.388   8.658  0.6691  0.0675  2.3093
 2126SOL    HW217838   2.245   3.278   8.566  1.0067  2.3966 -0.7298
 2127SOL     OW17839   2.890   2.764   2.822  0.0428  0.3951 -0.8618
 2127SOL    HW117840   2.842   2.712   2.756  0.3160 -1.9802  0.8021
 2127SOL    HW217841   2.973   2.766   2.774  1.7250  0.1049  2.0299
 2128SOL     OW17842   0.417   3.600   6.936 -0.3785 -0.2258  0.2436
 2128SOL    HW117843   0.458   3.535   6.993  0.6351  0.0469 -0.1668
 2128SOL    HW217844   0.342   3.620   6.993 -0.0550 -0.6421  0.8189
 2129SOL     OW17845   3.147   1.386  13.686 -0.3493  0.2701 -0.1492
 2129SOL    HW117846   3.137   1.382  13.782 -3.5759  0.2753 -0.4829
 2129SOL    HW217847   3.181   1.300  13.663 -0.6516  0.4051 -1.1006
 2130SOL     OW17848   1.850   3.618  14.896  0.3333  0.0777  0.3742
 2130SOL    HW117849   1.883   3.532  14.869 -0.3256  0.1955 -0.7824
 2130SOL    HW217850   1.875   3.615  14.988 -0.4334 -0.1225  0.5796
 2131SOL     OW17851   4.216   0.247  14.342 -0.2667  0.1124  0.0799
 2131SOL    HW117852   4.138   0.198  14.320  0.2119  0.5599 -2.6082
 2131SOL    HW217853   4.223   0.295  14.260  1.9798  1.5735  1.1086
 2132SOL     OW17854   2.656   2.077   2.965 -0.1899  0.0239 -0.1437
 2132SOL    HW117855   2.674   2.163   3.002 -0.6216  0.1012 -0.1186
 2132SOL    HW217856   2.744   2.039   2.956 -0.7375 -1.0570 -0.9495
 2133SOL     OW17857   2.975   0.826  17.204  0.3877  0.0052 -0.0661
 2133SOL    HW117858   2.889   0.849  17.168 -0.3974 -2.5141  0.2666
 2133SOL    HW217859   3.003   0.745  17.162 -1.0094  0.6145 -2.2081
 2134SOL     OW17860   3.470   1.246   5.671  0.0314 -0.2063  0.2500
 2134SOL    HW117861   3.490   1.317   5.610  0.4900 -0.8939 -0.3932
 2134SOL    HW217862   3.490   1.290   5.754  2.0600 -0.0625 -0.3047
 2135SOL     OW17863   4.351   3.748  16.580  0.1433  0.5337 -0.0821
 2135SOL    HW117864   4.332   3.761  16.673  2.1702  1.1060  0.2675
 2135SOL    HW217865   4.405   3.669  16.576 -2.1603 -0.9419 -1.8824
 2136SOL     OW17866   0.150   1.367  10.054 -0.5472 -0.2994  0.4584
 2136SOL    HW117867   0.173   1.330   9.969  1.2106  2.0983 -0.0994
 2136SOL    HW217868   0.168   1.460  10.042 -0.5311 -0.2242  1.0320
 2137SOL     OW17869   2.183   0.673  11.605  0.0448 -0.1007  0.2757
 2137SOL    HW117870   2.216   0.715  11.684  2.4253 -0.7306 -0.3963
 2137SOL    HW217871   2.100   0.636  11.636  1.0251 -2.9139 -0.4468
 2138SOL     OW17872   4.099   4.301   8.183  0.1714 -0.2326  0.1072
 2138SOL    HW117873   4.193   4.294   8.202 -0.3096 -1.5723  2.0063
 2138SOL    HW217874   4.057   4.309   8.269 -0.1641 -0.0954 -0.0738
 2139SOL     OW17875   0.870   1.066   0.771  0.4744 -0.2898 -0.1940
 2139SOL    HW117876   0.938   1.029   0.715  2.1418  0.8807  1.0859
 2139SOL    HW217877   0.849   0.991   0.827  0.5473  0.0187  0.2397
 2140SOL     OW17878   2.132   1.427   5.606 -0.4792  0.3933  0.6135
 2140SOL    HW117879   2.173   1.464   5.527 -1.4208  0.2170  0.0360
 2140SOL    HW217880   2.190   1.354   5.625 -2.8498 -2.0462 -1.5434
 2141SOL     OW17881   4.307   4.071   2.817 -0.5528 -0.2571  0.3176
 2141SOL    HW117882   4.252   3.993   2.818 -1.1553  0.1741  0.6550
 2141SOL    HW217883   4.245   4.132   2.857 -0.8912 -1.3006  1.4106
 2142SOL     OW17884   0.231   3.426   5.961  0.7443  0.3056 -0.0127
 2142SOL    HW117885   0.308   3.478   5.983  1.8660 -0.9088 -1.1115
 2142SOL    HW217886   0.234   3.353   6.024 -0.5660  1.0140  0.8671
 2143SOL     OW17887   1.537   4.304   1.590  0.2092 -0.2893 -0.1246
 2143SOL    HW117888   1.449   4.330   1.615  0.6232  0.9221  0.0877
 2143SOL    HW217889   1.569   4.252   1.663  0.7592 -0.5277 -0.5315
 2144SOL     OW17890   1.385   3.594   5.469 -0.2824 -0.2769 -0.1484
 2144SOL    HW117891   1.311   3.568   5.523  0.8605 -1.5989  0.7707
 2144SOL    HW217892   1.459   3.544   5.502  0.2248  0.7297  0.2461
 2145SOL     OW17893   3.520   2.325   5.215  0.1542  0.2974  0.0864
 2145SOL    HW117894   3.576   2.392   5.253 -1.0265  0.3100  1.7965
 2145SOL    HW217895   3.588   2.279   5.164 -0.3313 -3.0325  2.4610
 2146SOL     OW17896   0.360   3.829   3.913 -0.3883  0.0885 -0.1517
 2146SOL    HW117897   0.350   3.924   3.922 -0.8780  0.0290 -0.0352
 2146SOL    HW217898   0.452   3.826   3.937 -0.7192  0.3260  1.1352
 2147SOL     OW17899   0.957   2.768   3.358  0.2547  0.7203  0.0591
 2147SOL    HW117900   1.017   2.694   3.360 -0.7843 -0.1588 -0.8329
 2147SOL    HW217901   1.020   2.822   3.311 -1.5652 -0.6781 -3.9713
 2148SOL     OW17902   4.479   4.226  13.161 -0.3779 -0.2809 -0.1772
 2148SOL    HW117903   4.449   4.174  13.086 -0.5415 -1.4109  0.6875
 2148SOL    HW217904   4.425   4.179  13.224 -0.7413  1.5038  0.8356
 2149SOL     OW17905   0.262   2.502   9.577  0.1925 -0.0398 -0.5801
 2149SOL    HW117906   0.194   2.569   9.565 -0.2197 -0.4979 -0.7830
 2149SOL    HW217907   0.325   2.518   9.507  1.1103  0.5541  0.3876
 2150SOL     OW17908   0.661   2.074  13.518 -0.0535 -0.3548 -0.2038
 2150SOL    HW117909   0.640   2.097  13.609  1.6512  1.4229 -0.2483
 2150SOL    HW217910   0.708   1.992  13.529 -0.5114 -0.3437  1.9555
 2151SOL     OW17911   0.459   1.355  17.547  0.3740 -0.2991 -0.2306
 2151SOL    HW117912   0.530   1.419  17.536 -0.0942  0.1471 -0.6352
 2151SOL    HW217913   0.513   1.283  17.579 -0.0666 -0.1502  0.8579
 2152SOL     OW17914   3.434   0.393  11.656 -0.4084 -0.0329  0.1131
 2152SOL    HW117915   3.341   0.390  11.633 -0.0997 -2.2595 -0.8047
 2152SOL    HW217916   3.473   0.347  11.582 -2.5738  0.1676 -1.1436
 2153SOL     OW17917   0.409   0.799   1.046 -0.2665 -0.2600  0.0256
 2153SOL    HW117918   0.350   0.754   0.986 -1.0122  2.4634 -1.2933
 2153SOL    HW217919   0.335   0.845   1.084 -1.9226 -1.5127 -1.7251
 2154SOL     OW17920   3.879   1.177   2.406  0.2961 -0.2483 -0.6750
 2154SOL    HW117921   3.935   1.252   2.386  0.4190 -0.0176  0.4858
 2154SOL    HW217922   3.881   1.189   2.501  0.0965 -0.4529 -0.6460
 2155SOL     OW17923   1.628   0.268   7.235  0.4096 -0.0369 -0.3692
 2155SOL    HW117924   1.586   0.220   7.307  1.5087 -1.9448 -1.0044
 2155SOL    HW217925   1.558   0.308   7.183  1.3878 -0.2895 -1.8773
 2156SOL     OW17926   0.494   2.834   8.478  0.0545 -0.4810  0.1449
 2156SOL    HW117927   0.515   2.768   8.545  1.1765 -0.7042 -0.4239
 2156SOL    HW217928   0.578   2.879   8.485 -0.8389  0.9007  1.8287
 2157SOL     OW17929   3.501   0.903   5.921  0.1241 -0.0451 -0.1601
 2157SOL    HW117930   3.521   0.994   5.946  1.2074 -0.2271 -0.3502
 2157SOL    HW217931   3.530   0.913   5.830  1.1109  2.3741  0.4038
 2158SOL     OW17932   2.700   0.822   9.478  0.6002  0.0786 -0.4832
 2158SOL    HW117933   2.666   0.733   9.477 -1.0659  0.6905  0.9637
 2158SOL    HW217934   2.619   0.862   9.446  0.6301 -1.0034 -1.9003
 2159SOL     OW17935   2.145   3.487   3.135 -0.4925 -0.0253 -0.3979
 2159SOL    HW117936   2.094   3.506   3.214 -0.8238  0.5255 -0.7384
 2159SOL    HW217937   2.098   3.533   3.065  1.4921  0.4531 -1.3974
 2160SOL     OW17938   1.908   4.118   2.119 -0.3195 -0.3539 -0.3352
 2160SOL    HW117939   1.874   4.207   2.118 -0.1171 -0.2748  0.3682
 2160SOL    HW217940   1.911   4.106   2.214  1.3528 -0.3835 -0.3997
 2161SOL     OW17941   0.558   0.990  12.179 -0.4711  1.5714 -0.6128
 2161SOL    HW117942   0.649   1.010  12.197  0.0061 -0.6170 -0.5801
 2161SOL    HW217943   0.564   0.894  12.184 -0.5334  1.4338 -3.2019
 2162SOL     OW17944   1.992   0.612  14.646 -0.2813 -0.7722 -0.2086
 2162SOL    HW117945   2.060   0.677  14.630  0.2376 -1.3066 -0.1694
 2162SOL    HW217946   1.937   0.614  14.568 -0.1206 -3.2877 -0.3978
 2163SOL     OW17947   0.516   1.123   4.382  0.0597 -0.0326 -0.2751
 2163SOL    HW117948   0.486   1.035   4.406  4.1206 -1.9721 -2.3533
 2163SOL    HW217949   0.486   1.164   4.463 -2.4833  1.7693 -2.0855
 2164SOL     OW17950   2.843   1.373  13.333  0.0708  0.0536  0.0928
 2164SOL    HW117951   2.906   1.428  13.286  0.0558 -0.9627 -1.1095
 2164SOL    HW217952   2.766   1.430  13.326  0.0733  0.1557  0.8743
 2165SOL     OW17953   1.058   1.510   3.266 -0.2963 -0.5556  0.2985
 2165SOL    HW117954   1.050   1.547   3.354 -0.2989 -1.5812  0.7303
 2165SOL    HW217955   1.002   1.572   3.219  1.5892  1.0274  0.1792
 2166SOL     OW17956   4.099   4.295  12.732  0.1649 -0.6006  0.5756
 2166SOL    HW117957   4.007   4.275  12.749 -0.3828  1.5704  0.0774
 2166SOL    HW217958   4.076   4.377  12.689  0.1640 -1.6652 -1.4879
 2167SOL     OW17959   4.350   3.210   5.782 -0.2648 -0.4919  0.3993
 2167SOL    HW117960   4.444   3.188   5.780 -0.1317  0.1880 -0.4673
 2167SOL    HW217961   4.328   3.218   5.689  2.6288  1.1557 -0.1525
 2168SOL     OW17962   4.577   2.597  17.093  0.6174 -0.4996 -0.1834
 2168SOL    HW117963   4.529   2.674  17.125  0.1081 -0.6218 -0.6377
 2168SOL    HW217964   4.614   2.558  17.172  1.1693  0.2699 -0.0732
 2169SOL     OW17965   3.700   0.526   3.262 -0.2241  0.3038  0.0150
 2169SOL    HW117966   3.784   0.572   3.274  0.8825 -1.3431 -1.5898
 2169SOL    HW217967   3.639   0.591   3.297 -0.9456  0.5285 -1.7031
 2170SOL     OW17968   0.021   4.079   3.599  0.5881 -0.2884 -0.2495
 2170SOL    HW117969   4.704   4.048   3.680  0.4703 -1.6832 -0.8475
 2170SOL    HW217970   4.707   4.021   3.532  0.0108  1.1096 -1.1406
 2171SOL     OW17971   3.174   2.318  10.906 -0.0598  0.5706  0.3362
 2171SOL    HW117972   3.178   2.407  10.871  0.0668 -0.4479 -2.1958
 2171SOL    HW217973   3.252   2.305  10.960 -1.1287 -1.3480  1.4155
 2172SOL     OW17974   1.903   1.106  14.404 -0.3403  0.1837  0.3247
 2172SOL    HW117975   1.872   1.015  14.411  0.5251 -0.0790  0.7223
 2172SOL    HW217976   1.820   1.153  14.398 -0.6757 -0.5967 -1.2829
 2173SOL     OW17977   1.848   3.012   7.278  0.0986  0.2135  0.3377
 2173SOL    HW117978   1.894   2.929   7.291  0.1787  0.1226 -0.4822
 2173SOL    HW217979   1.892   3.067   7.342 -0.8554  0.9760  0.3416
 2174SOL     OW17980   0.674   3.446  13.649 -0.9249  0.1299  0.3971
 2174SOL    HW117981   0.627   3.462  13.731  0.2001  0.9363  0.9007
 2174SOL    HW217982   0.634   3.513  13.594  2.0989  0.0065 -1.9128
 2175SOL     OW17983   2.259   0.133   7.742  0.2921 -0.0013  0.0910
 2175SOL    HW117984   2.320   0.206   7.751 -2.2847  2.0578  1.1652
 2175SOL    HW217985   2.223   0.127   7.830  2.6484 -1.8562  0.8900
 2176SOL     OW17986   1.442   2.507   7.769  0.0066  0.1822 -0.3589
 2176SOL    HW117987   1.493   2.470   7.697  0.3807  0.7988 -0.4113
 2176SOL    HW217988   1.448   2.431   7.827 -1.2575 -0.6103 -1.2830
 2177SOL     OW17989   0.055   1.898  10.621 -0.1063  0.2608  0.2371
 2177SOL    HW117990   0.020   1.987  10.611  0.2909  0.5202  1.1538
 2177SOL    HW217991   0.007   1.868  10.698  1.2980 -2.9218 -0.1449
 2178SOL     OW17992   1.727   0.129  14.716 -0.1099  0.2332  0.2179
 2178SOL    HW117993   1.662   0.192  14.686  0.6110  1.4020  1.1266
 2178SOL    HW217994   1.799   0.127  14.653 -2.1131  0.1000 -2.0570
 2179SOL     OW17995   0.532   4.339   2.433 -0.0352 -0.0363  0.7103
 2179SOL    HW117996   0.621   4.343   2.397 -0.0468 -2.1459  0.4618
 2179SOL    HW217997   0.484   4.339   2.350 -1.2398 -1.5292  1.4112
 2180SOL     OW17998   3.961   0.538   3.219 -0.2021  0.7338  0.0369
 2180SOL    HW117999   4.002   0.483   3.286 -3.3604  0.2269  1.5556
 2180SOL    HW218000   4.034   0.571   3.167  1.1348 -1.1995  0.6749
 2181SOL     OW18001   4.192   0.716  12.338  0.0672 -0.0560  0.3147
 2181SOL    HW118002   4.099   0.694  12.345  0.2105  0.0813  2.4299
 2181SOL    HW218003   4.194   0.801  12.382  0.0989  0.5504 -0.8466
 2182SOL     OW18004   2.700   4.710   8.851  0.1675  0.3016 -0.3740
 2182SOL    HW118005   2.747   4.658   8.916 -1.2053 -2.4131 -1.5720
 2182SOL    HW218006   2.641   4.648   8.807 -1.1302 -1.2370  3.5361
 2183SOL     OW18007   4.524   2.363   9.905  0.2266 -0.6049  0.6604
 2183SOL    HW118008   4.464   2.364   9.979 -0.1843 -0.4151  0.3263
 2183SOL    HW218009   4.604   2.406   9.936  1.6152 -2.7231  0.0114
 2184SOL     OW18010   0.072   0.034   6.462 -0.5083 -0.4163 -0.3506
 2184SOL    HW118011   0.047   0.119   6.426  0.3660  1.4053  3.3497
 2184SOL    HW218012   0.101   0.053   6.551  2.2410  0.5721 -1.4502
 2185SOL     OW18013   0.129   3.795  16.781  0.5018  0.2688  0.5165
 2185SOL    HW118014   0.042   3.756  16.791  0.5710 -0.2219 -0.8158
 2185SOL    HW218015   0.112   3.880  16.821 -1.9484 -0.5936  1.3217
 2186SOL     OW18016   1.223   2.036   3.725 -0.1365 -0.2150 -0.6635
 2186SOL    HW118017   1.284   2.085   3.669  1.1249  0.6094  1.4334
 2186SOL    HW218018   1.146   2.038   3.668 -1.1468 -1.7520  0.6701
 2187SOL     OW18019   0.643   4.221   9.358 -0.2734  0.1509  0.3721
 2187SOL    HW118020   0.558   4.205   9.319 -0.5040  3.5429 -0.5446
 2187SOL    HW218021   0.698   4.151   9.322 -1.6524 -0.7381  0.0242
 2188SOL     OW18022   4.440   2.108   2.666  0.3547  0.2979 -0.2005
 2188SOL    HW118023   4.495   2.039   2.704  0.7972  1.2532  0.8921
 2188SOL    HW218024   4.353   2.074   2.645  0.1533 -0.4296  1.8556
 2189SOL     OW18025   0.371   2.566  11.822 -0.3368 -0.4005 -0.5170
 2189SOL    HW118026   0.399   2.649  11.860  1.7685 -0.1994 -2.4691
 2189SOL    HW218027   0.433   2.561  11.749 -0.5178 -0.9469 -0.6368
 2190SOL     OW18028   1.917   0.049  10.819  0.6703  0.3924 -0.2459
 2190SOL    HW118029   1.920   4.689  10.866 -0.5552  0.1596 -0.5971
 2190SOL    HW218030   1.891   0.023  10.731  0.3393  1.0586 -0.3493
 2191SOL     OW18031   0.802   0.926   4.460 -0.0729 -0.2935 -0.1572
 2191SOL    HW118032   0.775   0.908   4.370  1.4606 -1.0374 -0.4893
 2191SOL    HW218033   0.736   0.987   4.491 -0.2286 -0.6954  0.3068
 2192SOL     OW18034   2.848   3.338   9.908  0.4826  0.2113 -0.0710
 2192SOL    HW118035   2.841   3.423   9.952  1.2506  0.1284  0.2162
 2192SOL    HW218036   2.848   3.359   9.815 -2.7513 -0.4769 -0.2186
 2193SOL     OW18037   2.637   2.679  11.709  0.1342  0.4326 -0.0258
 2193SOL    HW118038   2.631   2.748  11.774 -2.0159 -0.8656  1.1605
 2193SOL    HW218039   2.699   2.620  11.753  0.8099  0.4707 -0.9182
 2194SOL     OW18040   3.779   0.921   7.894  0.2873 -0.5004  0.1223
 2194SOL    HW118041   3.826   0.918   7.978  1.5511 -0.0786 -0.5641
 2194SOL    HW218042   3.807   1.005   7.857 -1.0401  0.3573  1.0788
 2195SOL     OW18043   1.773   1.689   1.610 -0.3767  0.1691 -0.0243
 2195SOL    HW118044   1.685   1.664   1.584  0.2297 -0.1496 -1.7693
 2195SOL    HW218045   1.807   1.729   1.530  2.2556 -0.6247  0.6803
 2196SOL     OW18046   1.447   1.647   4.470  0.5426  0.2768 -0.0978
 2196SOL    HW118047   1.369   1.696   4.493  0.2760 -1.5716  2.9717
 2196SOL    HW218048   1.498   1.661   4.550  1.6675  0.3620 -0.8244
 2197SOL     OW18049   0.010   4.105  12.486  0.2446 -0.2463  0.1424
 2197SOL    HW118050   4.693   4.191  12.503  0.2117 -0.2670  0.1702
 2197SOL    HW218051   0.101   4.133  12.498  0.0361  0.3012  0.4668
 2198SOL     OW18052   2.486   4.362   6.426  0.4349  0.1423  0.0487
 2198SOL    HW118053   2.562   4.420   6.425 -0.0202  0.7418  1.0105
 2198SOL    HW218054   2.524   4.309   6.355  0.5397  1.0125 -0.5459
 2199SOL     OW18055   1.500   4.677   4.247  0.2051 -0.0059 -0.1340
 2199SOL    HW118056   1.554   0.033   4.234 -0.6759  0.8364  1.3696
 2199SOL    HW218057   1.443   4.702   4.319  1.0468 -1.4085  1.0164
 2200SOL     OW18058   3.216   1.244   6.312  0.1655 -0.5954 -0.4376
 2200SOL    HW118059   3.209   1.337   6.290 -0.1671 -0.9353 -1.7518
 2200SOL    HW218060   3.216   1.257   6.407 -0.2168  1.5256 -0.7188
 2201SOL     OW18061   1.761   1.417   7.687 -0.3424  0.1136  0.8375
 2201SOL    HW118062   1.781   1.439   7.778 -1.8230  0.1355  1.1527
 2201SOL    HW218063   1.779   1.323   7.678  0.7782  0.6574 -2.6214
 2202SOL     OW18064   0.655   1.212  17.664 -0.1653 -0.0876  0.1139
 2202SOL    HW118065   0.722   1.277  17.643 -1.1708  0.9816  0.2203
 2202SOL    HW218066   0.705   1.147   0.018 -1.3688 -1.2799 -0.2525
 2203SOL     OW18067   2.952   4.545   7.656  0.5602  0.1230  0.3807
 2203SOL    HW118068   2.930   4.477   7.592  0.2255 -1.2165  1.9144
 2203SOL    HW218069   2.880   4.603   7.633 -1.6361 -1.7860  2.3941
 2204SOL     OW18070   0.860   4.145   5.680 -0.4970 -0.5658 -0.2490
 2204SOL    HW118071   0.813   4.073   5.638  0.0366 -0.3325 -1.2235
 2204SOL    HW218072   0.803   4.152   5.757 -1.0742 -0.4491 -0.6902
 2205SOL     OW18073   4.312   4.091  11.808 -0.3480  0.0515  0.3936
 2205SOL    HW118074   4.254   4.141  11.866  2.0066  1.2482  1.7261
 2205SOL    HW218075   4.304   4.146  11.731 -0.3614 -3.0607 -1.8154
 2206SOL     OW18076   2.889   3.588   0.856 -0.4292  0.4905 -0.2963
 2206SOL    HW118077   2.799   3.581   0.888 -0.4436  3.6631  0.3835
 2206SOL    HW218078   2.881   3.642   0.778 -1.4063  1.7204  0.6580
 2207SOL     OW18079   4.665   4.535   8.962  0.3842 -0.9050  0.3180
 2207SOL    HW118080   4.684   4.466   9.025  0.7380 -0.2988  0.8880
 2207SOL    HW218081   0.035   4.560   8.961  0.0710  0.2740  0.5152
 2208SOL     OW18082   3.459   1.924   5.720  0.1383 -0.1339  0.4229
 2208SOL    HW118083   3.446   1.829   5.717 -0.0426 -0.0527 -1.5121
 2208SOL    HW218084   3.389   1.950   5.660  0.4582  2.4333  1.1610
 2209SOL     OW18085   1.785   3.547   3.293 -0.7727  0.1268  0.1751
 2209SOL    HW118086   1.750   3.596   3.218 -4.2370 -2.1542  0.3019
 2209SOL    HW218087   1.737   3.589   3.364 -1.9657  0.7051 -0.9761
 2210SOL     OW18088   1.125   1.994  15.942 -0.2603 -0.3806  0.2863
 2210SOL    HW118089   1.099   1.933  15.873  1.2946  0.9516 -1.4832
 2210SOL    HW218090   1.071   2.069  15.919 -0.3154  0.1394  2.1221
 2211SOL     OW18091   0.332   1.015  11.020 -0.5358 -0.3025  0.0392
 2211SOL    HW118092   0.300   1.103  11.000  0.7742  0.6891  2.4020
 2211SOL    HW218093   0.261   0.967  11.062  1.0180 -1.1368  1.6818
 2212SOL     OW18094   4.251   1.393   2.568 -0.5746 -0.1019  0.0682
 2212SOL    HW118095   4.286   1.309   2.539 -1.1611 -0.8260  1.4676
 2212SOL    HW218096   4.173   1.347   2.598 -1.8381  1.2132 -1.2283
 2213SOL     OW18097   2.416   1.329  15.596 -0.5939 -0.6701 -0.3645
 2213SOL    HW118098   2.372   1.356  15.516  1.4551  3.2447 -0.1845
 2213SOL    HW218099   2.503   1.333  15.555 -0.1602 -1.3985  0.4689
 2214SOL     OW18100   3.701   2.524   6.780  0.1578  0.3088 -0.2348
 2214SOL    HW118101   3.762   2.570   6.723  2.1110 -0.0100  1.5877
 2214SOL    HW218102   3.624   2.505   6.727  0.5122 -0.3276 -0.5292
 2215SOL     OW18103   4.472   3.623   2.855  0.7397  0.0406  0.3021
 2215SOL    HW118104   4.417   3.677   2.911  1.3656 -1.9638  2.8290
 2215SOL    HW218105   4.526   3.571   2.915  0.8108  0.6384  0.7457
 2216SOL     OW18106   3.112   1.357  15.137  0.2056  0.2940 -0.0433
 2216SOL    HW118107   3.108   1.452  15.135  0.9540  0.3173 -0.0773
 2216SOL    HW218108   3.099   1.347  15.231  0.8436  2.4671  0.2669
 2217SOL     OW18109   0.826   0.893   1.648 -0.5430 -0.0592  0.2106
 2217SOL    HW118110   0.867   0.810   1.622  0.9678  0.9902 -0.7152
 2217SOL    HW218111   0.732   0.884   1.630 -0.2871  0.5257 -1.3644
 2218SOL     OW18112   4.116   1.753   7.204  0.5321 -0.2927 -0.3343
 2218SOL    HW118113   4.206   1.771   7.234  0.2651 -0.8449  0.7959
 2218SOL    HW218114   4.133   1.693   7.132  2.3364  0.4077 -0.5163
 2219SOL     OW18115   0.737   4.353   2.243  0.5168  0.6309 -0.3954
 2219SOL    HW118116   0.805   4.373   2.179  0.9370  1.7612  0.3956
 2219SOL    HW218117   0.760   4.431   2.294 -0.1615  1.6361 -1.6096
 2220SOL     OW18118   1.253   4.436   7.169 -0.0856  0.5265 -0.1958
 2220SOL    HW118119   1.218   4.350   7.146  2.5085 -0.3678 -0.8257
 2220SOL    HW218120   1.324   4.448   7.107  1.9273 -1.6099  1.7027
 2221SOL     OW18121   1.247   1.958   2.971 -0.5846 -0.7334 -0.1683
 2221SOL    HW118122   1.321   1.904   2.943  0.2751  1.4291 -2.0113
 2221SOL    HW218123   1.215   1.985   2.885  0.0486 -0.2714 -0.2565
 2222SOL     OW18124   2.585   2.839  15.185  0.0618  0.2916 -0.1517
 2222SOL    HW118125   2.526   2.786  15.239 -1.5719  2.0818 -0.1932
 2222SOL    HW218126   2.553   2.823  15.096 -0.5013 -1.3713  0.3382
 2223SOL     OW18127   0.627   0.672   2.238  0.2460  0.4053 -0.0474
 2223SOL    HW118128   0.649   0.611   2.308  1.6067  1.0947  0.1284
 2223SOL    HW218129   0.540   0.701   2.264 -0.7427 -3.0518  0.5296
 2224SOL     OW18130   2.128   4.035  13.858  0.0905  0.0134 -0.6724
 2224SOL    HW118131   2.198   4.095  13.882  0.6652 -0.4124 -1.2969
 2224SOL    HW218132   2.058   4.097  13.836 -0.0010  0.0798 -0.1837
 2225SOL     OW18133   3.646   3.221   8.312  0.3336 -0.3842  0.1497
 2225SOL    HW118134   3.607   3.235   8.226 -1.5153  0.8171  1.1932
 2225SOL    HW218135   3.696   3.139   8.300  0.0313 -0.3839 -1.0643
 2226SOL     OW18136   3.675   4.385   8.883  0.3259 -0.6124 -0.2864
 2226SOL    HW118137   3.582   4.362   8.874 -0.4042  2.6964 -1.3110
 2226SOL    HW218138   3.660   4.479   8.891  1.5266 -0.4255 -0.2490
 2227SOL     OW18139   1.233   3.808   6.014  0.4336 -0.5415 -0.0663
 2227SOL    HW118140   1.320   3.783   5.984 -0.1426 -0.0151 -2.2132
 2227SOL    HW218141   1.185   3.836   5.935 -1.1826 -0.7147  0.8614
 2228SOL     OW18142   0.972   1.764   9.369  0.2429  0.1609 -0.1813
 2228SOL    HW118143   0.915   1.839   9.348  1.6187  0.7449 -1.8638
 2228SOL    HW218144   0.922   1.730   9.442 -1.2614 -0.0813 -1.3241
 2229SOL     OW18145   3.607   4.566   5.417  0.0066 -0.0441 -0.1758
 2229SOL    HW118146   3.669   4.496   5.398 -1.3121 -1.3689  0.4113
 2229SOL    HW218147   3.673   4.633   5.433 -1.4987  1.7582 -1.3633
 2230SOL     OW18148   3.019   3.313   6.767 -1.0893  0.5578 -0.3194
 2230SOL    HW118149   3.013   3.322   6.862  0.4670  0.3645 -0.1956
 2230SOL    HW218150   2.925   3.321   6.750 -1.9201 -0.2287  4.1035
 2231SOL     OW18151   2.704   0.779   9.914 -0.2482  0.3009  0.1438
 2231SOL    HW118152   2.788   0.735   9.924 -0.3962 -0.6853 -3.0246
 2231SOL    HW218153   2.727   0.824   9.832  0.4348 -0.5438 -0.1193
 2232SOL     OW18154   1.887   2.585   0.556  0.6309  0.1708  0.1300
 2232SOL    HW118155   1.840   2.623   0.631 -0.7603 -0.0927 -0.6112
 2232SOL    HW218156   1.960   2.548   0.606  0.9124  0.3800 -0.1293
 2233SOL     OW18157   1.032   4.641   7.210  0.3729 -0.2105  0.2618
 2233SOL    HW118158   1.102   4.580   7.187 -0.0380 -1.4412  2.1818
 2233SOL    HW218159   0.962   4.624   7.147  1.1317  0.8159 -0.8527
 2234SOL     OW18160   0.278   4.010  13.070  0.0309  0.5997 -0.6121
 2234SOL    HW118161   0.276   4.103  13.093 -0.0487 -0.3555  3.1615
 2234SOL    HW218162   0.235   3.967  13.144 -0.5124  0.3244 -1.0883
 2235SOL     OW18163   0.095   0.458   1.792 -0.0261  0.1230 -0.3444
 2235SOL    HW118164   0.014   0.504   1.772 -0.1857  0.2472  0.6032
 2235SOL    HW218165   0.160   0.526   1.813  0.7872 -0.5429 -0.6814
 2236SOL     OW18166   1.481   4.571   8.380 -0.5049  0.7095  0.1004
 2236SOL    HW118167   1.495   4.581   8.285  1.3400 -1.8630  0.1209
 2236SOL    HW218168   1.414   4.504   8.393  1.2686 -0.8236  1.1524
 2237SOL     OW18169   4.551   2.997   2.106 -0.2823 -0.0175  0.5305
 2237SOL    HW118170   4.460   3.015   2.084 -0.0336 -0.1404 -0.6087
 2237SOL    HW218171   4.572   2.940   2.032  1.0011 -0.5441  1.3001
 2238SOL     OW18172   2.594   0.601   6.339  0.3511 -0.9734 -0.2224
 2238SOL    HW118173   2.541   0.675   6.312  2.1405  1.5101  2.9972
 2238SOL    HW218174   2.524   0.545   6.373 -0.4289  0.7389  0.9835
 2239SOL     OW18175   1.676   3.900   3.799  0.1202  0.5046 -0.3500
 2239SOL    HW118176   1.599   3.874   3.749  1.1004  0.6210 -1.9235
 2239SOL    HW218177   1.650   3.880   3.889  1.0885 -1.8955 -0.5956
 2240SOL     OW18178   4.688   0.614   9.363 -0.3485  0.3269 -0.1716
 2240SOL    HW118179   0.027   0.567   9.309 -0.6032  1.2090 -1.2486
 2240SOL    HW218180   0.024   0.635   9.435 -1.0018  1.3009  0.0854
 2241SOL     OW18181   1.838   1.106   6.377 -0.0908 -0.1915 -0.4378
 2241SOL    HW118182   1.856   1.029   6.432  3.2665  0.8523 -0.0328
 2241SOL    HW218183   1.902   1.087   6.308 -0.3806  0.0885 -0.7743
 2242SOL     OW18184   0.712   2.321   3.245 -0.2448  0.2701 -0.1020
 2242SOL    HW118185   0.626   2.301   3.207  1.0948 -4.0035 -0.7819
 2242SOL    HW218186   0.694   2.412   3.270  1.2663  0.1377  1.4579
 2243SOL     OW18187   0.813   1.817   4.361 -0.1507 -0.6231  0.2258
 2243SOL    HW118188   0.776   1.871   4.431  1.9038  0.7627  0.2435
 2243SOL    HW218189   0.816   1.882   4.290 -1.8925 -1.5987 -0.7493
 2244SOL     OW18190   2.057   3.236   3.535  0.3802  1.0997 -0.7348
 2244SOL    HW118191   2.097   3.286   3.464  1.5593  0.2198 -0.6848
 2244SOL    HW218192   2.053   3.152   3.491  0.9219  1.4842 -1.5032
 2245SOL     OW18193   0.648   0.695   0.184  0.3167  0.6386 -0.2105
 2245SOL    HW118194   0.608   0.726   0.103 -2.2214  0.5574  0.9795
 2245SOL    HW218195   0.628   0.762   0.249  1.6973  0.0995  0.7721
 2246SOL     OW18196   2.173   0.967  15.367 -0.1517 -0.1440 -0.1952
 2246SOL    HW118197   2.106   1.012  15.315 -1.0406 -1.1822  0.0522
 2246SOL    HW218198   2.249   1.009  15.327 -0.9575  2.5625  1.0686
 2247SOL     OW18199   1.584   4.640  15.133  0.5060  0.1389  0.4907
 2247SOL    HW118200   1.622   4.722  15.102  0.1195  0.4338  0.7936
 2247SOL    HW218201   1.502   4.684  15.156 -0.3749  0.2649 -2.8523
 2248SOL     OW18202   3.924   3.097  17.192  0.1144  0.0265 -0.1748
 2248SOL    HW118203   3.913   3.186  17.226 -1.2579 -0.0780 -0.3406
 2248SOL    HW218204   3.937   3.061  17.280  2.5698 -1.7807 -1.2845
 2249SOL     OW18205   1.072   3.833   4.477  0.1524 -0.0620  0.6587
 2249SOL    HW118206   1.019   3.846   4.555  1.3873  2.0030  1.1598
 2249SOL    HW218207   1.153   3.880   4.497  0.2025 -0.6864  1.9176
 2250SOL     OW18208   2.418   4.089  11.910 -0.3486 -0.0571 -0.9944
 2250SOL    HW118209   2.488   4.056  11.854  0.7109 -2.2588  1.6345
 2250SOL    HW218210   2.367   4.009  11.919  0.9720 -0.9029 -1.0993
 2251SOL     OW18211   0.304   1.547   0.671  0.1179 -0.3378  0.2882
 2251SOL    HW118212   0.372   1.564   0.736  0.6665  1.5849 -0.7954
 2251SOL    HW218213   0.224   1.534   0.723 -0.6954  0.4352 -0.7551
 2252SOL     OW18214   4.455   1.777  16.088  0.0904  0.1253  0.0306
 2252SOL    HW118215   4.424   1.690  16.111  0.0112  0.1761  0.1128
 2252SOL    HW218216   4.460   1.814  16.176 -1.5623 -1.9959  1.0070
 2253SOL     OW18217   3.749   3.522   1.157  0.3186 -0.4356  0.6223
 2253SOL    HW118218   3.805   3.454   1.194 -1.3565 -3.4317 -2.3855
 2253SOL    HW218219   3.665   3.498   1.196 -1.0924 -0.1376 -2.2450
 2254SOL     OW18220   1.346   2.313   9.283 -0.3246 -0.1486  0.1892
 2254SOL    HW118221   1.318   2.405   9.278 -3.1619 -1.0258  0.0999
 2254SOL    HW218222   1.264   2.275   9.315 -0.4913  1.1767  1.3352
 2255SOL     OW18223   1.452   2.012   7.098  0.3845  0.0079  0.0833
 2255SOL    HW118224   1.374   1.972   7.060  0.1682 -0.5662  1.1324
 2255SOL    HW218225   1.410   2.042   7.179 -1.5781 -1.1057 -0.5257
 2256SOL     OW18226   0.672   4.328   4.102  0.6189 -0.8351  0.5050
 2256SOL    HW118227   0.676   4.366   4.014 -0.7252 -2.3288 -0.2073
 2256SOL    HW218228   0.763   4.348   4.123  1.0624 -1.0306 -1.2258
 2257SOL     OW18229   1.963   4.462  17.594  0.2113  0.7994 -0.6055
 2257SOL    HW118230   1.931   4.550  17.572 -0.1942  0.7105 -0.3619
 2257SOL    HW218231   1.907   4.438  17.668  0.0716 -0.6446 -1.1803
 2258SOL     OW18232   1.572   0.150   6.867  0.4225  0.2086  0.3460
 2258SOL    HW118233   1.531   0.218   6.920 -0.5194 -0.2785  0.2516
 2258SOL    HW218234   1.617   0.091   6.927 -1.9562 -1.1514  0.7904
 2259SOL     OW18235   3.061   3.599  14.917 -0.3875  0.2964  0.0269
 2259SOL    HW118236   3.112   3.558  14.987 -0.2666  0.8108  0.2410
 2259SOL    HW218237   3.052   3.684  14.959 -0.3505 -0.4753  1.6354
 2260SOL     OW18238   4.652   1.828  13.428  0.0589 -0.2195 -0.2431
 2260SOL    HW118239   4.612   1.786  13.505  0.0699 -0.0312 -0.1344
 2260SOL    HW218240   4.713   1.756  13.411  1.2887  0.2152  2.2239
 2261SOL     OW18241   1.249   4.403   5.106 -0.5259 -0.0169 -0.2763
 2261SOL    HW118242   1.170   4.378   5.152 -1.9328 -0.4155 -2.8919
 2261SOL    HW218243   1.221   4.406   5.014 -1.0175 -1.1121 -0.1655
 2262SOL     OW18244   3.836   2.031   9.466 -0.2188 -0.3965  0.0368
 2262SOL    HW118245   3.808   2.022   9.557 -0.7271 -0.2119 -0.0992
 2262SOL    HW218246   3.754   2.022   9.417 -0.4822  1.3916  0.1358
 2263SOL     OW18247   2.037   2.982   5.567  0.8489 -0.3577  0.6411
 2263SOL    HW118248   2.106   3.043   5.542  0.0929  0.1685 -0.1605
 2263SOL    HW218249   2.043   2.923   5.492  1.7831  1.2415 -0.5239
 2264SOL     OW18250   4.028   2.959  13.065 -0.4154 -0.9258  0.4700
 2264SOL    HW118251   4.120   2.971  13.041 -0.0731 -0.0575  2.2036
 2264SOL    HW218252   4.003   2.872  13.033 -0.7322 -1.1305  1.2848
 2265SOL     OW18253   3.399   2.811   4.195  0.5819  0.3294  0.1309
 2265SOL    HW118254   3.359   2.874   4.133 -0.1294 -0.2380  0.0123
 2265SOL    HW218255   3.328   2.747   4.197  1.2071 -0.4057 -1.2886
 2266SOL     OW18256   0.424   1.164   7.991  0.0158  0.0620  0.8001
 2266SOL    HW118257   0.390   1.210   7.914  0.8389  0.1206  0.4718
 2266SOL    HW218258   0.478   1.229   8.035 -1.8259 -0.2435  3.5172
 2267SOL     OW18259   0.195   1.399   5.717 -0.0112  0.0690 -0.2545
 2267SOL    HW118260   0.284   1.401   5.753  0.6058  0.9669 -1.8311
 2267SOL    HW218261   0.146   1.351   5.784  0.9682  0.7696  0.9604
 2268SOL     OW18262   0.362   1.789   5.224  0.3041  0.1907 -0.3835
 2268SOL    HW118263   0.302   1.862   5.226  2.3510  1.9143 -2.0478
 2268SOL    HW218264   0.425   1.820   5.290 -1.9239  1.6020  1.0570
 2269SOL     OW18265   3.798   3.865   5.472  0.0519  0.1418 -0.4656
 2269SOL    HW118266   3.740   3.926   5.518 -0.2179 -0.0593 -0.5400
 2269SOL    HW218267   3.761   3.876   5.385  0.6757  1.0137 -0.6133
 2270SOL     OW18268   1.558   1.433   5.434  0.6441 -0.3864  0.0392
 2270SOL    HW118269   1.526   1.360   5.487  0.1849 -0.9810 -1.0608
 2270SOL    HW218270   1.529   1.506   5.488  2.1943 -0.7969  1.4261
 2271SOL     OW18271   1.955   0.269   3.006  0.0675  0.1815  0.3177
 2271SOL    HW118272   1.977   0.197   3.065  2.8060  1.9672  1.4631
 2271SOL    HW218273   1.991   0.233   2.924  0.8964  1.0525  0.2884
 2272SOL     OW18274   1.972   3.025   2.854 -0.0311  0.0020 -0.0928
 2272SOL    HW118275   1.995   3.095   2.915  0.1375  0.5589 -0.8044
 2272SOL    HW218276   1.990   3.068   2.771 -0.2164  0.1823 -0.0407
 2273SOL     OW18277   2.443   2.306   4.938 -0.1046  0.0639 -0.1515
 2273SOL    HW118278   2.392   2.369   4.989 -0.1750 -0.7097  0.7097
 2273SOL    HW218279   2.517   2.362   4.913 -0.3265  0.7197  0.6789
 2274SOL     OW18280   0.095   3.584   5.161 -0.3802 -0.2110 -0.1872
 2274SOL    HW118281   0.030   3.538   5.109 -0.1304  2.2110 -2.6341
 2274SOL    HW218282   0.070   3.676   5.152  0.4593  0.1686  1.3583
 2275SOL     OW18283   0.184   1.821  15.318 -0.3915 -0.0568  0.2629
 2275SOL    HW118284   0.237   1.768  15.258 -0.4238 -1.2979  1.3325
 2275SOL    HW218285   0.154   1.894  15.263 -1.4436 -0.1256  0.7507
 2276SOL     OW18286   3.316   1.651   4.726  0.5701  0.6563  0.3002
 2276SOL    HW118287   3.296   1.744   4.723 -1.1181  0.3329  1.5382
 2276SOL    HW218288   3.398   1.652   4.775  1.3257 -0.8342 -0.9157
 2277SOL     OW18289   2.369   2.232  11.351 -0.0512 -0.2136  0.1101
 2277SOL    HW118290   2.293   2.176  11.366  2.1905 -3.5226 -0.9821
 2277SOL    HW218291   2.434   2.162  11.354 -0.4144 -0.4718  2.3415
 2278SOL     OW18292   1.360   3.246   3.460  0.3397  0.0033  0.2340
 2278SOL    HW118293   1.420   3.279   3.394 -0.1245 -3.0764 -1.7289
 2278SOL    HW218294   1.276   3.278   3.427  0.1862 -1.5624 -0.9324
 2279SOL     OW18295   3.235   3.382   4.011  0.4142 -0.3134 -0.1131
 2279SOL    HW118296   3.186   3.302   4.031  0.1461 -0.8202 -2.7412
 2279SOL    HW218297   3.301   3.348   3.951 -0.9500 -0.1748 -1.7023
 2280SOL     OW18298   1.791   1.183   0.173 -0.1339 -0.5887 -0.0836
 2280SOL    HW118299   1.886   1.179   0.169 -0.1568  0.6671 -1.9001
 2280SOL    HW218300   1.768   1.090   0.174 -0.2407 -0.5606  0.1770
 2281SOL     OW18301   3.001   4.273   4.992 -0.2076 -0.2519  0.1865
 2281SOL    HW118302   3.072   4.322   4.949  1.2379 -0.3991  2.4009
 2281SOL    HW218303   2.988   4.198   4.934  0.5934 -0.4794  0.2954
 2282SOL     OW18304   3.048   2.557   2.493 -0.0115  0.8422  0.4271
 2282SOL    HW118305   3.047   2.579   2.400  0.8800  1.3560  0.5340
 2282SOL    HW218306   2.973   2.611   2.514  0.0131  1.4028 -0.9303
 2283SOL     OW18307   3.950   2.522   3.770  0.7771 -0.7658 -0.3470
 2283SOL    HW118308   3.881   2.579   3.735  0.0943 -0.6986  1.0714
 2283SOL    HW218309   3.918   2.517   3.861  0.3780 -0.4900 -0.4705
 2284SOL     OW18310   0.594   2.327   7.311 -0.1235  0.5852  0.9816
 2284SOL    HW118311   0.558   2.413   7.335  1.2929  1.1030  1.2320
 2284SOL    HW218312   0.568   2.314   7.220 -0.1765  0.5478  1.0021
 2285SOL     OW18313   3.255   2.549  10.801 -0.6297 -0.1026 -0.0716
 2285SOL    HW118314   3.343   2.572  10.833  0.1630 -0.9713 -1.6235
 2285SOL    HW218315   3.232   2.640  10.781 -2.0218 -0.7669 -1.4399
 2286SOL     OW18316   2.305   0.073  10.671 -0.1969 -0.3217  0.8352
 2286SOL    HW118317   2.237   0.126  10.629  0.5011  1.1546  1.5722
 2286SOL    HW218318   2.284   0.088  10.763 -3.3105 -0.4419  0.1545
 2287SOL     OW18319   3.828   2.752   2.457  0.1760 -0.0445  0.0185
 2287SOL    HW118320   3.733   2.747   2.467  0.5350 -0.2509  3.3116
 2287SOL    HW218321   3.826   2.765   2.362  1.1239 -2.0451 -0.2817
 2288SOL     OW18322   0.287   3.995   5.152  0.1535  0.4659  0.7576
 2288SOL    HW118323   0.221   3.990   5.220 -1.0764  1.9931 -0.3286
 2288SOL    HW218324   0.245   3.949   5.079 -0.5459  1.3884  0.5796
 2289SOL     OW18325   1.673   2.536  17.576 -0.1607 -0.2677  0.2896
 2289SOL    HW118326   1.701   2.446  17.597 -3.0240 -1.7543 -2.2544
 2289SOL    HW218327   1.584   2.543  17.610  0.5873  0.4821  2.0564
 2290SOL     OW18328   1.729   4.716   0.887 -0.6581 -0.3588 -0.0926
 2290SOL    HW118329   1.768   0.031   0.808 -1.5376  1.0934  0.1720
 2290SOL    HW218330   1.721   4.623   0.865 -2.3953 -0.2729  0.2035
 2291SOL     OW18331   0.949   0.860  10.099  0.0414 -0.6509 -0.8167
 2291SOL    HW118332   0.921   0.774  10.068 -1.7884  0.0014 -0.9294
 2291SOL    HW218333   0.999   0.906  10.031 -1.0118  2.6469  0.5948
 2292SOL     OW18334   0.440   0.546   2.043 -0.0666  0.2853  0.4536
 2292SOL    HW118335   0.509   0.612   2.049  1.0430 -0.5873 -2.4473
 2292SOL    HW218336   0.452   0.480   2.111  0.2991 -1.2444 -1.0820
 2293SOL     OW18337   0.661   2.897   4.856 -0.4645  0.1738 -0.1532
 2293SOL    HW118338   0.588   2.849   4.815 -0.2108  1.6733 -2.3571
 2293SOL    HW218339   0.690   2.939   4.775 -0.4354  1.3717  0.4904
 2294SOL     OW18340   0.515   4.106  12.844  0.8762 -0.4848 -0.8913
 2294SOL    HW118341   0.513   4.105  12.940  1.0378 -1.2661 -0.8953
 2294SOL    HW218342   0.465   4.026  12.828 -1.4884  1.0901 -1.3182
 2295SOL     OW18343   0.503   1.173   9.352  0.2118 -0.4314 -0.2433
 2295SOL    HW118344   0.561   1.099   9.372 -0.1008 -0.9475 -1.2051
 2295SOL    HW218345   0.568   1.231   9.313  1.7974 -3.7948 -2.6152
 2296SOL     OW18346   1.490   2.431   5.907  0.5219  0.1436  0.3530
 2296SOL    HW118347   1.536   2.514   5.917  0.0265  0.3288  1.0359
 2296SOL    HW218348   1.495   2.422   5.811  0.1350  0.8941  0.2704
 2297SOL     OW18349   4.269   1.886   3.929  0.0863  0.1340  1.0181
 2297SOL    HW118350   4.200   1.939   3.890 -0.4839 -0.3588  1.3699
 2297SOL    HW218351   4.249   1.900   4.021  0.4959  0.6285  1.0325
 2298SOL     OW18352   0.868   2.771   8.162  0.4765  0.1384 -0.4578
 2298SOL    HW118353   0.910   2.817   8.235 -1.4019  0.1339  0.6416
 2298SOL    HW218354   0.906   2.811   8.084  2.3900 -0.2661  0.2659
 2299SOL     OW18355   1.512   1.654   1.838 -0.4206  0.2371 -0.4696
 2299SOL    HW118356   1.429   1.702   1.833  1.0820  2.7052 -1.6461
 2299SOL    HW218357   1.573   1.705   1.785 -0.5071  1.2732  0.4266
 2300SOL     OW18358   3.224   0.999   3.533 -0.1766 -0.4609  0.4851
 2300SOL    HW118359   3.232   1.070   3.469  1.8535  0.8502  2.2196
 2300SOL    HW218360   3.317   0.992   3.555  0.1155  0.7814 -0.3265
 2301SOL     OW18361   1.021   2.810   9.452 -0.0378  0.2375 -0.4660
 2301SOL    HW118362   0.959   2.781   9.518 -0.2666  0.9953 -0.3417
 2301SOL    HW218363   1.102   2.766   9.477  0.4412  0.2186 -2.0721
 2302SOL     OW18364   2.733   0.581   3.453  0.3269 -0.2979  0.4523
 2302SOL    HW118365   2.805   0.576   3.517  0.8552 -3.0712 -0.3573
 2302SOL    HW218366   2.662   0.622   3.503  0.1945  1.4394 -1.1371
 2303SOL     OW18367   4.539   3.045  17.527  0.2442  0.0837  0.0957
 2303SOL    HW118368   4.540   3.128  17.575  0.3260  0.0505  0.1507
 2303SOL    HW218369   4.625   3.037  17.487 -1.1618 -0.1786 -2.8793
 2304SOL     OW18370   4.465   2.377   3.381 -0.0531 -0.3088  0.6293
 2304SOL    HW118371   4.486   2.305   3.441  0.6237 -2.0470 -1.6797
 2304SOL    HW218372   4.473   2.443   3.450 -2.2254  1.5719 -0.9397
 2305SOL     OW18373   4.204   2.681   5.141  0.5493  0.3469  0.4669
 2305SOL    HW118374   4.146   2.710   5.071  0.2379  1.9580  1.3924
 2305SOL    HW218375   4.258   2.619   5.092  1.3085 -0.6961  2.6332
 2306SOL     OW18376   1.187   2.315   6.613 -0.2468  0.1118 -0.2213
 2306SOL    HW118377   1.260   2.376   6.626  0.0712 -0.3376  0.1173
 2306SOL    HW218378   1.149   2.356   6.535 -1.4531  0.4174  0.5234
 2307SOL     OW18379   2.376   1.382   3.211 -0.2986 -0.7124  0.4110
 2307SOL    HW118380   2.372   1.356   3.119 -1.7829  0.5190  0.1262
 2307SOL    HW218381   2.471   1.378   3.219  0.1403  0.6967 -4.1188
 2308SOL     OW18382   2.438   2.369   6.738  0.2053  0.3404 -0.1656
 2308SOL    HW118383   2.422   2.314   6.815 -0.5084 -1.4777 -1.6332
 2308SOL    HW218384   2.397   2.447   6.775  1.6639  1.2006 -0.3262
 2309SOL     OW18385   1.669   1.703   0.290 -0.1341 -0.1888 -0.0017
 2309SOL    HW118386   1.586   1.717   0.336  0.5449 -0.2523  1.2402
 2309SOL    HW218387   1.712   1.789   0.295 -1.3001  0.3552  0.7037
 2310SOL     OW18388   4.432   0.828  12.560  0.4073 -0.6269  0.3463
 2310SOL    HW118389   4.341   0.850  12.543  0.3332 -1.1836  0.0362
 2310SOL    HW218390   4.467   0.907  12.519 -0.9689 -0.2046  0.0018
 2311SOL     OW18391   0.397   4.016  17.246 -0.4307 -0.0386 -0.0005
 2311SOL    HW118392   0.429   4.107  17.245  0.0969 -0.2317 -0.5983
 2311SOL    HW218393   0.445   3.992  17.324  1.6995  0.1465 -1.2580
 2312SOL     OW18394   3.233   1.498   1.686  0.8535 -0.2373  0.0610
 2312SOL    HW118395   3.145   1.533   1.701  0.7237 -0.3118 -0.5321
 2312SOL    HW218396   3.238   1.438   1.761 -0.0396  0.8321  0.9879
 2313SOL     OW18397   1.946   3.199   0.244  0.7559 -1.0065 -0.1184
 2313SOL    HW118398   1.991   3.178   0.325 -2.0974  0.0122  1.7182
 2313SOL    HW218399   1.908   3.114   0.221 -1.6984  0.2750 -0.8003
 2314SOL     OW18400   1.800   0.952   5.573 -0.1235  0.5372 -0.1655
 2314SOL    HW118401   1.761   0.893   5.508  0.3452 -0.0464  0.0828
 2314SOL    HW218402   1.755   1.030   5.539  0.5869  0.8617 -0.3577
 2315SOL     OW18403   0.549   2.483   1.450  0.7655  0.1803 -0.2932
 2315SOL    HW118404   0.488   2.532   1.395  1.9604  0.4461 -1.3761
 2315SOL    HW218405   0.493   2.409   1.474  1.1821  0.1317  0.5142
 2316SOL     OW18406   2.964   0.705   6.090 -0.2966 -0.0045 -0.3851
 2316SOL    HW118407   2.882   0.656   6.102  0.6851 -2.0834 -2.0344
 2316SOL    HW218408   2.929   0.780   6.043  0.3009  0.6391  0.2029
 2317SOL     OW18409   3.878   0.311   5.485 -0.4292 -0.2547  0.3031
 2317SOL    HW118410   3.962   0.358   5.484 -1.0162  0.8395  1.8667
 2317SOL    HW218411   3.810   0.366   5.523 -1.8860  1.2517 -4.5280
 2318SOL     OW18412   0.716   0.824   1.225  0.1871 -0.1532 -0.6562
 2318SOL    HW118413   0.676   0.776   1.297 -3.4686  1.5383 -1.5586
 2318SOL    HW218414   0.694   0.916   1.239 -0.9631 -0.1158 -2.6942
 2319SOL     OW18415   1.405   3.142   6.212 -0.1146 -0.2061 -0.6024
 2319SOL    HW118416   1.375   3.082   6.144 -1.7788 -0.1392  0.0737
 2319SOL    HW218417   1.488   3.179   6.181  1.7165 -2.3806  1.7333
 2320SOL     OW18418   0.208   1.416  15.822 -0.0062 -0.3487 -0.2667
 2320SOL    HW118419   0.259   1.497  15.825 -0.1718 -0.2269 -0.7770
 2320SOL    HW218420   0.132   1.426  15.878  0.1402 -2.1512  0.2697
 2321SOL     OW18421   3.878   0.227   4.647 -0.7494  0.4214 -0.0055
 2321SOL    HW118422   3.866   0.312   4.690 -0.8136  0.1360  0.5410
 2321SOL    HW218423   3.808   0.178   4.690 -1.0507  0.1641 -0.7912
 2322SOL     OW18424   1.235   1.875   0.918 -0.0673 -0.3580 -0.0646
 2322SOL    HW118425   1.243   1.959   0.871  3.3097  0.3928  1.7806
 2322SOL    HW218426   1.173   1.900   0.986 -0.4654  2.0138 -1.2710
 2323SOL     OW18427   0.802   0.669   5.851 -0.0030  0.2125 -0.0116
 2323SOL    HW118428   0.818   0.758   5.883 -1.3095  0.6861 -0.6953
 2323SOL    HW218429   0.713   0.686   5.819 -0.8175  0.0621  2.1613
 2324SOL     OW18430   4.520   3.406   1.524 -0.2742 -0.3673 -0.0805
 2324SOL    HW118431   4.531   3.409   1.429 -0.0499 -2.2058 -0.1180
 2324SOL    HW218432   4.600   3.435   1.568 -0.6361  0.8740 -0.2439
 2325SOL     OW18433   4.430   2.340   8.450  0.1731  0.0806  0.0240
 2325SOL    HW118434   4.484   2.366   8.376  1.3512  1.9106  1.5491
 2325SOL    HW218435   4.462   2.404   8.513 -2.1002 -0.1844  1.4442
 2326SOL     OW18436   2.703   1.575  11.888 -0.1449  0.0795 -0.0753
 2326SOL    HW118437   2.746   1.603  11.807 -4.2769  2.0656 -1.6045
 2326SOL    HW218438   2.670   1.485  11.881 -1.5186  0.6419 -0.9976
 2327SOL     OW18439   2.634   1.875   8.378  0.1824 -0.5548 -0.1171
 2327SOL    HW118440   2.628   1.792   8.332  0.1944 -0.5695 -0.0922
 2327SOL    HW218441   2.706   1.913   8.327 -0.9627 -0.6567 -1.7740
 2328SOL     OW18442   2.710   3.575   6.679 -0.2309 -0.1588  0.0929
 2328SOL    HW118443   2.710   3.542   6.589  2.8332  1.4777 -0.4819
 2328SOL    HW218444   2.804   3.590   6.689 -0.1615 -1.8569  2.0468
 2329SOL     OW18445   3.669   2.924   9.342 -0.4156  0.3143 -0.3961
 2329SOL    HW118446   3.614   2.980   9.288 -1.2990  0.7843  0.9833
 2329SOL    HW218447   3.737   2.901   9.279  0.3050 -0.8661  0.8052
 2330SOL     OW18448   2.186   4.179   9.957 -0.5939 -0.4832  0.1282
 2330SOL    HW118449   2.143   4.197   9.874  0.7905  0.8206 -0.2997
 2330SOL    HW218450   2.125   4.115   9.994  0.3052 -2.4830 -1.8020
 2331SOL     OW18451   4.269   1.483   9.485 -0.3718 -0.2041  0.0053
 2331SOL    HW118452   4.360   1.457   9.469  0.0189  0.5845  0.9508
 2331SOL    HW218453   4.263   1.574   9.456  1.8566  0.0633  0.3969
 2332SOL     OW18454   0.894   2.269   7.951 -0.0875  0.5078  0.3715
 2332SOL    HW118455   0.841   2.334   7.998 -0.2542  2.2681 -2.2774
 2332SOL    HW218456   0.869   2.279   7.859  0.7078 -0.2859  0.0701
 2333SOL     OW18457   4.334   4.225  17.443  0.3989 -0.2418  0.2878
 2333SOL    HW118458   4.312   4.226  17.536 -0.8797  2.4054 -0.0416
 2333SOL    HW218459   4.376   4.141  17.429  0.2469 -0.6722  2.4634
 2334SOL     OW18460   3.777   0.586  13.539 -0.4109  0.3708 -0.4223
 2334SOL    HW118461   3.762   0.679  13.556 -3.1305 -0.6598  2.7222
 2334SOL    HW218462   3.871   0.581  13.522 -1.1066 -1.4071 -3.7936
 2335SOL     OW18463   2.948   0.858  12.586 -0.0769  0.1970 -0.8331
 2335SOL    HW118464   2.925   0.869  12.678  1.3608  1.4583 -0.6118
 2335SOL    HW218465   2.860   0.849  12.550 -0.0921 -0.3824 -0.6529
 2336SOL     OW18466   0.306   2.914   0.542 -0.1345  0.7729  0.3808
 2336SOL    HW118467   0.346   2.959   0.616  0.0663 -1.1985  1.4532
 2336SOL    HW218468   0.216   2.901   0.572 -0.0396  0.9541  0.7472
 2337SOL     OW18469   3.259   2.100  13.569  0.6073  0.2620 -0.0530
 2337SOL    HW118470   3.228   2.116  13.658 -0.7697  0.3316 -0.5451
 2337SOL    HW218471   3.259   2.182  13.520 -1.9375 -0.4756 -1.2541
 2338SOL     OW18472   4.293   2.989  16.777 -0.1665 -0.3716  0.4327
 2338SOL    HW118473   4.236   3.054  16.819  1.7288  1.6681 -0.1443
 2338SOL    HW218474   4.364   3.010  16.838  0.0893  2.3106 -0.7682
 2339SOL     OW18475   0.497   2.393  15.816 -0.2147 -0.0645  0.3216
 2339SOL    HW118476   0.464   2.458  15.877  0.2448  1.1442 -0.7303
 2339SOL    HW218477   0.458   2.309  15.842 -0.6367 -1.1729 -3.8881
 2340SOL     OW18478   2.841   1.796   5.468 -0.1889  0.3765  0.0799
 2340SOL    HW118479   2.853   1.772   5.376  1.6779 -1.1711  0.7308
 2340SOL    HW218480   2.802   1.883   5.458 -1.1140 -0.2439 -1.6494
 2341SOL     OW18481   2.548   1.693   8.819  1.6134  0.0937 -0.0121
 2341SOL    HW118482   2.583   1.751   8.752 -2.9509  0.1571 -2.2938
 2341SOL    HW218483   2.599   1.733   8.890  0.4479 -1.3129  1.6319
 2342SOL     OW18484   0.968   0.344   5.393 -0.1088  0.0530 -0.0366
 2342SOL    HW118485   0.913   0.405   5.443 -2.1647 -1.7040 -0.1769
 2342SOL    HW218486   0.976   0.281   5.465 -1.9097  0.1656  0.2554
 2343SOL     OW18487   4.201   0.560   9.005 -0.0452 -0.3123  0.3186
 2343SOL    HW118488   4.223   0.496   8.938  2.6834  0.6501  0.2917
 2343SOL    HW218489   4.119   0.521   9.034 -1.0351  2.1767  0.8375
 2344SOL     OW18490   3.597   1.282   1.922 -0.1300  0.0451 -0.2561
 2344SOL    HW118491   3.671   1.228   1.947  1.6917  2.3550 -0.6513
 2344SOL    HW218492   3.646   1.332   1.857 -1.2141 -0.9831 -1.8493
 2345SOL     OW18493   0.192   0.386   4.665  0.1114 -0.4846 -0.2257
 2345SOL    HW118494   0.275   0.337   4.662 -0.7332 -1.9218  0.0992
 2345SOL    HW218495   0.133   0.311   4.668 -1.6003  1.0651  3.2972
 2346SOL     OW18496   3.286   2.810   4.880 -0.6073 -0.3364 -0.3261
 2346SOL    HW118497   3.312   2.718   4.881  0.4285 -0.0672 -1.2676
 2346SOL    HW218498   3.335   2.849   4.807 -2.3380  0.8987 -0.8351
 2347SOL     OW18499   2.075   3.428   7.047  0.3219  0.2652 -0.1431
 2347SOL    HW118500   2.067   3.517   7.082 -3.2686 -0.2246  0.3247
 2347SOL    HW218501   2.083   3.438   6.952  2.3787  0.0535  0.0244
 2348SOL     OW18502   3.265   2.700   5.242 -0.2418  0.1440  0.6582
 2348SOL    HW118503   3.326   2.760   5.285  2.1188 -0.5932 -1.6534
 2348SOL    HW218504   3.187   2.755   5.235 -1.4437 -1.6878 -0.3169
 2349SOL     OW18505   2.406   4.539   8.476 -0.1975 -0.6242  0.3752
 2349SOL    HW118506   2.331   4.492   8.441 -0.2242  0.0586 -0.4855
 2349SOL    HW218507   2.475   4.512   8.415  0.3535 -1.6369  1.4487
 2350SOL     OW18508   3.076   2.980  10.943  0.1088  0.2693  0.5062
 2350SOL    HW118509   3.025   2.944  10.871  1.8598 -1.1967  0.0123
 2350SOL    HW218510   3.011   2.980  11.014 -1.1325  0.5662 -0.6358
 2351SOL     OW18511   0.276   1.898   7.677 -0.3255  0.1239  0.3675
 2351SOL    HW118512   0.242   1.810   7.659  1.4395  0.1931 -3.2918
 2351SOL    HW218513   0.207   1.949   7.634  0.6360 -0.6240 -2.0471
 2352SOL     OW18514   2.776   4.021   2.366  0.1621 -0.0060 -0.4188
 2352SOL    HW118515   2.826   3.990   2.290  0.7799 -2.2723  0.9045
 2352SOL    HW218516   2.761   3.941   2.416 -2.5051  0.3257 -0.6704
 2353SOL     OW18517   4.375   1.773   7.360  0.8268  0.0687 -0.5715
 2353SOL    HW118518   4.439   1.817   7.304  0.9576  1.2677  0.5158
 2353SOL    HW218519   4.406   1.801   7.446 -2.8745 -0.7434  1.0381
 2354SOL     OW18520   2.218   0.384   5.253 -0.1180 -0.4370  0.7159
 2354SOL    HW118521   2.237   0.296   5.285 -0.2018 -0.5979  0.3226
 2354SOL    HW218522   2.135   0.364   5.209 -1.0749 -0.6778  2.6470
 2355SOL     OW18523   2.459   2.695   2.784 -0.3162  0.0269 -0.0793
 2355SOL    HW118524   2.479   2.620   2.840  0.9382 -0.0022 -0.5688
 2355SOL    HW218525   2.485   2.771   2.835 -0.8631  0.4219 -0.3867
 2356SOL     OW18526   2.702   3.251   9.511  0.0029 -0.0945  0.1282
 2356SOL    HW118527   2.654   3.248   9.594 -2.6536 -3.1151 -1.4927
 2356SOL    HW218528   2.776   3.304   9.540 -1.5314  1.1601  1.7179
 2357SOL     OW18529   1.596   4.019   4.708 -0.2338  0.1819 -0.3745
 2357SOL    HW118530   1.663   4.051   4.769  0.4740  0.9719 -1.5520
 2357SOL    HW218531   1.629   4.026   4.618 -1.4356  1.0386 -0.7361
 2358SOL     OW18532   4.168   4.186   3.032 -0.3529 -0.0354  0.1534
 2358SOL    HW118533   4.129   4.274   3.029  3.2152  1.5020 -0.8170
 2358SOL    HW218534   4.094   4.129   3.053  1.0005 -1.9493 -0.3243
 2359SOL     OW18535   1.658   2.597   0.288 -0.5229  0.5312 -0.5719
 2359SOL    HW118536   1.677   2.505   0.269  0.9932  0.2684  2.2179
 2359SOL    HW218537   1.742   2.641   0.280  0.3547 -1.1474 -0.6533
 2360SOL     OW18538   0.142   2.831   2.539  0.6951 -0.2615 -0.1154
 2360SOL    HW118539   0.053   2.841   2.505  0.4805  0.3116  0.6091
 2360SOL    HW218540   0.149   2.895   2.609 -2.7065 -1.6174  1.4661
 2361SOL     OW18541   2.248   1.577   5.407 -0.2317  0.0681  0.0846
 2361SOL    HW118542   2.199   1.523   5.344 -0.8278 -0.3850  0.9388
 2361SOL    HW218543   2.321   1.600   5.350 -0.8941  0.3760 -0.6420
 2362SOL     OW18544   4.040   0.148  16.416 -0.1025  0.2165  0.3277
 2362SOL    HW118545   4.125   0.176  16.452 -0.0845 -0.5040  0.8580
 2362SOL    HW218546   4.002   0.231  16.390  0.7750  1.0651  1.7134
 2363SOL     OW18547   3.071   3.303   3.137  0.5357  0.1228  0.2653
 2363SOL    HW118548   3.074   3.352   3.055 -1.9088 -0.6983 -0.3072
 2363SOL    HW218549   3.102   3.370   3.198  1.4367  0.5519 -0.6610
 2364SOL     OW18550   4.531   2.101   4.436  0.0937  0.3601 -0.0688
 2364SOL    HW118551   4.580   2.066   4.362 -0.7020  0.8652 -0.8200
 2364SOL    HW218552   4.595   2.096   4.508  0.3005 -1.4930 -0.3713
 2365SOL     OW18553   1.368   2.765  16.201  0.0096 -0.0097 -0.3023
 2365SOL    HW118554   1.293   2.709  16.185 -0.4161  1.0735 -2.1643
 2365SOL    HW218555   1.435   2.717  16.152  2.0132  3.1386 -0.6597
 2366SOL     OW18556   1.540   1.411   2.002 -0.1858 -0.0979 -0.3792
 2366SOL    HW118557   1.556   1.448   1.915  5.8167  1.3440  1.3087
 2366SOL    HW218558   1.608   1.452   2.055  0.0948 -0.4908 -0.4349
 2367SOL     OW18559   2.952   1.455   4.529 -0.0576  0.0458  0.2264
 2367SOL    HW118560   3.024   1.442   4.467 -1.1638 -1.2436 -0.7882
 2367SOL    HW218561   3.005   1.435   4.606  1.0893 -0.6209 -0.7468
 2368SOL     OW18562   1.482   0.877   5.890 -0.2766 -0.2807  0.1107
 2368SOL    HW118563   1.392   0.901   5.913  0.0230  2.0945 -1.1549
 2368SOL    HW218564   1.523   0.956   5.855  0.3714 -0.4527  0.4825
 2369SOL     OW18565   1.171   2.974   3.324 -0.4748  0.0025 -0.0366
 2369SOL    HW118566   1.266   2.969   3.312 -0.7266 -0.7901 -1.7832
 2369SOL    HW218567   1.144   3.019   3.244 -1.1930 -1.1729 -0.4547
 2370SOL     OW18568   1.745   3.514   1.419 -0.1119  0.3094 -0.3366
 2370SOL    HW118569   1.673   3.568   1.387 -0.1700  0.6861  0.4340
 2370SOL    HW218570   1.818   3.570   1.392  0.7980 -1.6939 -2.0593
 2371SOL     OW18571   0.472   1.551   2.169  0.3033  0.4150 -0.8180
 2371SOL    HW118572   0.405   1.598   2.120  1.1973  2.1913 -0.3305
 2371SOL    HW218573   0.483   1.600   2.250 -0.7854  1.1887 -1.1349
 2372SOL     OW18574   1.028   3.853   5.788 -0.3806  0.0173  0.4578
 2372SOL    HW118575   0.964   3.850   5.717  0.8544  0.5629 -0.6816
 2372SOL    HW218576   1.009   3.769   5.831  1.5855 -0.5037  0.3155
 2373SOL     OW18577   4.526   4.071   9.739  0.0347  0.5486  0.2963
 2373SOL    HW118578   4.565   4.005   9.797  0.0657 -1.0218 -1.5380
 2373SOL    HW218579   4.567   4.144   9.785  2.7771 -0.8400  0.0556
 2374SOL     OW18580   1.453   2.470   4.391  0.1563  0.6192  0.0481
 2374SOL    HW118581   1.383   2.414   4.357  1.6021 -1.3649  0.2865
 2374SOL    HW218582   1.393   2.527   4.439 -1.0530 -0.3561 -0.3018
 2375SOL     OW18583   0.987   0.607   2.953  0.2339  0.1119 -0.4153
 2375SOL    HW118584   0.897   0.581   2.933 -0.4920  2.6516 -0.5069
 2375SOL    HW218585   1.025   0.628   2.868  2.4659 -0.1912  0.4971
 2376SOL     OW18586   0.309   0.677   7.464  0.1379 -0.3880  0.3601
 2376SOL    HW118587   0.257   0.602   7.434 -0.4246 -0.0030  0.3629
 2376SOL    HW218588   0.256   0.697   7.542  0.0093 -1.6512  0.5933
 2377SOL     OW18589   2.998   3.399   4.274  0.1946  0.0563  0.0247
 2377SOL    HW118590   3.007   3.468   4.339  0.0721 -1.4600  1.6498
 2377SOL    HW218591   2.999   3.331   4.341  0.4184  1.1684  1.1517
 2378SOL     OW18592   2.431   3.112  16.833  0.9992  0.3842  0.3646
 2378SOL    HW118593   2.346   3.149  16.808  0.5375  0.3472  1.8791
 2378SOL    HW218594   2.439   3.064  16.750  0.3371 -1.5242  1.3952
 2379SOL     OW18595   3.329   3.236   4.380  0.1032 -0.5736 -0.5652
 2379SOL    HW118596   3.243   3.219   4.416 -0.3548 -0.0775 -1.4172
 2379SOL    HW218597   3.329   3.331   4.373  0.6220 -0.2537  4.3114
 2380SOL     OW18598   1.775   3.265  16.499 -0.7358  0.2095  0.4632
 2380SOL    HW118599   1.746   3.234  16.584 -0.2457 -1.8236 -0.1143
 2380SOL    HW218600   1.845   3.325  16.528  1.7840 -1.8664 -1.3055
 2381SOL     OW18601   2.943   3.571   2.095  0.0827 -0.2393  0.1674
 2381SOL    HW118602   2.870   3.603   2.148 -0.7008 -1.4499 -0.2025
 2381SOL    HW218603   2.901   3.565   2.010  2.1938 -0.2058 -0.8823
 2382SOL     OW18604   1.968   2.697   7.705 -0.1562  0.0163 -0.5777
 2382SOL    HW118605   1.995   2.605   7.699 -0.9805 -0.1614 -1.4369
 2382SOL    HW218606   1.879   2.694   7.741  0.6562 -0.5612  1.3946
 2383SOL     OW18607   2.367   4.506  14.024 -0.1991 -0.2394  0.3012
 2383SOL    HW118608   2.429   4.566  13.983  0.2557  0.3341  1.8078
 2383SOL    HW218609   2.398   4.499  14.114  0.2122 -1.1641  0.0849
 2384SOL     OW18610   0.247   0.134   6.630 -0.0857  0.7856 -0.1202
 2384SOL    HW118611   0.220   0.224   6.648  0.2128  0.9566 -0.5196
 2384SOL    HW218612   0.312   0.155   6.562  1.0417  1.4054  1.1554
 2385SOL     OW18613   4.486   2.493   7.787 -0.4522  0.1835  0.4099
 2385SOL    HW118614   4.552   2.435   7.748 -1.1912  0.1248 -0.7496
 2385SOL    HW218615   4.463   2.442   7.865 -1.3380  0.2061  0.1562
 2386SOL     OW18616   1.393   3.591   7.797  0.3545  0.1052  0.1663
 2386SOL    HW118617   1.441   3.628   7.871  1.7493 -1.1292 -0.1105
 2386SOL    HW218618   1.439   3.508   7.782  0.0484  0.2460 -1.5646
 2387SOL     OW18619   3.479   0.301   6.200  0.1015  0.3774 -0.7241
 2387SOL    HW118620   3.426   0.373   6.235  1.3207  1.0347 -0.2563
 2387SOL    HW218621   3.529   0.346   6.132  2.3540  0.2735  0.8854
 2388SOL     OW18622   1.693   1.914  11.075 -0.2864  0.1374 -0.0906
 2388SOL    HW118623   1.670   1.958  11.157 -0.4972  2.3592 -1.3391
 2388SOL    HW218624   1.717   1.828  11.111 -0.3525 -1.4187 -3.8128
 2389SOL     OW18625   2.537   2.333   3.410 -0.4194 -0.3979  0.1463
 2389SOL    HW118626   2.580   2.248   3.419 -0.6867 -0.7152 -1.5038
 2389SOL    HW218627   2.486   2.331   3.491  0.7569  1.6243  0.9475
 2390SOL     OW18628   2.159   1.976   2.255 -0.6901  0.0442 -0.0457
 2390SOL    HW118629   2.239   1.976   2.308 -1.3837 -0.7703  1.0200
 2390SOL    HW218630   2.201   1.992   2.171  3.1480 -2.2814  1.4349
 2391SOL     OW18631   2.848   0.350   9.699  0.0368  0.4152 -0.2297
 2391SOL    HW118632   2.870   0.280   9.637 -1.4373  0.5711 -0.9238
 2391SOL    HW218633   2.770   0.314   9.742  1.1151 -1.7252 -0.0660
 2392SOL     OW18634   0.909   3.016   7.431 -0.0608 -0.2677 -0.3271
 2392SOL    HW118635   0.980   3.061   7.385  1.5898 -3.5302 -0.9301
 2392SOL    HW218636   0.836   3.059   7.385  0.0812  1.1093  0.7460
 2393SOL     OW18637   0.378   2.303   1.282 -0.3614  0.1971 -0.3553
 2393SOL    HW118638   0.291   2.338   1.262 -0.5268  0.3050  0.5645
 2393SOL    HW218639   0.425   2.321   1.201 -0.4862  2.5112  0.0709
 2394SOL     OW18640   4.436   2.903   5.321  0.1596  0.1132 -0.0520
 2394SOL    HW118641   4.484   2.847   5.259 -1.3196 -1.3400  0.1218
 2394SOL    HW218642   4.495   2.890   5.395 -0.1036 -2.7316 -0.3406
 2395SOL     OW18643   3.969   2.807  17.649  0.2689  0.1634 -0.4310
 2395SOL    HW118644   3.887   2.855  17.642 -0.2175 -0.3889  1.4398
 2395SOL    HW218645   3.940   2.738   0.014  0.9967 -0.4183 -0.7399
 2396SOL     OW18646   3.159   3.810  15.529  0.7843 -0.3813  0.1997
 2396SOL    HW118647   3.182   3.809  15.436  3.6291  0.8453  0.8955
 2396SOL    HW218648   3.223   3.748  15.565 -3.1250 -4.5151 -0.0354
 2397SOL     OW18649   1.701   3.761   3.093  0.5491  0.3643 -0.2456
 2397SOL    HW118650   1.762   3.836   3.097 -0.8413  1.4154  1.1544
 2397SOL    HW218651   1.681   3.762   2.999  2.0026 -1.3817 -0.5651
 2398SOL     OW18652   2.521   4.194   3.952 -0.1558 -0.0631  0.4614
 2398SOL    HW118653   2.466   4.257   3.906  1.8104  1.6353  0.3920
 2398SOL    HW218654   2.535   4.238   4.036  1.1535  0.6629 -0.1348
 2399SOL     OW18655   4.037   4.482   6.040 -0.0141  0.0451  0.2346
 2399SOL    HW118656   3.993   4.489   5.955  0.2821  0.4687  0.1177
 2399SOL    HW218657   4.036   4.573   6.070 -1.1506  0.8282 -2.1572
 2400SOL     OW18658   0.882   1.296   0.171  0.2238  0.1322 -0.3492
 2400SOL    HW118659   0.951   1.283   0.236  0.7611  0.1059 -0.9242
 2400SOL    HW218660   0.842   1.211   0.186 -1.8306  1.0158 -0.7586
 2401SOL     OW18661   2.015   0.041  13.122  0.3613  0.7139  1.1599
 2401SOL    HW118662   1.937   0.010  13.077  0.8280  1.7648 -0.3956
 2401SOL    HW218663   2.085   4.708  13.088  0.5997  1.6345  0.1106
 2402SOL     OW18664   0.220   1.119   1.359  0.4022  0.1055 -0.3244
 2402SOL    HW118665   0.178   1.120   1.445  1.8418  0.1685  0.3826
 2402SOL    HW218666   0.305   1.078   1.377  0.4461  1.6423  2.8461
 2403SOL     OW18667   1.078   4.149   3.813  0.4745 -0.0911  0.7889
 2403SOL    HW118668   1.013   4.214   3.838  1.8600  1.5856 -0.0266
 2403SOL    HW218669   1.087   4.163   3.719 -1.7333 -0.7453  0.4800
 2404SOL     OW18670   4.356   2.808  16.556 -0.1005  0.4369 -0.1067
 2404SOL    HW118671   4.321   2.861  16.485  1.7918  2.0179  0.1301
 2404SOL    HW218672   4.342   2.868  16.629  2.2535 -0.9370  1.5088
 2405SOL     OW18673   1.797   0.138   4.660 -0.4335 -0.1452  0.0969
 2405SOL    HW118674   1.806   0.093   4.744  0.0850 -1.3422 -0.5936
 2405SOL    HW218675   1.811   0.230   4.683 -1.0577 -0.2572  0.9310
 2406SOL     OW18676   3.881   0.992   3.706 -0.0381  0.2809  0.0040
 2406SOL    HW118677   3.799   1.021   3.747 -0.0481 -1.1106  0.9660
 2406SOL    HW218678   3.939   1.060   3.740  1.8656 -1.5205  0.3584
 2407SOL     OW18679   0.901   2.384   2.669  0.6245  0.4516 -0.0194
 2407SOL    HW118680   0.865   2.389   2.580 -1.5611 -2.8327  0.6884
 2407SOL    HW218681   0.884   2.472   2.702 -1.1838  0.3248 -0.6032
 2408SOL     OW18682   1.968   4.624   7.444 -0.2272  0.0626  0.0001
 2408SOL    HW118683   2.061   4.635   7.466 -0.3580  0.3663  0.3871
 2408SOL    HW218684   1.924   4.708   7.454  1.4189  0.8091  1.1294
 2409SOL     OW18685   2.341   1.981   8.774  0.0531  0.4391 -0.0484
 2409SOL    HW118686   2.329   2.069   8.736  1.1186 -0.2012 -1.8445
 2409SOL    HW218687   2.431   1.991   8.807 -0.0397  0.9285  0.0579
 2410SOL     OW18688   1.256   2.443   3.589 -0.9562  0.0134  0.0436
 2410SOL    HW118689   1.332   2.490   3.623 -0.0353 -2.8593  1.9471
 2410SOL    HW218690   1.296   2.361   3.562  1.1512  0.5551  1.4822
 2411SOL     OW18691   4.405   4.640   6.871 -0.1073  0.1466 -0.3676
 2411SOL    HW118692   4.332   4.577   6.865 -0.7032  0.7452  0.5772
 2411SOL    HW218693   4.450   4.639   6.787 -0.6249  2.0262 -0.6580
 2412SOL     OW18694   3.961   2.588   2.773  0.6696 -0.3510 -0.3358
 2412SOL    HW118695   4.024   2.521   2.800  1.6050  0.0311 -1.6007
 2412SOL    HW218696   3.878   2.544   2.793  0.9260 -0.2309  1.0137
 2413SOL     OW18697   3.339   0.140   8.637 -0.6974 -0.1049 -0.2178
 2413SOL    HW118698   3.254   0.183   8.627 -0.6584  0.0012 -0.0926
 2413SOL    HW218699   3.311   0.061   8.682 -1.6414 -0.7483 -1.9485
 2414SOL     OW18700   0.510   3.075  15.217  0.3668 -0.0245 -0.0444
 2414SOL    HW118701   0.431   3.130  15.219  0.9849  0.8981 -1.5724
 2414SOL    HW218702   0.492   3.025  15.137  1.0804  2.5734 -1.8350
 2415SOL     OW18703   0.930   1.026   1.848 -0.0094  0.2715  0.3085
 2415SOL    HW118704   0.901   1.011   1.758 -1.5596  1.4281  0.6350
 2415SOL    HW218705   0.897   1.115   1.858 -1.0639 -0.2049  1.0641
 2416SOL     OW18706   2.665   3.851  13.177 -0.8876  0.5436  0.3905
 2416SOL    HW118707   2.613   3.776  13.149 -0.4760  0.0059  1.0422
 2416SOL    HW218708   2.605   3.896  13.236 -0.3817  1.0417  0.5310
 2417SOL     OW18709   3.231   3.349   7.817 -0.0645  0.0028  0.1521
 2417SOL    HW118710   3.318   3.325   7.786 -1.0894 -2.8663 -0.5857
 2417SOL    HW218711   3.212   3.433   7.777  0.2591 -0.9936 -2.0873
 2418SOL     OW18712   2.726   0.263   5.183  0.3219 -0.5634  0.2484
 2418SOL    HW118713   2.675   0.186   5.160 -0.7506  0.1604  0.2233
 2418SOL    HW218714   2.698   0.290   5.270  0.5130 -0.9849  0.4388
 2419SOL     OW18715   3.723   2.615   8.633  0.7390  0.1708 -0.0509
 2419SOL    HW118716   3.749   2.691   8.582  1.3611  0.7496  1.1228
 2419SOL    HW218717   3.761   2.638   8.718  1.2529  1.3466 -0.5934
 2420SOL     OW18718   0.380   4.197   8.800  0.5396 -0.3857 -0.1156
 2420SOL    HW118719   0.416   4.268   8.748 -0.3688 -0.1898 -0.4652
 2420SOL    HW218720   0.435   4.121   8.780 -2.4358 -2.5128 -0.3371
 2421SOL     OW18721   1.835   0.852   6.458  0.9720  0.2248  0.3211
 2421SOL    HW118722   1.913   0.812   6.495  0.4083 -0.5851  0.6382
 2421SOL    HW218723   1.816   0.772   6.409 -1.4053  0.6904  0.4644
 2422SOL     OW18724   1.043   3.021   4.673  0.5601  0.1153 -0.0123
 2422SOL    HW118725   1.131   2.984   4.673  1.0622  1.3029  1.0539
 2422SOL    HW218726   1.054   3.096   4.731 -0.7807 -0.9955  1.6864
 2423SOL     OW18727   3.972   0.576   2.193  0.7291  0.4052  0.3242
 2423SOL    HW118728   3.997   0.667   2.176 -0.3261  0.6246 -0.0876
 2423SOL    HW218729   3.916   0.589   2.269 -0.5641 -2.4107 -0.1523
 2424SOL     OW18730   4.409   0.931   7.263 -0.1474 -0.3455 -0.2757
 2424SOL    HW118731   4.400   0.837   7.279  0.4283 -0.4689 -0.6496
 2424SOL    HW218732   4.488   0.929   7.208  0.7352 -1.8558  1.0269
 2425SOL     OW18733   1.305   0.809   3.799 -0.4171 -0.0008  0.0635
 2425SOL    HW118734   1.399   0.828   3.789 -0.3547 -0.7461 -0.8028
 2425SOL    HW218735   1.300   0.749   3.725  0.9613 -3.8295  3.0531
 2426SOL     OW18736   0.348   2.520   3.083 -0.6558  0.3975  0.4906
 2426SOL    HW118737   0.425   2.543   3.030 -0.6812  0.2931  0.4105
 2426SOL    HW218738   0.294   2.485   3.013  3.2546 -1.4891 -1.5588
 2427SOL     OW18739   3.634   3.829   6.884  0.0992 -0.2955  0.0657
 2427SOL    HW118740   3.701   3.897   6.894 -0.6902  0.1492  2.1854
 2427SOL    HW218741   3.568   3.883   6.841  0.3395  0.9697  1.3103
 2428SOL     OW18742   0.540   0.566  16.363 -0.2228  0.1884 -0.3999
 2428SOL    HW118743   0.539   0.615  16.281  2.6658 -1.4791 -1.4431
 2428SOL    HW218744   0.570   0.478  16.339 -0.1467 -0.3962  1.7964
 2429SOL     OW18745   2.823   0.058   0.106  0.3017 -0.6721  0.1999
 2429SOL    HW118746   2.848   0.020   0.022  2.5287  1.7064 -0.2275
 2429SOL    HW218747   2.873   0.005   0.169  0.3299  0.0519  0.7839
 2430SOL     OW18748   0.854   4.640   5.000 -0.5069  0.4760  0.5866
 2430SOL    HW118749   0.931   4.639   5.058  0.6918 -2.9028 -1.0548
 2430SOL    HW218750   0.795   4.703   5.040 -1.4099 -1.1965  1.9055
 2431SOL     OW18751   1.018   2.198  16.706  0.2056  0.0035  0.2311
 2431SOL    HW118752   1.066   2.274  16.673 -0.2001 -0.1815 -0.7789
 2431SOL    HW218753   0.974   2.229  16.785 -1.4473  1.7552 -1.3614
 2432SOL     OW18754   4.173   2.442   9.734 -0.1954  0.4814  0.0036
 2432SOL    HW118755   4.123   2.470   9.657  1.0254  0.0648 -0.9453
 2432SOL    HW218756   4.120   2.369   9.765  0.5901 -0.3247 -0.5505
 2433SOL     OW18757   3.479   1.856  10.854  0.3206 -0.2091 -0.8093
 2433SOL    HW118758   3.532   1.914  10.909  0.1758 -2.1384  1.3469
 2433SOL    HW218759   3.404   1.831  10.907 -1.1280  0.8919 -2.3260
 2434SOL     OW18760   3.016   2.638   2.221 -0.5362  0.1230  0.4427
 2434SOL    HW118761   3.032   2.567   2.158 -1.2870 -0.2005  0.6063
 2434SOL    HW218762   3.028   2.718   2.171  0.3271 -0.2366  0.0700
 2435SOL     OW18763   3.670   4.561   7.244  0.2439  0.0042  0.5201
 2435SOL    HW118764   3.656   4.636   7.187  0.1363 -1.2648 -1.1479
 2435SOL    HW218765   3.676   4.603   7.329 -0.2939  2.7042 -0.7638
 2436SOL     OW18766   0.628   4.259  15.307  0.0871 -0.3203 -0.3929
 2436SOL    HW118767   0.710   4.299  15.277  0.3852 -3.6223 -4.0135
 2436SOL    HW218768   0.658   4.203  15.379 -0.2565 -1.7753 -1.3798
 2437SOL     OW18769   2.161   4.706   9.184 -0.4291  0.0442 -0.1994
 2437SOL    HW118770   2.077   4.703   9.140 -0.0988 -2.0112 -0.6972
 2437SOL    HW218771   2.177   4.612   9.190 -0.5183 -0.1220 -2.7879
 2438SOL     OW18772   1.074   1.996   2.748 -0.5456  0.0746  0.1024
 2438SOL    HW118773   1.102   1.913   2.709 -0.2515 -0.0909  0.6635
 2438SOL    HW218774   1.008   2.015   2.681  1.3227 -0.1516 -1.7981
 2439SOL     OW18775   1.020   4.207   7.152  0.3072 -0.1813  0.7869
 2439SOL    HW118776   0.955   4.142   7.123 -0.1562  1.8917 -2.8504
 2439SOL    HW218777   1.048   4.225   7.062 -0.3488 -0.2558  0.5644
 2440SOL     OW18778   1.971   4.251  11.372  0.4632  0.1797  0.1577
 2440SOL    HW118779   2.050   4.200  11.354 -1.2837 -3.0708  1.5956
 2440SOL    HW218780   1.904   4.188  11.400  1.0274 -0.3393  0.3210
 2441SOL     OW18781   0.487   4.478  13.349 -0.0331  0.1717  0.6473
 2441SOL    HW118782   0.543   4.467  13.426  1.2730 -0.3222 -0.3581
 2441SOL    HW218783   0.553   4.458  13.282  0.0454  2.5850  0.0306
 2442SOL     OW18784   3.577   1.400   6.428 -0.0359  0.3406  0.4390
 2442SOL    HW118785   3.535   1.316   6.409  0.7359  0.7668 -3.0382
 2442SOL    HW218786   3.508   1.444   6.477 -0.7771  0.1414 -0.4284
 2443SOL     OW18787   1.535   2.692   2.336 -0.0916  0.0087 -0.2524
 2443SOL    HW118788   1.491   2.610   2.358  1.1077 -0.6857 -0.3720
 2443SOL    HW218789   1.599   2.649   2.278  0.5107 -0.3677  0.6979
 2444SOL     OW18790   0.555   4.329   4.567  0.2131  0.1997 -0.0078
 2444SOL    HW118791   0.532   4.320   4.659  0.5739 -2.8990 -0.2209
 2444SOL    HW218792   0.587   4.241   4.544  1.5927  0.4571  0.8959
 2445SOL     OW18793   3.856   1.878   4.148  0.0645  0.8504 -0.2844
 2445SOL    HW118794   3.790   1.836   4.094  0.4156 -0.2066  0.1070
 2445SOL    HW218795   3.905   1.927   4.082  1.5980  0.9034  0.8749
 2446SOL     OW18796   4.163   0.802   3.304  0.1931  0.2041 -0.2453
 2446SOL    HW118797   4.202   0.846   3.380  0.3608 -0.0878 -0.1639
 2446SOL    HW218798   4.076   0.839   3.317 -1.5519 -3.3681 -2.0417
 2447SOL     OW18799   0.923   0.183   8.387  0.1615 -0.3756 -0.2408
 2447SOL    HW118800   0.923   0.205   8.480  2.1705  0.4139 -0.4231
 2447SOL    HW218801   0.869   0.255   8.354 -1.1067 -0.9461  0.5936
 2448SOL     OW18802   1.573   4.661   2.258  0.9079  0.2413 -0.4046
 2448SOL    HW118803   1.564   4.581   2.206 -0.7363  2.2105 -3.1751
 2448SOL    HW218804   1.484   4.693   2.268  1.1041  1.1848 -1.5930
 2449SOL     OW18805   2.084   3.257   2.740 -0.1043  0.0484 -0.4996
 2449SOL    HW118806   2.158   3.228   2.686  1.2698  0.5787  1.0948
 2449SOL    HW218807   2.116   3.271   2.829 -1.0451  0.0563 -0.1660
 2450SOL     OW18808   1.984   1.607   9.287 -0.1036 -0.1209 -0.0054
 2450SOL    HW118809   2.045   1.537   9.266  2.5643  2.0227  0.5831
 2450SOL    HW218810   1.985   1.595   9.382  1.3858  0.3626  0.0361
 2451SOL     OW18811   3.374   0.663   5.819  0.4599  0.2515 -0.6871
 2451SOL    HW118812   3.459   0.704   5.833  0.8016 -1.3426  1.8611
 2451SOL    HW218813   3.314   0.738   5.815 -0.6083 -0.5453  0.6214
 2452SOL     OW18814   1.177   4.094   5.186  0.2064 -0.0000  0.8509
 2452SOL    HW118815   1.211   4.086   5.276 -0.1981 -0.0092  1.0038
 2452SOL    HW218816   1.139   4.182   5.196  0.2623 -0.0372  1.4119
 2453SOL     OW18817   0.334   0.358   8.540 -0.0913 -0.0013 -0.1815
 2453SOL    HW118818   0.255   0.339   8.590 -1.3316  3.4276 -0.8518
 2453SOL    HW218819   0.409   0.329   8.591 -0.1551  1.7902  0.9258
 2454SOL     OW18820   1.738   3.367   9.491 -0.4660 -0.7260  0.0628
 2454SOL    HW118821   1.760   3.326   9.574  0.9466 -2.2934 -1.0787
 2454SOL    HW218822   1.822   3.402   9.462 -0.2771 -0.2777  1.1765
 2455SOL     OW18823   2.678   3.406   7.599 -0.1319 -0.8671 -0.1069
 2455SOL    HW118824   2.634   3.386   7.516 -0.3717  1.1125 -0.4607
 2455SOL    HW218825   2.691   3.500   7.588  1.1803 -1.0303  0.1218
 2456SOL     OW18826   1.140   4.175  11.513  0.2329 -0.1117  0.0657
 2456SOL    HW118827   1.231   4.155  11.534 -0.7712  0.5596  5.0688
 2456SOL    HW218828   1.113   4.091  11.476 -1.2310  1.2471 -1.8896
 2457SOL     OW18829   2.668   3.842  12.369 -0.5263 -0.7104  0.7225
 2457SOL    HW118830   2.750   3.820  12.414  0.7040 -0.1398 -1.2337
 2457SOL    HW218831   2.645   3.913  12.429 -2.2622 -1.5389  1.0294
 2458SOL     OW18832   3.297   2.908   4.482 -0.5377  0.1306  0.2665
 2458SOL    HW118833   3.338   2.955   4.409  1.8877 -0.9413  0.9561
 2458SOL    HW218834   3.218   2.859   4.459 -0.9105  0.4608  0.8339
 2459SOL     OW18835   2.131   2.130  17.131  0.4632 -0.1549  0.3586
 2459SOL    HW118836   2.050   2.080  17.139 -0.0697  0.3469 -2.0485
 2459SOL    HW218837   2.169   2.107  17.046  0.0737 -2.8089  0.8868
 2460SOL     OW18838   2.540   0.775   2.447 -0.4060  0.2707 -0.1862
 2460SOL    HW118839   2.450   0.745   2.444 -0.5246  0.5453  0.5639
 2460SOL    HW218840   2.576   0.695   2.485 -0.1678  0.8237  0.7658
 2461SOL     OW18841   3.107   2.161   0.312 -0.6095 -0.5367  0.0483
 2461SOL    HW118842   3.035   2.163   0.375  2.3107  0.0004  3.3712
 2461SOL    HW218843   3.183   2.157   0.371  0.4340 -1.2031 -1.3563
 2462SOL     OW18844   3.198   3.503  16.976 -0.1330 -0.3685 -0.4331
 2462SOL    HW118845   3.123   3.480  16.920 -0.3674 -1.2194  0.2422
 2462SOL    HW218846   3.242   3.418  16.979  0.5288  0.0120  0.4465
 2463SOL     OW18847   4.336   2.810   4.662  0.8741  0.1644  0.5651
 2463SOL    HW118848   4.363   2.757   4.587  0.9092 -0.0559  0.7319
 2463SOL    HW218849   4.420   2.851   4.684  1.0730  0.0191  0.0827
 2464SOL     OW18850   0.133   4.594  13.286  0.0882  0.8108 -0.3504
 2464SOL    HW118851   0.038   4.608  13.284  0.2973  2.2149 -0.2772
 2464SOL    HW218852   0.173   4.671  13.246  1.3120  1.5355  2.2860
 2465SOL     OW18853   1.538   3.584  14.923 -0.7088  0.8530 -0.2650
 2465SOL    HW118854   1.535   3.621  15.011  0.5421  1.4082 -0.4480
 2465SOL    HW218855   1.598   3.640  14.875  0.1201  0.2423  0.0493
 2466SOL     OW18856   2.266   2.915   7.464  0.0706  0.0723  0.1228
 2466SOL    HW118857   2.346   2.933   7.415  0.0581 -1.0430 -0.3014
 2466SOL    HW218858   2.296   2.923   7.555  1.3398 -2.2087 -0.0878
 2467SOL     OW18859   3.965   4.410   3.852  0.1589 -0.1363 -0.0346
 2467SOL    HW118860   3.893   4.371   3.803  1.2195 -0.1351 -1.5993
 2467SOL    HW218861   3.924   4.426   3.937 -1.3032 -1.5816 -0.4580
 2468SOL     OW18862   1.222   4.152   6.128  0.3781  0.2162  0.2604
 2468SOL    HW118863   1.219   4.246   6.114 -1.5167 -0.1457 -1.8303
 2468SOL    HW218864   1.200   4.111   6.044 -0.6426  1.0969  0.0992
 2469SOL     OW18865   1.707   4.255  12.321  0.2472 -0.2587 -0.0652
 2469SOL    HW118866   1.771   4.239  12.391  0.5735  0.8933 -0.1033
 2469SOL    HW218867   1.689   4.348  12.332 -1.0727 -0.6461  0.9522
 2470SOL     OW18868   3.688   1.675  13.837  0.4273 -0.3353 -0.1621
 2470SOL    HW118869   3.705   1.769  13.845 -0.5217 -0.2624  0.9018
 2470SOL    HW218870   3.627   1.671  13.762  0.2020  2.0456 -0.1060
 2471SOL     OW18871   3.607   1.237  11.426  0.6479  0.1891 -0.1113
 2471SOL    HW118872   3.624   1.320  11.470 -0.6021  1.0929 -1.3217
 2471SOL    HW218873   3.513   1.232  11.444  0.2172  1.0566 -2.1060
 2472SOL     OW18874   3.445   0.013  12.837 -0.1623 -0.4853  0.3404
 2472SOL    HW118875   3.368   4.680  12.847  0.4041 -0.6235  3.8393
 2472SOL    HW218876   3.428   0.092  12.888  0.3172  1.0701 -1.8901
 2473SOL     OW18877   4.364   3.119   0.949  0.2492 -0.4561  0.8671
 2473SOL    HW118878   4.343   3.173   1.025 -1.5134  1.2263 -0.8149
 2473SOL    HW218879   4.459   3.129   0.942  0.1845 -0.3828  0.1267
 2474SOL     OW18880   0.441   3.501   9.019  0.4619 -0.2296 -0.5175
 2474SOL    HW118881   0.504   3.434   8.996 -0.8500 -1.0337 -1.7566
 2474SOL    HW218882   0.488   3.584   9.007 -0.2578  0.6096  2.4867
 2475SOL     OW18883   4.108   0.168   2.476 -0.2650  0.2179 -0.0456
 2475SOL    HW118884   4.082   0.250   2.518 -0.9538  0.2054 -0.4427
 2475SOL    HW218885   4.046   0.177   2.404  0.1655 -0.4176 -0.4926
 2476SOL     OW18886   3.173   2.726   6.684 -0.3591  0.1789 -0.2827
 2476SOL    HW118887   3.094   2.673   6.693  0.1524 -0.4042  0.7546
 2476SOL    HW218888   3.171   2.789   6.756  1.3873 -0.6500  0.4994
 2477SOL     OW18889   4.658   0.726  13.662  0.2214 -0.5638 -0.0952
 2477SOL    HW118890   4.616   0.796  13.612 -0.5883 -0.5705  0.5675
 2477SOL    HW218891   4.645   0.643  13.616 -0.4500  0.3083 -1.4953
 2478SOL     OW18892   4.383   3.973   2.510  0.0685 -0.6893 -0.1711
 2478SOL    HW118893   4.331   4.053   2.518  0.8454 -0.1703 -0.3754
 2478SOL    HW218894   4.457   4.005   2.459 -0.8618  4.0069  1.3937
 2479SOL     OW18895   2.883   1.014   6.342  0.0765 -0.7260 -0.0086
 2479SOL    HW118896   2.822   1.018   6.415  0.0529  1.3540 -0.1665
 2479SOL    HW218897   2.830   0.966   6.278  0.9611  2.2784 -3.0125
 2480SOL     OW18898   1.062   1.206   0.345  0.2993  0.0739  0.0563
 2480SOL    HW118899   1.113   1.271   0.394 -0.1148  0.7168 -0.3642
 2480SOL    HW218900   1.128   1.143   0.315  1.1543  0.8343  0.3318
 2481SOL     OW18901   0.541   1.636   6.929  0.3106 -0.3253 -0.0881
 2481SOL    HW118902   0.554   1.644   6.835 -1.1848  3.7338  0.0571
 2481SOL    HW218903   0.622   1.587   6.944  1.6718  2.1983  0.8144
 2482SOL     OW18904   1.778   2.219   8.626 -0.3787 -0.0885  0.1413
 2482SOL    HW118905   1.684   2.202   8.620 -0.0577 -1.6320 -0.5017
 2482SOL    HW218906   1.770   2.307   8.663  0.0666  0.3451 -0.8110
 2483SOL     OW18907   1.456   2.048   0.554 -0.1253  0.2270  0.1617
 2483SOL    HW118908   1.541   2.013   0.526 -0.8129  1.4432 -3.4518
 2483SOL    HW218909   1.420   2.060   0.467 -1.1250 -2.1729  0.2392
 2484SOL     OW18910   4.213   0.751   2.073 -0.4440 -0.2752 -0.6450
 2484SOL    HW118911   4.271   0.747   1.997  1.1470  1.8657  0.4593
 2484SOL    HW218912   4.174   0.833   2.045 -1.0158 -0.7358 -1.1960
 2485SOL     OW18913   2.524   0.198   1.153  0.1532  0.0368 -0.9587
 2485SOL    HW118914   2.596   0.234   1.101  0.3710 -0.4422 -0.9846
 2485SOL    HW218915   2.566   0.198   1.239  0.9270 -0.1497 -1.3361
 2486SOL     OW18916   0.466   2.719   4.748  0.2778 -0.2385  0.4589
 2486SOL    HW118917   0.377   2.699   4.717  0.8643 -0.2353 -1.2327
 2486SOL    HW218918   0.509   2.721   4.663 -0.4602  1.6743  0.1302
 2487SOL     OW18919   2.346   0.045  14.731  0.3627 -0.7828  0.7209
 2487SOL    HW118920   2.277   0.002  14.680  1.0972  0.7712 -1.5448
 2487SOL    HW218921   2.399   0.099  14.674  0.1800 -0.0291  1.2591
 2488SOL     OW18922   4.202   4.450   3.697  0.5742 -0.0635 -0.2316
 2488SOL    HW118923   4.276   4.394   3.724  0.8460  0.8850  0.9642
 2488SOL    HW218924   4.127   4.421   3.748  1.6473  1.5398  2.2742
 2489SOL     OW18925   1.737   1.139  10.507 -0.4329 -0.3345 -0.1767
 2489SOL    HW118926   1.801   1.209  10.491 -2.6736  1.7062 -0.0745
 2489SOL    HW218927   1.794   1.062  10.515  1.3752  1.0104  0.0314
 2490SOL     OW18928   3.662   4.162  11.407  0.0510 -0.2749 -0.4258
 2490SOL    HW118929   3.757   4.153  11.397 -0.2045 -4.5661  0.6320
 2490SOL    HW218930   3.636   4.070  11.405 -0.2598 -0.2330  1.6767
 2491SOL     OW18931   3.215   3.391   7.025  0.5474  0.1948 -0.2954
 2491SOL    HW118932   3.180   3.480   7.037  0.5493  0.0240  1.0136
 2491SOL    HW218933   3.161   3.353   7.094 -2.3603  1.8450 -1.7041
 2492SOL     OW18934   0.392   0.943   2.759 -0.1765  0.9086  0.2352
 2492SOL    HW118935   0.311   0.892   2.755  0.2188  0.3047 -0.1877
 2492SOL    HW218936   0.366   1.011   2.821 -1.6027 -0.3805  1.0474
 2493SOL     OW18937   0.512   2.702  13.603  0.1888  0.1200 -0.0250
 2493SOL    HW118938   0.553   2.636  13.658 -1.2347 -1.4036 -0.7904
 2493SOL    HW218939   0.429   2.717  13.650 -0.2296 -1.9671 -0.0938
 2494SOL     OW18940   3.381   0.502   1.788  0.3997  0.0694  0.3646
 2494SOL    HW118941   3.393   0.408   1.780 -0.7542  0.0415 -1.0583
 2494SOL    HW218942   3.378   0.516   1.882 -0.6208 -1.3579  0.5445
 2495SOL     OW18943   0.593   1.624   6.677  0.3026  0.2132 -0.1221
 2495SOL    HW118944   0.632   1.538   6.686 -0.3262 -0.3961 -2.9887
 2495SOL    HW218945   0.635   1.655   6.596  0.5113  0.0999 -0.0569
 2496SOL     OW18946   3.237   3.496   0.423 -0.2157 -0.5048 -0.2206
 2496SOL    HW118947   3.207   3.577   0.381 -2.3778  0.1954  2.7312
 2496SOL    HW218948   3.174   3.478   0.492  1.5503  0.8358  1.7671
 2497SOL     OW18949   0.792   1.526   6.996  0.5050  0.3698 -0.1547
 2497SOL    HW118950   0.878   1.564   6.977 -0.0412  1.5698 -0.2348
 2497SOL    HW218951   0.799   1.504   7.089 -0.8393  1.2223  0.1382
 2498SOL     OW18952   3.319   0.539   0.762  0.2558 -0.0774 -0.4810
 2498SOL    HW118953   3.340   0.445   0.755  1.6515  0.2354 -0.5974
 2498SOL    HW218954   3.404   0.566   0.796  0.1411  0.7833 -0.8936
 2499SOL     OW18955   3.611   4.261  16.233  0.0354  0.0580 -0.2220
 2499SOL    HW118956   3.635   4.300  16.149 -4.0398 -0.7612 -1.7892
 2499SOL    HW218957   3.694   4.248  16.278 -0.3403  1.5586  0.9286
 2500SOL     OW18958   4.407   4.558   5.195  0.2017  0.3397 -0.6109
 2500SOL    HW118959   4.331   4.542   5.250 -0.4734  3.6268 -0.5944
 2500SOL    HW218960   4.374   4.625   5.135 -1.2201 -0.1888 -0.4093
 2501SOL     OW18961   0.503   4.641   1.219 -0.1935 -0.1468  0.2300
 2501SOL    HW118962   0.588   4.654   1.176  0.5256 -0.9724  1.3785
 2501SOL    HW218963   0.473   0.008   1.210 -0.4173 -0.4805 -2.3662
 2502SOL     OW18964   3.512   0.270  11.439 -0.3568  0.2577 -0.2348
 2502SOL    HW118965   3.588   0.232  11.396 -0.0707  0.5322  0.0289
 2502SOL    HW218966   3.446   0.204  11.416 -2.1404  2.6119 -1.9015
 2503SOL     OW18967   2.542   3.709  12.615 -0.4868  0.1410 -0.1603
 2503SOL    HW118968   2.605   3.765  12.660  0.8715 -0.6957 -1.0197
 2503SOL    HW218969   2.479   3.774  12.585  0.2537  0.3479 -1.2270
 2504SOL     OW18970   0.445   3.210   6.580 -0.0824  0.4319  0.8735
 2504SOL    HW118971   0.477   3.120   6.590  2.0147  1.0492 -0.4294
 2504SOL    HW218972   0.349   3.205   6.582 -0.2690  2.3684 -2.6987
 2505SOL     OW18973   1.048   0.736  17.503  0.1974  0.1117 -0.3798
 2505SOL    HW118974   1.068   0.667  17.440  1.1081 -2.2389  2.4668
 2505SOL    HW218975   0.977   0.691  17.548  1.0563 -0.7481  0.1168
 2506SOL     OW18976   2.497   0.068  13.705  0.2980  0.5114  0.3401
 2506SOL    HW118977   2.432   0.051  13.637  0.5334  2.1975 -0.3099
 2506SOL    HW218978   2.576   0.072  13.650  1.7516 -0.9766  2.3070
 2507SOL     OW18979   1.124   2.084   1.428  0.2678 -0.5189  0.2130
 2507SOL    HW118980   1.192   2.138   1.469 -0.4265  1.6743 -1.4891
 2507SOL    HW218981   1.057   2.150   1.409 -0.2997 -1.5247 -1.2151
 2508SOL     OW18982   3.737   4.363   6.643 -0.1503  0.2996  0.4095
 2508SOL    HW118983   3.802   4.294   6.634 -0.7085 -0.3870  1.5399
 2508SOL    HW218984   3.780   4.423   6.583  0.9493 -0.7208  0.1725
 2509SOL     OW18985   2.084   0.538  17.609  0.2434 -0.0871 -0.1574
 2509SOL    HW118986   2.085   0.584  17.693  0.1555 -1.4049  0.5666
 2509SOL    HW218987   2.107   0.449  17.635 -2.0870 -1.2426 -2.1120
 2510SOL     OW18988   4.580   0.700   5.365  0.3051  0.2875  0.3506
 2510SOL    HW118989   4.602   0.739   5.450 -0.4131 -0.8822  1.0726
 2510SOL    HW218990   4.492   0.738   5.358  0.9943  1.8570  0.2808
 2511SOL     OW18991   0.724   0.848  11.887 -0.2393 -0.3836 -0.3513
 2511SOL    HW118992   0.655   0.786  11.909 -1.4399  0.4794 -1.7271
 2511SOL    HW218993   0.682   0.884  11.810  2.6188 -0.1887 -1.8319
 2512SOL     OW18994   3.946   3.238  16.705 -0.1543 -0.4292  0.5642
 2512SOL    HW118995   3.891   3.168  16.738 -0.5322  0.6339  2.1633
 2512SOL    HW218996   3.883   3.288  16.652  2.0068 -0.1675 -1.7993
 2513SOL     OW18997   3.508   2.346   8.409  0.4305 -0.7985 -0.0045
 2513SOL    HW118998   3.526   2.328   8.501  3.5327  0.3643 -0.4002
 2513SOL    HW218999   3.581   2.405   8.390 -0.6129  1.1649  2.1011
 2514SOL     OW19000   0.292   1.942   4.304 -0.1322 -0.5813 -0.6892
 2514SOL    HW119001   0.311   1.862   4.255  1.5670  0.7687 -2.2165
 2514SOL    HW219002   0.302   1.900   4.390  1.1630 -0.3431 -0.7338
 2515SOL     OW19003   0.346   3.803   0.573  0.4602 -0.0301  0.2725
 2515SOL    HW119004   0.350   3.898   0.562 -2.3809  0.0033 -0.4540
 2515SOL    HW219005   0.296   3.780   0.495 -1.8607 -0.2673  1.8234
 2516SOL     OW19006   2.313   3.946   6.542  0.8248  0.0845 -0.7635
 2516SOL    HW119007   2.256   3.869   6.534  1.1216 -0.2858  0.6544
 2516SOL    HW219008   2.347   3.946   6.453 -1.6735  2.2383 -1.7133
 2517SOL     OW19009   2.053   1.341   3.096  0.5038  0.4196 -0.4330
 2517SOL    HW119010   2.063   1.381   3.010 -1.7212  0.7682 -0.5283
 2517SOL    HW219011   2.146   1.319   3.097  0.7208  1.3440 -0.7768
 2518SOL     OW19012   0.516   1.164   5.409  0.0166  0.2573  0.5522
 2518SOL    HW119013   0.586   1.167   5.344 -1.3215  2.1723 -0.8247
 2518SOL    HW219014   0.452   1.101   5.375  0.4429 -0.1463  0.5058
 2519SOL     OW19015   0.056   1.367  16.568  0.3483 -0.6028 -0.1924
 2519SOL    HW119016   4.689   1.369  16.600  0.6341 -0.5609  0.6126
 2519SOL    HW219017   0.070   1.461  16.560 -0.7955 -0.2982  1.4199
 2520SOL     OW19018   1.063   0.454   0.826 -0.1793  0.0103  0.4955
 2520SOL    HW119019   0.991   0.417   0.775 -0.7720 -0.2380  1.5120
 2520SOL    HW219020   1.117   0.375   0.832  2.6772  1.9114 -0.0826
 2521SOL     OW19021   3.889   0.250   8.215 -0.1684  0.0453 -0.0950
 2521SOL    HW119022   3.967   0.226   8.165 -0.4824  0.5620 -0.8420
 2521SOL    HW219023   3.849   0.317   8.158  0.1395 -1.3252 -1.9189
 2522SOL     OW19024   2.024   0.008   8.195  0.0072 -0.6219 -0.0467
 2522SOL    HW119025   1.970   0.085   8.211  1.7890  0.5139  0.4675
 2522SOL    HW219026   2.038   4.699   8.284  0.6980 -0.7131 -0.1849
 2523SOL     OW19027   2.588   2.521   3.877 -0.0328 -0.3743 -0.3828
 2523SOL    HW119028   2.572   2.589   3.811  2.1564 -0.7368 -1.2886
 2523SOL    HW219029   2.499   2.520   3.913  0.8453  0.7115  1.7491
 2524SOL     OW19030   1.496   1.175   6.469 -0.4071  0.1889  0.0706
 2524SOL    HW119031   1.550   1.254   6.461 -3.0893  1.9003 -1.2267
 2524SOL    HW219032   1.530   1.122   6.540  0.6949  1.0442  0.1735
 2525SOL     OW19033   1.022   1.278   6.779 -0.1011 -0.3120 -0.0237
 2525SOL    HW119034   0.989   1.360   6.742  1.0673 -1.2998 -3.2805
 2525SOL    HW219035   1.110   1.267   6.744  0.5272 -2.1462  2.1505
 2526SOL     OW19036   2.768   0.181   4.540 -0.2216  0.1328  0.8483
 2526SOL    HW119037   2.696   0.188   4.602  0.7838  3.3089  1.6205
 2526SOL    HW219038   2.792   0.271   4.521  0.5980  0.0389  1.4702
 2527SOL     OW19039   0.333   3.800   1.116 -0.3274 -0.4086  0.9520
 2527SOL    HW119040   0.385   3.837   1.044 -1.3831  1.1514  0.9817
 2527SOL    HW219041   0.241   3.821   1.099 -0.1156 -0.5212 -0.3377
 2528SOL     OW19042   4.094   2.746   0.360  0.6664 -0.5038 -0.0499
 2528SOL    HW119043   4.100   2.734   0.265 -1.5757  0.1920 -0.2902
 2528SOL    HW219044   4.149   2.672   0.385 -1.5729 -1.5062  1.9596
 2529SOL     OW19045   3.875   3.997   5.863 -0.0162  0.1266  0.4829
 2529SOL    HW119046   3.921   3.919   5.833  1.5319  1.0684  0.3657
 2529SOL    HW219047   3.800   3.956   5.904  1.1784  0.8579  3.4111
 2530SOL     OW19048   2.773   1.718   2.022  0.0889  0.4232 -0.2898
 2530SOL    HW119049   2.742   1.675   1.942 -0.1349 -0.3893  0.2339
 2530SOL    HW219050   2.745   1.668   2.099  0.4245  0.2090 -0.3046
 2531SOL     OW19051   1.290   2.184   1.767 -0.3066 -0.2346 -0.1079
 2531SOL    HW119052   1.292   2.236   1.687  2.2413 -0.8663 -0.4576
 2531SOL    HW219053   1.195   2.189   1.774 -0.4569 -2.3451 -0.5971
 2532SOL     OW19054   2.515   2.123   5.776  0.5581  0.3842  0.4708
 2532SOL    HW119055   2.530   2.131   5.870  1.1591  2.6797  0.1683
 2532SOL    HW219056   2.568   2.197   5.747 -1.3111  0.4169 -2.9037
 2533SOL     OW19057   0.304   2.665   7.178 -0.3078  0.3124 -0.0712
 2533SOL    HW119058   0.262   2.751   7.170 -0.4080  0.5010  2.3962
 2533SOL    HW219059   0.353   2.654   7.097  2.3824  0.4847  1.5256
 2534SOL     OW19060   3.575   1.695   4.847 -0.0845  0.1173 -0.9421
 2534SOL    HW119061   3.584   1.677   4.940 -0.8155  1.7874 -0.5412
 2534SOL    HW219062   3.586   1.790   4.843  0.2077  0.1725  1.1035
 2535SOL     OW19063   1.490   1.631   5.660 -0.0156 -0.0786  0.5781
 2535SOL    HW119064   1.561   1.695   5.667  2.8919 -3.1535 -0.7668
 2535SOL    HW219065   1.466   1.588   5.742  0.1034 -1.7358 -0.2505
 2536SOL     OW19066   1.967   3.463   8.057  0.1481 -0.2988  0.2848
 2536SOL    HW119067   2.008   3.380   8.033  2.3791  1.4048 -1.7823
 2536SOL    HW219068   1.971   3.454   8.152  2.0219  2.1890  0.4483
 2537SOL     OW19069   1.160   4.644   4.096  0.3590  0.0665  0.4074
 2537SOL    HW119070   1.190   4.646   4.187 -2.1507 -0.7705  1.2788
 2537SOL    HW219071   1.229   4.700   4.062 -0.1369  1.1223  1.1523
 2538SOL     OW19072   0.624   4.453   2.663  0.0993 -0.6905 -0.4762
 2538SOL    HW119073   0.578   4.448   2.746  2.3698 -3.6674  0.5999
 2538SOL    HW219074   0.547   4.456   2.606  0.0015  0.6207 -0.2609
 2539SOL     OW19075   1.290   1.123   2.633 -0.1574 -0.9485  0.0617
 2539SOL    HW119076   1.248   1.191   2.580 -1.2069 -2.1329 -0.6249
 2539SOL    HW219077   1.218   1.074   2.673  0.3526  0.3904  2.5945
 2540SOL     OW19078   2.706   4.566   7.539 -0.1311  0.4384  0.1945
 2540SOL    HW119079   2.651   4.488   7.543  0.9647 -0.2653  1.5995
 2540SOL    HW219080   2.663   4.636   7.490  0.6719  0.8342  0.0568
 2541SOL     OW19081   0.408   1.910  13.143  0.2577 -0.5533  0.4974
 2541SOL    HW119082   0.354   1.840  13.180  1.3040 -1.5655  0.1183
 2541SOL    HW219083   0.407   1.969  13.218  1.3612  1.7872 -1.3690
 2542SOL     OW19084   0.981   1.721   8.955 -0.1493 -0.0871  0.2662
 2542SOL    HW119085   0.930   1.693   8.880  0.0794 -0.6188  0.3088
 2542SOL    HW219086   0.978   1.649   9.018  1.0207  0.6308  1.1604
 2543SOL     OW19087   0.874   0.730  13.601  0.1749  0.4057 -0.0641
 2543SOL    HW119088   0.794   0.780  13.616 -1.8752 -3.0033  0.1904
 2543SOL    HW219089   0.924   0.748  13.682 -1.3090  2.7191  0.3398
 2544SOL     OW19090   1.829   4.130   5.809 -0.2175 -0.5065 -0.4131
 2544SOL    HW119091   1.837   4.140   5.714  0.1336 -0.7065 -0.4058
 2544SOL    HW219092   1.743   4.165   5.831 -0.1173 -0.0641 -0.7131
 2545SOL     OW19093   3.708   3.306   4.138 -0.0883 -0.3878  0.6359
 2545SOL    HW119094   3.727   3.278   4.227  2.1151  1.2653  0.6962
 2545SOL    HW219095   3.776   3.259   4.091 -0.1861 -0.4287  0.5353
 2546SOL     OW19096   0.466   1.645   2.966  0.1768 -0.3723 -0.2107
 2546SOL    HW119097   0.533   1.659   2.900 -0.4785  0.8517 -0.6108
 2546SOL    HW219098   0.399   1.682   2.909 -0.3427  0.0638  0.6870
 2547SOL     OW19099   4.567   3.543   0.467  0.9967 -0.5898  0.2790
 2547SOL    HW119100   4.518   3.605   0.520  0.5692 -0.8431  0.1764
 2547SOL    HW219101   4.633   3.597   0.422  1.9533 -2.1605 -0.1992
 2548SOL     OW19102   4.251   2.963   0.789 -0.2443 -0.1915 -0.1564
 2548SOL    HW119103   4.172   3.017   0.784  0.1069  0.5774  2.6616
 2548SOL    HW219104   4.294   3.019   0.854  0.4347 -0.4063 -0.4141
 2549SOL     OW19105   0.634   2.308   6.470  0.5246 -0.2436  0.0874
 2549SOL    HW119106   0.603   2.257   6.395 -2.7875  0.5275  0.9387
 2549SOL    HW219107   0.551   2.350   6.489  0.1056 -2.2949  2.8236
 2550SOL     OW19108   3.498   4.606  11.127  0.2043 -0.0564  0.0540
 2550SOL    HW119109   3.542   4.595  11.043  0.0785  1.4240 -0.1967
 2550SOL    HW219110   3.568   4.587  11.190 -0.9868  1.2437  1.7759
 2551SOL     OW19111   0.176   1.186   7.787 -0.8008 -0.1562  0.2012
 2551SOL    HW119112   0.188   1.218   7.698 -0.2738  2.7640  1.3256
 2551SOL    HW219113   0.100   1.130   7.768  0.6104 -2.5715  1.5988
 2552SOL     OW19114   4.282   0.401   8.800 -0.1037  0.0717  0.3094
 2552SOL    HW119115   4.318   0.457   8.731  0.4232 -1.3383 -0.5617
 2552SOL    HW219116   4.354   0.339   8.815  0.2648  0.6274  0.8656
 2553SOL     OW19117   3.763   2.250   8.144  0.5035 -0.0152  0.0090
 2553SOL    HW119118   3.671   2.231   8.128  0.6488 -1.3330  0.7316
 2553SOL    HW219119   3.759   2.298   8.227 -0.3359  1.2262 -0.7609
 2554SOL     OW19120   3.915   3.108   2.969  0.8162  0.0250 -0.0415
 2554SOL    HW119121   3.962   3.154   2.900 -1.5203  0.7657 -1.1592
 2554SOL    HW219122   3.938   3.015   2.966  1.4606  0.2330 -1.4040
 2555SOL     OW19123   2.988   0.554   7.627 -0.1159  0.3434 -0.3812
 2555SOL    HW119124   2.940   0.512   7.699  1.6790 -0.4143  0.4073
 2555SOL    HW219125   3.024   0.477   7.582  2.3601  1.2017  0.0834
 2556SOL     OW19126   0.454   0.667   0.598 -0.2785  0.1084  0.0755
 2556SOL    HW119127   0.492   0.754   0.587 -1.6987  0.4264 -2.3124
 2556SOL    HW219128   0.527   0.606   0.606  0.2373  0.9161  1.6011
 2557SOL     OW19129   4.041   4.625   7.847  0.1542 -0.6285  0.2709
 2557SOL    HW119130   3.960   4.589   7.811  1.2868 -2.0761 -0.8050
 2557SOL    HW219131   4.037   4.711   7.804 -2.5135 -1.3504 -0.9583
 2558SOL     OW19132   3.937   1.367  12.487 -0.3225  0.0964  0.5510
 2558SOL    HW119133   4.029   1.375  12.512 -0.3432 -1.0054  0.9463
 2558SOL    HW219134   3.931   1.425  12.411 -2.5960 -1.2477 -0.3002
 2559SOL     OW19135   1.254   1.089   0.719 -0.4106  0.2549 -0.8459
 2559SOL    HW119136   1.203   1.169   0.728 -0.6953  0.0368 -0.5210
 2559SOL    HW219137   1.308   1.088   0.798  0.6528 -3.7200 -1.6340
 2560SOL     OW19138   4.159   3.525   2.276 -0.6874  0.4035  0.1210
 2560SOL    HW119139   4.068   3.506   2.298  0.1675 -0.3767  3.0602
 2560SOL    HW219140   4.211   3.469   2.334 -1.4637  0.6695  1.0810
 2561SOL     OW19141   1.834   2.694   0.788 -0.3660  0.1955 -0.3729
 2561SOL    HW119142   1.755   2.744   0.808  1.0844  1.0361  3.1143
 2561SOL    HW219143   1.871   2.690   0.876  2.3857 -1.4545 -1.5788
 2562SOL     OW19144   0.505   3.518   1.417  0.4091  0.2373 -0.0136
 2562SOL    HW119145   0.572   3.587   1.422  1.6332 -1.0148  0.6615
 2562SOL    HW219146   0.529   3.460   1.489 -0.7263 -1.6178 -1.1220
 2563SOL     OW19147   1.847   1.512   4.856  0.1454  0.7104  0.2394
 2563SOL    HW119148   1.860   1.436   4.799  1.1186  0.5502  0.6593
 2563SOL    HW219149   1.893   1.579   4.807 -0.2695  1.0651  0.3371
 2564SOL     OW19150   0.311   0.187   0.730  0.5214 -0.2589 -0.4738
 2564SOL    HW119151   0.282   0.097   0.717  1.0492 -0.2139 -2.0939
 2564SOL    HW219152   0.367   0.172   0.806  0.0725  0.9709  0.1011
 2565SOL     OW19153   0.528   2.561   1.820 -0.0738 -0.3595  0.1488
 2565SOL    HW119154   0.472   2.548   1.896  1.6539 -0.5755  1.4024
 2565SOL    HW219155   0.613   2.519   1.837 -1.0401 -3.4051 -2.6315
 2566SOL     OW19156   2.107   3.453   6.778 -0.0091  0.4532  0.2087
 2566SOL    HW119157   2.064   3.527   6.734 -0.4443  0.3543  0.4729
 2566SOL    HW219158   2.046   3.390   6.741 -0.0310  1.8224 -2.1152
 2567SOL     OW19159   2.868   3.588  10.059 -0.2000  0.1604 -0.5590
 2567SOL    HW119160   2.785   3.618  10.021 -1.1017  0.5360  1.7215
 2567SOL    HW219161   2.916   3.619   9.982  0.5829  0.5834  0.0930
 2568SOL     OW19162   0.733   0.061   9.076 -0.7525 -0.8955  0.7015
 2568SOL    HW119163   0.723   0.108   9.159  0.1304  2.0795 -0.8822
 2568SOL    HW219164   0.731   4.696   9.114  2.9011 -0.8363  1.0450
 2569SOL     OW19165   0.421   2.835   5.416  0.0898  0.0914 -0.1357
 2569SOL    HW119166   0.383   2.817   5.503  0.9595  0.6115  0.3458
 2569SOL    HW219167   0.394   2.925   5.402  0.1888 -0.3243 -3.0136
 2570SOL     OW19168   0.936   1.784   4.829  0.1031 -0.3153 -0.6535
 2570SOL    HW119169   1.004   1.804   4.893  0.3767  0.5973 -1.2296
 2570SOL    HW219170   0.926   1.872   4.795 -2.2335 -0.5408 -0.5785
 2571SOL     OW19171   4.332   0.772   0.686 -0.5148  0.3338  0.2630
 2571SOL    HW119172   4.262   0.827   0.721 -0.5811  0.0287  0.6043
 2571SOL    HW219173   4.407   0.832   0.679  0.2999 -0.9466 -1.9292
 2572SOL     OW19174   1.396   2.487   8.231 -0.3990 -0.4218  0.0261
 2572SOL    HW119175   1.464   2.457   8.171  0.5439  0.2589  0.7450
 2572SOL    HW219176   1.434   2.504   8.317 -0.7512 -0.2550  0.1486
 2573SOL     OW19177   1.946   4.305   7.857  0.4952 -0.3958  0.3304
 2573SOL    HW119178   1.851   4.306   7.859  0.5333  0.5763  1.2999
 2573SOL    HW219179   1.959   4.334   7.947  0.4216  2.3679 -0.5410
 2574SOL     OW19180   1.899   3.778  10.106 -0.4770 -0.1987 -0.3663
 2574SOL    HW119181   1.894   3.692  10.064  1.3966 -0.0948 -0.7863
 2574SOL    HW219182   1.855   3.832  10.041  0.3254  1.7982  0.7577
 2575SOL     OW19183   1.194   1.643   5.152 -0.7278  0.1895 -0.2060
 2575SOL    HW119184   1.281   1.681   5.142 -0.7316  0.2669  0.0528
 2575SOL    HW219185   1.200   1.581   5.079  1.4844  1.1827 -0.8609
 2576SOL     OW19186   3.011   3.330   8.903 -0.0232 -0.3887  0.6825
 2576SOL    HW119187   3.098   3.361   8.929 -0.3230  1.3472 -0.3754
 2576SOL    HW219188   3.042   3.290   8.822  1.8602 -0.4992  1.4516
 2577SOL     OW19189   2.977   1.587   1.733 -0.6727  0.8659  0.1357
 2577SOL    HW119190   2.926   1.578   1.813  0.4422 -0.5008  0.6885
 2577SOL    HW219191   2.992   1.681   1.742 -2.3697  1.1857 -0.2848
 2578SOL     OW19192   2.007   1.925   5.079  0.3228  0.1421 -0.3707
 2578SOL    HW119193   1.956   1.922   4.998 -1.5256 -0.8501  0.8300
 2578SOL    HW219194   2.035   1.834   5.079  0.9636  0.3432 -1.5866
 2579SOL     OW19195   3.954   0.920   4.807 -0.4058 -0.2231 -0.0010
 2579SOL    HW119196   4.007   0.861   4.753  0.2109 -0.4197  0.8116
 2579SOL    HW219197   3.954   0.866   4.886 -1.5404  1.6766  1.3034
 2580SOL     OW19198   1.344   4.080   0.419  0.1320 -0.3391 -0.8034
 2580SOL    HW119199   1.400   4.115   0.488 -4.2914  0.7682  2.2658
 2580SOL    HW219200   1.267   4.137   0.421  1.0390  0.8147  1.5985
 2581SOL     OW19201   4.441   0.443  15.797  0.3376 -0.5051  0.5842
 2581SOL    HW119202   4.423   0.530  15.759  0.7206 -1.1397 -1.0775
 2581SOL    HW219203   4.367   0.396  15.758 -0.1607  2.7394 -2.4105
 2582SOL     OW19204   2.254   4.433   3.218 -0.5900  0.5360  0.4792
 2582SOL    HW119205   2.288   4.427   3.307  0.3369 -1.1217  0.0098
 2582SOL    HW219206   2.336   4.421   3.170 -0.3986 -0.9778  1.2026
 2583SOL     OW19207   4.676   4.480   3.595  0.3463  0.4962 -0.1653
 2583SOL    HW119208   0.033   4.437   3.625  0.4633  0.5308 -0.4247
 2583SOL    HW219209   4.704   4.534   3.521  4.1281  1.9737  2.3228
 2584SOL     OW19210   3.224   2.885   6.956 -0.6084 -0.0982  0.0172
 2584SOL    HW119211   3.205   2.801   6.999 -1.8874  0.0932 -0.1759
 2584SOL    HW219212   3.280   2.929   7.020 -2.2138  2.3307 -0.2781
 2585SOL     OW19213   4.388   4.010   3.761 -0.2462 -0.4759  0.1908
 2585SOL    HW119214   4.305   4.011   3.713 -1.4296  0.9067  2.2291
 2585SOL    HW219215   4.437   3.931   3.739  2.5171  1.1721  0.4756
 2586SOL     OW19216   0.017   1.022  10.249 -0.3285  0.2882  0.1501
 2586SOL    HW119217   0.108   1.050  10.247 -0.1412 -0.2976  0.5068
 2586SOL    HW219218   0.014   0.990  10.340  0.9372  0.7625  0.3542
 2587SOL     OW19219   3.531   3.123  10.361  0.0626 -0.4415 -0.3579
 2587SOL    HW119220   3.548   3.168  10.278 -0.4832  0.3510 -0.0386
 2587SOL    HW219221   3.506   3.039  10.321  0.0229  0.7485 -2.8672
 2588SOL     OW19222   2.471   3.752   5.639 -0.1201  0.1772  0.2157
 2588SOL    HW119223   2.494   3.844   5.655 -2.3846  0.8876 -0.4993
 2588SOL    HW219224   2.384   3.750   5.681  0.1737 -0.9644  0.7579
 2589SOL     OW19225   2.353   0.206   9.221  0.1534 -0.0182 -0.1954
 2589SOL    HW119226   2.282   0.172   9.275 -1.0565  1.3767 -0.9163
 2589SOL    HW219227   2.304   0.226   9.141 -3.0137  2.0267  2.3020
 2590SOL     OW19228   1.890   1.323  17.614  0.1338  0.0025  0.1457
 2590SOL    HW119229   1.883   1.242  17.664  0.7721 -0.7141 -0.9102
 2590SOL    HW219230   1.984   1.335  17.630  0.2838 -0.4427 -0.3970
 2591SOL     OW19231   4.532   2.253   5.097  0.4907  0.2040  0.1596
 2591SOL    HW119232   4.479   2.184   5.057 -1.1100  2.3007 -1.3539
 2591SOL    HW219233   4.481   2.263   5.177 -1.9704 -0.9486 -1.2960
 2592SOL     OW19234   0.905   0.589  15.167  0.7861  0.4399  0.3385
 2592SOL    HW119235   0.922   0.646  15.242 -0.7640  1.0298  0.2417
 2592SOL    HW219236   0.992   0.578  15.128  0.3489  0.3585 -0.6003
 2593SOL     OW19237   1.473   2.620   6.266  0.1314 -0.6457 -0.1014
 2593SOL    HW119238   1.426   2.647   6.345  0.3652 -1.4161  0.3032
 2593SOL    HW219239   1.458   2.526   6.273 -1.0618 -0.6365 -2.5898
 2594SOL     OW19240   2.627   4.226   6.227  0.0568 -0.3233  0.2463
 2594SOL    HW119241   2.715   4.190   6.224  0.3300  0.2807  1.0809
 2594SOL    HW219242   2.616   4.252   6.135 -1.7765  0.2783  0.6277
 2595SOL     OW19243   4.067   4.634   8.265 -0.2158 -0.1472  0.0931
 2595SOL    HW119244   4.136   4.649   8.200  1.3627 -0.5603  1.6847
 2595SOL    HW219245   4.084   4.541   8.252 -1.2521 -0.0791 -1.7439
 2596SOL     OW19246   3.060   3.161   4.061  0.2255 -0.1165 -0.1802
 2596SOL    HW119247   2.967   3.161   4.038 -0.0113  1.7267  0.7942
 2596SOL    HW219248   3.048   3.199   4.148  2.1982 -0.5188  0.2562
 2597SOL     OW19249   4.117   4.592   0.978  0.2436 -0.0523  0.3120
 2597SOL    HW119250   4.133   4.624   1.067  0.4078  0.2721  0.1669
 2597SOL    HW219251   4.115   4.680   0.940 -2.2564  0.0850  0.7570
 2598SOL     OW19252   3.396   4.322   3.998  0.3420 -0.0432 -0.2985
 2598SOL    HW119253   3.378   4.228   3.996 -1.2645  0.2342  1.5455
 2598SOL    HW219254   3.443   4.343   4.079 -0.6850  0.4414  0.1577
 2599SOL     OW19255   1.871   3.248   9.960 -0.4988  0.0924  0.1459
 2599SOL    HW119256   1.955   3.279   9.995 -2.1189  2.7556  1.6377
 2599SOL    HW219257   1.867   3.161  10.001  3.6180 -0.0500  0.2477
 2600SOL     OW19258   1.249   3.448   6.069  0.3509 -0.2635  0.0175
 2600SOL    HW119259   1.187   3.490   6.128  0.4909 -1.4790  1.0316
 2600SOL    HW219260   1.306   3.400   6.129  1.6794  0.6621 -0.5134
 2601SOL     OW19261   1.747   0.770   8.424 -0.0950  0.0756 -0.2767
 2601SOL    HW119262   1.806   0.831   8.381  0.6758 -1.9909 -2.1269
 2601SOL    HW219263   1.805   0.696   8.440 -1.5594 -1.1893 -0.8100
 2602SOL     OW19264   4.284   0.392   6.865  0.8100 -0.1534 -0.5694
 2602SOL    HW119265   4.257   0.394   6.773 -2.9309  2.1540  0.6158
 2602SOL    HW219266   4.323   0.480   6.874 -0.4386  0.5348 -1.9427
 2603SOL     OW19267   2.884   3.672   3.692  0.4606 -0.8161 -0.3392
 2603SOL    HW119268   2.887   3.733   3.766  2.7161 -0.5932 -0.6260
 2603SOL    HW219269   2.958   3.619   3.720  1.3843 -0.2265 -1.6770
 2604SOL     OW19270   1.176   0.667  14.913 -0.8288 -0.0589  0.0655
 2604SOL    HW119271   1.196   0.699  14.825  0.0426  2.2667  1.1057
 2604SOL    HW219272   1.095   0.714  14.931  0.1813  2.0522 -0.9055
 2605SOL     OW19273   2.514   2.176   7.423 -0.6124 -0.7567 -0.0989
 2605SOL    HW119274   2.596   2.182   7.373 -0.2798 -0.9698  0.4197
 2605SOL    HW219275   2.540   2.181   7.515  0.0399 -0.6454 -0.2848
 2606SOL     OW19276   4.031   3.809  14.255 -0.4231 -0.0417  0.0895
 2606SOL    HW119277   4.025   3.830  14.162 -1.3986 -0.8614 -0.0341
 2606SOL    HW219278   3.957   3.748  14.266 -1.9638  1.7944 -0.1951
 2607SOL     OW19279   1.583   0.563   2.996 -0.1734 -0.3378 -0.0434
 2607SOL    HW119280   1.640   0.487   3.007 -1.0747 -1.1593 -1.0190
 2607SOL    HW219281   1.513   0.537   2.936 -0.0683 -0.6633 -0.0247
 2608SOL     OW19282   0.453   4.535   7.455  0.2410 -0.3025  0.6425
 2608SOL    HW119283   0.537   4.532   7.409  1.4647 -1.3540  2.9573
 2608SOL    HW219284   0.475   4.587   7.531  0.7998 -1.6544  1.4067
 2609SOL     OW19285   1.921   2.218   6.045 -0.2979  0.3140 -0.2053
 2609SOL    HW119286   1.897   2.309   6.059 -0.1215  0.3362 -0.0562
 2609SOL    HW219287   2.001   2.219   6.097  0.7402  0.2008 -1.8172
 2610SOL     OW19288   0.187   4.326   8.045 -0.3753  1.1010 -0.0252
 2610SOL    HW119289   0.154   4.309   8.134  0.4283  1.7720  0.4062
 2610SOL    HW219290   0.123   4.287   7.986  1.1107  0.5369 -1.2651
 2611SOL     OW19291   1.167   0.023   6.014 -0.6671  0.4708  0.1084
 2611SOL    HW119292   1.236   4.694   5.972  0.4831  0.7891  1.5650
 2611SOL    HW219293   1.088   4.704   5.981 -0.9276  0.7785  0.3451
 2612SOL     OW19294   0.524   0.826   7.091 -0.0279  0.8884 -0.6884
 2612SOL    HW119295   0.429   0.831   7.082 -0.0961 -0.0017 -0.4399
 2612SOL    HW219296   0.530   0.815   7.186 -0.6411  0.2577 -0.7189
 2613SOL     OW19297   2.037   4.692  11.128 -0.2725 -0.2735  0.1636
 2613SOL    HW119298   1.999   4.644  11.201  0.5748  1.1666  1.5654
 2613SOL    HW219299   1.969   4.678  11.062 -0.0047  1.9006 -0.5887
 2614SOL     OW19300   0.229   0.019  12.772  0.1731 -0.3110  0.1985
 2614SOL    HW119301   0.227   0.080  12.698  1.5379 -0.3687  0.1124
 2614SOL    HW219302   0.320   4.718  12.791  0.5034  0.8695  0.1092
 2615SOL     OW19303   3.158   1.429   6.006  0.1865 -0.4768  0.6086
 2615SOL    HW119304   3.105   1.502   5.971  1.5900 -0.5212 -1.5832
 2615SOL    HW219305   3.122   1.345   5.977  0.2771  0.0358 -0.9905
 2616SOL     OW19306   1.731   2.810  16.950  0.4407  0.7845  0.1185
 2616SOL    HW119307   1.813   2.783  16.991  0.2300  1.1879  0.8155
 2616SOL    HW219308   1.668   2.795  17.021  0.1862 -3.5555 -1.0110
 2617SOL     OW19309   0.152   2.013   3.161 -0.2438 -0.0253  0.8990
 2617SOL    HW119310   0.206   2.006   3.239  0.4896  1.0100  0.4823
 2617SOL    HW219311   0.116   2.101   3.175  2.1980  1.3000 -1.1401
 2618SOL     OW19312   1.758   2.218  12.144  0.5046  0.1983 -0.2270
 2618SOL    HW119313   1.743   2.214  12.238 -1.5433  1.6834 -0.4806
 2618SOL    HW219314   1.676   2.255  12.110  1.1450  1.1066 -0.7883
 2619SOL     OW19315   1.212   1.618  12.696  0.5396 -0.2512  0.3804
 2619SOL    HW119316   1.288   1.588  12.645  1.2903  0.7447  0.9064
 2619SOL    HW219317   1.182   1.696  12.648  0.8975  0.0737  0.6883
 2620SOL     OW19318   0.526   1.957   7.503  0.2346 -0.4123  0.0391
 2620SOL    HW119319   0.482   1.958   7.588 -0.8399  0.5714 -0.5313
 2620SOL    HW219320   0.482   1.881   7.465  0.7185 -0.5778 -0.1937
 2621SOL     OW19321   4.406   2.410   2.771  0.2745  0.1626 -0.0994
 2621SOL    HW119322   4.401   2.315   2.787  0.6372 -0.0314 -1.1238
 2621SOL    HW219323   4.390   2.406   2.677 -1.0126 -0.5809  0.1535
 2622SOL     OW19324   1.824   3.240  15.626 -0.0183 -0.4620 -0.0794
 2622SOL    HW119325   1.896   3.262  15.566  0.6607  1.4205  1.4424
 2622SOL    HW219326   1.880   3.218  15.700  0.2712 -0.6943 -0.3651
 2623SOL     OW19327   2.249   1.934   1.799  0.0767 -0.3362  0.2295
 2623SOL    HW119328   2.259   1.929   1.894 -1.8503  0.2526  0.4773
 2623SOL    HW219329   2.200   2.016   1.799  0.6332  0.0016  1.5462
 2624SOL     OW19330   4.031   2.210   9.386  0.0513 -0.0372 -0.0506
 2624SOL    HW119331   3.963   2.277   9.378  0.4362  0.5219  1.3645
 2624SOL    HW219332   3.980   2.132   9.404  0.2024  0.2590  1.6709
 2625SOL     OW19333   3.850   0.456   4.764  0.1099  0.1093  0.3284
 2625SOL    HW119334   3.832   0.520   4.833 -0.8848  3.0863 -2.7143
 2625SOL    HW219335   3.889   0.505   4.692  1.3940 -1.5137 -0.0890
 2626SOL     OW19336   3.321   3.422   5.086  0.0222 -0.3264  0.5002
 2626SOL    HW119337   3.248   3.439   5.027  2.7293 -0.9307 -3.0160
 2626SOL    HW219338   3.340   3.514   5.104  2.2272 -1.1100  2.3049
 2627SOL     OW19339   2.923   1.909   7.729 -0.5046  0.6125  0.4646
 2627SOL    HW119340   2.962   1.873   7.808  2.3297  2.9341  0.1336
 2627SOL    HW219341   2.847   1.950   7.770 -0.0481 -1.8250  3.7617
 2628SOL     OW19342   4.570   4.341   7.991 -0.3666  0.2572  0.2413
 2628SOL    HW119343   4.592   4.390   8.071  2.6726  1.5573 -1.4193
 2628SOL    HW219344   4.611   4.396   7.924  0.6565 -0.8871 -0.0784
 2629SOL     OW19345   1.344   3.994  11.277  0.7937  0.2269 -0.2514
 2629SOL    HW119346   1.353   3.921  11.216  1.5000 -0.2169  0.3765
 2629SOL    HW219347   1.291   4.051  11.221  0.8411  1.1613  0.6459
 2630SOL     OW19348   4.397   3.761   7.903  0.2075 -0.3312  0.1685
 2630SOL    HW119349   4.378   3.668   7.916  0.7601 -0.1795  2.1117
 2630SOL    HW219350   4.435   3.781   7.989  0.4024  1.6026 -0.3724
 2631SOL     OW19351   1.950   3.463   2.143 -0.1354  0.2220  0.1726
 2631SOL    HW119352   1.941   3.393   2.207 -0.2154 -0.3364 -0.4607
 2631SOL    HW219353   2.018   3.521   2.180 -0.2415  1.0048 -0.8513
 2632SOL     OW19354   3.960   2.265  13.144 -0.3234 -0.1842  0.2372
 2632SOL    HW119355   3.927   2.303  13.225 -2.4039 -0.6406 -0.3717
 2632SOL    HW219356   3.931   2.323  13.073  0.5270  1.6744  1.4357
 2633SOL     OW19357   0.763   2.202   5.174 -0.1631 -0.3969  0.6146
 2633SOL    HW119358   0.729   2.182   5.087  1.4736 -1.0316  0.1307
 2633SOL    HW219359   0.855   2.178   5.166 -0.2841 -1.1025  1.2780
 2634SOL     OW19360   2.348   3.370   5.830 -0.2692  1.2047  0.3097
 2634SOL    HW119361   2.257   3.369   5.797 -0.3241 -1.6497  0.5684
 2634SOL    HW219362   2.330   3.362   5.923 -2.7711 -0.1531 -0.2833
 2635SOL     OW19363   2.847   4.068   7.519 -0.4243  0.3834 -0.4467
 2635SOL    HW119364   2.852   4.071   7.615 -3.1287 -1.2018 -0.2545
 2635SOL    HW219365   2.878   3.980   7.499 -0.1802  0.0665  1.3024
 2636SOL     OW19366   1.823   0.912  14.919 -0.0266 -0.1165  0.3035
 2636SOL    HW119367   1.791   0.832  14.877 -2.1908  0.9941 -0.1876
 2636SOL    HW219368   1.756   0.979  14.906  1.0462  1.1358  1.3271
 2637SOL     OW19369   1.247   3.756   5.245  0.0484  0.1818  0.1345
 2637SOL    HW119370   1.158   3.790   5.254  0.5582  1.3641  0.7522
 2637SOL    HW219371   1.264   3.723   5.333 -0.5638 -0.4547  0.0124
 2638SOL     OW19372   3.055   4.477  10.733 -0.8278 -0.1381 -0.4741
 2638SOL    HW119373   2.988   4.542  10.711  0.2476  1.1147 -0.0373
 2638SOL    HW219374   3.019   4.443  10.815 -0.7020  1.1249  0.1002
 2639SOL     OW19375   2.165   4.370   2.726  0.2072  0.0860  0.4759
 2639SOL    HW119376   2.256   4.382   2.700  0.0720 -0.5227 -0.2957
 2639SOL    HW219377   2.181   4.374   2.820 -2.5678  0.6289  0.9436
 2640SOL     OW19378   3.976   2.003  11.915  0.4860 -0.2292  0.3199
 2640SOL    HW119379   4.001   1.971  11.828 -0.5196  1.8475 -0.7461
 2640SOL    HW219380   4.014   2.091  11.911  0.2739 -0.1733 -0.6316
 2641SOL     OW19381   1.678   4.617   7.418 -0.3135  0.0021  0.0662
 2641SOL    HW119382   1.668   4.532   7.462  0.6878  0.0090  0.3075
 2641SOL    HW219383   1.749   4.603   7.356  0.3042 -1.0104  1.0038
 2642SOL     OW19384   4.445   4.002   6.439  0.4039 -0.0134 -0.2139
 2642SOL    HW119385   4.366   3.948   6.435  1.6774 -1.6568 -2.9870
 2642SOL    HW219386   4.499   3.946   6.384 -0.2046 -1.6639  0.8432
 2643SOL     OW19387   0.948   0.809  14.887  0.4206  0.1231 -0.5045
 2643SOL    HW119388   0.935   0.810  14.792 -0.1636 -1.0633 -0.4401
 2643SOL    HW219389   0.859   0.807  14.922  0.8026 -0.6586  0.4297
 2644SOL     OW19390   2.770   3.837  14.031  0.5150 -0.1867 -0.6027
 2644SOL    HW119391   2.714   3.893  14.085 -0.3381 -0.0261 -1.6420
 2644SOL    HW219392   2.791   3.894  13.956  1.6990  0.7176  0.4139
 2645SOL     OW19393   3.710   0.172  11.267  0.4127  0.1296 -0.5446
 2645SOL    HW119394   3.712   0.172  11.171  1.6790  1.6950 -0.5271
 2645SOL    HW219395   3.798   0.148  11.296  0.0735  1.2647  1.4304
 2646SOL     OW19396   2.171   4.496   6.920  0.0175  0.2546  0.5916
 2646SOL    HW119397   2.188   4.582   6.881 -2.2348  0.1320 -0.6258
 2646SOL    HW219398   2.141   4.518   7.009 -1.1530 -2.0290  0.7441
 2647SOL     OW19399   4.674   0.849   2.449  0.1102  0.0766  0.1782
 2647SOL    HW119400   4.709   0.803   2.525 -1.7179 -0.5475  0.6478
 2647SOL    HW219401   4.596   0.889   2.488  0.4567  1.4377 -0.5382
 2648SOL     OW19402   2.828   3.559   4.695  0.5831  0.1649  0.3944
 2648SOL    HW119403   2.774   3.537   4.771  2.5226 -1.9826  1.1464
 2648SOL    HW219404   2.905   3.507   4.716  0.3478 -0.1284  0.5344
 2649SOL     OW19405   2.050   0.358  11.576 -0.2098  0.2772  0.0980
 2649SOL    HW119406   2.054   0.432  11.637  0.2978 -0.1522  0.5905
 2649SOL    HW219407   2.048   0.279  11.630 -2.7014  0.1391 -0.2221
 2650SOL     OW19408   4.195   2.660   5.703  0.6729 -0.5720  0.0141
 2650SOL    HW119409   4.143   2.646   5.624 -1.1770 -0.0501  1.1556
 2650SOL    HW219410   4.156   2.747   5.713  1.1111 -0.3814  0.1020
 2651SOL     OW19411   2.110   3.923  16.116  0.4084 -0.7119  0.6380
 2651SOL    HW119412   2.068   3.880  16.191 -0.9056 -1.7124 -0.6831
 2651SOL    HW219413   2.139   4.008  16.149  0.8109  0.4220 -2.6008
 2652SOL     OW19414   2.899   4.388  12.427 -0.2460  0.2620  0.1749
 2652SOL    HW119415   2.842   4.311  12.436 -2.1774  1.6538 -0.0869
 2652SOL    HW219416   2.983   4.344  12.413 -0.6315 -0.2783 -0.4485
 2653SOL     OW19417   2.144   3.897  10.786 -0.4763 -0.4755 -0.4243
 2653SOL    HW119418   2.109   3.904  10.875  0.8433  0.1750  0.0433
 2653SOL    HW219419   2.064   3.879  10.737 -2.1143  1.0078  1.7073
 2654SOL     OW19420   4.113   1.151   4.924 -0.1244 -0.0829 -0.6050
 2654SOL    HW119421   4.035   1.205   4.916 -0.0539 -0.1637 -1.8251
 2654SOL    HW219422   4.090   1.064   4.890  1.1058  0.0411 -1.7677
 2655SOL     OW19423   2.131   2.996   5.192  0.1254  0.1086  0.1289
 2655SOL    HW119424   2.131   2.915   5.242 -0.6040 -1.1931 -1.9795
 2655SOL    HW219425   2.173   2.979   5.107 -0.3141  0.5329 -0.1767
 2656SOL     OW19426   0.685   1.808   3.625 -0.4095 -0.1255  0.0911
 2656SOL    HW119427   0.747   1.818   3.553  1.1313 -1.5224  1.2100
 2656SOL    HW219428   0.641   1.729   3.592  0.7172 -0.8429  0.2862
 2657SOL     OW19429   1.799   3.054   6.201  0.1342 -0.1394 -0.2689
 2657SOL    HW119430   1.765   2.975   6.242 -0.0589  1.2305  2.1544
 2657SOL    HW219431   1.744   3.115   6.249  2.0072  1.6156 -0.3530
 2658SOL     OW19432   0.670   3.008   2.174 -0.6719 -0.1821  0.5652
 2658SOL    HW119433   0.730   3.079   2.196  0.2962 -0.6077 -0.6740
 2658SOL    HW219434   0.669   3.014   2.079  1.8677 -2.2773  0.3945
 2659SOL     OW19435   4.105   1.836  11.429 -0.2117  0.5329  0.0280
 2659SOL    HW119436   4.093   1.811  11.337 -0.9055 -2.8306  1.0303
 2659SOL    HW219437   4.137   1.751  11.459  1.7324  0.9838 -0.7306
 2660SOL     OW19438   1.794   1.750   8.775 -0.2645 -0.2821 -0.4042
 2660SOL    HW119439   1.878   1.769   8.817 -0.2578  1.1786 -1.0746
 2660SOL    HW219440   1.790   1.655   8.787  0.6415 -0.2868 -0.1395
 2661SOL     OW19441   3.660   1.515  16.184  0.0035 -0.6939 -0.5017
 2661SOL    HW119442   3.614   1.431  16.185  1.3126 -1.3821  0.5613
 2661SOL    HW219443   3.593   1.577  16.213  0.6259 -0.1708 -0.2109
 2662SOL     OW19444   3.772   2.505   8.370  0.3837 -0.7655 -0.2640
 2662SOL    HW119445   3.741   2.484   8.459 -0.2817 -0.2041 -0.3576
 2662SOL    HW219446   3.845   2.562   8.393  0.4687 -2.1021  2.8445
 2663SOL     OW19447   4.621   0.452   3.434 -0.1759 -0.3227 -0.4236
 2663SOL    HW119448   4.663   0.448   3.520  3.5011 -0.6563 -2.2270
 2663SOL    HW219449   4.590   0.542   3.436  0.7075 -0.0330  0.1735
 2664SOL     OW19450   4.328   1.423   6.634  0.2295  0.3079 -0.0871
 2664SOL    HW119451   4.259   1.468   6.586 -1.7460 -0.5474  1.9495
 2664SOL    HW219452   4.305   1.330   6.631 -0.8662  0.6372 -1.9836
 2665SOL     OW19453   0.776   2.444  13.322  0.2527 -0.5813  0.1858
 2665SOL    HW119454   0.798   2.415  13.234  0.3695 -2.3994  0.8121
 2665SOL    HW219455   0.828   2.524  13.326  0.2331 -0.4800 -1.8338
 2666SOL     OW19456   2.689   0.251   0.346  0.2082  0.2679  0.6244
 2666SOL    HW119457   2.712   0.294   0.263  1.8976  1.4407  1.6906
 2666SOL    HW219458   2.641   0.317   0.394  0.3004  0.5946  0.2637
 2667SOL     OW19459   3.922   2.734  16.523 -0.1527 -0.2680  0.4604
 2667SOL    HW119460   3.852   2.669  16.512  0.1341 -0.2949 -1.1885
 2667SOL    HW219461   3.897   2.770  16.608  1.5334  1.0207  0.4057
 2668SOL     OW19462   3.363   1.253   8.325 -0.0931 -0.2059 -0.8331
 2668SOL    HW119463   3.322   1.188   8.268  0.0202  0.1949 -1.3684
 2668SOL    HW219464   3.367   1.331   8.270 -0.5665  0.5907  0.2776
 2669SOL     OW19465   1.589   1.759   4.713  0.4610 -0.3422  0.1304
 2669SOL    HW119466   1.654   1.802   4.768  1.0970  1.3486 -1.9381
 2669SOL    HW219467   1.507   1.806   4.726  0.7579  0.1262  0.2976
 2670SOL     OW19468   4.250   4.612   4.469  0.1218  0.0703 -0.2252
 2670SOL    HW119469   4.216   4.701   4.481 -1.4691 -0.0487 -3.8922
 2670SOL    HW219470   4.247   4.587   4.561  1.3668 -0.2789 -0.2792
 2671SOL     OW19471   4.607   1.628   5.060 -0.1435  0.2401 -0.0707
 2671SOL    HW119472   4.568   1.624   4.972 -2.1694  2.0633  0.7552
 2671SOL    HW219473   4.601   1.535   5.082 -0.6337  0.3355  0.2051
 2672SOL     OW19474   4.265   1.944   2.996 -0.3498  0.1160 -0.0281
 2672SOL    HW119475   4.290   1.987   3.078  0.3124 -0.0614 -0.1367
 2672SOL    HW219476   4.189   1.996   2.969 -1.7583 -2.7117 -1.4989
 2673SOL     OW19477   4.640   2.072  13.544  0.6175  0.1021 -0.0178
 2673SOL    HW119478   4.559   2.103  13.505  0.3076  0.6763  1.0667
 2673SOL    HW219479   4.654   1.985  13.507  0.0550 -0.5584  1.3131
 2674SOL     OW19480   4.472   1.031  11.044  0.1206 -0.2150  0.0177
 2674SOL    HW119481   4.537   1.101  11.037  2.1263 -2.2043 -1.3522
 2674SOL    HW219482   4.442   1.031  11.135  1.1169 -0.2243  0.3510
 2675SOL     OW19483   3.075   0.011   3.946  0.6163 -0.0472 -0.2228
 2675SOL    HW119484   3.124   4.653   3.938  2.2054  0.9043 -0.1409
 2675SOL    HW219485   3.141   0.074   3.917  0.3856  0.5822  0.6203
 2676SOL     OW19486   4.434   3.296  16.991  0.1498 -0.1613 -0.6968
 2676SOL    HW119487   4.432   3.337  17.077 -0.7567 -0.3561 -0.6269
 2676SOL    HW219488   4.339   3.291  16.975  0.1465 -1.0974 -0.3757
 2677SOL     OW19489   4.059   2.122   8.397 -0.0585 -0.1465  0.6124
 2677SOL    HW119490   4.002   2.192   8.429 -0.9067 -0.2577 -0.6217
 2677SOL    HW219491   4.038   2.039   8.439 -1.7651 -0.2520 -0.4413
 2678SOL     OW19492   1.463   1.004   2.793  0.4541  0.6319  0.3053
 2678SOL    HW119493   1.397   1.061   2.755 -0.4538 -0.0520  0.8770
 2678SOL    HW219494   1.552   1.041   2.794  0.2008  1.2733 -1.5277
 2679SOL     OW19495   4.519   1.104   0.155 -0.0962 -0.4108 -0.6843
 2679SOL    HW119496   4.606   1.064   0.156 -0.8278 -2.0122 -2.1302
 2679SOL    HW219497   4.531   1.165   0.083  2.2471 -1.5273 -1.2314
 2680SOL     OW19498   2.821   1.141   7.344 -0.0121 -0.0649 -0.3387
 2680SOL    HW119499   2.774   1.091   7.277  0.9675 -0.8999 -0.4050
 2680SOL    HW219500   2.893   1.079   7.360  0.0295  0.3017  0.9159
 2681SOL     OW19501   1.482   0.665   6.951  0.3979 -0.2229 -0.2870
 2681SOL    HW119502   1.475   0.697   6.861 -0.5373 -0.1880 -0.1963
 2681SOL    HW219503   1.493   0.744   7.004 -2.9876  0.1970 -0.2157
 2682SOL     OW19504   3.902   3.403   8.683  0.4643  0.3126  0.0285
 2682SOL    HW119505   3.878   3.359   8.764 -2.0915 -2.6215 -2.2829
 2682SOL    HW219506   3.856   3.487   8.692 -0.8197 -0.3148 -0.6358
 2683SOL     OW19507   0.656   4.677  12.607 -0.2333  0.2087 -0.0977
 2683SOL    HW119508   0.568   4.664  12.573 -1.1631 -1.0584  2.8012
 2683SOL    HW219509   0.647   4.672  12.702  0.5540 -0.5764 -0.0585
 2684SOL     OW19510   1.478   0.968  12.811 -0.4453 -0.0821 -0.4536
 2684SOL    HW119511   1.475   1.015  12.728  1.3480 -3.0074 -2.1771
 2684SOL    HW219512   1.479   0.877  12.780 -0.7544 -0.2214 -0.0664
 2685SOL     OW19513   1.561   2.239  15.663 -0.8257 -0.7142 -0.3890
 2685SOL    HW119514   1.597   2.167  15.612 -0.3382  0.5422 -1.7964
 2685SOL    HW219515   1.488   2.255  15.604 -0.2587  0.4589 -0.7815
 2686SOL     OW19516   0.744   2.776   8.805  0.1590 -0.2903 -0.3233
 2686SOL    HW119517   0.682   2.723   8.755 -0.6375  0.7137 -0.3952
 2686SOL    HW219518   0.759   2.844   8.739  2.6248 -0.7688 -0.2487
 2687SOL     OW19519   3.617   4.424   3.803  0.3258 -0.6977 -0.4539
 2687SOL    HW119520   3.568   4.467   3.873  1.0976 -0.0009 -0.3482
 2687SOL    HW219521   3.646   4.346   3.850 -0.2222 -0.7662 -0.2301
 2688SOL     OW19522   4.679   3.023   8.165  0.2965  0.0780  0.0630
 2688SOL    HW119523   4.705   2.973   8.242  0.0440 -2.0583 -1.2506
 2688SOL    HW219524   0.043   3.058   8.148  1.0818 -1.0093  1.7832
 2689SOL     OW19525   2.949   0.607   5.350 -0.0146  0.0964 -0.6671
 2689SOL    HW119526   2.922   0.634   5.261 -0.4497 -2.3718 -1.2753
 2689SOL    HW219527   2.982   0.695   5.370 -0.9453 -0.1845  2.0725
 2690SOL     OW19528   3.066   2.550   6.011 -0.0277  0.5713 -0.2424
 2690SOL    HW119529   2.998   2.609   6.044  0.8217  1.7953 -0.6402
 2690SOL    HW219530   3.109   2.535   6.095 -0.8416 -1.9322 -0.2781
 2691SOL     OW19531   1.300   1.873   6.673 -0.4028 -0.3104  0.4592
 2691SOL    HW119532   1.234   1.885   6.741 -2.2144 -0.3084 -1.3131
 2691SOL    HW219533   1.286   1.951   6.620  2.1221 -0.7221 -0.8449
 2692SOL     OW19534   0.445   3.025   0.326 -0.4597 -0.2135  0.1284
 2692SOL    HW119535   0.390   2.988   0.396  0.7121  0.2097  1.2628
 2692SOL    HW219536   0.522   3.050   0.376  0.8501 -1.6804 -1.1767
 2693SOL     OW19537   0.214   1.067   5.538  0.2404  0.4248 -0.3050
 2693SOL    HW119538   0.185   1.111   5.459  0.3116 -0.2308 -0.6991
 2693SOL    HW219539   0.240   0.982   5.502 -0.6295  0.0135  0.0492
 2694SOL     OW19540   2.329   3.959   4.482 -0.4704 -0.1008  0.4742
 2694SOL    HW119541   2.382   3.965   4.403 -1.7217 -0.2098 -0.3744
 2694SOL    HW219542   2.310   3.865   4.480 -0.5221 -0.0691 -0.4715
 2695SOL     OW19543   0.927   1.736   8.554 -0.6293  0.1683  0.2729
 2695SOL    HW119544   0.938   1.817   8.505  0.2897  0.4791  0.9995
 2695SOL    HW219545   0.845   1.753   8.601 -1.1411  0.0894 -0.5823
 2696SOL     OW19546   1.856   4.718  15.121  0.2333 -0.5152 -0.2160
 2696SOL    HW119547   1.819   4.649  15.176  1.3112 -1.3828 -0.5907
 2696SOL    HW219548   1.895   4.672  15.047  1.8981  1.5957 -0.6409
 2697SOL     OW19549   1.146   1.877   4.987  0.1329  0.5210 -0.4106
 2697SOL    HW119550   1.227   1.921   5.014 -0.3041  1.1482 -0.1532
 2697SOL    HW219551   1.149   1.806   5.052  0.8855 -0.2407 -1.2675
 2698SOL     OW19552   0.487   3.895   3.313 -0.2118 -0.4190  0.0228
 2698SOL    HW119553   0.409   3.943   3.341 -1.2398 -1.4636 -1.0399
 2698SOL    HW219554   0.529   3.967   3.267 -0.3054  1.2560  2.5760
 2699SOL     OW19555   2.393   3.221  10.089  0.0159 -0.2067  0.6329
 2699SOL    HW119556   2.377   3.209  10.183 -0.3117 -0.8809  0.4880
 2699SOL    HW219557   2.306   3.239  10.053  0.7718  0.1872 -1.0030
 2700SOL     OW19558   2.998   1.534   8.992 -0.0991  0.5834 -0.3040
 2700SOL    HW119559   3.058   1.594   8.948 -0.2672  1.0071  0.0405
 2700SOL    HW219560   2.943   1.597   9.040 -0.1593 -0.0533  0.4619
 2701SOL     OW19561   0.963   2.199   8.304 -0.0257  0.4512 -0.4188
 2701SOL    HW119562   0.936   2.139   8.373  2.1734 -1.5024 -1.2550
 2701SOL    HW219563   1.026   2.151   8.250 -0.6747 -2.0258  1.0652
 2702SOL     OW19564   1.814   1.392   1.917  0.0613  0.3540  0.0200
 2702SOL    HW119565   1.842   1.339   1.992 -0.3092 -1.5122 -1.1490
 2702SOL    HW219566   1.739   1.340   1.886 -0.3432  1.2958 -0.5651
 2703SOL     OW19567   1.100   3.998   8.855 -0.1418 -0.3592  0.2504
 2703SOL    HW119568   1.141   4.071   8.902 -0.1931 -2.2206  3.1719
 2703SOL    HW219569   1.170   3.985   8.791 -0.1942 -2.9899  0.7491
 2704SOL     OW19570   0.034   3.072   1.470  0.1920  0.2586 -0.0337
 2704SOL    HW119571   0.088   3.150   1.469  0.9224 -0.2477  0.4334
 2704SOL    HW219572   4.723   3.076   1.559 -1.7108 -0.1391 -0.7274
 2705SOL     OW19573   1.961   3.198   7.449 -0.0886 -0.2202 -0.1531
 2705SOL    HW119574   2.017   3.205   7.526  0.2957 -0.7505 -0.3842
 2705SOL    HW219575   1.887   3.254   7.473  0.5257  1.2723 -1.7279
 2706SOL     OW19576   4.695   4.141   9.303 -0.2929  0.2734 -0.2611
 2706SOL    HW119577   0.053   4.098   9.328 -1.5899 -0.9408  1.8655
 2706SOL    HW219578   4.666   4.070   9.245 -1.6555  0.7220 -0.1441
 2707SOL     OW19579   1.545   3.683   1.380  0.3370 -0.3552  0.0378
 2707SOL    HW119580   1.522   3.729   1.299  0.4586  0.1729  0.2983
 2707SOL    HW219581   1.501   3.742   1.441 -1.7521 -2.3061  0.3822
 2708SOL     OW19582   3.048   1.713  11.786  0.0489  0.8787 -0.0153
 2708SOL    HW119583   3.048   1.809  11.785 -0.7877  0.8564 -2.1632
 2708SOL    HW219584   3.026   1.698  11.878  0.2826 -3.3751 -0.6490
 2709SOL     OW19585   4.009   1.708   5.943 -0.4038  0.0447 -0.4294
 2709SOL    HW119586   3.921   1.744   5.933 -0.3630  0.2082 -0.1956
 2709SOL    HW219587   4.059   1.786   5.919  3.2263 -1.1343  3.2267
 2710SOL     OW19588   2.388   2.064   4.302  0.3586  0.4008  1.0742
 2710SOL    HW119589   2.313   2.118   4.326  0.7642  0.8135  1.4078
 2710SOL    HW219590   2.336   1.999   4.255 -0.0647  1.0571  0.6338
 2711SOL     OW19591   3.753   3.307   2.716 -0.1816 -0.2785  0.6092
 2711SOL    HW119592   3.691   3.352   2.773 -0.9423 -0.6693  0.1023
 2711SOL    HW219593   3.723   3.349   2.635  2.1246 -0.0960 -0.1423
 2712SOL     OW19594   0.140   3.021   3.125  0.1211  0.1739 -0.5256
 2712SOL    HW119595   0.087   2.990   3.052 -1.4299  0.0108  0.6774
 2712SOL    HW219596   0.094   3.104   3.132  0.6990  0.4812 -0.3613
 2713SOL     OW19597   4.668   1.681   7.717  0.1125  0.3846 -0.1101
 2713SOL    HW119598   0.023   1.634   7.747 -1.2749 -2.4597 -0.9659
 2713SOL    HW219599   4.601   1.613   7.724 -0.6166  1.1202 -0.0506
 2714SOL     OW19600   3.801   2.849   0.294 -0.1437 -0.4031 -0.1461
 2714SOL    HW119601   3.884   2.863   0.339  0.4413  0.6923 -1.5711
 2714SOL    HW219602   3.819   2.773   0.239 -0.9605 -0.8592  0.2062
 2715SOL     OW19603   3.073   4.172  14.643  0.8706 -0.0668 -0.2960
 2715SOL    HW119604   3.029   4.180  14.728  0.3000 -2.3289 -0.3619
 2715SOL    HW219605   3.125   4.251  14.628  1.1666 -0.2789 -0.3799
 2716SOL     OW19606   0.720   2.741  16.885 -0.0443  0.0576  0.2130
 2716SOL    HW119607   0.682   2.822  16.919  1.1462  1.5842 -2.0734
 2716SOL    HW219608   0.687   2.730  16.796 -0.9548 -3.0999  0.9588
 2717SOL     OW19609   3.188   4.467   6.359 -0.0332 -0.1428 -0.2904
 2717SOL    HW119610   3.264   4.515   6.325 -0.9877  0.8085 -1.0496
 2717SOL    HW219611   3.160   4.422   6.280 -0.1794 -1.9352  0.7762
 2718SOL     OW19612   3.902   3.237   3.784  0.4107  0.0710 -0.1796
 2718SOL    HW119613   3.938   3.299   3.848  0.8233 -1.9831  1.5693
 2718SOL    HW219614   3.960   3.162   3.795  0.2455  0.6368  4.8255
 2719SOL     OW19615   2.440   0.191   3.773  0.1999  0.3019  0.2665
 2719SOL    HW119616   2.345   0.197   3.764  0.1891  1.5724  1.1100
 2719SOL    HW219617   2.475   0.246   3.703  1.4998  1.2966  1.6695
 2720SOL     OW19618   1.664   2.573   7.112  0.3932 -0.2688 -0.3527
 2720SOL    HW119619   1.587   2.571   7.055 -0.5448 -1.5619  0.9614
 2720SOL    HW219620   1.733   2.574   7.044 -0.0518  2.6239 -0.7524
 2721SOL     OW19621   1.103   2.581   2.728  0.3050 -0.2189  0.5711
 2721SOL    HW119622   1.143   2.505   2.770 -2.2443 -0.5405  2.3927
 2721SOL    HW219623   1.143   2.581   2.641  0.7062 -1.9403  0.7429
 2722SOL     OW19624   0.466   3.511   7.635 -0.5996  0.9106 -0.0854
 2722SOL    HW119625   0.557   3.526   7.609 -0.9908  1.4447 -1.1226
 2722SOL    HW219626   0.450   3.417   7.626 -3.2551  1.2273  1.3058
 2723SOL     OW19627   3.732   3.648   7.710 -0.1388 -0.2086 -0.5423
 2723SOL    HW119628   3.819   3.627   7.676  1.7588  1.5370  3.2626
 2723SOL    HW219629   3.745   3.725   7.765  0.4544 -1.1072  0.5712
 2724SOL     OW19630   1.781   1.016  16.514  0.2763  0.2668  0.2939
 2724SOL    HW119631   1.775   1.045  16.423  0.9207  0.8812  0.4433
 2724SOL    HW219632   1.692   1.038  16.544 -0.0501 -0.0188 -0.4763
 2725SOL     OW19633   1.198   2.312  12.101  0.2207 -0.3200  0.0602
 2725SOL    HW119634   1.166   2.236  12.149  2.2196 -0.2928  1.4381
 2725SOL    HW219635   1.193   2.374  12.173 -0.8888 -1.8943  1.3345
 2726SOL     OW19636   0.539   4.077   0.539 -0.0588 -0.1509  0.3494
 2726SOL    HW119637   0.618   4.034   0.507  0.2036  0.6698 -0.0915
 2726SOL    HW219638   0.570   4.143   0.601 -0.7985 -0.6995  1.3060
 2727SOL     OW19639   1.436   2.217   2.941  0.2136 -0.4157 -0.0904
 2727SOL    HW119640   1.502   2.251   3.001  1.3313 -0.5518 -1.2536
 2727SOL    HW219641   1.488   2.149   2.899  1.1215  1.1242 -1.4301
 2728SOL     OW19642   2.852   1.552   6.232 -0.1513 -0.3114 -0.0779
 2728SOL    HW119643   2.932   1.570   6.183  0.6027 -1.9940  0.5681
 2728SOL    HW219644   2.887   1.484   6.289  0.4666 -1.7235 -2.1290
 2729SOL     OW19645   2.188   3.022  10.177  0.3347 -0.2797 -0.5754
 2729SOL    HW119646   2.149   3.014  10.264  1.1706 -2.3584 -0.4069
 2729SOL    HW219647   2.137   3.088  10.130 -0.2402 -1.1582 -1.1858
 2730SOL     OW19648   4.620   0.911   6.039 -0.1808  0.5158  0.2119
 2730SOL    HW119649   4.549   0.870   6.088  0.8547  0.7642  1.9177
 2730SOL    HW219650   4.621   0.996   6.083 -0.4122  0.2766  0.6731
 2731SOL     OW19651   1.474   4.625   1.605 -0.2494 -0.3288 -0.1151
 2731SOL    HW119652   1.546   4.583   1.651  0.7386  1.7717  0.2614
 2731SOL    HW219653   1.403   4.572   1.641 -0.1906  0.0881  0.6069
 2732SOL     OW19654   1.864   0.835   4.855 -0.5566 -0.2991 -0.1301
 2732SOL    HW119655   1.908   0.789   4.783 -1.2284 -2.1514  0.6328
 2732SOL    HW219656   1.790   0.777   4.873 -2.0019  1.3398 -0.8535
 2733SOL     OW19657   3.967   0.159   2.219 -0.2558 -0.9806  0.0009
 2733SOL    HW119658   4.042   0.171   2.160  0.3895 -3.4463  0.3155
 2733SOL    HW219659   3.903   0.224   2.191  0.7738 -0.3282 -0.8253
 2734SOL     OW19660   2.472   1.641   3.686  0.5295  0.2696 -0.0682
 2734SOL    HW119661   2.566   1.620   3.693  0.8394  1.1043 -1.7291
 2734SOL    HW219662   2.441   1.640   3.776  1.6039  0.2912  0.3054
 2735SOL     OW19663   3.917   3.605   5.286 -0.6154 -0.1311  0.7862
 2735SOL    HW119664   3.839   3.632   5.334 -2.2901 -1.5038 -1.1463
 2735SOL    HW219665   3.938   3.526   5.334 -0.1359  0.2057  1.1303
 2736SOL     OW19666   4.581   2.285   7.172  0.2067 -0.0396 -0.4756
 2736SOL    HW119667   4.568   2.335   7.252 -2.5858 -0.1740 -0.8484
 2736SOL    HW219668   4.645   2.219   7.199 -0.6388  0.0309  1.6463
 2737SOL     OW19669   4.643   4.653   2.575  0.0567 -0.3891 -0.4217
 2737SOL    HW119670   4.716   4.605   2.613 -1.0264 -2.9152 -1.5195
 2737SOL    HW219671   4.623   4.716   2.645  0.3692  0.7331 -1.3416
 2738SOL     OW19672   4.378   3.889   6.107 -0.2474  0.3004 -1.0535
 2738SOL    HW119673   4.341   3.850   6.187 -2.8006 -0.1101 -2.4175
 2738SOL    HW219674   4.333   3.836   6.041  0.4417 -0.9806 -0.5109
 2739SOL     OW19675   1.072   3.899   6.784 -0.3049 -0.3102 -0.5072
 2739SOL    HW119676   1.000   3.959   6.802  0.7795  1.0686 -0.7679
 2739SOL    HW219677   1.146   3.960   6.786 -0.1588 -0.5103  0.3345
 2740SOL     OW19678   3.815   2.802   4.066  0.1601  0.0750  0.0218
 2740SOL    HW119679   3.750   2.873   4.075  0.0231  0.0789 -0.9266
 2740SOL    HW219680   3.837   2.790   4.158 -0.2700 -0.2943  0.0770
 2741SOL     OW19681   3.392   2.639  10.540  0.6948  0.1323 -0.0803
 2741SOL    HW119682   3.330   2.711  10.529  1.2511  0.1034 -3.5263
 2741SOL    HW219683   3.417   2.656  10.630 -0.1846  0.4131  0.1123
 2742SOL     OW19684   3.910   2.889   7.441 -0.0350  0.1987  0.7398
 2742SOL    HW119685   3.923   2.919   7.351  0.1190  0.4469  0.8460
 2742SOL    HW219686   3.861   2.964   7.475  1.0669  1.4981 -0.5432
 2743SOL     OW19687   2.121   2.396  11.410 -0.7351 -0.0271 -0.0719
 2743SOL    HW119688   2.026   2.402  11.404 -0.6844 -0.2456 -1.1023
 2743SOL    HW219689   2.159   2.436  11.332 -0.5623  0.8760  0.4753
 2744SOL     OW19690   1.806   1.757   8.146  0.7910 -0.3899  0.0254
 2744SOL    HW119691   1.875   1.691   8.134  0.7387 -1.0046  3.1178
 2744SOL    HW219692   1.861   1.835   8.138 -0.7147  0.5241 -1.4655
 2745SOL     OW19693   4.387   3.734   7.024 -0.0797  0.0704  0.1693
 2745SOL    HW119694   4.446   3.766   6.956 -2.0544 -0.4740 -1.8326
 2745SOL    HW219695   4.406   3.640   7.029  0.4358  0.2103  0.7273
 2746SOL     OW19696   1.857   4.400  16.217 -0.6773  0.0812 -0.0445
 2746SOL    HW119697   1.861   4.313  16.178  0.4442  0.4203 -0.6742
 2746SOL    HW219698   1.770   4.386  16.254  0.2688 -1.2620  1.6738
 2747SOL     OW19699   1.565   1.140  12.597  0.3123 -0.3702 -0.3098
 2747SOL    HW119700   1.549   1.188  12.516 -1.3505 -1.5876 -0.7033
 2747SOL    HW219701   1.618   1.199  12.651 -1.3144  1.8886 -1.1874
 2748SOL     OW19702   2.805   0.287   3.623 -0.2703 -0.0762 -0.1401
 2748SOL    HW119703   2.878   0.348   3.632 -0.6598  0.5261 -1.1374
 2748SOL    HW219704   2.805   0.233   3.702  0.8927  0.0055 -0.0828
 2749SOL     OW19705   3.229   1.029   7.661  0.0221  0.0234 -0.1387
 2749SOL    HW119706   3.154   1.007   7.715  0.6336 -2.1418 -0.1704
 2749SOL    HW219707   3.261   0.942   7.637  1.6727  1.1041 -1.8844
 2750SOL     OW19708   0.799   2.338   4.165  0.2098 -0.2435 -0.0063
 2750SOL    HW119709   0.799   2.434   4.161  1.3540 -0.2189  0.3225
 2750SOL    HW219710   0.769   2.320   4.076 -0.2702  1.1986 -0.1457
 2751SOL     OW19711   3.070   2.377   8.682 -0.7539  0.1519  0.1472
 2751SOL    HW119712   3.089   2.421   8.600 -1.2082 -1.3427 -0.7550
 2751SOL    HW219713   3.047   2.445   8.746  1.2310  2.1212 -1.2311
 2752SOL     OW19714   2.993   1.627   0.770 -0.1376 -0.6388 -0.0465
 2752SOL    HW119715   2.926   1.572   0.729 -1.4747  1.1432 -0.2552
 2752SOL    HW219716   2.957   1.633   0.859 -0.3106  2.0292 -0.3067
 2753SOL     OW19717   4.562   1.141  10.773 -0.4458 -0.1157 -0.1623
 2753SOL    HW119718   4.538   1.052  10.751 -0.1657 -0.0788 -0.6099
 2753SOL    HW219719   4.647   1.129  10.817 -0.6405  1.2838  0.6095
 2754SOL     OW19720   0.870   3.335   5.610  0.3428  0.0598  0.2367
 2754SOL    HW119721   0.822   3.377   5.682 -3.2484 -2.3923 -0.6782
 2754SOL    HW219722   0.805   3.330   5.540 -1.2205 -0.0965  1.6823
 2755SOL     OW19723   0.328   0.580   6.345 -0.7017  0.0053 -0.1972
 2755SOL    HW119724   0.367   0.665   6.367 -0.5654 -0.6370  2.1123
 2755SOL    HW219725   0.242   0.601   6.308  0.0760  0.4688 -1.7189
 2756SOL     OW19726   0.529   2.218   2.095  0.4520  0.4780 -0.3276
 2756SOL    HW119727   0.441   2.251   2.077  0.3501 -1.2320 -2.8750
 2756SOL    HW219728   0.570   2.207   2.009  1.7314 -0.3302  0.3773
 2757SOL     OW19729   4.480   2.174   6.023  0.2036 -0.4119  0.6439
 2757SOL    HW119730   4.549   2.139   5.967 -0.8038 -0.5294 -0.5365
 2757SOL    HW219731   4.536   2.218   6.087 -0.2055  2.8017 -1.1974
 2758SOL     OW19732   0.910   1.381   7.501 -0.0727 -0.0508 -0.3790
 2758SOL    HW119733   0.997   1.417   7.483  0.9507 -1.0515  2.4912
 2758SOL    HW219734   0.866   1.458   7.537 -2.3115 -0.8571 -1.3967
 2759SOL     OW19735   4.157   2.952   4.802 -0.2053  0.2213 -0.4037
 2759SOL    HW119736   4.230   2.983   4.854  1.1751 -0.8969 -1.6517
 2759SOL    HW219737   4.213   2.909   4.737 -0.8189 -0.3617 -0.5473
 2760SOL     OW19738   3.199   1.678   5.729  0.5639 -0.2424  0.4616
 2760SOL    HW119739   3.228   1.603   5.678  0.7853  1.6240 -2.1357
 2760SOL    HW219740   3.203   1.749   5.665  0.7406 -0.4557  0.2362
 2761SOL     OW19741   3.748   2.508   7.729  0.2120 -0.4109 -0.7978
 2761SOL    HW119742   3.802   2.570   7.681  0.1964  0.4316  0.2622
 2761SOL    HW219743   3.744   2.551   7.815 -1.4389 -0.3313 -0.8998
 2762SOL     OW19744   0.587   1.576   9.121  0.2113 -0.0520  0.0022
 2762SOL    HW119745   0.563   1.665   9.097  3.1011  1.3316  2.3897
 2762SOL    HW219746   0.662   1.558   9.064  0.4330  4.2356 -1.0559
 2763SOL     OW19747   3.627   3.388   9.163 -0.2326  0.0840 -0.2303
 2763SOL    HW119748   3.583   3.467   9.130 -1.9922 -1.4048 -1.4366
 2763SOL    HW219749   3.719   3.411   9.151  0.0033  0.1816  1.8078
 2764SOL     OW19750   3.531   2.719  16.637 -0.6563  0.1790 -0.0675
 2764SOL    HW119751   3.447   2.679  16.614  0.7816 -3.9452  1.8042
 2764SOL    HW219752   3.578   2.648  16.681 -1.8375  0.1492  1.1726
 2765SOL     OW19753   1.039   4.332   2.549  0.0369  0.2935 -0.2413
 2765SOL    HW119754   0.966   4.278   2.518  0.7618 -0.9568  0.2390
 2765SOL    HW219755   1.041   4.405   2.487  1.3108  0.0571 -0.4766
 2766SOL     OW19756   4.471   3.617   4.847 -0.1031  0.4881 -0.4434
 2766SOL    HW119757   4.419   3.686   4.888  0.1758  0.5237 -0.1505
 2766SOL    HW219758   4.400   3.553   4.844  0.9254 -0.6678  0.1781
 2767SOL     OW19759   3.195   1.825  10.468  0.0338 -0.4018  0.7350
 2767SOL    HW119760   3.221   1.913  10.494 -1.9250  0.4959 -0.3260
 2767SOL    HW219761   3.280   1.783  10.483  0.6879  0.7165  0.1079
 2768SOL     OW19762   3.339   4.123   1.467 -0.5026 -0.3349 -0.2792
 2768SOL    HW119763   3.314   4.031   1.476  1.0291 -0.6928  0.4270
 2768SOL    HW219764   3.267   4.157   1.519 -1.6760 -0.3444 -1.9080
 2769SOL     OW19765   2.149   4.284  15.402  0.2221  0.6419  0.0565
 2769SOL    HW119766   2.055   4.271  15.394  0.7042 -1.8048 -1.8664
 2769SOL    HW219767   2.181   4.243  15.321 -2.1874 -0.6184 -0.2514
 2770SOL     OW19768   2.310   0.270   0.455  0.5135 -0.0870  0.1738
 2770SOL    HW119769   2.401   0.302   0.456 -0.0914  1.6949 -0.6745
 2770SOL    HW219770   2.322   0.234   0.367 -0.6815 -1.0050  0.3927
 2771SOL     OW19771   0.511   2.894   6.412 -0.0884 -0.7639 -0.1126
 2771SOL    HW119772   0.573   2.855   6.350  0.7039  1.4487 -0.7126
 2771SOL    HW219773   0.426   2.878   6.371 -0.0687  0.4928 -0.6539
 2772SOL     OW19774   0.702   0.900   7.562  0.6762 -0.1409 -0.1402
 2772SOL    HW119775   0.737   0.851   7.636  0.1425 -0.0070  0.2016
 2772SOL    HW219776   0.733   0.988   7.583 -1.0233 -0.0032  1.7743
 2773SOL     OW19777   4.142   1.445  15.985  0.4989  0.6941 -0.6604
 2773SOL    HW119778   4.056   1.431  16.025  0.7414 -0.6629 -0.6314
 2773SOL    HW219779   4.147   1.540  15.999 -1.2074  1.0530 -2.5247
 2774SOL     OW19780   0.654   0.125   0.403 -0.1521 -0.7127  0.9636
 2774SOL    HW119781   0.605   0.160   0.477 -1.7942  1.3766 -1.1237
 2774SOL    HW219782   0.578   0.111   0.346  0.1699  1.0693  0.1128
 2775SOL     OW19783   0.802   0.102  12.033 -0.1341  0.4967  0.2354
 2775SOL    HW119784   0.842   0.022  12.068 -1.9443 -0.0216  1.1045
 2775SOL    HW219785   0.878   0.131  11.982  1.0306  0.4959  1.9588
 2776SOL     OW19786   1.039   2.293  12.954 -0.1210  0.4940 -0.1034
 2776SOL    HW119787   1.064   2.201  12.957 -0.0303  0.4548 -2.0156
 2776SOL    HW219788   0.955   2.291  12.999  0.6659 -0.8970  1.2934
 2777SOL     OW19789   1.929   0.129   6.820 -0.1475 -0.2564 -0.1013
 2777SOL    HW119790   1.877   0.175   6.753 -1.3572 -1.3791  0.0745
 2777SOL    HW219791   1.878   0.048   6.822 -0.7509  0.0976 -1.1722
 2778SOL     OW19792   0.185   4.525  11.018  0.0167 -0.5007  0.0310
 2778SOL    HW119793   0.130   4.599  10.995 -0.4924 -0.3059  1.8339
 2778SOL    HW219794   0.152   4.459  10.957 -0.0561 -1.4358  1.0850
 2779SOL     OW19795   4.413   0.401  11.143 -0.1632  0.5305  0.1223
 2779SOL    HW119796   4.495   0.402  11.193  1.4051  1.3666 -2.4180
 2779SOL    HW219797   4.452   0.408  11.056  1.2757  1.0700  0.8133
 2780SOL     OW19798   0.846   1.495   0.466 -0.8681 -0.3388  0.3275
 2780SOL    HW119799   0.871   1.586   0.447 -1.3555 -0.2474  0.1442
 2780SOL    HW219800   0.753   1.509   0.481 -0.8775 -0.4961  0.4163
 2781SOL     OW19801   1.476   3.546   5.869 -0.1429  0.3170 -0.3181
 2781SOL    HW119802   1.483   3.580   5.958 -1.0240  1.5374 -0.7195
 2781SOL    HW219803   1.518   3.619   5.823  2.3175  0.2574  1.8222
 2782SOL     OW19804   1.847   3.036   3.121 -0.5383  0.2353 -0.3893
 2782SOL    HW119805   1.880   3.000   3.038 -0.7896 -2.3653  0.6294
 2782SOL    HW219806   1.754   3.047   3.102 -0.4610  1.2824 -0.1321
 2783SOL     OW19807   4.070   0.880   0.687 -0.5723 -0.0133  0.2073
 2783SOL    HW119808   3.979   0.886   0.718  0.6082  1.7188  3.3705
 2783SOL    HW219809   4.103   0.970   0.695 -0.0536 -0.0955 -1.0338
 2784SOL     OW19810   2.298   1.438   9.488  0.0542 -0.1818  0.4248
 2784SOL    HW119811   2.228   1.397   9.539  0.0732  0.0133  0.6081
 2784SOL    HW219812   2.276   1.410   9.400 -3.6107  0.9545  0.9510
 2785SOL     OW19813   3.608   1.802   2.932  0.0904 -0.3694 -0.5049
 2785SOL    HW119814   3.660   1.839   2.861 -0.6920  0.8161 -0.4693
 2785SOL    HW219815   3.540   1.761   2.880  1.0920 -0.2285 -1.9251
 2786SOL     OW19816   1.315   1.790  17.116  0.4505 -0.3669  1.0853
 2786SOL    HW119817   1.291   1.749  17.199 -0.3304 -1.2211  0.4404
 2786SOL    HW219818   1.408   1.812  17.126  0.8170 -1.3702 -0.0783
 2787SOL     OW19819   3.572   3.914   5.857 -0.1427 -0.0494 -0.3021
 2787SOL    HW119820   3.599   3.960   5.778 -1.2413  3.7742  1.5150
 2787SOL    HW219821   3.624   3.834   5.854  2.2459  1.5408 -1.2321
 2788SOL     OW19822   0.286   4.258  12.707  0.0718  0.3691 -0.4159
 2788SOL    HW119823   0.368   4.257  12.756  0.5069  2.8443 -1.0537
 2788SOL    HW219824   0.222   4.231  12.773 -1.0996 -1.8520 -2.4577
 2789SOL     OW19825   0.657   0.923   2.752 -0.0687  0.0564 -0.2380
 2789SOL    HW119826   0.562   0.913   2.757 -0.0899 -0.1504 -1.1144
 2789SOL    HW219827   0.680   0.996   2.809 -2.9105 -1.3812  2.7895
 2790SOL     OW19828   1.797   1.269   3.085 -0.3227  0.4450  0.1012
 2790SOL    HW119829   1.887   1.298   3.093  0.1388 -0.6561 -1.1776
 2790SOL    HW219830   1.797   1.174   3.099 -0.3029  0.4957  0.4547
 2791SOL     OW19831   2.251   1.107   8.049 -0.5735  0.5165 -0.2660
 2791SOL    HW119832   2.212   1.194   8.049  2.9947  2.1322  2.0636
 2791SOL    HW219833   2.336   1.125   8.008  1.1109 -1.5992  2.2434
 2792SOL     OW19834   1.306   4.036   2.026  0.0992 -0.7762  0.8419
 2792SOL    HW119835   1.382   4.012   2.079  1.3803  1.2545 -0.0648
 2792SOL    HW219836   1.253   4.074   2.096 -0.1743 -1.1379  0.8349
 2793SOL     OW19837   0.668   2.472  14.179  0.3557 -0.2430  0.2191
 2793SOL    HW119838   0.714   2.408  14.124  0.2399 -0.8735  0.8617
 2793SOL    HW219839   0.707   2.455  14.265 -1.0472 -2.9757  0.3103
 2794SOL     OW19840   2.654   4.555  14.594  0.2710  0.5291  0.0884
 2794SOL    HW119841   2.568   4.571  14.554  0.0875 -2.6525 -0.7183
 2794SOL    HW219842   2.697   4.626  14.546 -1.4238  0.2691 -1.8352
 2795SOL     OW19843   3.022   1.932   8.732 -0.4057  0.2191 -0.1312
 2795SOL    HW119844   3.112   1.956   8.710 -1.1109  1.8777 -1.1764
 2795SOL    HW219845   3.023   1.933   8.828  0.7681 -0.2099 -0.1295
 2796SOL     OW19846   1.352   3.237   6.976 -0.5022  0.4415  0.4414
 2796SOL    HW119847   1.267   3.194   6.982 -1.7265  2.7906 -0.3251
 2796SOL    HW219848   1.323   3.328   6.975 -3.4366 -0.4788  0.5606
 2797SOL     OW19849   4.133   2.702   7.913  0.2916 -0.5762  0.4327
 2797SOL    HW119850   4.175   2.689   7.828 -2.4529 -2.3536 -0.6419
 2797SOL    HW219851   4.092   2.617   7.929  0.5403 -0.9884 -1.1882
 2798SOL     OW19852   1.866   1.379   1.578 -0.5566  0.1214  0.2720
 2798SOL    HW119853   1.808   1.339   1.642 -1.9180 -1.8798 -2.1944
 2798SOL    HW219854   1.878   1.468   1.610 -0.1161 -0.3589  1.4210
 2799SOL     OW19855   2.416   2.882   4.703  0.5540 -0.1730 -0.3333
 2799SOL    HW119856   2.511   2.883   4.691  0.5372 -1.0613 -0.5690
 2799SOL    HW219857   2.394   2.963   4.658  2.0933  0.2177 -0.3749
 2800SOL     OW19858   3.719   4.226   4.004 -0.2249  0.4800  0.0163
 2800SOL    HW119859   3.780   4.274   4.060 -1.3611  1.1450  0.6886
 2800SOL    HW219860   3.646   4.225   4.066  1.4011 -2.3486  1.8812
 2801SOL     OW19861   2.811   0.137   8.313  0.2142  0.5832 -0.1255
 2801SOL    HW119862   2.727   0.156   8.273  0.1693 -0.9841 -0.7400
 2801SOL    HW219863   2.803   0.202   8.383 -1.4239 -1.2526  1.3487
 2802SOL     OW19864   0.582   1.023   3.095  0.0779  0.7298  0.2230
 2802SOL    HW119865   0.671   1.016   3.062 -0.2876  1.8439 -0.9980
 2802SOL    HW219866   0.528   1.063   3.026 -0.9466  0.6430  0.9708
 2803SOL     OW19867   0.987   2.672   3.663  0.2168 -0.0637 -0.2663
 2803SOL    HW119868   1.070   2.719   3.661 -0.5354  1.2127 -1.2480
 2803SOL    HW219869   0.927   2.742   3.638  0.0714 -0.1697 -0.2172
 2804SOL     OW19870   2.677   4.346   8.561  0.4936 -0.1958  0.2343
 2804SOL    HW119871   2.659   4.415   8.625  0.9640 -0.3985  0.5904
 2804SOL    HW219872   2.589   4.318   8.535 -0.1630  3.1662 -1.1629
 2805SOL     OW19873   1.930   1.609  14.509 -0.4469  0.8098 -0.3065
 2805SOL    HW119874   1.991   1.681  14.522 -1.4986  1.9012 -1.4392
 2805SOL    HW219875   1.869   1.653  14.450  0.9352 -0.5246 -2.7136
 2806SOL     OW19876   0.106   3.150   6.487 -0.0983 -0.0047 -0.3004
 2806SOL    HW119877   0.059   3.207   6.549 -1.2528 -2.1924  0.8158
 2806SOL    HW219878   0.074   3.186   6.404  0.2615  0.9543 -0.0219
 2807SOL     OW19879   3.965   3.359  11.126  0.3730 -0.3117 -0.1019
 2807SOL    HW119880   4.029   3.340  11.058  0.7780 -0.7130  0.3954
 2807SOL    HW219881   3.924   3.440  11.095 -1.0700  0.3815  3.4892
 2808SOL     OW19882   4.302   3.078   8.980  0.0950  0.5656  0.0628
 2808SOL    HW119883   4.394   3.060   8.999 -0.0537 -2.0367 -1.6692
 2808SOL    HW219884   4.269   3.025   9.053 -0.2551  1.6366  0.6702
 2809SOL     OW19885   1.796   2.774   5.365 -0.1028 -0.0961 -0.2820
 2809SOL    HW119886   1.881   2.809   5.338 -0.9971  0.9238 -1.7957
 2809SOL    HW219887   1.740   2.851   5.373 -2.2245 -1.8364  1.5937
 2810SOL     OW19888   3.860   3.320   1.547  0.9877  0.0312 -0.5516
 2810SOL    HW119889   3.773   3.306   1.583  0.3664  0.7496 -1.7841
 2810SOL    HW219890   3.891   3.238   1.584  1.4149  0.4168 -0.0410
 2811SOL     OW19891   1.047   1.046  14.948 -0.9477  0.1032 -0.5292
 2811SOL    HW119892   1.071   1.062  14.857 -1.2746  1.6567 -0.3466
 2811SOL    HW219893   0.995   0.966  14.943  1.1230 -1.4366  2.6333
 2812SOL     OW19894   3.734   3.009   7.781  0.0126  0.4779 -1.0060
 2812SOL    HW119895   3.734   3.105   7.787 -0.1412  0.3312  1.4271
 2812SOL    HW219896   3.829   2.996   7.777 -0.3240 -2.1243 -0.1938
 2813SOL     OW19897   4.191   0.235  14.972  0.3274 -0.4790  0.2904
 2813SOL    HW119898   4.269   0.207  15.019  1.3091  1.2071 -0.3406
 2813SOL    HW219899   4.204   0.178  14.896  0.5149 -0.6197  0.4284
 2814SOL     OW19900   1.869   0.661   5.342  0.2130 -0.8092 -0.5159
 2814SOL    HW119901   1.902   0.627   5.259  3.2045  1.2289 -0.1693
 2814SOL    HW219902   1.934   0.643   5.410 -0.9974  2.3159  1.4584
 2815SOL     OW19903   3.541   1.392   3.278 -0.3313  0.8166  0.0832
 2815SOL    HW119904   3.509   1.373   3.190  0.6735  1.2375 -0.3786
 2815SOL    HW219905   3.537   1.488   3.281 -1.7982  0.8043 -1.5821
 2816SOL     OW19906   2.354   4.514   5.758  0.2439 -0.1499  0.2762
 2816SOL    HW119907   2.319   4.447   5.700  1.2293 -2.1091  1.9132
 2816SOL    HW219908   2.333   4.594   5.711  3.6848 -0.8774 -2.4675
 2817SOL     OW19909   1.425   2.042   1.483 -0.3053 -0.3252 -0.4781
 2817SOL    HW119910   1.385   2.123   1.452 -1.4247 -0.3741  0.8629
 2817SOL    HW219911   1.424   2.032   1.578 -2.3687  2.5235 -0.2058
 2818SOL     OW19912   1.141   4.300   7.907 -0.4619 -0.4955 -0.2384
 2818SOL    HW119913   1.193   4.276   7.830 -1.1597 -0.8630 -0.6055
 2818SOL    HW219914   1.071   4.234   7.910  0.4728 -1.5436 -1.2568
 2819SOL     OW19915   3.464   4.034   6.306 -0.5169 -0.5913  0.2978
 2819SOL    HW119916   3.526   3.973   6.346 -0.5626 -0.3372  0.7582
 2819SOL    HW219917   3.473   4.094   6.381  0.1003 -1.2706  0.7660
 2820SOL     OW19918   0.528   1.906   1.258 -0.0980  0.3881  1.2566
 2820SOL    HW119919   0.477   1.953   1.324  1.5171  2.4842  1.0189
 2820SOL    HW219920   0.616   1.942   1.265 -0.5176  1.4383  1.0789
 2821SOL     OW19921   2.971   3.347  14.776 -0.0224  0.5698 -0.3922
 2821SOL    HW119922   3.014   3.420  14.819  0.5501  0.0531 -0.0935
 2821SOL    HW219923   2.965   3.383  14.687  1.4871 -0.1483 -0.7845
 2822SOL     OW19924   1.766   0.403   2.459  0.3358 -0.4504  0.3561
 2822SOL    HW119925   1.730   0.353   2.532 -2.9089 -0.2458 -1.0909
 2822SOL    HW219926   1.785   0.335   2.395 -1.8938 -0.4617 -0.2935
 2823SOL     OW19927   0.380   3.173   3.956  0.0015  0.3034  0.3234
 2823SOL    HW119928   0.394   3.119   3.878  1.4303 -0.2856  0.9844
 2823SOL    HW219929   0.429   3.252   3.937  2.0643 -1.4566 -1.6669
 2824SOL     OW19930   3.025   0.876   7.774 -0.8104  0.3551 -0.1650
 2824SOL    HW119931   2.931   0.871   7.791 -0.8147 -0.5687 -0.4852
 2824SOL    HW219932   3.033   0.856   7.680  2.8490  0.2436  0.1617
 2825SOL     OW19933   4.711   3.341   5.989 -0.2862 -0.4003  0.0041
 2825SOL    HW119934   0.054   3.374   5.929 -0.1337 -0.6321  0.0474
 2825SOL    HW219935   4.676   3.269   5.937  1.8430 -0.4163 -1.3750
 2826SOL     OW19936   2.025   0.192  14.744  0.4419  0.7294 -0.0222
 2826SOL    HW119937   2.012   0.277  14.787 -2.1199  0.9189 -1.2280
 2826SOL    HW219938   2.034   0.128  14.815 -0.8386 -1.2135 -1.6051
 2827SOL     OW19939   4.193   2.431   3.342  0.7916  0.6084 -0.3026
 2827SOL    HW119940   4.268   2.405   3.395 -0.9645 -0.3187  1.7163
 2827SOL    HW219941   4.229   2.501   3.288 -0.3089 -0.0793 -1.9474
 2828SOL     OW19942   1.536   0.580   3.883  0.2351 -0.1960 -0.1050
 2828SOL    HW119943   1.553   0.535   3.800  1.0489  1.1230 -0.6659
 2828SOL    HW219944   1.522   0.666   3.843  1.2564  0.9488  2.0069
 2829SOL     OW19945   1.373   0.516   0.748 -0.1901 -0.8514 -0.1579
 2829SOL    HW119946   1.401   0.424   0.752  1.9327 -0.1590  1.3800
 2829SOL    HW219947   1.427   0.551   0.819  0.2729 -1.0555 -0.4072
 2830SOL     OW19948   1.372   1.195  10.664 -0.4133  0.3523  0.0080
 2830SOL    HW119949   1.319   1.274  10.653 -0.4343  0.7140  2.7710
 2830SOL    HW219950   1.456   1.230  10.635 -0.0569  0.8356  1.6393
 2831SOL     OW19951   0.254   4.368  13.368  0.3238 -0.5868 -0.1760
 2831SOL    HW119952   0.339   4.407  13.386 -0.5884  1.2978 -0.0361
 2831SOL    HW219953   0.210   4.450  13.344 -1.1912 -0.7386  2.0526
 2832SOL     OW19954   1.352   3.017   2.911  1.1243 -0.1907 -0.2093
 2832SOL    HW119955   1.343   3.109   2.884  0.3152 -0.3783 -0.5887
 2832SOL    HW219956   1.299   2.967   2.849 -0.2645 -0.1500  0.9465
 2833SOL     OW19957   1.667   0.668   5.903 -0.2145  0.2739  0.5364
 2833SOL    HW119958   1.678   0.722   5.981  1.6591  3.2332 -1.7694
 2833SOL    HW219959   1.614   0.733   5.857 -0.0711  0.3953  0.5416
 2834SOL     OW19960   0.001   2.025  17.427 -0.2426  0.1908  0.8717
 2834SOL    HW119961   0.046   2.071  17.497  2.4675 -0.6179 -0.3328
 2834SOL    HW219962   4.710   2.106  17.378 -1.2385 -0.0050  0.8405
 2835SOL     OW19963   2.518   1.123   7.924  0.1391  0.4127  0.0765
 2835SOL    HW119964   2.588   1.080   7.973 -0.4891  0.7331  1.2507
 2835SOL    HW219965   2.556   1.211   7.918  0.0179  0.3829 -1.2007
 2836SOL     OW19966   1.712   4.255  13.491  0.3546 -0.4330  0.1879
 2836SOL    HW119967   1.624   4.236  13.522  0.8639 -0.2866  1.7197
 2836SOL    HW219968   1.732   4.330  13.548 -1.1231 -1.3113  1.8616
 2837SOL     OW19969   4.255   4.173  17.197  0.3626 -0.0191 -0.3023
 2837SOL    HW119970   4.288   4.188  17.286  1.3329 -1.0624 -0.4892
 2837SOL    HW219971   4.221   4.261  17.183  0.9506  0.0597 -1.2460
 2838SOL     OW19972   0.279   4.584  16.639 -0.1220  0.3940 -0.0536
 2838SOL    HW119973   0.265   4.679  16.632 -2.2546 -0.0134 -1.3630
 2838SOL    HW219974   0.195   4.557  16.675  0.4527 -0.3025  0.7500
 2839SOL     OW19975   1.821   0.047   2.599 -0.2349  0.3265 -0.2494
 2839SOL    HW119976   1.765   0.124   2.605 -0.4142  0.1536  0.2442
 2839SOL    HW219977   1.758   4.702   2.576  1.7077 -0.6236 -2.7349
 2840SOL     OW19978   2.533   0.475   3.752 -0.0732 -0.4655 -0.0838
 2840SOL    HW119979   2.444   0.471   3.788 -0.6989  1.2347 -1.4477
 2840SOL    HW219980   2.576   0.434   3.827 -1.0662 -0.5081  0.4672
 2841SOL     OW19981   4.495   2.130   6.741 -0.5705  0.4412 -0.0725
 2841SOL    HW119982   4.582   2.146   6.779 -0.1468 -3.1388  0.4824
 2841SOL    HW219983   4.447   2.209   6.765  0.7987  0.6066  2.1464
 2842SOL     OW19984   1.052   0.505   7.809 -0.0346  0.3986 -0.0450
 2842SOL    HW119985   1.105   0.502   7.730  0.1471  1.3590  0.0371
 2842SOL    HW219986   0.963   0.519   7.775 -0.5797 -0.1997  1.1434
 2843SOL     OW19987   1.194   0.746   4.665 -0.5967 -0.9206  0.0277
 2843SOL    HW119988   1.132   0.768   4.595 -0.6410 -0.7984  0.1057
 2843SOL    HW219989   1.181   0.652   4.666  1.1915 -1.1795 -0.5979
 2844SOL     OW19990   4.453   0.139   2.978 -0.1270  0.5830  0.1825
 2844SOL    HW119991   4.361   0.160   2.992 -0.3306 -1.5970  2.1450
 2844SOL    HW219992   4.482   0.229   2.962  1.3888 -0.0966 -0.9640
 2845SOL     OW19993   2.487   1.504  15.084  0.2359 -0.7448  0.0562
 2845SOL    HW119994   2.447   1.584  15.118 -1.3030 -0.8282 -1.5635
 2845SOL    HW219995   2.447   1.510  14.997 -1.1447 -1.2166  0.6778
 2846SOL     OW19996   2.764   4.067  14.615  0.5448  0.1770  0.4022
 2846SOL    HW119997   2.826   4.019  14.562  0.6476 -1.3245  1.8809
 2846SOL    HW219998   2.775   4.162  14.605  1.5271 -0.0334 -0.4044
 2847SOL     OW19999   4.394   4.181   5.369  0.8849  0.1193 -0.1910
 2847SOL    HW120000   4.429   4.244   5.432 -0.5688  1.1091 -0.3651
 2847SOL    HW220001   4.438   4.098   5.388 -1.4872 -0.6851  1.8235
 2848SOL     OW20002   2.891   0.319   7.066 -0.1617 -0.3878  0.3771
 2848SOL    HW120003   2.874   0.403   7.024  0.3263 -0.8126 -0.6966
 2848SOL    HW220004   2.925   0.263   6.995 -0.0105  1.4551 -0.9962
 2849SOL     OW20005   4.601   2.746   3.724  0.0354  0.2253 -0.5200
 2849SOL    HW120006   4.550   2.803   3.780  0.3086 -0.6210  0.5932
 2849SOL    HW220007   4.592   2.659   3.763  1.4372  0.3138  0.0069
 2850SOL     OW20008   2.050   0.805  15.091 -0.3430  0.2023  0.1607
 2850SOL    HW120009   2.036   0.897  15.115 -1.3578  0.0687  0.0858
 2850SOL    HW220010   1.979   0.797  15.028  0.8071  0.2802 -1.1528
 2851SOL     OW20011   0.170   4.410  15.184  0.3062 -0.1551  0.3025
 2851SOL    HW120012   0.246   4.432  15.237 -0.1840 -0.0670  0.9699
 2851SOL    HW220013   0.196   4.454  15.103  0.0240 -0.8922 -0.1888
 2852SOL     OW20014   3.665   2.585   3.666  0.4229 -0.3624 -0.2782
 2852SOL    HW120015   3.731   2.625   3.609  0.7176 -0.7183 -0.1866
 2852SOL    HW220016   3.643   2.643   3.738  1.6683  1.0827 -1.0554
 2853SOL     OW20017   1.259   1.248   2.918  0.0193 -0.0199  0.4896
 2853SOL    HW120018   1.330   1.243   2.982  1.2038  1.4243 -0.7010
 2853SOL    HW220019   1.320   1.281   2.852  1.8827 -1.4152  1.4865
 2854SOL     OW20020   1.563   3.675   5.199 -0.8250  0.6102  0.4613
 2854SOL    HW120021   1.605   3.752   5.238  1.8612  0.7475 -2.6676
 2854SOL    HW220022   1.473   3.676   5.230 -1.4631 -2.6598 -1.3307
 2855SOL     OW20023   4.500   1.679  10.515  0.2668 -0.5037  0.0310
 2855SOL    HW120024   4.584   1.683  10.469  0.1812  0.3786 -0.0470
 2855SOL    HW220025   4.506   1.594  10.559  0.3611 -1.1181 -1.1877
 2856SOL     OW20026   1.959   0.080   6.259 -0.1628 -0.1411  0.7717
 2856SOL    HW120027   2.026   0.107   6.322 -0.1946 -2.0703  1.6368
 2856SOL    HW220028   1.999   0.001   6.222  0.8667  0.6876  0.1212
 2857SOL     OW20029   0.164   4.486   1.867  0.4983  0.1562  0.1429
 2857SOL    HW120030   0.143   4.424   1.797 -1.2511 -0.6615  1.3865
 2857SOL    HW220031   0.255   4.466   1.889 -0.4923 -1.6330  2.6009
 2858SOL     OW20032   4.647   1.812   6.823  0.2345 -0.5614  0.6431
 2858SOL    HW120033   0.006   1.762   6.829  1.2477  1.1345  1.0001
 2858SOL    HW220034   4.678   1.866   6.751  1.5905  0.0294  1.6559
 2859SOL     OW20035   0.538   2.393  13.445  0.2110  0.7252  0.1967
 2859SOL    HW120036   0.616   2.406  13.392  0.8030 -0.5189  0.7623
 2859SOL    HW220037   0.488   2.474  13.431 -0.3129  0.5631  1.1347
 2860SOL     OW20038   0.804   1.119   9.932 -0.5647 -0.3668  0.4467
 2860SOL    HW120039   0.897   1.114   9.910 -0.3659  2.4158  0.6255
 2860SOL    HW220040   0.771   1.041   9.886  0.0054 -0.0105 -0.5533
 2861SOL     OW20041   0.940   3.276   6.664 -0.6824  0.0215  0.4390
 2861SOL    HW120042   0.914   3.184   6.671 -0.4041 -0.0741  0.2288
 2861SOL    HW220043   0.912   3.309   6.750 -0.3798  5.2786 -1.4916
 2862SOL     OW20044   0.146   1.304   8.061  0.0187  0.6253 -0.1352
 2862SOL    HW120045   0.151   1.276   7.970  1.2839  0.7550 -0.1037
 2862SOL    HW220046   0.102   1.227   8.097  1.3411  0.3212  0.8408
 2863SOL     OW20047   4.498   2.361   2.511  0.2366  0.3046 -0.1653
 2863SOL    HW120048   4.509   2.293   2.577 -0.8127  0.2975  0.0029
 2863SOL    HW220049   4.546   2.324   2.438 -1.6927 -1.1775 -0.6905
 2864SOL     OW20050   2.253   2.586   1.271 -0.4968  0.5856  0.2390
 2864SOL    HW120051   2.322   2.604   1.335 -0.8783 -0.4368  0.9389
 2864SOL    HW220052   2.183   2.647   1.296  0.0847  1.5565 -0.5092
 2865SOL     OW20053   3.684   0.382  15.120  0.7719 -0.1197  0.2548
 2865SOL    HW120054   3.768   0.368  15.076 -0.0178 -1.9244 -0.7218
 2865SOL    HW220055   3.636   0.312  15.075  2.1974 -2.0986  1.8144
 2866SOL     OW20056   4.646   1.674  15.213  0.2037  0.0457  0.0736
 2866SOL    HW120057   0.002   1.698  15.262  0.4196  0.7249 -0.6082
 2866SOL    HW220058   4.687   1.623  15.144 -2.3359 -1.4402 -0.3132
 2867SOL     OW20059   1.207   1.224   4.298 -0.2342  0.4148  0.6704
 2867SOL    HW120060   1.177   1.152   4.354 -1.1641 -0.5560 -1.0706
 2867SOL    HW220061   1.277   1.171   4.259 -1.2849 -0.5621  0.1248
 2868SOL     OW20062   3.406   2.862   5.644 -0.0224 -0.4714  0.8452
 2868SOL    HW120063   3.458   2.931   5.685 -0.2308  0.7530 -0.9319
 2868SOL    HW220064   3.375   2.811   5.718  0.2126 -0.3133  1.0529
 2869SOL     OW20065   4.163   2.312   2.497  0.1013 -0.0599 -0.0034
 2869SOL    HW120066   4.107   2.339   2.425 -2.7067 -0.8258  1.8736
 2869SOL    HW220067   4.096   2.303   2.565  1.2821  0.6386  1.2634
 2870SOL     OW20068   3.877   0.119   8.884 -0.1536 -0.5309 -0.0169
 2870SOL    HW120069   3.808   0.121   8.950  0.5706 -1.2586  0.7701
 2870SOL    HW220070   3.943   0.074   8.936  1.9964  1.7329 -0.7786
 2871SOL     OW20071   4.282   3.199   3.442  0.0943 -0.6336 -0.1201
 2871SOL    HW120072   4.361   3.163   3.401 -0.0127  0.3840 -1.1937
 2871SOL    HW220073   4.293   3.151   3.524  0.3140 -1.6898 -0.7598
 2872SOL     OW20074   2.952   4.378   8.736  0.0742  0.6075 -0.1133
 2872SOL    HW120075   2.873   4.361   8.788 -1.6568  1.9301 -2.3079
 2872SOL    HW220076   2.957   4.302   8.677 -0.9388  0.7659 -0.4018
 2873SOL     OW20077   0.904   0.383   4.015  0.7294 -1.2561 -0.0635
 2873SOL    HW120078   0.948   0.439   4.079  0.3005  0.0861 -0.9349
 2873SOL    HW220079   0.915   0.296   4.053 -0.4308 -1.2916  0.1812
 2874SOL     OW20080   0.779   2.692  11.540 -0.3966  0.2223  0.8985
 2874SOL    HW120081   0.822   2.711  11.623  0.2648  1.0515  0.3595
 2874SOL    HW220082   0.731   2.775  11.531  0.6901  0.6979 -0.4920
 2875SOL     OW20083   1.630   4.476   9.876  0.0190 -0.3960 -0.7759
 2875SOL    HW120084   1.669   4.552   9.918  0.9658 -1.0211 -0.5256
 2875SOL    HW220085   1.590   4.509   9.796  2.4683  0.3174 -1.7127
 2876SOL     OW20086   1.698   1.488  17.683 -0.0396 -0.2567  0.0014
 2876SOL    HW120087   1.694   1.467   0.082  0.9742  1.5267  0.4518
 2876SOL    HW220088   1.767   1.424  17.666 -1.0103 -1.5077  0.7028
 2877SOL     OW20089   3.529   4.088   9.202 -0.1414 -0.2034 -0.2714
 2877SOL    HW120090   3.461   4.053   9.144 -2.8177  1.5155  1.8180
 2877SOL    HW220091   3.469   4.115   9.272  0.2138 -0.9992  0.3305
 2878SOL     OW20092   2.220   4.369   5.237  0.5733 -0.1147 -0.4272
 2878SOL    HW120093   2.213   4.274   5.247  0.5207 -0.3459 -2.7295
 2878SOL    HW220094   2.311   4.378   5.267  0.8743 -0.9921 -1.0520
 2879SOL     OW20095   0.388   1.872   9.251 -0.2193 -0.0371  0.4316
 2879SOL    HW120096   0.446   1.854   9.177 -0.9648  0.6741 -0.3377
 2879SOL    HW220097   0.416   1.809   9.318 -0.8128 -1.7916 -0.9560
 2880SOL     OW20098   0.112   1.823  14.793 -0.1539 -0.8771 -0.3095
 2880SOL    HW120099   0.189   1.769  14.809  0.9231  0.3954 -1.2763
 2880SOL    HW220100   0.109   1.880  14.870 -0.6379 -1.9328  0.4572
 2881SOL     OW20101   3.453   1.445  17.526  0.1529  0.0650 -0.1726
 2881SOL    HW120102   3.388   1.468  17.460 -1.3496  0.5611  1.4832
 2881SOL    HW220103   3.406   1.385  17.584 -1.6153  0.7718 -0.9033
 2882SOL     OW20104   0.438   0.146   8.714  0.1298 -0.2481 -0.1512
 2882SOL    HW120105   0.532   0.163   8.723  0.0820  1.0824 -2.2553
 2882SOL    HW220106   0.412   0.134   8.806  0.4619  1.8035  0.2071
 2883SOL     OW20107   3.299   1.596  12.003  0.3896 -0.1795 -0.4579
 2883SOL    HW120108   3.248   1.590  12.084 -0.0700 -1.1765 -0.8316
 2883SOL    HW220109   3.272   1.686  11.983  1.5595  0.1496 -0.5860
 2884SOL     OW20110   0.487   0.423   0.390  0.2576  0.1962  0.0642
 2884SOL    HW120111   0.544   0.499   0.402  0.0265  0.3127  0.4445
 2884SOL    HW220112   0.503   0.377   0.473  1.7694 -2.3697 -1.6513
 2885SOL     OW20113   4.617   1.197   7.926 -0.2195  0.6556 -0.6764
 2885SOL    HW120114   4.704   1.166   7.950 -1.2485  0.4796  2.9477
 2885SOL    HW220115   4.559   1.123   7.944  0.6611  0.1418  0.0491
 2886SOL     OW20116   2.140   2.383  16.236  0.1449  0.2308 -0.2438
 2886SOL    HW120117   2.223   2.352  16.199 -0.5679 -1.0454 -0.7838
 2886SOL    HW220118   2.161   2.444  16.306  0.9821 -1.2084  0.7597
 2887SOL     OW20119   1.411   3.442   3.657 -0.4679  0.5781  0.1087
 2887SOL    HW120120   1.444   3.520   3.614  1.8984 -1.0277 -1.0120
 2887SOL    HW220121   1.403   3.380   3.584 -2.1778 -0.6491  1.3307
 2888SOL     OW20122   0.244   0.814   7.065 -0.1479 -0.1620 -0.3285
 2888SOL    HW120123   0.200   0.855   7.139  0.1988 -0.8849  0.2788
 2888SOL    HW220124   0.218   0.723   7.077 -0.6659 -0.0928 -0.9253
 2889SOL     OW20125   0.487   2.913   8.069 -0.0574  0.3188  0.3400
 2889SOL    HW120126   0.542   2.938   8.143 -0.0433  1.0729  0.0845
 2889SOL    HW220127   0.549   2.889   8.000 -0.2044 -2.0018  1.0260
 2890SOL     OW20128   0.627   0.343   7.097  0.3986  0.1008 -0.6395
 2890SOL    HW120129   0.665   0.429   7.079 -1.0268  0.6254 -1.1266
 2890SOL    HW220130   0.698   0.282   7.081 -2.1035 -2.1582 -3.1875
 2891SOL     OW20131   3.706   0.574  15.318 -0.1237  0.2517 -0.7225
 2891SOL    HW120132   3.728   0.656  15.273 -2.3420  0.0558 -2.1389
 2891SOL    HW220133   3.702   0.509  15.248  1.8657 -1.1628  0.4975
 2892SOL     OW20134   0.522   1.946  15.263 -0.0176  0.3506  0.1075
 2892SOL    HW120135   0.516   1.980  15.174  0.2311  0.8744  0.2915
 2892SOL    HW220136   0.432   1.939  15.293 -0.5332  0.2664 -1.4488
 2893SOL     OW20137   2.294   0.915   5.145 -0.0081 -0.1268  0.1217
 2893SOL    HW120138   2.288   0.976   5.072  0.6579  0.3953  0.5176
 2893SOL    HW220139   2.231   0.847   5.120 -0.8852  0.8249 -0.2699
 2894SOL     OW20140   1.893   3.160  11.874  0.4725 -0.2276  0.2139
 2894SOL    HW120141   1.924   3.072  11.855 -2.8032 -1.7503  1.8863
 2894SOL    HW220142   1.841   3.181  11.797 -1.7464 -1.1132  1.4581
 2895SOL     OW20143   0.372   0.839   3.829 -0.2428 -0.1161  0.2463
 2895SOL    HW120144   0.394   0.923   3.790  0.2111 -0.1108  0.5127
 2895SOL    HW220145   0.400   0.767   3.772  1.6828 -0.2159  1.3336
 2896SOL     OW20146   0.797   1.145   3.768 -0.6684  0.5606 -0.2847
 2896SOL    HW120147   0.887   1.173   3.756 -0.4573 -0.3475 -0.8141
 2896SOL    HW220148   0.760   1.211   3.710 -0.8371  1.6840  1.1039
 2897SOL     OW20149   0.277   3.840   0.287  0.0980 -0.1792  0.1395
 2897SOL    HW120150   0.308   3.750   0.280  0.5720 -0.2058  2.4274
 2897SOL    HW220151   0.230   3.854   0.205  0.2359 -1.2566 -0.1192
 2898SOL     OW20152   0.680   0.308   1.105  0.0751  0.4276 -0.3417
 2898SOL    HW120153   0.626   0.237   1.140 -1.0156  1.3018 -0.2347
 2898SOL    HW220154   0.763   0.296   1.150 -1.1275 -1.8537  1.2839
 2899SOL     OW20155   0.958   3.916  10.973 -0.0158 -0.2982  0.5863
 2899SOL    HW120156   0.917   3.908  10.886 -2.0036  0.4585  1.4404
 2899SOL    HW220157   0.884   3.955  11.020 -0.7321  0.2800 -0.9896
 2900SOL     OW20158   1.373   0.292   3.742  0.8868  0.3600  0.2940
 2900SOL    HW120159   1.349   0.234   3.670  1.7027  1.5805 -0.9752
 2900SOL    HW220160   1.380   0.378   3.699  0.0673  0.5198  0.4803
 2901SOL     OW20161   4.632   4.120  13.635  0.4333 -0.1784 -0.1252
 2901SOL    HW120162   4.662   4.168  13.712  1.7586 -0.6505 -0.3608
 2901SOL    HW220163   4.542   4.153  13.629  0.9519  1.6037  1.6240
 2902SOL     OW20164   0.269   1.791  10.493  0.0179  0.1654  0.8633
 2902SOL    HW120165   0.192   1.839  10.525 -0.3427  0.3140 -0.2305
 2902SOL    HW220166   0.307   1.764  10.576  1.5725 -0.7486 -0.1607
 2903SOL     OW20167   2.607   4.304   4.196 -0.1733 -0.3985  0.2065
 2903SOL    HW120168   2.685   4.261   4.232 -2.2909 -3.0075  1.6291
 2903SOL    HW220169   2.622   4.399   4.197 -1.6337 -0.1657  0.2661
 2904SOL     OW20170   3.362   2.629   7.904 -0.1200 -0.1743 -0.0250
 2904SOL    HW120171   3.325   2.625   7.992  1.1181 -1.2243  0.4419
 2904SOL    HW220172   3.453   2.654   7.917 -0.1738  1.1069 -2.1065
 2905SOL     OW20173   1.677   4.151  14.904  0.2932 -0.2057 -0.4770
 2905SOL    HW120174   1.708   4.241  14.910 -1.3635  0.3161  0.0148
 2905SOL    HW220175   1.589   4.159  14.941  0.7960 -1.2951  0.9804
 2906SOL     OW20176   2.561   3.018   5.064  0.1059  0.3930 -0.3605
 2906SOL    HW120177   2.639   3.059   5.026 -0.3488  1.6733  0.0996
 2906SOL    HW220178   2.545   3.088   5.128  2.1766 -0.5207  1.1565
 2907SOL     OW20179   1.263   0.297   6.654  0.1425 -0.1303 -0.2494
 2907SOL    HW120180   1.281   0.323   6.564 -2.3864  2.8947  0.1079
 2907SOL    HW220181   1.297   0.374   6.699 -0.7542  0.9656 -1.4343
 2908SOL     OW20182   4.527   0.888   6.546  0.1711  0.6217 -0.5038
 2908SOL    HW120183   4.499   0.975   6.574 -0.4687 -0.3907  2.0273
 2908SOL    HW220184   4.509   0.832   6.622 -2.1640  0.8448 -0.8718
 2909SOL     OW20185   1.797   3.749   6.035 -0.3546  0.1658 -0.2203
 2909SOL    HW120186   1.876   3.765   6.088 -0.5916  2.0222 -0.4221
 2909SOL    HW220187   1.737   3.817   6.067  2.0191  1.4950  1.4361
 2910SOL     OW20188   0.063   1.565  15.011 -0.1093 -0.6991  0.1198
 2910SOL    HW120189   0.031   1.627  14.945  0.3612 -1.0867 -0.4797
 2910SOL    HW220190   0.134   1.609  15.058 -0.2834 -1.8257  1.4443
 2911SOL     OW20191   3.165   0.376  10.536  0.8885 -0.0149 -0.1051
 2911SOL    HW120192   3.141   0.324  10.460 -0.3293  1.0144 -0.4197
 2911SOL    HW220193   3.220   0.311  10.580 -0.0908 -0.2561  0.7610
 2912SOL     OW20194   0.590   2.715  13.151 -0.1211 -0.2466  0.3268
 2912SOL    HW120195   0.508   2.717  13.200  0.5289  1.5977  1.3141
 2912SOL    HW220196   0.649   2.783  13.183 -0.5652 -0.2527  1.1407
 2913SOL     OW20197   3.425   4.324   4.704  0.0865 -0.1050  0.0726
 2913SOL    HW120198   3.380   4.296   4.624  1.8094 -1.2042 -0.5032
 2913SOL    HW220199   3.456   4.243   4.744 -2.4055 -0.4453  1.3106
 2914SOL     OW20200   2.311   4.629  10.988  0.0830  0.6121  0.2805
 2914SOL    HW120201   2.381   4.684  11.025  0.4690  0.1621  0.2177
 2914SOL    HW220202   2.234   4.655  11.039  0.7031  1.5356  0.7630
 2915SOL     OW20203   2.373   2.641  11.650  0.2161 -0.3735 -0.0141
 2915SOL    HW120204   2.355   2.587  11.573 -3.7618 -0.1247  0.7406
 2915SOL    HW220205   2.467   2.652  11.664 -0.1373  0.3211  1.8739
 2916SOL     OW20206   1.470   0.960   9.409  0.6159  0.0570 -0.4568
 2916SOL    HW120207   1.435   1.045   9.381 -2.0327 -1.5507 -1.9896
 2916SOL    HW220208   1.431   0.961   9.496  2.6316  3.0008  0.4116
 2917SOL     OW20209   4.438   0.259   0.826  0.5609 -0.5168  0.1744
 2917SOL    HW120210   4.410   0.317   0.755 -1.3400 -3.0915 -1.1806
 2917SOL    HW220211   4.517   0.228   0.784 -1.0619 -3.8697 -0.3829
 2918SOL     OW20212   0.423   0.815   3.145  0.7380  0.1446 -0.0279
 2918SOL    HW120213   0.496   0.763   3.179  0.7630 -0.8764 -1.6233
 2918SOL    HW220214   0.466   0.900   3.133  1.3173 -0.1813 -0.2320
 2919SOL     OW20215   4.553   1.592   8.436  0.1461  0.1724  0.5818
 2919SOL    HW120216   4.562   1.573   8.343 -1.6538 -0.7650  0.5912
 2919SOL    HW220217   4.563   1.687   8.429 -4.1412  0.6945  1.5784
 2920SOL     OW20218   3.890   2.662  12.661 -0.4822  0.1264 -0.5909
 2920SOL    HW120219   3.842   2.742  12.681 -0.1777 -0.1625  1.2825
 2920SOL    HW220220   3.976   2.704  12.659 -1.1068  1.4704  1.1289
 2921SOL     OW20221   1.895   1.823   4.467 -0.0007 -0.2106 -0.7956
 2921SOL    HW120222   1.990   1.832   4.458  0.0767  0.4922  0.7781
 2921SOL    HW220223   1.865   1.908   4.498  0.9962 -1.3244  3.1427
 2922SOL     OW20224   0.471   3.567   1.134  0.5217  0.0383  0.7468
 2922SOL    HW120225   0.463   3.551   1.228 -1.2833 -2.5045  0.1593
 2922SOL    HW220226   0.422   3.649   1.126 -0.7262 -0.9055 -1.3342
 2923SOL     OW20227   0.979   3.223   5.280 -0.2282  0.9034 -0.3749
 2923SOL    HW120228   0.907   3.256   5.332 -1.5879 -1.3359 -0.8518
 2923SOL    HW220229   1.041   3.297   5.275 -0.1851  0.8873 -0.0589
 2924SOL     OW20230   2.731   4.443   1.640 -0.1622 -0.3127  0.7587
 2924SOL    HW120231   2.793   4.479   1.703  0.8484  2.1255 -1.6411
 2924SOL    HW220232   2.650   4.450   1.692  0.2952 -0.2276  1.4612
 2925SOL     OW20233   1.301   2.051   7.337  0.0092  0.2876  0.1268
 2925SOL    HW120234   1.358   2.069   7.412  0.6977  1.1250 -0.5984
 2925SOL    HW220235   1.248   2.129   7.325  0.0271  0.3642  0.5552
 2926SOL     OW20236   1.384   2.380   5.415  0.1534 -0.1024  0.2128
 2926SOL    HW120237   1.416   2.416   5.498  3.1242 -2.0043 -0.0897
 2926SOL    HW220238   1.348   2.456   5.370  1.2026  1.1946  1.5456
 2927SOL     OW20239   3.112   0.972   2.434  0.3182 -0.6074  0.4721
 2927SOL    HW120240   3.143   0.921   2.508 -1.8504  1.4946  2.8119
 2927SOL    HW220241   3.190   1.016   2.400 -0.7273  2.3870  2.0006
 2928SOL     OW20242   2.261   0.540   8.224 -0.5903 -0.3141  0.1522
 2928SOL    HW120243   2.309   0.622   8.212  0.2162 -0.8355 -0.1819
 2928SOL    HW220244   2.328   0.485   8.265  0.3574  0.5684 -0.2115
 2929SOL     OW20245   2.269   0.155   7.261  0.2783 -0.2791  0.3425
 2929SOL    HW120246   2.346   0.162   7.205 -0.0907 -1.4375 -0.3011
 2929SOL    HW220247   2.201   0.119   7.204  1.3487  2.3498 -2.5988
 2930SOL     OW20248   3.777   0.594   5.833  0.1314  0.4195  0.4050
 2930SOL    HW120249   3.801   0.634   5.749  1.3252  0.8683  0.9510
 2930SOL    HW220250   3.856   0.598   5.887 -0.1655  2.7511  0.6630
 2931SOL     OW20251   1.973   2.491  12.797 -0.3042 -0.1135  0.7311
 2931SOL    HW120252   1.987   2.520  12.707  0.3942 -1.6273  0.3463
 2931SOL    HW220253   2.038   2.543  12.844 -1.1332  1.1434  0.4685
 2932SOL     OW20254   0.602   4.119   3.208 -0.0556  0.6725  0.6280
 2932SOL    HW120255   0.563   4.207   3.210 -0.0650  0.6838 -0.2921
 2932SOL    HW220256   0.619   4.117   3.114  1.5383  1.1223  0.9056
 2933SOL     OW20257   2.729   1.471   4.677  0.4323 -0.3222  0.1207
 2933SOL    HW120258   2.696   1.381   4.668  1.3435 -0.6452 -0.0014
 2933SOL    HW220259   2.800   1.463   4.614  1.0793 -0.7826  0.9096
 2934SOL     OW20260   3.451   2.864   5.364  0.1018  0.1147  0.3176
 2934SOL    HW120261   3.458   2.956   5.338  0.4499  0.7719  2.7510
 2934SOL    HW220262   3.435   2.872   5.458 -2.0576 -1.3424  0.0726
 2935SOL     OW20263   3.943   3.312   8.413  0.6478 -0.0417  0.7486
 2935SOL    HW120264   3.917   3.333   8.502 -2.7343 -2.3306  0.3076
 2935SOL    HW220265   3.932   3.217   8.411 -1.5242  0.2164 -0.0054
 2936SOL     OW20266   4.218   3.499   6.022  0.4644  0.5623 -0.5293
 2936SOL    HW120267   4.302   3.536   5.993 -0.0559  3.0532  1.1647
 2936SOL    HW220268   4.223   3.465   6.111 -0.0939 -0.4480 -0.8889
 2937SOL     OW20269   3.605   1.333   0.191 -0.3937  0.0011 -0.3143
 2937SOL    HW120270   3.633   1.248   0.224 -0.8385  0.4010  1.0916
 2937SOL    HW220271   3.643   1.398   0.251 -1.0186 -0.8300  0.9784
 2938SOL     OW20272   1.014   0.040   4.817 -0.1820 -0.0491 -0.0618
 2938SOL    HW120273   0.964   4.710   4.880  1.3963 -0.3779  0.9236
 2938SOL    HW220274   0.965   0.031   4.736  2.0097 -1.5563 -1.2173
 2939SOL     OW20275   0.919   2.746  11.956 -0.5021 -0.4453  0.0933
 2939SOL    HW120276   0.858   2.818  11.971 -0.4300 -0.2202 -0.6971
 2939SOL    HW220277   0.958   2.765  11.871 -1.9492  2.2615  0.0476
 2940SOL     OW20278   2.195   2.111   5.134  0.0523 -0.1730  0.6301
 2940SOL    HW120279   2.128   2.045   5.118 -0.8229  0.5447  1.3624
 2940SOL    HW220280   2.137   2.185   5.116  1.3890  0.4031 -1.3070
 2941SOL     OW20281   4.291   1.523   7.502  0.2029 -0.2494 -0.3911
 2941SOL    HW120282   4.322   1.596   7.448  1.7506  0.4231  1.3891
 2941SOL    HW220283   4.197   1.536   7.493  0.2020  0.8730  1.1990
 2942SOL     OW20284   1.935   1.520  15.181 -0.2200 -0.2213 -0.1821
 2942SOL    HW120285   1.940   1.424  15.187  0.4570 -0.0590  1.9830
 2942SOL    HW220286   1.909   1.514  15.089 -1.5682 -1.8772  0.3050
 2943SOL     OW20287   1.430   2.586   2.935 -0.4311  0.3538  0.1367
 2943SOL    HW120288   1.447   2.516   2.871 -0.1110 -0.2773  0.9064
 2943SOL    HW220289   1.389   2.645   2.872  0.7839  0.1881 -0.8009
 2944SOL     OW20290   3.356   1.461  16.734  0.3127 -0.5506 -0.0879
 2944SOL    HW120291   3.271   1.455  16.690  0.1294 -2.4883  0.5232
 2944SOL    HW220292   3.377   1.371  16.760 -1.5967 -0.7388  0.8085
 2945SOL     OW20293   1.431   2.754  16.670 -0.4302  0.2005  0.2755
 2945SOL    HW120294   1.387   2.814  16.731 -0.5640  1.1746 -0.7851
 2945SOL    HW220295   1.363   2.731  16.607 -0.0393  1.0889 -0.4804
 2946SOL     OW20296   2.964   2.813  10.756 -0.1399 -0.6421 -0.0819
 2946SOL    HW120297   2.912   2.860  10.691 -0.0978  0.5201  0.7290
 2946SOL    HW220298   2.939   2.721  10.756 -0.2942 -0.5916 -1.2866
 2947SOL     OW20299   3.815   0.863   0.767  0.1534  0.2705 -0.0153
 2947SOL    HW120300   3.736   0.844   0.716 -0.5570  2.0811  0.4376
 2947SOL    HW220301   3.791   0.851   0.859 -0.1052  2.1548  0.1541
 2948SOL     OW20302   0.127   0.849   7.322 -0.2817 -0.1976 -0.3605
 2948SOL    HW120303   0.199   0.883   7.374 -1.9102  1.1246  1.0428
 2948SOL    HW220304   0.057   0.837   7.387  1.1232 -1.0061  1.0116
 2949SOL     OW20305   3.419   1.126   6.110 -0.2932  0.5565 -0.0611
 2949SOL    HW120306   3.440   1.055   6.170  1.5376 -0.7982 -2.3144
 2949SOL    HW220307   3.351   1.169   6.161  0.7858  1.8275  0.2986
 2950SOL     OW20308   1.506   2.038   5.923 -0.6144  0.4324 -0.0580
 2950SOL    HW120309   1.420   2.054   5.883 -1.1103  0.0040  0.8386
 2950SOL    HW220310   1.564   2.077   5.858 -0.2465  1.7230  1.0231
 2951SOL     OW20311   2.913   4.550   8.949 -0.5355  0.4554  0.4038
 2951SOL    HW120312   2.937   4.490   8.878 -1.7593 -1.5357  1.6895
 2951SOL    HW220313   2.891   4.488   9.018 -1.9582  0.2083 -0.2759
 2952SOL     OW20314   1.003   4.520  15.352  0.0009  0.2299 -0.3380
 2952SOL    HW120315   1.069   4.528  15.421  0.5609 -1.4975 -0.6921
 2952SOL    HW220316   0.929   4.515  15.413  1.2692  2.5869  1.4030
 2953SOL     OW20317   2.423   2.365  16.173 -0.5624 -0.1236 -0.5660
 2953SOL    HW120318   2.510   2.360  16.135 -0.4336  0.1932 -0.3146
 2953SOL    HW220319   2.438   2.305  16.246 -0.2440  0.8372  0.1499
 2954SOL     OW20320   2.262   2.261   8.660 -0.8779 -0.4120 -0.0060
 2954SOL    HW120321   2.265   2.290   8.568 -1.8507 -1.6874 -0.4440
 2954SOL    HW220322   2.284   2.344   8.702 -4.3582 -0.0943  1.2276
 2955SOL     OW20323   3.811   3.548   4.939 -0.3092 -0.5318 -0.4619
 2955SOL    HW120324   3.786   3.478   5.001 -1.5771  0.1641 -0.1999
 2955SOL    HW220325   3.865   3.499   4.877  0.7563  1.6435 -1.2582
 2956SOL     OW20326   0.297   1.034   0.061  0.4596 -0.1627 -0.6792
 2956SOL    HW120327   0.268   0.951   0.099  0.6311 -1.3104 -3.0430
 2956SOL    HW220328   0.306   1.085   0.141 -0.9336  0.7624 -1.1319
 2957SOL     OW20329   0.514   0.049   4.655 -0.6401  0.2457 -0.2314
 2957SOL    HW120330   0.579   0.014   4.595 -1.2288  1.1369 -1.4053
 2957SOL    HW220331   0.457   4.698   4.673 -1.2392  0.8278  0.2877
 2958SOL     OW20332   4.557   0.595   0.649  0.1158  0.2882  0.0932
 2958SOL    HW120333   4.632   0.558   0.696 -1.0884 -1.5092  0.6078
 2958SOL    HW220334   4.537   0.677   0.694  1.0173  1.0000 -0.8106
 2959SOL     OW20335   3.716   0.817  13.256 -0.3142 -0.4041  0.0428
 2959SOL    HW120336   3.727   0.851  13.167  0.3292  1.3082  0.7823
 2959SOL    HW220337   3.784   0.866  13.302  1.1234 -0.5748 -1.8763
 2960SOL     OW20338   1.662   3.647  11.500  0.0641  0.3019  0.4112
 2960SOL    HW120339   1.634   3.576  11.557 -1.2219 -0.3112 -0.9841
 2960SOL    HW220340   1.757   3.641  11.499  0.0172 -0.5382  1.0314
 2961SOL     OW20341   1.557   4.373  10.814  0.1037  0.6527 -0.0893
 2961SOL    HW120342   1.556   4.420  10.731  0.3808  0.8033 -0.0068
 2961SOL    HW220343   1.579   4.445  10.873  1.1350  0.4299 -0.2151
 2962SOL     OW20344   0.125   3.860   1.353 -0.1280 -0.1937  0.5823
 2962SOL    HW120345   0.129   3.956   1.352  0.2395 -0.2049  1.2242
 2962SOL    HW220346   0.075   3.842   1.273 -0.0959 -2.0151  0.9684
 2963SOL     OW20347   2.278   2.887  11.943  0.6890 -0.2481  0.4741
 2963SOL    HW120348   2.364   2.905  11.904  0.9755  0.8158  1.6111
 2963SOL    HW220349   2.300   2.862  12.032  2.9145 -0.0087 -0.0064
 2964SOL     OW20350   0.038   4.484   7.260 -0.2097  0.2408 -0.3130
 2964SOL    HW120351   4.710   4.405   7.244 -0.3448 -0.4667  3.4898
 2964SOL    HW220352   4.694   4.544   7.229  0.9370  1.0187 -1.3342
 2965SOL     OW20353   2.984   4.283   2.352  0.4316  0.4186 -0.0069
 2965SOL    HW120354   3.066   4.235   2.361 -0.4013 -0.7515  1.2834
 2965SOL    HW220355   2.932   4.247   2.424 -1.9384  1.6337 -1.1218
 2966SOL     OW20356   4.528   2.076   1.740 -0.5775  0.1416  0.1022
 2966SOL    HW120357   4.589   2.033   1.680 -1.2397 -2.2616  1.1392
 2966SOL    HW220358   4.483   1.999   1.775  0.7437 -1.2801 -1.2900
 2967SOL     OW20359   1.051   3.204   7.267  0.8262  0.1591  0.3320
 2967SOL    HW120360   1.076   3.197   7.174 -0.2962 -0.9959  0.1277
 2967SOL    HW220361   0.980   3.268   7.271  1.8904  1.0666  3.9477
 2968SOL     OW20362   0.038   4.107   4.278 -0.3285 -0.1302  0.0427
 2968SOL    HW120363   0.066   4.039   4.217 -0.4947 -1.6199  1.6396
 2968SOL    HW220364   0.078   4.068   4.356 -0.8966 -1.1662 -0.1863
 2969SOL     OW20365   0.158   2.347   1.675 -0.1213  0.1965  0.3600
 2969SOL    HW120366   0.129   2.289   1.604  0.1749 -0.4630  0.7755
 2969SOL    HW220367   0.104   2.423   1.653  0.6292  0.5833 -0.1750
 2970SOL     OW20368   0.033   3.368   7.341  0.2984  0.3489  0.6045
 2970SOL    HW120369   4.718   3.301   7.398  1.7652 -0.4117  0.6738
 2970SOL    HW220370   4.692   3.434   7.369 -0.8277 -0.6327  0.3518
 2971SOL     OW20371   1.497   1.327   5.878  0.0928 -0.0124  0.2764
 2971SOL    HW120372   1.518   1.294   5.965 -1.1280 -0.3584  0.4358
 2971SOL    HW220373   1.419   1.382   5.882  0.3745  0.5379 -1.7708
 2972SOL     OW20374   3.553   3.512   5.465  0.0435 -0.1463  0.3073
 2972SOL    HW120375   3.458   3.499   5.474  0.1253 -2.3303 -1.9188
 2972SOL    HW220376   3.558   3.559   5.381 -0.1559  0.1682  0.4680
 2973SOL     OW20377   0.977   1.244   2.682 -0.1888  0.0602  0.0352
 2973SOL    HW120378   0.902   1.303   2.674  0.2869  0.6816  0.1769
 2973SOL    HW220379   1.043   1.274   2.620  0.6905  3.1414  2.4909
 2974SOL     OW20380   3.599   2.448  16.106 -0.4218  0.4906 -0.1222
 2974SOL    HW120381   3.654   2.371  16.116  0.0545  0.9868  1.0699
 2974SOL    HW220382   3.569   2.452  16.196  0.2749  0.2353  0.1177
 2975SOL     OW20383   1.407   2.523   4.062  0.3808  0.6336 -0.2069
 2975SOL    HW120384   1.352   2.529   4.141 -1.9576 -0.8473 -1.7281
 2975SOL    HW220385   1.406   2.612   4.027  0.5884  1.3248  1.5087
 2976SOL     OW20386   3.874   3.631   2.167 -0.2793  0.1021 -1.0072
 2976SOL    HW120387   3.783   3.638   2.196 -0.3658  1.0197 -1.5085
 2976SOL    HW220388   3.870   3.545   2.126  2.3746 -0.0250 -0.9608
 2977SOL     OW20389   4.122   0.126   0.382  0.1647 -0.1657 -0.2214
 2977SOL    HW120390   4.155   0.044   0.347  1.1560 -0.5082  1.5356
 2977SOL    HW220391   4.043   0.140   0.330 -0.4310 -0.8033  0.5062
 2978SOL     OW20392   3.867   2.469   1.433 -0.2786 -0.0324 -0.4350
 2978SOL    HW120393   3.884   2.379   1.463 -2.7666  0.6685  3.0450
 2978SOL    HW220394   3.942   2.518   1.465  0.3350 -0.9051 -0.5154
 2979SOL     OW20395   3.147   4.571   9.774 -0.1261 -0.0952  0.2865
 2979SOL    HW120396   3.074   4.540   9.828  0.7763 -2.4857  0.1132
 2979SOL    HW220397   3.212   4.515   9.816  0.4708  0.3930  0.0049
 2980SOL     OW20398   4.066   4.256   1.095  0.0088 -0.0996  0.3216
 2980SOL    HW120399   4.001   4.322   1.072  1.9099  0.6517 -2.9499
 2980SOL    HW220400   4.106   4.291   1.174  0.0300 -0.8447  0.6444
 2981SOL     OW20401   1.101   3.722  13.238 -0.1780  0.0394 -0.2044
 2981SOL    HW120402   1.196   3.707  13.234 -0.5616 -2.1658 -1.4007
 2981SOL    HW220403   1.069   3.632  13.230 -1.4869  0.2479  2.9313
 2982SOL     OW20404   0.954   4.132  16.473  0.1423 -0.3514  0.4345
 2982SOL    HW120405   0.995   4.073  16.410 -0.3962 -0.7424  0.4433
 2982SOL    HW220406   0.872   4.093  16.503  1.1015 -0.2364  3.1631
 2983SOL     OW20407   0.838   2.578   2.067 -0.1068 -0.2774  0.1636
 2983SOL    HW120408   0.917   2.528   2.088  0.2939  0.7092  1.0072
 2983SOL    HW220409   0.776   2.535   2.127  0.7108 -1.0466  0.4709
 2984SOL     OW20410   3.284   0.534   7.176 -0.0693 -0.0266  0.7009
 2984SOL    HW120411   3.196   0.564   7.195  0.4219  1.9077 -0.1468
 2984SOL    HW220412   3.312   0.597   7.110 -3.0762  1.2735  0.7035
 2985SOL     OW20413   2.395   1.023   7.698 -0.5472  0.5860 -0.0105
 2985SOL    HW120414   2.479   0.982   7.678 -0.2887  0.7772  0.6642
 2985SOL    HW220415   2.417   1.051   7.787 -2.1858  0.6244  0.3708
 2986SOL     OW20416   3.684   2.432   6.483 -0.4467 -0.2957  0.2037
 2986SOL    HW120417   3.688   2.337   6.482 -0.2839 -0.3014  1.1470
 2986SOL    HW220418   3.597   2.442   6.445  0.9319 -1.0517 -3.1808
 2987SOL     OW20419   3.453   1.131   8.989 -0.4390 -0.2233 -0.0343
 2987SOL    HW120420   3.374   1.077   9.000 -0.8186 -0.1596 -2.5495
 2987SOL    HW220421   3.449   1.145   8.895  0.0094 -0.1308 -0.0395
 2988SOL     OW20422   2.968   0.947  10.402 -0.3597 -0.2858  0.4512
 2988SOL    HW120423   2.929   0.906  10.325  0.8007  0.2059 -0.4041
 2988SOL    HW220424   3.055   0.915  10.378 -0.4456 -1.7761  2.0889
 2989SOL     OW20425   3.036   3.132   7.807 -0.1691  0.0902 -0.0370
 2989SOL    HW120426   3.096   3.182   7.750 -0.1822  0.8310  0.5965
 2989SOL    HW220427   2.989   3.209   7.839  0.1504 -0.7870  2.4770
 2990SOL     OW20428   3.161   1.995   6.749  0.5892 -0.1779 -0.4344
 2990SOL    HW120429   3.226   2.064   6.762  1.0595 -0.6930 -0.0423
 2990SOL    HW220430   3.182   1.937   6.822  1.2824  0.0861 -0.4247
 2991SOL     OW20431   0.310   2.489   5.801  0.9421  0.4082 -0.5092
 2991SOL    HW120432   0.327   2.418   5.738 -0.9621  1.5493 -2.2993
 2991SOL    HW220433   0.397   2.514   5.834  0.9274  1.6952 -1.4596
 2992SOL     OW20434   4.540   2.088   1.392  0.3161  0.2752  0.0150
 2992SOL    HW120435   4.545   1.994   1.374 -3.2310  0.0272  0.2169
 2992SOL    HW220436   4.454   2.088   1.435  0.2304  0.6899 -0.1544
 2993SOL     OW20437   4.364   0.773  10.537 -0.0415  0.0928 -0.0312
 2993SOL    HW120438   4.419   0.824  10.596 -1.9975 -0.3488  2.1935
 2993SOL    HW220439   4.350   0.694  10.589 -0.1368  0.6661  0.8051
 2994SOL     OW20440   4.667   1.847   9.106  0.1996 -0.4575  0.1410
 2994SOL    HW120441   4.652   1.885   9.020 -1.1385 -1.3361 -0.0077
 2994SOL    HW220442   4.582   1.856   9.150  0.4910 -0.6077  0.7397
 2995SOL     OW20443   1.030   0.783  10.676  0.5925  0.1914 -0.4758
 2995SOL    HW120444   1.115   0.825  10.662  1.1258  0.0280  2.2224
 2995SOL    HW220445   1.001   0.816  10.761 -0.0218  1.1476 -1.0532
 2996SOL     OW20446   3.440   2.474   6.665  0.1779  0.3566  0.4012
 2996SOL    HW120447   3.441   2.401   6.602  0.2012  0.7302 -0.0281
 2996SOL    HW220448   3.444   2.553   6.611  1.4708  0.2852  0.4125
 2997SOL     OW20449   3.672   2.990   3.562 -0.5101 -0.5514 -0.2384
 2997SOL    HW120450   3.607   2.919   3.558 -1.5608  0.4510 -0.8506
 2997SOL    HW220451   3.734   2.957   3.628 -2.2291 -3.2433  0.0286
 2998SOL     OW20452   0.618   2.607  10.044 -0.4026 -0.0955  0.1366
 2998SOL    HW120453   0.551   2.555  10.000  0.7202 -2.5343  1.3460
 2998SOL    HW220454   0.628   2.547  10.118 -1.1386  0.9759  1.0985
 2999SOL     OW20455   4.229   3.941   8.839  0.7601 -0.2555 -0.7623
 2999SOL    HW120456   4.200   3.852   8.858 -0.9108  0.3736 -0.4056
 2999SOL    HW220457   4.173   3.988   8.901 -0.0186 -1.8118 -0.2912
 3000SOL     OW20458   3.046   1.714   8.234  0.8383  0.8090 -0.0744
 3000SOL    HW120459   3.098   1.640   8.201  2.7583  1.7179  0.9346
 3000SOL    HW220460   3.017   1.676   8.317  1.1324  1.2556  0.2274
 3001SOL     OW20461   1.914   3.266   1.394 -0.3717  0.1361  0.1361
 3001SOL    HW120462   1.845   3.326   1.423 -1.6772 -1.4017  0.1992
 3001SOL    HW220463   1.988   3.326   1.386 -0.9089  0.7942  0.1616
 3002SOL     OW20464   1.865   4.307   9.922 -0.5134 -0.2759 -0.4945
 3002SOL    HW120465   1.868   4.335  10.013  4.0843 -0.7408 -0.5180
 3002SOL    HW220466   1.785   4.357   9.905  0.0109  0.3622 -1.0648
 3003SOL     OW20467   2.291   2.257  10.375 -0.2516  0.5111 -0.1089
 3003SOL    HW120468   2.286   2.336  10.429 -1.0191  0.6956 -0.4411
 3003SOL    HW220469   2.273   2.284  10.285  0.1301  0.9293 -0.0584
 3004SOL     OW20470   3.733   0.783   4.654 -0.1995 -0.1972  0.5093
 3004SOL    HW120471   3.719   0.850   4.721 -0.3979 -0.0492  0.3201
 3004SOL    HW220472   3.764   0.840   4.584 -0.3145 -1.3924 -0.5217
 3005SOL     OW20473   1.482   2.085   8.789  0.1248 -0.2480  0.0918
 3005SOL    HW120474   1.524   2.010   8.831  0.0093  0.0062  0.6579
 3005SOL    HW220475   1.438   2.118   8.867  0.7158  1.5330 -0.3244
 3006SOL     OW20476   3.474   1.958   6.980 -0.2043 -0.2935 -0.1707
 3006SOL    HW120477   3.562   1.945   6.945  0.5322  1.2006  1.1463
 3006SOL    HW220478   3.442   2.023   6.917 -0.4745  1.8631  2.2321
 3007SOL     OW20479   4.215   2.668  10.499  0.0632  0.3201  0.3321
 3007SOL    HW120480   4.266   2.595  10.533 -0.2505  0.6585  1.5415
 3007SOL    HW220481   4.145   2.676  10.565 -2.5394 -2.9289 -2.0448
 3008SOL     OW20482   0.902   3.999   7.549  0.0254  0.0061  0.5759
 3008SOL    HW120483   0.978   3.971   7.498 -1.1517 -0.1794 -1.1103
 3008SOL    HW220484   0.934   4.088   7.558 -0.8196  0.4390 -0.6735
 3009SOL     OW20485   1.331   1.693  10.496  0.0686 -0.3189  0.4022
 3009SOL    HW120486   1.259   1.652  10.543 -0.7783  2.3368  1.4281
 3009SOL    HW220487   1.348   1.626  10.429  3.7172 -1.3594  2.3982
 3010SOL     OW20488   2.758   2.974   3.279 -0.1341  0.1894  0.0629
 3010SOL    HW120489   2.705   2.987   3.358 -2.1155  2.4818 -1.6351
 3010SOL    HW220490   2.779   3.065   3.258  0.5743 -0.4499 -1.9422
 3011SOL     OW20491   2.207   3.132   3.764  0.0688  0.0400  0.0618
 3011SOL    HW120492   2.183   3.155   3.674 -1.4341  3.6632  1.3927
 3011SOL    HW220493   2.127   3.140   3.815 -0.4399 -0.1585 -0.7089
 3012SOL     OW20494   3.513   4.669   9.670  0.1380 -0.1601  0.1619
 3012SOL    HW120495   3.509   4.616   9.591 -0.8659  0.2097 -0.0334
 3012SOL    HW220496   3.600   4.636   9.694 -0.7196 -1.5796  1.2706
 3013SOL     OW20497   1.898   2.079   2.358  0.5666  0.0119  0.4025
 3013SOL    HW120498   1.975   2.056   2.306 -0.2720  3.0670 -2.1890
 3013SOL    HW220499   1.948   2.121   2.429  1.3708 -1.5702  0.7682
 3014SOL     OW20500   1.993   2.193   4.830  0.0750  0.1357  0.6921
 3014SOL    HW120501   1.898   2.180   4.829  0.2072 -0.7231 -0.5382
 3014SOL    HW220502   2.012   2.230   4.917 -2.2716  0.7276  0.9727
 3015SOL     OW20503   1.070   1.172   3.791 -0.1639  0.2512 -0.0814
 3015SOL    HW120504   1.128   1.245   3.816 -1.3290  1.2555 -0.2927
 3015SOL    HW220505   1.069   1.137   3.880 -0.1242  0.2574 -0.0785
 3016SOL     OW20506   1.975   1.407   7.169  0.4943 -0.0471  0.6200
 3016SOL    HW120507   1.949   1.438   7.256  3.3502 -0.1629  1.5177
 3016SOL    HW220508   1.924   1.327   7.160 -0.2457  0.6077 -1.0646
 3017SOL     OW20509   1.070   0.217   7.640 -0.1356  0.3060  0.0275
 3017SOL    HW120510   0.997   0.236   7.582  0.8150  0.9794 -0.9330
 3017SOL    HW220511   1.103   0.306   7.651 -0.8265  0.4282  1.1805
 3018SOL     OW20512   2.299   4.247  13.860 -0.4744  0.4679 -0.7377
 3018SOL    HW120513   2.374   4.281  13.909  0.5547 -1.1145 -1.2236
 3018SOL    HW220514   2.253   4.329  13.841  0.5747  1.2630  0.1343
 3019SOL     OW20515   1.149   3.598   4.843 -0.5915 -0.0995  0.0373
 3019SOL    HW120516   1.225   3.594   4.901  0.6610  0.2403 -1.5749
 3019SOL    HW220517   1.190   3.578   4.759 -0.3734 -0.5370  0.2502
 3020SOL     OW20518   2.047   1.782   8.411  0.3332 -0.1482  0.2142
 3020SOL    HW120519   2.058   1.873   8.384  2.3281 -0.6196 -0.6076
 3020SOL    HW220520   1.972   1.788   8.469 -1.0789 -2.3578 -1.4171
 3021SOL     OW20521   4.106   0.167   4.495 -0.5848  0.6024 -0.6794
 3021SOL    HW120522   4.040   0.176   4.564 -1.3409  2.8897 -1.6821
 3021SOL    HW220523   4.174   0.220   4.537  0.1871  0.4786 -1.7782
 3022SOL     OW20524   3.080   0.200   8.597 -0.1447  0.2641 -0.3362
 3022SOL    HW120525   3.050   0.290   8.610  0.0685  0.2385  0.3018
 3022SOL    HW220526   3.031   0.157   8.667 -1.5238  0.8279 -0.9490
 3023SOL     OW20527   3.398   2.514  15.354 -0.4110 -0.6935  0.3741
 3023SOL    HW120528   3.310   2.529  15.318  1.8406  1.0355 -4.3712
 3023SOL    HW220529   3.403   2.597  15.401  0.4182  0.0674 -1.0667
 3024SOL     OW20530   0.100   4.412  12.464 -0.5165 -0.3280 -0.1642
 3024SOL    HW120531   0.162   4.340  12.474  0.2677  0.3894  0.1050
 3024SOL    HW220532   0.121   4.439  12.375 -0.2167 -2.3299 -0.6996
 3025SOL     OW20533   2.499   1.506  11.306 -0.4392  0.6466 -0.1630
 3025SOL    HW120534   2.417   1.542  11.338  0.1796  2.5721 -0.7604
 3025SOL    HW220535   2.509   1.553  11.223 -0.8753 -1.4304 -1.4156
 3026SOL     OW20536   1.784   1.248   2.589 -0.0502  0.0935 -0.3747
 3026SOL    HW120537   1.751   1.190   2.658 -0.3268  2.6841  1.6440
 3026SOL    HW220538   1.802   1.189   2.516  0.3208  0.6086 -0.6970
 3027SOL     OW20539   2.555   1.987  15.745  0.2260  0.3720 -0.1599
 3027SOL    HW120540   2.541   2.032  15.662 -1.4713  2.8601  1.4932
 3027SOL    HW220541   2.466   1.953  15.748  1.0743 -1.9422 -1.2066
 3028SOL     OW20542   3.928   2.329   5.465 -0.1952  0.8422 -0.0710
 3028SOL    HW120543   3.885   2.307   5.383  1.0840  0.8347 -0.7486
 3028SOL    HW220544   3.976   2.248   5.485 -0.7367  0.1901 -1.4058
 3029SOL     OW20545   4.522   0.224   7.566  0.7951 -0.1542 -0.2603
 3029SOL    HW120546   4.559   0.300   7.609 -1.0791  0.4642  0.2453
 3029SOL    HW220547   4.438   0.220   7.612  0.0393  1.1495 -1.5096
 3030SOL     OW20548   4.375   3.243  15.165  0.6398  0.5362 -0.1928
 3030SOL    HW120549   4.398   3.317  15.109 -0.6615  0.9272 -0.2157
 3030SOL    HW220550   4.423   3.265  15.245 -1.5941  0.5505  1.1491
 3031SOL     OW20551   2.711   2.406   6.759  0.3294 -0.3539 -0.0850
 3031SOL    HW120552   2.720   2.363   6.845 -2.7571  2.6040  1.7125
 3031SOL    HW220553   2.618   2.392   6.741 -0.1246  2.3033  0.2271
 3032SOL     OW20554   4.673   2.066   8.918 -0.0707  0.3506  0.2907
 3032SOL    HW120555   4.723   2.113   8.851 -1.6349  2.7074  0.7706
 3032SOL    HW220556   4.594   2.115   8.893  0.2688 -0.9898 -3.4334
 3033SOL     OW20557   0.741   1.514   8.259  0.0798  0.1032 -0.0208
 3033SOL    HW120558   0.711   1.423   8.261  2.8223 -0.7737  2.1139
 3033SOL    HW220559   0.668   1.555   8.306 -1.4987 -1.9187 -0.6960
 3034SOL     OW20560   2.335   0.729  15.222 -0.3643  0.4624 -0.0154
 3034SOL    HW120561   2.421   0.764  15.244 -1.1033  2.4780 -0.2363
 3034SOL    HW220562   2.363   0.666  15.156 -0.7827  0.5407 -0.2709
 3035SOL     OW20563   1.963   0.880   5.995  0.4721  0.1706  0.1432
 3035SOL    HW120564   1.871   0.896   6.014  0.2924  0.1145 -0.6889
 3035SOL    HW220565   1.965   0.862   5.901  0.3556  0.1040  0.1541
 3036SOL     OW20566   2.102   4.652   3.555  0.2030 -0.4683  0.1058
 3036SOL    HW120567   2.012   4.685   3.553  0.3052 -0.3124 -2.0017
 3036SOL    HW220568   2.154   0.008   3.537  0.0793 -0.2311  0.7798
 3037SOL     OW20569   2.206   3.222  14.781  0.0844  0.4810 -0.5396
 3037SOL    HW120570   2.211   3.219  14.686  0.1871 -1.0243 -0.4853
 3037SOL    HW220571   2.256   3.143  14.801  0.6087  0.5191 -1.7148
 3038SOL     OW20572   2.096   2.755   7.263  0.0327  0.9246 -0.1398
 3038SOL    HW120573   2.036   2.703   7.316 -0.9852 -1.5694 -3.7484
 3038SOL    HW220574   2.117   2.818   7.332 -0.3564  0.2549  0.5823
 3039SOL     OW20575   1.845   0.802   0.530  0.1877 -0.5677 -0.2348
 3039SOL    HW120576   1.866   0.816   0.623 -0.9141 -2.5485  0.3095
 3039SOL    HW220577   1.894   0.722   0.513  2.1887  0.5052  0.5149
 3040SOL     OW20578   4.095   0.468   9.364 -0.6981  0.1370 -0.4329
 3040SOL    HW120579   4.131   0.554   9.342 -2.8023  1.1367  0.0288
 3040SOL    HW220580   4.032   0.456   9.293  0.8289  0.1660 -1.7893
 3041SOL     OW20581   1.798   1.795   3.621  0.0559  0.5079  0.2019
 3041SOL    HW120582   1.853   1.717   3.622  0.8232  1.0670  1.9689
 3041SOL    HW220583   1.858   1.850   3.571 -0.6486 -0.0450 -1.2403
 3042SOL     OW20584   3.274   1.022   7.133  0.2429 -0.1797  0.3445
 3042SOL    HW120585   3.264   1.007   7.039 -5.0151  0.6719  0.7172
 3042SOL    HW220586   3.350   1.080   7.134 -1.3811  1.9724 -0.5901
 3043SOL     OW20587   3.257   1.897   0.847  0.8984  0.4725  0.7880
 3043SOL    HW120588   3.247   1.825   0.785  3.3381  0.9755 -0.2037
 3043SOL    HW220589   3.352   1.907   0.850  0.8563  1.6754 -1.1628
 3044SOL     OW20590   0.472   4.281   6.449 -0.2055  0.2390  0.0172
 3044SOL    HW120591   0.403   4.270   6.384 -3.8558  3.0718  3.4041
 3044SOL    HW220592   0.442   4.348   6.510  0.7385  2.3607 -1.8797
 3045SOL     OW20593   3.852   3.430   6.993  0.3951  0.6373 -0.3826
 3045SOL    HW120594   3.936   3.386   6.992 -1.8839 -3.6678 -1.4888
 3045SOL    HW220595   3.799   3.373   7.049  1.5719  0.3473  0.4350
 3046SOL     OW20596   2.701   2.352   5.827  0.1449  0.1898  0.2378
 3046SOL    HW120597   2.677   2.426   5.772  2.6315 -1.0135 -2.4465
 3046SOL    HW220598   2.710   2.390   5.915 -0.5209  0.0250  0.3794
 3047SOL     OW20599   1.512   3.428  14.463 -0.3053  0.5062  0.0445
 3047SOL    HW120600   1.583   3.492  14.464 -0.6031  0.8503 -0.7715
 3047SOL    HW220601   1.493   3.423  14.557 -3.8133 -0.0026 -0.6897
 3048SOL     OW20602   1.895   0.513   0.488  0.9169  0.5343  0.1372
 3048SOL    HW120603   1.855   0.460   0.419  1.0291 -0.0706  0.5284
 3048SOL    HW220604   1.984   0.480   0.497 -0.2655 -1.8131  3.2868
 3049SOL     OW20605   4.396   3.595   6.451  0.5705  0.7722 -0.0990
 3049SOL    HW120606   4.349   3.516   6.422  0.0498  0.8743  0.4555
 3049SOL    HW220607   4.430   3.567   6.536  2.2745 -2.2300 -1.7611
 3050SOL     OW20608   1.890   4.154  15.468  0.5241  0.1488  0.6877
 3050SOL    HW120609   1.909   4.086  15.532 -3.1091 -0.7169  0.8872
 3050SOL    HW220610   1.795   4.150  15.456  0.6536 -2.0480  0.4534
 3051SOL     OW20611   3.487   1.104  10.453  0.0732  0.0113 -0.3475
 3051SOL    HW120612   3.531   1.189  10.456 -0.1343  0.0846  0.6449
 3051SOL    HW220613   3.457   1.096  10.543  1.8097  1.2613  0.3318
 3052SOL     OW20614   0.685   1.333   9.251 -0.2899 -0.0991  0.3303
 3052SOL    HW120615   0.738   1.394   9.304 -1.4129  0.9338  0.2745
 3052SOL    HW220616   0.630   1.403   9.216  2.6875  0.7334 -2.6681
 3053SOL     OW20617   3.847   3.948   2.902  0.3780  0.0815  0.1231
 3053SOL    HW120618   3.834   3.927   2.810 -3.3815 -2.1591  1.1680
 3053SOL    HW220619   3.767   3.906   2.934  1.4287 -0.2442  2.3498
 3054SOL     OW20620   2.113   3.146  14.502  0.6922  0.1843 -0.7065
 3054SOL    HW120621   2.097   3.239  14.487 -1.9728 -0.1682  0.0656
 3054SOL    HW220622   2.140   3.120  14.414 -1.0367 -1.3618 -0.7636
 3055SOL     OW20623   4.474   0.676   5.688 -0.5991 -0.2935 -0.2912
 3055SOL    HW120624   4.511   0.636   5.766 -0.2502  0.2761 -0.1637
 3055SOL    HW220625   4.502   0.768   5.690  0.1496 -0.5449  0.7925
 3056SOL     OW20626   3.901   3.932   6.875 -0.1074  0.2407 -0.0359
 3056SOL    HW120627   3.996   3.921   6.880 -0.4357 -1.4612  2.5934
 3056SOL    HW220628   3.885   3.957   6.966  2.0561  2.3300 -0.2308
 3057SOL     OW20629   4.654   3.879   3.441 -0.0593 -0.0803  0.5079
 3057SOL    HW120630   4.610   3.864   3.357 -1.6473  1.3229  1.0919
 3057SOL    HW220631   0.007   3.821   3.435 -0.9666 -1.2196  0.0239
 3058SOL     OW20632   4.683   4.230   7.128  0.7438  0.3657 -0.2278
 3058SOL    HW120633   0.001   4.190   7.052  1.7111  3.0150 -1.0993
 3058SOL    HW220634   4.704   4.167   7.197  0.9037  0.6443 -0.0218
 3059SOL     OW20635   4.020   2.637   7.141 -0.1765 -0.0338 -0.1015
 3059SOL    HW120636   3.936   2.624   7.097 -0.0670 -0.3709 -0.2118
 3059SOL    HW220637   4.010   2.564   7.202 -0.3921  2.1481  2.5004
 3060SOL     OW20638   3.928   0.342  12.042 -0.5170 -0.4414  0.1994
 3060SOL    HW120639   3.931   0.342  11.947 -2.5774 -0.6754  0.1399
 3060SOL    HW220640   3.950   0.252  12.067 -0.1631 -0.7548 -1.2291
 3061SOL     OW20641   3.601   1.273  10.673 -0.3177  0.7906 -0.3641
 3061SOL    HW120642   3.663   1.271  10.745  1.5274  2.2752 -1.8869
 3061SOL    HW220643   3.624   1.355  10.628  1.5200  0.3801 -0.1578
 3062SOL     OW20644   2.281   0.373   7.405  0.3828 -0.2848  0.2490
 3062SOL    HW120645   2.297   0.285   7.371  0.7838 -0.9985  2.3012
 3062SOL    HW220646   2.203   0.355   7.458 -0.9352 -0.2211 -1.6759
 3063SOL     OW20647   0.992   4.520   3.326 -0.4972  0.0447  0.4439
 3063SOL    HW120648   0.999   4.609   3.290  1.7135 -0.1726  0.3321
 3063SOL    HW220649   0.907   4.493   3.290  0.5957 -0.6745 -1.6045
 3064SOL     OW20650   4.182   2.438   1.463 -0.2664 -0.1606  0.2243
 3064SOL    HW120651   4.146   2.363   1.415  2.0221 -1.4325  0.4880
 3064SOL    HW220652   4.187   2.501   1.391  0.3240  0.2656  0.6370
 3065SOL     OW20653   4.221   0.981   6.355 -0.0526 -0.1036 -0.7640
 3065SOL    HW120654   4.132   0.957   6.380 -0.3332 -1.0304 -2.6250
 3065SOL    HW220655   4.219   0.966   6.260 -0.2789  0.5148 -0.8558
 3066SOL     OW20656   1.765   3.018  13.471  0.4860  0.6684 -0.1123
 3066SOL    HW120657   1.772   3.069  13.391  1.1683 -1.7137 -1.5786
 3066SOL    HW220658   1.677   3.039  13.502 -0.3460 -0.6708 -1.6065
 3067SOL     OW20659   3.256   4.035   2.060 -0.2296  0.4586 -0.0089
 3067SOL    HW120660   3.200   4.048   2.137 -1.5391  2.8076 -1.3640
 3067SOL    HW220661   3.325   4.100   2.073 -1.0489  1.8315 -2.5017
 3068SOL     OW20662   2.993   4.221   1.943 -0.4579 -0.6900  0.0013
 3068SOL    HW120663   3.016   4.270   1.864  0.6931 -3.2289 -1.2634
 3068SOL    HW220664   2.950   4.293   1.988 -0.3812  0.2338 -1.3837
 3069SOL     OW20665   4.531   3.174   7.066  0.1333  0.2180  0.1093
 3069SOL    HW120666   4.515   3.143   7.155  0.9604  2.7779  1.1542
 3069SOL    HW220667   4.484   3.112   7.010 -0.4480  0.8849 -0.1447
 3070SOL     OW20668   2.140   1.509   8.548  0.1130 -0.2741  0.0531
 3070SOL    HW120669   2.054   1.484   8.515 -1.1304  1.1740  2.2243
 3070SOL    HW220670   2.141   1.601   8.521  0.5995 -1.2413 -3.1888
 3071SOL     OW20671   1.364   4.692  11.596 -0.4498 -0.0540 -0.0412
 3071SOL    HW120672   1.425   0.036  11.627  1.9468 -2.3414  0.1574
 3071SOL    HW220673   1.371   4.633  11.671  2.1063  2.6420  1.8788
 3072SOL     OW20674   3.868   3.988   8.309  0.2198 -0.4004  0.2866
 3072SOL    HW120675   3.780   3.970   8.344  0.4186 -1.9495 -0.0147
 3072SOL    HW220676   3.915   4.021   8.386  0.0721  1.9871 -0.6445
 3073SOL     OW20677   1.382   3.571   4.977 -0.0110  0.0007  0.2674
 3073SOL    HW120678   1.428   3.521   4.909  0.5367 -0.2708  0.8443
 3073SOL    HW220679   1.429   3.655   4.980  2.2841 -1.1025 -3.8699
 3074SOL     OW20680   0.172   0.674   2.239 -0.2847  0.2979 -0.4854
 3074SOL    HW120681   0.143   0.765   2.226  2.8237  1.3699  0.0609
 3074SOL    HW220682   0.266   0.689   2.248 -0.4209  1.1599 -0.4799
 3075SOL     OW20683   2.669   4.563   0.978  0.4064 -0.0080  0.1157
 3075SOL    HW120684   2.741   4.509   0.946 -0.6936 -0.8190 -0.9985
 3075SOL    HW220685   2.715   4.598   1.054  0.4818  0.8694 -0.3463
 3076SOL     OW20686   1.893   0.812   7.176  0.3586 -0.2956  0.0861
 3076SOL    HW120687   1.880   0.718   7.162 -1.2835 -0.0790  0.1221
 3076SOL    HW220688   1.975   0.828   7.130  0.6878 -0.5179  0.5965
 3077SOL     OW20689   2.217   0.599  15.521 -0.2577 -0.0824  0.4644
 3077SOL    HW120690   2.300   0.634  15.553 -1.4259  1.2118  2.0896
 3077SOL    HW220691   2.227   0.505  15.509  0.8790 -0.1403  1.9253
 3078SOL     OW20692   0.078   2.806   7.657  0.6897 -0.2175 -0.2173
 3078SOL    HW120693   0.157   2.858   7.642  1.0422 -0.5391  0.5401
 3078SOL    HW220694   0.038   2.831   7.740  0.7466 -1.1711  0.0945
 3079SOL     OW20695   0.529   1.677   1.417  0.0200  0.2342 -0.4153
 3079SOL    HW120696   0.530   1.762   1.372  0.9807  0.7792  0.6352
 3079SOL    HW220697   0.470   1.622   1.366  0.0598 -1.0434  0.9090
 3080SOL     OW20698   2.116   0.952   0.355 -0.5458 -0.5357  0.1635
 3080SOL    HW120699   2.130   0.857   0.358  0.5311 -0.3632  0.7010
 3080SOL    HW220700   2.137   0.985   0.443 -3.1393  0.6712  0.3284
 3081SOL     OW20701   0.548   0.820   7.365 -0.2858  0.0193 -0.1168
 3081SOL    HW120702   0.495   0.760   7.418  0.2217 -0.3650 -0.0374
 3081SOL    HW220703   0.600   0.865   7.432  1.8428 -1.1423 -0.9735
 3082SOL     OW20704   0.147   2.114  11.936  0.3085 -0.5125 -0.1752
 3082SOL    HW120705   0.240   2.095  11.950  0.6998  1.2021 -0.4569
 3082SOL    HW220706   0.138   2.201  11.975  1.2736 -0.7421  0.5638
 3083SOL     OW20707   1.520   2.546   3.638  0.2666  0.5728 -0.1623
 3083SOL    HW120708   1.506   2.615   3.573 -1.8943 -0.9782 -1.3438
 3083SOL    HW220709   1.597   2.498   3.608 -0.0761 -0.0437 -0.0671
 3084SOL     OW20710   1.456   0.691  17.358 -0.6082  0.7751 -0.1440
 3084SOL    HW120711   1.545   0.713  17.333 -0.3818 -0.7575 -0.6692
 3084SOL    HW220712   1.480   0.639  17.435 -2.9622  1.2209  0.9015
 3085SOL     OW20713   4.676   0.760   7.525  0.3030  0.4534  0.2592
 3085SOL    HW120714   4.722   0.681   7.554 -1.1049 -1.2393 -2.0491
 3085SOL    HW220715   4.587   0.724   7.530 -0.4266  2.3531  0.8000
 3086SOL     OW20716   1.528   4.312  13.819  0.2316 -0.7591  0.5054
 3086SOL    HW120717   1.526   4.217  13.817 -1.6329 -0.7361  1.8674
 3086SOL    HW220718   1.438   4.334  13.840  0.7688  0.0578  1.9758
 3087SOL     OW20719   4.612   2.541   3.880 -0.0830  0.2326 -0.3749
 3087SOL    HW120720   4.595   2.481   3.953  0.9469  0.4034 -0.0065
 3087SOL    HW220721   4.705   2.523   3.867  0.2352  1.5773  0.1027
 3088SOL     OW20722   2.124   0.156  14.267  0.1098  0.2403  0.5750
 3088SOL    HW120723   2.055   0.193  14.211 -0.8890 -2.0302  0.3098
 3088SOL    HW220724   2.191   0.215  14.233 -1.2874  0.7270 -1.4010
 3089SOL     OW20725   0.480   0.565  11.031 -0.4697 -0.3418 -0.5400
 3089SOL    HW120726   0.428   0.608  11.099  4.2771  2.9627  0.9463
 3089SOL    HW220727   0.546   0.632  11.014 -0.0145 -0.3371  1.2526
 3090SOL     OW20728   4.018   2.046   3.917  0.2327  0.1493 -0.4058
 3090SOL    HW120729   3.981   2.133   3.934 -0.4164 -0.5137  1.6227
 3090SOL    HW220730   4.026   2.063   3.823 -2.6006 -0.1360 -0.7091
 3091SOL     OW20731   1.525   3.045   4.057 -0.3943  0.2169  0.0271
 3091SOL    HW120732   1.517   3.069   4.149  1.4152  0.2183  0.1856
 3091SOL    HW220733   1.454   3.098   4.022 -0.5621 -0.9525 -1.4190
 3092SOL     OW20734   4.436   1.801   3.481 -0.1761  0.1765  0.6707
 3092SOL    HW120735   4.386   1.738   3.429 -0.6849  0.0903  1.2716
 3092SOL    HW220736   4.369   1.825   3.546 -0.7499 -1.9141  0.8307
 3093SOL     OW20737   1.509   3.057  13.645 -0.0189 -0.0769  0.2608
 3093SOL    HW120738   1.449   3.126  13.673 -0.5335 -0.6859  0.6670
 3093SOL    HW220739   1.455   2.993  13.599 -0.6555  1.6587 -1.4120
 3094SOL     OW20740   1.517   3.763   4.788 -0.7353 -0.8842  0.2363
 3094SOL    HW120741   1.541   3.854   4.768 -1.3291  0.1775  4.3798
 3094SOL    HW220742   1.476   3.731   4.708  0.3514  1.9377 -1.4393
 3095SOL     OW20743   3.227   0.017   5.814  0.4196  0.1779  0.2601
 3095SOL    HW120744   3.185   0.092   5.855 -1.9915 -0.1138 -1.6547
 3095SOL    HW220745   3.292   4.722   5.881  1.2520 -0.5090 -0.7377
 3096SOL     OW20746   1.550   4.313   8.132 -0.1182 -0.9880  0.1869
 3096SOL    HW120747   1.578   4.337   8.044 -1.3586  1.6936  0.5313
 3096SOL    HW220748   1.455   4.323   8.127  0.1105 -0.9671 -3.5356
 3097SOL     OW20749   0.952   3.003   6.705 -0.3996 -0.4504 -0.0162
 3097SOL    HW120750   0.935   2.932   6.766  1.3044 -0.9315 -0.1117
 3097SOL    HW220751   0.920   2.959   6.626 -2.5879 -0.6545  0.9738
 3098SOL     OW20752   3.615   3.856  17.052 -0.4686 -0.4237  0.4436
 3098SOL    HW120753   3.569   3.882  16.972 -0.5356  0.9169  0.9108
 3098SOL    HW220754   3.571   3.908  17.120  1.7437  0.0227  1.5306
 3099SOL     OW20755   3.770   0.532   4.102  0.2622 -0.1472 -0.1272
 3099SOL    HW120756   3.778   0.626   4.117 -1.8396  0.2051 -1.2891
 3099SOL    HW220757   3.855   0.504   4.067  0.5144 -0.9666  1.1771
 3100SOL     OW20758   2.180   0.075  13.705 -0.0477 -0.3231 -0.2965
 3100SOL    HW120759   2.160   4.721  13.758 -2.4685  1.4434  1.3426
 3100SOL    HW220760   2.115   0.073  13.635  1.9532 -1.8874 -2.1059
 3101SOL     OW20761   3.891   3.004  17.440  0.6502 -0.1306 -0.0583
 3101SOL    HW120762   3.861   3.027  17.528 -0.5329 -0.6534 -0.3152
 3101SOL    HW220763   3.840   2.926  17.414  0.0398  0.6348 -1.1580
 3102SOL     OW20764   1.173   0.645   3.961 -0.3712 -0.1376  0.3282
 3102SOL    HW120765   1.116   0.720   3.975  0.2203  0.5652 -1.0569
 3102SOL    HW220766   1.244   0.694   3.920 -1.2387  0.0840 -0.9251
 3103SOL     OW20767   1.229   0.410  17.422 -0.4451  0.1295  0.1199
 3103SOL    HW120768   1.262   0.478  17.480 -0.0616  0.4708 -0.5028
 3103SOL    HW220769   1.222   0.459  17.340 -1.3132 -3.9371 -2.2679
 3104SOL     OW20770   0.599   4.496   3.889 -0.5772  0.1243 -0.6686
 3104SOL    HW120771   0.640   4.582   3.895 -1.2507  0.4384 -0.5797
 3104SOL    HW220772   0.556   4.499   3.804 -2.7635 -1.1599  0.3800
 3105SOL     OW20773   0.247   3.303   1.843  0.3237 -0.2602  0.2292
 3105SOL    HW120774   0.241   3.399   1.850 -1.7217 -0.3202 -0.8448
 3105SOL    HW220775   0.197   3.278   1.921  1.1589 -1.1502  0.4718
 3106SOL     OW20776   0.369   1.083  16.938 -0.3490 -0.2197 -0.2482
 3106SOL    HW120777   0.294   1.134  16.907 -0.1879  0.6131  0.7341
 3106SOL    HW220778   0.422   1.064  16.861 -1.1860 -0.2879 -0.8110
 3107SOL     OW20779   0.273   2.890   1.030 -0.3315 -0.2644 -0.0507
 3107SOL    HW120780   0.246   2.819   1.087  0.9679 -2.2420 -1.8950
 3107SOL    HW220781   0.258   2.970   1.080 -0.9456 -0.2615 -0.2289
 3108SOL     OW20782   0.542   1.314   4.936  0.2282  0.3753  0.1741
 3108SOL    HW120783   0.503   1.355   4.858 -2.0566 -0.6700  0.7501
 3108SOL    HW220784   0.532   1.221   4.915  0.2123  0.2121  0.8978
 3109SOL     OW20785   0.841   4.650   8.380  0.2204 -0.2009 -0.4266
 3109SOL    HW120786   0.872   0.015   8.361  0.2849 -0.1809 -0.2299
 3109SOL    HW220787   0.746   4.646   8.367  0.3919 -1.3001 -1.3960
 3110SOL     OW20788   0.505   4.395   3.186 -0.3339  0.1677 -0.5988
 3110SOL    HW120789   0.435   4.390   3.252 -0.0921 -0.4298 -0.3843
 3110SOL    HW220790   0.568   4.455   3.227  0.4140 -2.2671  1.8385
 3111SOL     OW20791   4.599   4.337   5.882 -0.0677 -0.1015 -0.2366
 3111SOL    HW120792   4.508   4.341   5.911  0.1582  2.2587  0.1103
 3111SOL    HW220793   4.631   4.427   5.881  1.8396 -0.7626  1.2047
 3112SOL     OW20794   0.564   0.054   7.208  0.4101 -0.2654 -0.3236
 3112SOL    HW120795   0.657   0.073   7.199  0.4476 -0.2743  0.0307
 3112SOL    HW220796   0.570   4.682   7.207  2.2603 -0.1803  2.7517
 3113SOL     OW20797   2.545   0.698   3.629  0.2184 -0.1083 -0.1632
 3113SOL    HW120798   2.561   0.613   3.670 -0.3000  0.7809  1.9321
 3113SOL    HW220799   2.577   0.755   3.699  0.4219 -1.3899  0.7868
 3114SOL     OW20800   3.099   3.982   5.029  0.0073 -0.2279  0.1640
 3114SOL    HW120801   3.145   4.061   5.000  1.7344 -0.7598  1.4312
 3114SOL    HW220802   3.133   3.985   5.119 -0.2807  1.2999  0.2204
 3115SOL     OW20803   3.372   0.368   4.612  0.1375  0.3575  1.3456
 3115SOL    HW120804   3.394   0.295   4.669  0.3419 -0.5625  0.0925
 3115SOL    HW220805   3.431   0.434   4.647 -1.1877  2.2356  0.0690
 3116SOL     OW20806   3.301   1.363  10.886  0.5082 -0.0528  0.1983
 3116SOL    HW120807   3.289   1.286  10.831 -1.0500 -0.1621  0.6757
 3116SOL    HW220808   3.384   1.401  10.857  0.8739 -0.1963  1.0619
 3117SOL     OW20809   1.688   0.786   4.539 -0.2461 -0.2356  0.3034
 3117SOL    HW120810   1.750   0.725   4.580 -0.2264  0.0216  0.6565
 3117SOL    HW220811   1.621   0.797   4.607 -0.8674  1.2489 -0.5750
 3118SOL     OW20812   4.493   3.612   5.533 -0.3456 -0.8779 -0.0020
 3118SOL    HW120813   4.465   3.637   5.445  2.1605 -0.4692 -0.6989
 3118SOL    HW220814   4.479   3.517   5.529 -1.1494 -0.7426 -0.2078
 3119SOL     OW20815   2.842   1.507  15.210  0.3220  0.2012  0.1904
 3119SOL    HW120816   2.895   1.479  15.284 -0.2798 -0.7755  0.2608
 3119SOL    HW220817   2.891   1.575  15.163 -0.2660 -0.2389 -1.0840
 3120SOL     OW20818   3.013   1.647   5.913 -0.5394  0.2393 -0.0804
 3120SOL    HW120819   2.935   1.616   5.868 -0.8216  0.1550  0.4695
 3120SOL    HW220820   3.075   1.641   5.840  2.4319  2.0027  2.3200
 3121SOL     OW20821   3.527   4.329   5.678  0.1911 -0.1514 -0.4470
 3121SOL    HW120822   3.533   4.413   5.723  1.3312 -0.4615 -0.0153
 3121SOL    HW220823   3.586   4.345   5.605 -0.2776  0.8762 -0.6021
 3122SOL     OW20824   3.190   4.370   8.328 -0.0218  0.6910  0.2191
 3122SOL    HW120825   3.254   4.432   8.363 -1.6891  1.9903  0.9726
 3122SOL    HW220826   3.191   4.317   8.407  0.9141  0.7621  0.2554
 3123SOL     OW20827   0.734   4.362   8.621 -0.2976 -0.0746 -0.2568
 3123SOL    HW120828   0.735   4.370   8.526  0.7330  1.1145 -0.1479
 3123SOL    HW220829   0.735   4.268   8.641 -0.8089 -0.2446 -1.0529
 3124SOL     OW20830   0.001   3.788   5.554  0.0224  0.1551  0.1070
 3124SOL    HW120831   0.007   3.839   5.635  0.0580 -0.4580  0.4933
 3124SOL    HW220832   4.666   3.715   5.573 -1.8421  1.8159  0.8288
 3125SOL     OW20833   0.924   2.717   7.814 -0.1844 -0.2155 -0.3198
 3125SOL    HW120834   0.992   2.740   7.877 -0.5379 -2.9899  1.0814
 3125SOL    HW220835   0.969   2.724   7.730 -0.0104 -0.4450 -0.2483
 3126SOL     OW20836   4.184   1.774   4.505 -0.4093  0.0268  0.0338
 3126SOL    HW120837   4.181   1.792   4.599  0.1430 -0.1556  0.0853
 3126SOL    HW220838   4.103   1.819   4.480 -0.7694 -0.4437  0.3445
 3127SOL     OW20839   3.938   2.141   3.642 -0.1997 -0.0728 -0.1018
 3127SOL    HW120840   3.954   2.188   3.561 -1.8066  1.4764  0.4895
 3127SOL    HW220841   3.886   2.210   3.683 -0.4911 -0.6844  0.5565
 3128SOL     OW20842   1.416   2.266  11.172 -0.4882 -0.3125 -0.2590
 3128SOL    HW120843   1.386   2.212  11.244 -0.2705  1.1430  0.9195
 3128SOL    HW220844   1.511   2.275  11.178 -0.6264  0.9538 -0.0106
 3129SOL     OW20845   3.556   1.711   6.740 -0.2550  0.9027  0.1522
 3129SOL    HW120846   3.473   1.670   6.715  0.6929 -0.1705 -1.2400
 3129SOL    HW220847   3.572   1.756   6.657 -0.1149  0.5090 -0.0316
 3130SOL     OW20848   3.146   4.428   4.276 -0.4705 -0.1030 -0.2593
 3130SOL    HW120849   3.106   4.510   4.250 -0.0206  0.2821  0.2649
 3130SOL    HW220850   3.100   4.363   4.222 -0.1779 -2.4035  2.2408
 3131SOL     OW20851   2.723   3.439   6.444 -0.0266 -0.0375 -0.1670
 3131SOL    HW120852   2.752   3.421   6.354  0.1474 -0.1305 -0.0912
 3131SOL    HW220853   2.731   3.349   6.475 -3.6491 -0.2543  0.1103
 3132SOL     OW20854   0.593   2.988   6.643  0.6812 -0.2509  0.0030
 3132SOL    HW120855   0.674   2.937   6.638  0.6099 -0.3908  0.2428
 3132SOL    HW220856   0.558   2.958   6.559  0.7427  0.8095 -0.3937
 3133SOL     OW20857   2.589   0.179   8.697 -0.3902  0.1001  0.2962
 3133SOL    HW120858   2.629   0.111   8.751  2.8587  0.5262 -1.5866
 3133SOL    HW220859   2.670   0.208   8.655 -0.8100 -2.1800 -2.0517
 3134SOL     OW20860   1.271   3.030   9.168 -0.1568  0.2123 -0.0165
 3134SOL    HW120861   1.269   2.935   9.159  0.7413  0.1953 -0.0667
 3134SOL    HW220862   1.294   3.038   9.261 -0.4325 -0.1982  0.0873
 3135SOL     OW20863   1.100   3.862   6.245 -0.4342 -0.5649 -0.3295
 3135SOL    HW120864   1.158   3.837   6.173  0.0201  2.3185 -0.9803
 3135SOL    HW220865   1.017   3.861   6.198 -0.5722  1.0415 -0.1254
 3136SOL     OW20866   2.419   3.983   5.003 -0.1256  0.5618  0.0469
 3136SOL    HW120867   2.346   4.040   5.024 -0.4660 -0.0422  0.5001
 3136SOL    HW220868   2.416   3.997   4.908 -1.0564  0.9863  0.1437
 3137SOL     OW20869   1.465   2.955  17.265  0.2743  0.0357  0.2511
 3137SOL    HW120870   1.512   2.953  17.348 -1.3479  1.0212  1.1774
 3137SOL    HW220871   1.476   3.044  17.232  0.0456 -0.2987 -0.7255
 3138SOL     OW20872   3.271   2.425   5.306 -0.2017 -0.2102  0.1017
 3138SOL    HW120873   3.273   2.516   5.277  1.6398 -0.5239 -0.7780
 3138SOL    HW220874   3.346   2.379   5.268 -0.7541 -1.6307  0.7062
 3139SOL     OW20875   2.018   0.136   2.410 -0.1253  0.4354 -0.3601
 3139SOL    HW120876   2.079   0.062   2.419 -0.8265  0.0384  1.1483
 3139SOL    HW220877   1.952   0.115   2.476 -0.3268  0.5365 -0.5283
 3140SOL     OW20878   4.023   3.441   4.775  0.1518  0.4333 -0.2272
 3140SOL    HW120879   4.052   3.510   4.716  2.4004  0.3594  0.8213
 3140SOL    HW220880   4.101   3.431   4.830 -2.1440 -0.7264  2.8247
 3141SOL     OW20881   4.701   0.137   6.853 -0.6975 -0.2654  0.4641
 3141SOL    HW120882   4.681   0.145   6.760 -3.4644 -0.6965  1.0142
 3141SOL    HW220883   4.619   0.154   6.900 -1.5472 -3.6527  0.2001
 3142SOL     OW20884   2.066   0.694  15.901  0.5336 -0.1025  0.0667
 3142SOL    HW120885   2.151   0.653  15.883 -0.3910 -1.3880 -1.3891
 3142SOL    HW220886   2.092   0.779  15.936  1.0172  0.5656 -1.9123
 3143SOL     OW20887   3.027   0.415   8.739  0.1581  0.0045  0.2104
 3143SOL    HW120888   3.115   0.448   8.759 -0.1801  0.8706  0.2788
 3143SOL    HW220889   3.002   0.368   8.819 -0.8873  0.8197  0.3620
 3144SOL     OW20890   2.820   2.912  11.036  0.1481 -0.0750  0.5003
 3144SOL    HW120891   2.835   2.845  11.103  1.3514  0.4521  0.7710
 3144SOL    HW220892   2.740   2.951  11.070 -0.9265 -1.0100 -0.9782
 3145SOL     OW20893   2.329   3.672   8.887  0.2179  0.3355 -0.0140
 3145SOL    HW120894   2.257   3.627   8.931  0.7259 -0.6197 -0.1634
 3145SOL    HW220895   2.358   3.619   8.812 -0.9104  1.2062 -1.0775
 3146SOL     OW20896   0.029   0.709   1.374 -0.2685  0.4129 -0.0215
 3146SOL    HW120897   4.704   0.766   1.313 -0.5947  0.9172  0.7153
 3146SOL    HW220898   4.673   0.666   1.406 -1.1261  1.2737 -0.9856
 3147SOL     OW20899   0.399   3.052  11.926  0.6542  0.1844  0.4651
 3147SOL    HW120900   0.429   3.121  11.985 -2.1852  0.6263  1.4076
 3147SOL    HW220901   0.312   3.084  11.898  0.8976 -1.3999 -2.1087
 3148SOL     OW20902   4.142   3.309   9.000 -0.5519 -0.3256 -0.1450
 3148SOL    HW120903   4.204   3.236   8.993 -0.1596  0.1388 -1.4256
 3148SOL    HW220904   4.205   3.381   9.011  0.8025 -1.6227  0.5712
 3149SOL     OW20905   4.298   1.708  13.192  0.2271 -0.0872 -0.0056
 3149SOL    HW120906   4.344   1.624  13.184  0.1939  0.1657 -2.6795
 3149SOL    HW220907   4.370   1.771  13.198  0.1865 -0.2373  1.9319
 3150SOL     OW20908   1.619   1.321   0.932  0.6475  0.0671 -0.2094
 3150SOL    HW120909   1.557   1.387   0.901 -0.8999 -1.5415 -0.5169
 3150SOL    HW220910   1.623   1.330   1.028 -1.7019 -0.2709 -0.0737
 3151SOL     OW20911   2.540   0.273   2.840  0.6901 -0.1449  0.0717
 3151SOL    HW120912   2.621   0.269   2.891  0.4153 -0.1089  0.5071
 3151SOL    HW220913   2.579   0.244   2.757 -0.8971  0.3493 -0.8484
 3152SOL     OW20914   2.160   0.361   0.856  0.4304 -0.1100 -0.4403
 3152SOL    HW120915   2.139   0.310   0.934 -1.8578  2.2355  0.4825
 3152SOL    HW220916   2.213   0.296   0.811 -0.8181  0.1931 -2.3668
 3153SOL     OW20917   1.798   1.279  12.107 -0.2496 -0.2483 -0.0016
 3153SOL    HW120918   1.894   1.275  12.105 -0.1964  0.4057  1.0642
 3153SOL    HW220919   1.765   1.257  12.020 -1.3904 -0.7370  0.5577
 3154SOL     OW20920   3.550   3.314  12.731 -0.4303 -0.7857 -0.0936
 3154SOL    HW120921   3.587   3.389  12.778  1.6285 -2.5618  1.1055
 3154SOL    HW220922   3.610   3.304  12.657 -0.1802  0.6235 -0.0763
 3155SOL     OW20923   3.081   1.291   8.232 -0.3063  0.5242 -0.1798
 3155SOL    HW120924   2.993   1.328   8.232 -0.7554 -0.5285  0.7541
 3155SOL    HW220925   3.148   1.359   8.236 -0.7183  0.8019  2.0658
 3156SOL     OW20926   0.185   0.937   4.059 -0.4428  0.1755 -0.0968
 3156SOL    HW120927   0.235   0.971   4.134 -0.9820 -0.6661  0.6504
 3156SOL    HW220928   0.255   0.937   3.995 -0.5082  0.5838 -0.1653
 3157SOL     OW20929   1.072   1.297   5.502 -0.2577  0.3150  0.0219
 3157SOL    HW120930   0.994   1.344   5.471 -0.0030  1.0380  0.4876
 3157SOL    HW220931   1.139   1.333   5.445 -1.0876  0.9848 -0.5319
 3158SOL     OW20932   2.164   2.930   4.028  0.4458  0.3055  0.0340
 3158SOL    HW120933   2.115   3.010   4.009 -1.5728 -0.9575 -0.0812
 3158SOL    HW220934   2.089   2.891   4.073  1.3089 -0.4142  0.8499
 3159SOL     OW20935   3.181   0.611   6.725  0.2915 -0.3272 -0.3621
 3159SOL    HW120936   3.232   0.569   6.656 -1.6997 -1.9707 -0.8402
 3159SOL    HW220937   3.214   0.700   6.727 -0.2968 -0.1292  0.5726
 3160SOL     OW20938   3.278   4.380   1.867 -0.0091 -0.2831 -0.5405
 3160SOL    HW120939   3.333   4.321   1.816 -2.2002 -1.8857 -1.0228
 3160SOL    HW220940   3.190   4.365   1.833 -0.6815 -1.8338  1.8623
 3161SOL     OW20941   1.846   2.545  15.048 -0.5293  0.3254 -0.0083
 3161SOL    HW120942   1.912   2.557  15.116 -2.0282 -1.5120  1.8085
 3161SOL    HW220943   1.866   2.607  14.978  1.3485  0.6667  0.8392
 3162SOL     OW20944   3.534   2.272   7.861  0.2670  0.0966 -0.1712
 3162SOL    HW120945   3.571   2.345   7.910 -0.2898 -0.4085  1.0143
 3162SOL    HW220946   3.498   2.310   7.780 -0.0478  1.0050  0.3958
 3163SOL     OW20947   1.195   2.392   9.896  0.0199  0.4234 -0.3703
 3163SOL    HW120948   1.185   2.404   9.801  2.8650 -0.9352 -0.8476
 3163SOL    HW220949   1.104   2.369   9.915  0.5528 -1.7719 -0.4571
 3164SOL     OW20950   3.462   0.728   7.039  0.2946  0.3922 -0.2302
 3164SOL    HW120951   3.517   0.665   6.992  2.6816  2.4363 -0.1895
 3164SOL    HW220952   3.489   0.712   7.130 -0.4350  3.3089  0.5020
 3165SOL     OW20953   0.313   3.074   4.224  0.6111 -0.7993  0.6325
 3165SOL    HW120954   0.306   3.080   4.129 -1.0627  1.4665  0.8898
 3165SOL    HW220955   0.361   2.992   4.232 -0.2143 -1.5272 -1.8070
 3166SOL     OW20956   1.919   4.418  15.597 -0.7676 -0.0618 -0.4135
 3166SOL    HW120957   1.944   4.481  15.530  1.6640  0.8026  1.3035
 3166SOL    HW220958   1.913   4.330  15.558  3.4652  0.2656 -1.8145
 3167SOL     OW20959   4.390   0.550   5.982 -0.9955 -0.2250  0.4880
 3167SOL    HW120960   4.317   0.492   6.000 -0.9387  0.6996  3.5586
 3167SOL    HW220961   4.360   0.616   5.920 -0.8732 -0.6955 -0.0783
 3168SOL     OW20962   1.899   4.566  16.564  0.3933 -0.2546  1.0738
 3168SOL    HW120963   1.923   4.489  16.514 -1.1612 -0.6456  0.9217
 3168SOL    HW220964   1.957   4.640  16.546 -0.7073  0.1787 -0.6749
 3169SOL     OW20965   3.423   3.370   3.819  0.0201 -0.8356  0.3470
 3169SOL    HW120966   3.389   3.286   3.788 -3.9437  1.6397 -2.0507
 3169SOL    HW220967   3.513   3.351   3.844 -0.0668 -3.4475 -1.3860
 3170SOL     OW20968   2.252   4.241   0.025 -0.3738  0.0415 -0.0819
 3170SOL    HW120969   2.231   4.329   0.055  0.7099  0.1272  0.4352
 3170SOL    HW220970   2.251   4.198   0.110  1.0079 -0.8738 -0.5243
 3171SOL     OW20971   3.859   3.361  10.794 -0.6091  0.5381 -0.5887
 3171SOL    HW120972   3.837   3.282  10.844  2.0896  0.6319  0.7374
 3171SOL    HW220973   3.948   3.387  10.818 -0.5445 -1.1975  1.1296
 3172SOL     OW20974   1.686   2.453   2.014 -0.5206 -0.1367  0.0320
 3172SOL    HW120975   1.709   2.538   2.050 -1.3467 -0.3929  1.1816
 3172SOL    HW220976   1.682   2.396   2.091  1.6170 -0.5724 -0.1753
 3173SOL     OW20977   1.832   1.075  12.753 -1.7524  0.0946 -0.3603
 3173SOL    HW120978   1.782   1.077  12.834 -2.5230 -1.9369 -0.8069
 3173SOL    HW220979   1.801   0.992  12.716  2.4978 -1.2011 -1.0958
 3174SOL     OW20980   3.797   1.739   1.975 -0.0893 -0.5786 -0.1434
 3174SOL    HW120981   3.854   1.804   2.016  0.2523 -0.4513 -0.8198
 3174SOL    HW220982   3.719   1.794   1.988 -0.0659 -0.5673 -0.0503
 3175SOL     OW20983   2.305   0.469   3.882  0.4184  0.0394  1.0022
 3175SOL    HW120984   2.239   0.402   3.898  1.2998 -0.9364  0.6027
 3175SOL    HW220985   2.263   0.536   3.829  0.7996  0.2691  0.9907
 3176SOL     OW20986   4.497   0.787   6.263  0.7672  0.3636  0.1206
 3176SOL    HW120987   4.497   0.825   6.351  1.6398  0.4202  0.0981
 3176SOL    HW220988   4.405   0.798   6.237  1.1531 -0.3809 -1.5758
 3177SOL     OW20989   1.534   1.417   5.159  0.5893 -0.8439  0.0605
 3177SOL    HW120990   1.533   1.442   5.252 -0.3946 -0.6275 -0.0012
 3177SOL    HW220991   1.622   1.383   5.144  0.9271  1.0607 -2.3521
 3178SOL     OW20992   4.077   3.173   0.656 -0.1783 -0.1470 -0.2055
 3178SOL    HW120993   4.165   3.194   0.625 -0.6136 -0.2639 -1.5120
 3178SOL    HW220994   4.075   3.089   0.610  0.8886  0.3433 -1.1238
 3179SOL     OW20995   4.422   1.019   8.892  0.1164 -0.0291 -0.3148
 3179SOL    HW120996   4.349   1.081   8.902  0.3003  0.1042  0.2148
 3179SOL    HW220997   4.484   1.072   8.942 -0.4375  1.2577 -0.9832
 3180SOL     OW20998   3.834   0.420   1.938  0.3767 -0.3939  0.0795
 3180SOL    HW120999   3.886   0.469   1.875 -0.3244 -0.1888 -0.3423
 3180SOL    HW221000   3.838   0.486   2.007  2.2764  1.0913 -1.4567
 3181SOL     OW21001   2.403   0.715  10.789  0.4190 -0.8630 -0.3398
 3181SOL    HW121002   2.477   0.769  10.761 -0.1136 -0.3469 -0.7758
 3181SOL    HW221003   2.361   0.711  10.703 -2.0199  2.1346  0.7104
 3182SOL     OW21004   3.131   0.236  11.969  0.0937 -0.5295 -0.9397
 3182SOL    HW121005   3.122   0.322  11.929  1.1855 -0.5949 -1.3367
 3182SOL    HW221006   3.113   0.180  11.894 -0.4859 -1.2434 -0.2635
 3183SOL     OW21007   1.804   1.228   3.659  0.0382  0.7776 -0.7082
 3183SOL    HW121008   1.835   1.286   3.729  1.5773 -1.2168  0.2467
 3183SOL    HW221009   1.819   1.287   3.585  1.5825  0.0682 -0.9533
 3184SOL     OW21010   4.240   3.212  12.036  0.4108 -0.3281  0.1762
 3184SOL    HW121011   4.222   3.218  11.942 -0.9983  1.8356  0.5819
 3184SOL    HW221012   4.323   3.257  12.045 -0.4944  1.1235  1.2575
 3185SOL     OW21013   2.957   1.376   8.727 -0.2741  0.7422 -0.2208
 3185SOL    HW121014   3.025   1.426   8.683 -0.0959  0.2060 -0.5631
 3185SOL    HW221015   2.901   1.452   8.742 -1.9141 -0.4209 -0.4161
 3186SOL     OW21016   0.176   3.550   6.673  0.6523  0.2023 -0.1319
 3186SOL    HW121017   0.180   3.567   6.768 -1.6304  0.7471 -0.1232
 3186SOL    HW221018   0.219   3.632   6.646 -0.7918  0.7011 -0.9210
 3187SOL     OW21019   0.067   2.206   8.705  0.4089  0.5774 -0.1002
 3187SOL    HW121020   0.072   2.228   8.612 -1.2552 -2.0770 -0.8217
 3187SOL    HW221021   0.015   2.281   8.733  1.3934  0.2890  2.5184
 3188SOL     OW21022   4.167   4.010   4.425  0.1094 -0.2753 -0.1750
 3188SOL    HW121023   4.140   4.054   4.506 -3.7828 -1.1267 -1.0150
 3188SOL    HW221024   4.254   3.973   4.439  0.3030  0.2811  0.1222
 3189SOL     OW21025   2.370   2.370   7.852 -0.0606  0.9150 -0.0581
 3189SOL    HW121026   2.400   2.337   7.937 -0.2210 -0.8621 -0.6876
 3189SOL    HW221027   2.340   2.456   7.880 -1.0122  1.2119 -2.0311
 3190SOL     OW21028   2.722   1.083  11.775  0.0826  0.2564  0.1286
 3190SOL    HW121029   2.802   1.048  11.737  1.3400  1.0540  2.0086
 3190SOL    HW221030   2.741   1.176  11.767  1.4435 -0.1702 -1.4968
 3191SOL     OW21031   1.433   2.499  12.880 -0.3218  0.3360  0.3003
 3191SOL    HW121032   1.510   2.443  12.869 -1.8210 -2.0219  1.8385
 3191SOL    HW221033   1.462   2.577  12.833 -0.2464  0.5681  0.7340
 3192SOL     OW21034   0.893   3.399   8.652  0.1681  0.0804 -0.8128
 3192SOL    HW121035   0.953   3.433   8.718 -0.3732 -1.2252  0.3350
 3192SOL    HW221036   0.954   3.417   8.580 -1.7353  1.6732 -2.0548
 3193SOL     OW21037   3.933   1.518   1.985  0.0393  0.1638 -0.2788
 3193SOL    HW121038   3.875   1.594   1.995  1.8014  1.3058  1.3542
 3193SOL    HW221039   4.004   1.543   2.045 -1.0344  0.5073  0.8623
 3194SOL     OW21040   0.068   1.905   5.502  0.8772 -0.0451  0.2646
 3194SOL    HW121041   0.056   1.824   5.552  1.0087  0.9453  1.9050
 3194SOL    HW221042   0.006   1.888   5.431  1.7384 -0.6351 -0.3457
 3195SOL     OW21043   0.981   2.568   8.819  0.2416  0.6298  0.1608
 3195SOL    HW121044   0.942   2.628   8.756  1.8378  2.0904  0.5703
 3195SOL    HW221045   1.005   2.628   8.889  1.5712  0.5847 -0.2670
 3196SOL     OW21046   0.670   2.011   1.494  0.4068 -0.2876 -0.3874
 3196SOL    HW121047   0.603   2.009   1.563 -1.7358  0.4685 -2.4090
 3196SOL    HW221048   0.697   2.103   1.503  0.6361 -0.1896 -2.0569
 3197SOL     OW21049   2.190   3.326  14.136 -0.2469  0.2017 -0.1683
 3197SOL    HW121050   2.200   3.419  14.117  0.3887 -0.1445 -1.4814
 3197SOL    HW221051   2.185   3.287  14.049  1.5742  0.3971 -0.3617
 3198SOL     OW21052   4.142   2.474  12.611 -0.2905  0.4630 -0.7667
 3198SOL    HW121053   4.237   2.481  12.613 -0.4082  1.4207  2.3642
 3198SOL    HW221054   4.108   2.535  12.546 -2.4644 -1.6675 -1.6037
 3199SOL     OW21055   1.028   1.405   0.645 -0.7533 -0.3485 -0.1054
 3199SOL    HW121056   1.097   1.385   0.582 -0.9828  2.7468 -1.3572
 3199SOL    HW221057   0.964   1.461   0.600  1.3072  0.3580 -2.1053
 3200SOL     OW21058   1.192   0.706   9.525 -0.2102  0.2049 -0.3796
 3200SOL    HW121059   1.209   0.715   9.431  1.0614 -0.2209 -0.1991
 3200SOL    HW221060   1.255   0.766   9.566  0.5650 -0.5167 -0.5061
 3201SOL     OW21061   2.087   1.659   5.074  0.0780 -0.2668  0.1561
 3201SOL    HW121062   2.060   1.582   5.125  0.6378 -1.5514 -1.4741
 3201SOL    HW221063   2.071   1.608   4.995  2.6668  0.0841 -0.5944
 3202SOL     OW21064   0.568   0.256  17.184 -0.2112 -0.1683  0.4455
 3202SOL    HW121065   0.600   0.167  17.174  0.8828  0.0405  2.0219
 3202SOL    HW221066   0.475   0.240  17.201 -0.6245 -0.9389 -2.6049
 3203SOL     OW21067   2.758   3.595  12.259  0.1893  0.3216 -0.4453
 3203SOL    HW121068   2.690   3.529  12.249  0.7923 -0.0149 -2.2773
 3203SOL    HW221069   2.701   3.670  12.276 -2.4292 -1.3217 -1.9886
 3204SOL     OW21070   0.181   1.974   5.259 -0.2880  0.0801 -0.1648
 3204SOL    HW121071   0.152   1.944   5.345 -0.3898 -1.6924 -0.8192
 3204SOL    HW221072   0.141   2.061   5.254 -0.8571 -0.1335  0.6803
 3205SOL     OW21073   1.359   1.656  13.391 -0.3101  0.1871  0.3571
 3205SOL    HW121074   1.292   1.662  13.459  0.0151  0.7093  0.6344
 3205SOL    HW221075   1.366   1.561  13.381 -1.7886  0.1124  0.0567
 3206SOL     OW21076   0.612   0.209   5.439 -0.9989  0.5315 -0.1773
 3206SOL    HW121077   0.559   0.276   5.484 -0.6458 -0.6211  1.9682
 3206SOL    HW221078   0.647   0.260   5.366  0.7510 -0.3141  0.0677
 3207SOL     OW21079   3.741   2.985   8.194 -0.2408  0.3118  0.3291
 3207SOL    HW121080   3.798   2.921   8.237  0.0285 -0.1221 -0.6704
 3207SOL    HW221081   3.789   2.990   8.111  1.2771  0.3336  1.1933
 3208SOL     OW21082   1.378   4.486   1.387  0.0978  0.0949 -0.1521
 3208SOL    HW121083   1.430   4.405   1.391 -1.2559 -0.6831  1.5960
 3208SOL    HW221084   1.442   4.538   1.436  0.4047 -1.2048  0.8307
 3209SOL     OW21085   1.366   1.505   0.276  0.1140 -0.3303 -0.6114
 3209SOL    HW121086   1.446   1.453   0.291 -0.4989 -1.1909 -0.3134
 3209SOL    HW221087   1.381   1.588   0.321 -1.8008 -1.8647  2.8001
 3210SOL     OW21088   3.877   1.580   3.523  0.0411  0.0656 -0.6286
 3210SOL    HW121089   3.899   1.671   3.543 -0.8192  0.0904  0.2166
 3210SOL    HW221090   3.784   1.572   3.544  0.8832 -1.4998  2.4327
 3211SOL     OW21091   3.858   1.009   8.312 -0.1718 -0.5899  0.6241
 3211SOL    HW121092   3.783   1.047   8.266 -0.4220 -0.7207  0.9270
 3211SOL    HW221093   3.888   1.095   8.344 -0.4633  1.3634 -4.3598
 3212SOL     OW21094   3.978   4.179   5.394  0.2250 -0.8105 -0.3486
 3212SOL    HW121095   3.952   4.119   5.324 -1.2964 -2.0699  1.2951
 3212SOL    HW221096   3.945   4.132   5.470  1.6646 -3.4377 -1.3380
 3213SOL     OW21097   1.436   3.055   8.552  0.1220 -0.3545 -0.1798
 3213SOL    HW121098   1.460   2.972   8.594  2.0481 -0.0810 -0.7641
 3213SOL    HW221099   1.346   3.065   8.584  0.6585 -0.4634  1.3948
 3214SOL     OW21100   2.358   1.073  14.227  0.2317  0.2166 -0.6095
 3214SOL    HW121101   2.301   1.041  14.296  1.0869  0.7977  0.3600
 3214SOL    HW221102   2.421   1.132  14.269  0.6200 -0.3751 -0.3662
 3215SOL     OW21103   2.241   2.127  16.614  0.2264 -0.2228  0.0429
 3215SOL    HW121104   2.147   2.143  16.606  0.2437  0.0334  0.3287
 3215SOL    HW221105   2.251   2.077  16.533 -0.5097 -0.5931  0.1821
 3216SOL     OW21106   0.634   3.925   6.757 -0.1609  0.5065 -0.4670
 3216SOL    HW121107   0.553   3.966   6.726  0.4727  2.6017  0.6288
 3216SOL    HW221108   0.605   3.837   6.783 -1.4515  1.3077  0.8112
 3217SOL     OW21109   1.242   4.352   7.664  0.1953 -0.5773  0.2466
 3217SOL    HW121110   1.277   4.416   7.603 -0.7690 -0.9772 -0.7221
 3217SOL    HW221111   1.172   4.324   7.605  0.5318  0.5847 -0.6871
 3218SOL     OW21112   0.039   0.054   4.955  0.3867 -0.0040 -0.0604
 3218SOL    HW121113   0.018   0.130   5.009  1.7096  1.4238 -1.5317
 3218SOL    HW221114   4.713   4.706   4.995 -0.1652  0.3327 -0.1531
 3219SOL     OW21115   1.964   3.181   5.158 -0.7743 -0.3043  0.2567
 3219SOL    HW121116   2.028   3.111   5.169  1.3241  1.5932  0.2241
 3219SOL    HW221117   1.931   3.185   5.069 -2.2771 -1.4829  0.7618
 3220SOL     OW21118   1.982   3.693   2.375 -0.0018 -0.1116  0.0944
 3220SOL    HW121119   2.076   3.673   2.372  0.6244  2.3871  2.9051
 3220SOL    HW221120   1.974   3.707   2.469 -0.7862  1.1299 -0.1578
 3221SOL     OW21121   1.189   1.278   8.571  0.3704 -0.1975 -0.7505
 3221SOL    HW121122   1.266   1.280   8.628 -0.5773  0.3004  0.5224
 3221SOL    HW221123   1.237   1.325   8.503 -0.6808  0.0754 -1.3015
 3222SOL     OW21124   2.671   3.049   7.853 -0.0023  0.2486 -0.4085
 3222SOL    HW121125   2.688   2.972   7.908 -0.8603  0.5000  0.2000
 3222SOL    HW221126   2.698   3.113   7.919  2.4779 -0.5411 -0.6516
 3223SOL     OW21127   0.138   3.978   6.173  0.5457 -0.1029  0.3774
 3223SOL    HW121128   0.152   4.072   6.182  0.7082 -0.0272 -0.6272
 3223SOL    HW221129   0.048   3.973   6.141 -0.1125 -0.2313  2.2911
 3224SOL     OW21130   4.439   4.283  12.693 -0.2049  0.6517 -0.0477
 3224SOL    HW121131   4.371   4.216  12.701  0.4602 -0.0610 -0.3778
 3224SOL    HW221132   4.406   4.328  12.616  1.3284  1.0728 -0.4537
 3225SOL     OW21133   2.470   1.659   7.122  0.0761 -0.6201 -0.0647
 3225SOL    HW121134   2.413   1.705   7.061  0.7593  0.3611  0.0286
 3225SOL    HW221135   2.546   1.718   7.117 -2.3743  2.6901  1.6774
 3226SOL     OW21136   0.949   2.738   7.526 -0.6833 -0.1844  0.3501
 3226SOL    HW121137   0.934   2.798   7.453  0.6075 -0.8117 -0.4237
 3226SOL    HW221138   0.864   2.759   7.564 -0.3062 -1.0156  1.6560
 3227SOL     OW21139   2.473   2.981  10.271  0.1347  0.3847 -0.9948
 3227SOL    HW121140   2.513   2.898  10.247  0.1595 -0.0004  0.3831
 3227SOL    HW221141   2.398   2.987  10.212 -1.2101  0.0711  0.6986
 3228SOL     OW21142   3.674   1.308   9.657  0.3366 -0.2423 -0.8683
 3228SOL    HW121143   3.725   1.237   9.618  0.8850 -0.6599  0.6388
 3228SOL    HW221144   3.735   1.328   9.728  0.7147 -1.9726 -0.7173
 3229SOL     OW21145   1.686   4.384   2.750 -0.4878  0.7568 -0.0869
 3229SOL    HW121146   1.726   4.442   2.815 -0.4330 -1.3063  1.6851
 3229SOL    HW221147   1.768   4.342   2.724 -0.9221  0.3906 -0.8560
 3230SOL     OW21148   0.292   2.186   9.706  0.5381 -0.0292  0.1908
 3230SOL    HW121149   0.381   2.221   9.715  1.5805 -2.7803  0.6713
 3230SOL    HW221150   0.259   2.268   9.671  3.0413  0.9326  0.0358
 3231SOL     OW21151   0.994   3.161   2.601 -0.1532 -0.2158 -0.3302
 3231SOL    HW121152   0.907   3.121   2.590  1.1805 -3.2078  0.0729
 3231SOL    HW221153   0.973   3.254   2.601  0.2539 -0.1152  1.0208
 3232SOL     OW21154   4.076   0.354   3.470 -0.1959 -0.7567  0.5506
 3232SOL    HW121155   4.162   0.330   3.435 -0.6805  1.1430 -1.9853
 3232SOL    HW221156   4.082   0.333   3.563 -0.4454 -1.7570  0.3432
 3233SOL     OW21157   0.964   0.709   0.614 -0.2509  0.1252 -0.0770
 3233SOL    HW121158   0.890   0.650   0.602 -0.8159  1.3295 -2.4645
 3233SOL    HW221159   0.926   0.795   0.595  0.0055  0.4964  1.0756
 3234SOL     OW21160   3.919   1.476  11.549  0.4216 -0.3520  0.1999
 3234SOL    HW121161   3.965   1.523  11.619  0.7050 -1.4400  0.7445
 3234SOL    HW221162   3.998   1.429  11.521  0.9806  1.2086 -0.8102
 3235SOL     OW21163   3.175   3.792   5.786 -0.4307 -0.4969 -0.2963
 3235SOL    HW121164   3.182   3.754   5.873 -0.5085 -0.6194 -0.3447
 3235SOL    HW221165   3.100   3.848   5.806 -1.2946 -1.5092 -0.7295
 3236SOL     OW21166   3.882   3.834   1.574 -0.1150 -0.1782  0.4402
 3236SOL    HW121167   3.910   3.816   1.664  0.1894  1.8918  0.7498
 3236SOL    HW221168   3.916   3.762   1.522  0.8790  1.6021 -1.3397
 3237SOL     OW21169   3.452   0.136  16.223  0.0059  0.3212 -0.0592
 3237SOL    HW121170   3.456   0.188  16.144  1.3908  2.1303  1.2093
 3237SOL    HW221171   3.401   0.195  16.280 -1.8004  0.1414 -1.5003
 3238SOL     OW21172   2.676   1.824  12.058  0.2486 -0.3551  0.2170
 3238SOL    HW121173   2.603   1.806  11.998  1.5062  0.9117 -1.6903
 3238SOL    HW221174   2.624   1.825  12.138  1.1630 -1.5704  0.8209
 3239SOL     OW21175   4.134   1.220   2.063 -1.0355 -0.3217 -0.0776
 3239SOL    HW121176   4.193   1.147   2.082 -1.3324 -1.0594 -1.9447
 3239SOL    HW221177   4.185   1.298   2.041 -0.1058 -1.3579 -1.6167
 3240SOL     OW21178   0.854   1.249   5.047  0.1148 -0.2185  0.2418
 3240SOL    HW121179   0.944   1.282   5.048  0.4416 -1.0265 -3.4175
 3240SOL    HW221180   0.809   1.332   5.062 -1.3258 -0.7639 -1.0372
 3241SOL     OW21181   0.051   2.944   4.017  0.3414 -0.0155 -0.1614
 3241SOL    HW121182   4.684   2.939   4.050  0.6691 -3.2283  0.2493
 3241SOL    HW221183   0.091   2.877   4.072 -1.2079 -0.9386 -0.1613
 3242SOL     OW21184   4.347   0.005  15.775  0.4917 -0.0986 -0.5809
 3242SOL    HW121185   4.318   4.674  15.702  1.4703 -0.7047 -0.5262
 3242SOL    HW221186   4.438   4.705  15.794  0.5428 -0.0992 -0.8338
 3243SOL     OW21187   2.681   3.987   6.817  0.1535  0.0430 -0.3347
 3243SOL    HW121188   2.775   3.987   6.800  0.3610 -1.9204  0.8085
 3243SOL    HW221189   2.667   4.082   6.810  2.6344  0.3830 -0.4420
 3244SOL     OW21190   2.325   1.619   0.440  0.3900 -0.5219 -0.8169
 3244SOL    HW121191   2.294   1.529   0.447 -0.0550 -0.1386  2.1662
 3244SOL    HW221192   2.364   1.616   0.527  0.7173  1.8981 -0.8726
 3245SOL     OW21193   1.882   4.134  15.174  0.1057 -0.4598 -0.6855
 3245SOL    HW121194   1.908   4.217  15.133 -1.1599  0.1833 -0.1988
 3245SOL    HW221195   1.874   4.148  15.269  0.3687 -3.4309 -0.2188
 3246SOL     OW21196   1.924   1.603   6.705 -0.0434 -0.2532 -0.1886
 3246SOL    HW121197   1.879   1.582   6.786 -0.6230 -3.7607 -1.4468
 3246SOL    HW221198   1.920   1.518   6.661  1.2726 -0.4987  0.1709
 3247SOL     OW21199   1.223   3.308   6.710  0.4370  0.7593  0.2834
 3247SOL    HW121200   1.132   3.285   6.694  0.8762  0.6123 -2.0107
 3247SOL    HW221201   1.259   3.225   6.680 -1.8658  0.4954 -1.7737
 3248SOL     OW21202   4.362   2.770   5.970  0.0995  0.2858  0.2035
 3248SOL    HW121203   4.317   2.746   5.889  1.3679 -1.4720  0.0189
 3248SOL    HW221204   4.303   2.841   5.997 -1.3969 -0.8508 -0.0448
 3249SOL     OW21205   2.588   3.347   7.344  0.1081 -0.0099 -0.2910
 3249SOL    HW121206   2.526   3.276   7.360  2.2119 -1.7456  0.0551
 3249SOL    HW221207   2.528   3.414   7.310  1.6730 -0.1167 -3.2873
 3250SOL     OW21208   0.736   3.145   4.023  0.1038  0.5383  0.4710
 3250SOL    HW121209   0.679   3.212   3.985 -0.3557 -1.2373 -1.9154
 3250SOL    HW221210   0.776   3.125   3.939 -1.0130 -1.7054  0.4907
 3251SOL     OW21211   2.678   3.643   6.986 -0.2150 -0.0692  0.3658
 3251SOL    HW121212   2.690   3.706   7.058  0.4811 -0.7038  0.8037
 3251SOL    HW221213   2.767   3.610   6.974  0.4838  0.7451  3.1866
 3252SOL     OW21214   2.184   2.618  11.895 -0.2263  0.3793  0.5700
 3252SOL    HW121215   2.199   2.711  11.909 -1.2009  0.5860  0.2649
 3252SOL    HW221216   2.243   2.603  11.821 -1.2027 -0.7929  0.0242
 3253SOL     OW21217   3.824   0.080   4.011  0.2960 -0.9060 -0.5313
 3253SOL    HW121218   3.747   0.098   4.066  0.3305  4.4981 -2.2557
 3253SOL    HW221219   3.894   0.118   4.065 -0.1947  0.1927 -0.6536
 3254SOL     OW21220   1.944   1.547   0.205 -0.1248 -0.1697  0.2071
 3254SOL    HW121221   1.861   1.553   0.254  0.3954  3.2965  0.6638
 3254SOL    HW221222   1.954   1.630   0.159  0.8437 -1.9952 -2.8506
 3255SOL     OW21223   4.654   2.887   7.457 -0.4441 -0.3227  0.3337
 3255SOL    HW121224   4.697   2.853   7.536 -0.5701  1.5162  1.1883
 3255SOL    HW221225   4.638   2.802   7.415 -0.9110 -0.0387 -0.0670
 3256SOL     OW21226   1.158   1.717   1.256  0.3536  0.1692 -0.3996
 3256SOL    HW121227   1.236   1.662   1.264 -0.5580 -0.7861  2.0058
 3256SOL    HW221228   1.142   1.747   1.345 -1.0048 -0.2123 -0.5125
 3257SOL     OW21229   3.012   0.159  13.147 -0.0299 -0.3241 -0.6294
 3257SOL    HW121230   3.044   0.246  13.125 -0.0085  0.0976  1.0692
 3257SOL    HW221231   3.081   0.096  13.126  0.5569  0.0732  0.1322
 3258SOL     OW21232   3.960   1.457   2.783  0.5922  0.3388 -0.5255
 3258SOL    HW121233   3.963   1.533   2.724 -1.5224  0.2288 -0.7606
 3258SOL    HW221234   3.978   1.496   2.869 -2.4064  0.9365 -0.1842
 3259SOL     OW21235   0.800   0.151   6.965  0.1390 -0.8799 -0.2792
 3259SOL    HW121236   0.880   0.124   6.921 -1.9095 -2.9732 -2.7214
 3259SOL    HW221237   0.767   0.061   6.964 -0.3523 -0.7076  0.0079
 3260SOL     OW21238   0.066   2.794   4.972  0.6432 -0.1301 -0.1556
 3260SOL    HW121239   0.102   2.706   4.980  2.2532  0.4875 -0.6859
 3260SOL    HW221240   0.140   2.854   4.978  1.4986 -0.9344 -2.5444
 3261SOL     OW21241   1.215   4.231   8.990  0.2037  0.1795 -0.7043
 3261SOL    HW121242   1.232   4.242   9.084 -0.2571 -0.3208 -0.5674
 3261SOL    HW221243   1.145   4.295   8.980  1.4325  1.8496  1.1404
 3262SOL     OW21244   1.626   0.761   5.425 -0.0333 -0.3124 -0.3481
 3262SOL    HW121245   1.709   0.723   5.396  0.6683  1.6694 -0.9658
 3262SOL    HW221246   1.561   0.691   5.418  0.2121 -0.6554  0.8688
 3263SOL     OW21247   1.805   0.615   1.890 -0.2487 -0.1029  0.0216
 3263SOL    HW121248   1.845   0.536   1.855  0.3336  1.0219 -1.8142
 3263SOL    HW221249   1.883   0.640   1.940  0.9444  0.3996 -2.0905
 3264SOL     OW21250   3.659   3.703  17.441  0.2368  0.0776 -0.0342
 3264SOL    HW121251   3.682   3.788  17.405 -1.1948 -0.1740 -1.5498
 3264SOL    HW221252   3.598   3.679  17.371 -0.2861  1.8418 -0.1655
 3265SOL     OW21253   1.089   0.631   7.139  0.5002  0.0496  0.0696
 3265SOL    HW121254   1.057   0.717   7.111 -1.8027 -1.1383 -0.9867
 3265SOL    HW221255   1.094   0.588   7.053 -0.2564 -3.0215  1.5568
 3266SOL     OW21256   0.214   1.879   6.530 -0.1436  0.2147 -0.4515
 3266SOL    HW121257   0.192   1.837   6.447  0.1150 -0.7498 -0.0234
 3266SOL    HW221258   0.126   1.897   6.563 -0.6765 -1.0977 -1.1680
 3267SOL     OW21259   4.138   4.723   2.920  0.7172  0.0408  0.0559
 3267SOL    HW121260   4.144   4.710   3.015  1.5286  0.1999  0.0240
 3267SOL    HW221261   4.093   0.084   2.913 -0.1512 -0.3768  0.4896
 3268SOL     OW21262   1.085   1.381  15.408  0.1459 -0.2900 -0.2370
 3268SOL    HW121263   1.111   1.468  15.378  1.5127 -0.2689  1.0768
 3268SOL    HW221264   0.998   1.365  15.370  0.2597  0.0340 -0.6366
 3269SOL     OW21265   2.063   1.115   0.158 -0.0441  0.2199  0.6155
 3269SOL    HW121266   2.088   1.061   0.233 -1.0978 -0.4890  0.4539
 3269SOL    HW221267   2.130   1.183   0.168  0.3722 -0.0141 -0.5746
 3270SOL     OW21268   1.649   2.393  14.912 -0.1168  0.1501  0.3319
 3270SOL    HW121269   1.696   2.434  14.985  1.8152  0.7001 -1.2301
 3270SOL    HW221270   1.727   2.355  14.872  0.0152  1.7651 -0.9431
 3271SOL     OW21271   2.723   2.100  13.069  0.5142 -0.2343 -0.4053
 3271SOL    HW121272   2.704   2.166  13.135  1.8687 -2.5112  2.2414
 3271SOL    HW221273   2.691   2.141  12.988 -1.2661 -1.7782 -0.4801
 3272SOL     OW21274   0.100   0.506  17.091  0.0511 -0.3754 -0.0723
 3272SOL    HW121275   0.045   0.561  17.034  1.9904  0.5567 -1.0516
 3272SOL    HW221276   0.159   0.572  17.129 -0.8963  0.1215  0.5337
 3273SOL     OW21277   0.495   3.898   7.116 -0.6959  0.0858 -0.5390
 3273SOL    HW121278   0.404   3.906   7.144 -0.2552 -0.1627  0.9620
 3273SOL    HW221279   0.532   3.815   7.145 -3.7997 -0.3609  2.1367
 3274SOL     OW21280   3.323   1.901   9.055  0.1573  0.1914 -0.2984
 3274SOL    HW121281   3.344   1.952   9.133  0.3272 -0.0861 -0.1607
 3274SOL    HW221282   3.247   1.854   9.090  0.5111 -0.7418 -0.7695
 3275SOL     OW21283   0.712   4.061   5.894  0.3364 -0.1203 -0.2526
 3275SOL    HW121284   0.634   4.026   5.851 -1.2775  0.7423  1.9892
 3275SOL    HW221285   0.680   4.138   5.939  0.6945  1.6690 -3.0600
 3276SOL     OW21286   0.159   3.141   1.179  0.5207 -0.4788  0.6391
 3276SOL    HW121287   0.154   3.094   1.262  0.1251 -1.8755 -0.1644
 3276SOL    HW221288   0.218   3.210   1.208  2.3421 -0.7270 -2.4660
 3277SOL     OW21289   0.255   1.145   2.524 -0.0509  0.0162  0.0889
 3277SOL    HW121290   0.321   1.085   2.491  1.3557  2.4304 -1.4843
 3277SOL    HW221291   0.299   1.174   2.604  1.5481 -1.0173 -0.4283
 3278SOL     OW21292   1.389   0.070   7.098  0.2225  0.8312 -0.3263
 3278SOL    HW121293   1.314   0.112   7.138 -1.0588 -1.3417 -0.4585
 3278SOL    HW221294   1.356   0.054   7.010  1.1227 -1.5957 -0.2326
 3279SOL     OW21295   2.228   4.587  15.174  0.0802 -0.4133 -0.1059
 3279SOL    HW121296   2.214   4.659  15.112  1.3901  1.3316  1.6243
 3279SOL    HW221297   2.313   4.555  15.146  0.4007 -0.9714  1.5271
 3280SOL     OW21298   1.571   1.796   6.034 -0.3173  0.3116 -0.3822
 3280SOL    HW121299   1.644   1.764   5.982 -0.1419 -1.1559  0.7660
 3280SOL    HW221300   1.543   1.870   5.979 -1.7442  0.5261  0.6428
 3281SOL     OW21301   0.633   0.688  15.304 -0.6249 -0.4347  0.1955
 3281SOL    HW121302   0.594   0.768  15.339 -0.0022 -0.3316  0.6471
 3281SOL    HW221303   0.650   0.648  15.389 -1.5276 -0.9797  0.1192
 3282SOL     OW21304   3.202   3.870   7.289 -0.0459  0.4996  0.2529
 3282SOL    HW121305   3.265   3.938   7.264  1.2448 -0.6157  0.4292
 3282SOL    HW221306   3.241   3.842   7.372 -2.0537 -0.3699  0.8889
 3283SOL     OW21307   2.192   1.381   8.044  0.1522  0.3014 -0.2514
 3283SOL    HW121308   2.258   1.426   7.990 -1.2578  2.8278  0.1266
 3283SOL    HW221309   2.140   1.456   8.073  3.4265  1.9232  1.4030
 3284SOL     OW21310   4.093   2.924   5.738  0.0233 -0.1450 -0.5932
 3284SOL    HW121311   4.008   2.928   5.783  0.1730 -1.0531 -0.2134
 3284SOL    HW221312   4.113   3.017   5.731 -0.0501  0.1298  2.9919
 3285SOL     OW21313   0.632   3.306   5.097 -0.2051  0.4157 -0.4055
 3285SOL    HW121314   0.542   3.274   5.090 -0.2472  0.5609 -0.5527
 3285SOL    HW221315   0.682   3.233   5.060 -0.6019 -0.2794  0.4384
 3286SOL     OW21316   2.746   3.632  16.825 -0.5071  0.1257 -0.3162
 3286SOL    HW121317   2.766   3.544  16.794  3.4150  0.6756  0.6072
 3286SOL    HW221318   2.815   3.673  16.771 -0.2042 -2.1460 -1.6421
 3287SOL     OW21319   3.429   4.080   6.011  0.1986  0.2848  0.5408
 3287SOL    HW121320   3.488   4.020   5.965  1.6205 -1.2079  4.2370
 3287SOL    HW221321   3.429   4.043   6.100  2.3800 -0.3135  0.2924
 3288SOL     OW21322   1.676   3.548  16.431  0.1008  0.1277  0.1243
 3288SOL    HW121323   1.739   3.480  16.458  0.1289 -0.3753 -1.2136
 3288SOL    HW221324   1.691   3.568  16.339  1.0540 -2.9117 -0.4061
 3289SOL     OW21325   1.029   1.436   9.129 -0.6849  0.3693  0.0807
 3289SOL    HW121326   1.091   1.407   9.196  0.6557  0.7512 -1.0146
 3289SOL    HW221327   1.074   1.452   9.046 -0.9918 -2.0896 -0.5527
 3290SOL     OW21328   4.594   1.393   7.738  0.4863  0.2096 -0.1329
 3290SOL    HW121329   4.498   1.390   7.743  0.5291  1.2793  1.2235
 3290SOL    HW221330   4.613   1.348   7.821  0.7363  1.7428  0.6415
 3291SOL     OW21331   3.766   3.376  15.779 -0.2319  0.8372  0.4392
 3291SOL    HW121332   3.695   3.325  15.820 -0.8573  1.8563  0.6217
 3291SOL    HW221333   3.836   3.360  15.842 -0.5646  0.8275  0.8104
 3292SOL     OW21334   2.973   1.438   9.871  0.3427 -0.4274  0.6236
 3292SOL    HW121335   2.909   1.501   9.837  1.4722 -1.1702 -2.8922
 3292SOL    HW221336   3.038   1.493   9.916  0.3040 -1.1448  1.5587
 3293SOL     OW21337   1.047   1.529   3.548  0.1674  0.1906  0.0167
 3293SOL    HW121338   1.139   1.517   3.571  0.1803 -0.9929 -0.6853
 3293SOL    HW221339   1.028   1.585   3.624 -2.1911  1.5645 -1.5982
 3294SOL     OW21340   3.747   0.640   4.399 -0.3044  0.0388  0.5314
 3294SOL    HW121341   3.761   0.679   4.485 -1.3791 -1.2044  1.2676
 3294SOL    HW221342   3.830   0.597   4.382 -0.6031 -0.4189  0.2210
 3295SOL     OW21343   0.980   0.645   8.595 -0.0302 -0.1161  0.1005
 3295SOL    HW121344   0.888   0.625   8.581 -0.1569  1.5477 -1.3416
 3295SOL    HW221345   1.019   0.638   8.508 -0.7010  0.3271 -0.2316
 3296SOL     OW21346   1.281   0.575  17.647 -0.4350 -0.5158  1.0301
 3296SOL    HW121347   1.374   0.596  17.652 -0.7530  1.1437 -0.3363
 3296SOL    HW221348   1.244   0.653  17.687 -0.7765 -0.8236  1.3115
 3297SOL     OW21349   0.878   2.252  12.092  0.7429  0.5250  0.5613
 3297SOL    HW121350   0.791   2.289  12.106 -0.2160 -2.2303  1.7550
 3297SOL    HW221351   0.896   2.212  12.177 -2.3445  1.8632  1.8576
 3298SOL     OW21352   3.936   2.245  12.307 -0.0961  0.5887 -0.2660
 3298SOL    HW121353   3.862   2.294  12.342 -1.1797 -0.6760 -0.7764
 3298SOL    HW221354   3.883   2.183  12.257  0.6736 -0.2358 -0.0727
 3299SOL     OW21355   0.677   4.540   4.496 -0.1372  0.0571 -0.1672
 3299SOL    HW121356   0.646   4.459   4.535 -0.9497  0.6947  0.4856
 3299SOL    HW221357   0.738   4.499   4.434 -0.5444 -0.3127 -0.3241
 3300SOL     OW21358   1.884   0.415   3.518 -0.3093  0.3113 -0.0299
 3300SOL    HW121359   1.822   0.416   3.591 -0.1799 -1.3288  0.0832
 3300SOL    HW221360   1.893   0.508   3.496  0.4536  0.3873  0.6192
 3301SOL     OW21361   3.286   4.623   8.030  0.1899  0.1110  0.0015
 3301SOL    HW121362   3.211   4.680   8.047  0.1679  0.9548 -2.7835
 3301SOL    HW221363   3.249   4.549   7.982 -1.2630  0.3971  0.6776
 3302SOL     OW21364   3.195   2.514   7.364 -0.2966 -0.6535  0.3867
 3302SOL    HW121365   3.129   2.497   7.431 -0.3093  1.5076  0.9175
 3302SOL    HW221366   3.173   2.453   7.293 -1.9199 -0.8407  1.0502
 3303SOL     OW21367   2.870   1.308   3.174 -0.3572  0.4747 -0.2241
 3303SOL    HW121368   2.944   1.369   3.167  0.3936 -0.5548 -1.1817
 3303SOL    HW221369   2.906   1.231   3.218 -0.0337 -0.2829 -1.8086
 3304SOL     OW21370   3.176   0.375  13.093  0.0278 -0.0782  0.1398
 3304SOL    HW121371   3.213   0.443  13.151  0.7499  0.7365 -1.2818
 3304SOL    HW221372   3.234   0.371  13.017 -0.3342 -1.2692 -0.0694
 3305SOL     OW21373   0.740   4.534   0.728  0.1174  0.3238 -0.0988
 3305SOL    HW121374   0.676   4.469   0.756  1.6247 -1.2519 -0.2883
 3305SOL    HW221375   0.750   4.523   0.633 -0.8355  1.3666 -0.3102
 3306SOL     OW21376   0.014   3.354   7.037 -0.2477  0.4836 -0.4120
 3306SOL    HW121377   4.678   3.279   7.036 -0.6436  0.8003 -0.7602
 3306SOL    HW221378   0.037   3.350   7.130 -2.1035 -4.6292 -0.1857
 3307SOL     OW21379   0.753   3.629   1.886  0.5732  0.0120  0.3235
 3307SOL    HW121380   0.771   3.536   1.870  0.6091 -0.3428  2.4850
 3307SOL    HW221381   0.784   3.676   1.809 -0.0102  0.5179  0.3973
 3308SOL     OW21382   3.074   2.155   2.990 -0.4745  0.1415  0.2311
 3308SOL    HW121383   3.010   2.221   2.965 -0.8015 -0.1037  0.4302
 3308SOL    HW221384   3.107   2.190   3.073  1.4487 -0.5644 -0.2282
 3309SOL     OW21385   1.869   0.896   2.916 -0.6772  0.3829 -0.0458
 3309SOL    HW121386   1.849   0.894   3.009 -0.1863 -0.8895  0.0304
 3309SOL    HW221387   1.936   0.828   2.910 -0.9782  0.0543  0.3241
 3310SOL     OW21388   2.482   2.650   0.182 -0.4140  0.6647  0.8426
 3310SOL    HW121389   2.446   2.619   0.099  1.3890 -1.9359  1.0563
 3310SOL    HW221390   2.532   2.572   0.205 -1.0242  0.1568  0.4314
 3311SOL     OW21391   0.189   0.834   5.188 -0.2597 -0.0153 -0.1738
 3311SOL    HW121392   0.136   0.805   5.262  0.7022  0.0871  0.5530
 3311SOL    HW221393   0.129   0.885   5.134  0.8646  1.7948  0.2773
 3312SOL     OW21394   3.023   3.258   7.188 -0.3987 -0.1146 -0.2044
 3312SOL    HW121395   2.950   3.310   7.223 -1.0777 -0.7053 -0.7742
 3312SOL    HW221396   2.978   3.198   7.129  0.1067  0.1468 -0.8580
 3313SOL     OW21397   0.859   3.055   3.801 -0.3040 -0.0394 -0.0525
 3313SOL    HW121398   0.866   2.971   3.755 -0.3878  1.1551 -2.2252
 3313SOL    HW221399   0.837   3.106   3.723  1.2421 -2.1629 -1.8943
 3314SOL     OW21400   0.651   1.516  10.386  0.3815  0.4123  0.2309
 3314SOL    HW121401   0.586   1.562  10.439 -0.4771  1.7338 -1.9310
 3314SOL    HW221402   0.644   1.571  10.308  0.6701  1.3426  0.8658
 3315SOL     OW21403   1.990   2.031  10.260 -0.5918 -0.0868  0.0944
 3315SOL    HW121404   1.971   1.981  10.181 -0.6855 -1.8917  1.2482
 3315SOL    HW221405   1.928   2.104  10.258  1.0415  1.3239  0.5052
 3316SOL     OW21406   0.764   4.244   0.648 -0.5921 -0.1771 -0.3703
 3316SOL    HW121407   0.859   4.249   0.640 -0.6650  1.3707 -0.1413
 3316SOL    HW221408   0.767   4.189   0.726 -0.1216  2.5162  1.5119
 3317SOL     OW21409   1.927   0.093   2.148  0.1836  0.2563 -0.3878
 3317SOL    HW121410   1.863   0.109   2.217 -0.3527 -0.6082 -0.6818
 3317SOL    HW221411   2.006   0.080   2.201  0.7137 -0.3865 -1.3409
 3318SOL     OW21412   4.676   2.554   2.927  0.3336  0.0465  0.4367
 3318SOL    HW121413   4.629   2.479   2.964  0.5321  0.0265  0.6486
 3318SOL    HW221414   4.686   2.523   2.837  1.9026 -0.2224  0.6899
 3319SOL     OW21415   2.471   0.665   8.590 -0.1847 -0.0661  0.0710
 3319SOL    HW121416   2.415   0.739   8.568 -1.5668 -0.7364  1.3647
 3319SOL    HW221417   2.482   0.686   8.682 -1.5869  1.0232 -0.0159
 3320SOL     OW21418   2.785   2.285   5.214  0.0744  0.4028  0.0467
 3320SOL    HW121419   2.852   2.337   5.258  1.0416  0.9924 -2.1499
 3320SOL    HW221420   2.720   2.282   5.285 -0.3784 -1.3394 -0.4411
 3321SOL     OW21421   4.591   3.391  16.791  0.0065  0.3962 -0.0600
 3321SOL    HW121422   4.638   3.454  16.846  2.5345 -0.5237 -1.1450
 3321SOL    HW221423   4.534   3.345  16.852 -1.0751  0.3943 -1.0796
 3322SOL     OW21424   3.420   4.521  14.424 -0.1377 -0.7963 -0.5056
 3322SOL    HW121425   3.476   4.586  14.466 -0.7340 -0.5751 -0.0475
 3322SOL    HW221426   3.443   4.533  14.332  1.1249  0.6012 -0.0026
 3323SOL     OW21427   4.101   2.374   5.022 -0.0437  0.1465  0.3563
 3323SOL    HW121428   4.194   2.390   5.036 -0.1307  0.4410  0.5923
 3323SOL    HW221429   4.092   2.354   4.929 -0.7461 -1.0292  0.6635
 3324SOL     OW21430   4.462   2.793   3.505  0.1923 -0.0279 -0.2140
 3324SOL    HW121431   4.539   2.816   3.452 -0.2522 -1.4401 -1.5049
 3324SOL    HW221432   4.508   2.772   3.586  3.0624  0.6483 -1.6821
 3325SOL     OW21433   2.122   1.309   3.753  0.3095  0.2495  0.1763
 3325SOL    HW121434   2.192   1.370   3.776  0.4841 -0.1897  0.8040
 3325SOL    HW221435   2.162   1.222   3.753 -0.6494 -0.1926 -4.3642
 3326SOL     OW21436   3.256   2.799   2.329  0.1697  0.5438 -0.0618
 3326SOL    HW121437   3.297   2.873   2.282 -1.1303  1.0851 -0.3531
 3326SOL    HW221438   3.260   2.724   2.270  0.4689 -0.9032  1.8117
 3327SOL     OW21439   4.282   3.549  15.426 -0.4307  0.5963  0.4949
 3327SOL    HW121440   4.235   3.609  15.368 -0.8453 -0.8433 -0.6458
 3327SOL    HW221441   4.216   3.479  15.428  1.1173 -0.9441 -2.3651
 3328SOL     OW21442   1.090   0.089   1.488 -0.3967  0.2833 -0.3113
 3328SOL    HW121443   1.020   0.154   1.497  0.8301  1.5383  0.2091
 3328SOL    HW221444   1.072   0.027   1.558  0.2618 -0.3400 -0.6951
 3329SOL     OW21445   0.518   2.553  13.964 -0.3036 -0.2642  0.2196
 3329SOL    HW121446   0.550   2.500  14.037  0.2522  1.2512  1.1004
 3329SOL    HW221447   0.603   2.563  13.920 -0.9077 -1.7126 -1.2760
 3330SOL     OW21448   2.439   4.411   1.028 -0.0103  0.4178  0.0519
 3330SOL    HW121449   2.509   4.451   0.977 -0.8805  1.0399 -0.6703
 3330SOL    HW221450   2.394   4.356   0.964 -2.3707  3.0103 -0.5216
 3331SOL     OW21451   4.130   2.763   3.697 -0.2695  0.2956 -0.2311
 3331SOL    HW121452   4.117   2.668   3.705  0.2390  0.5300  3.2133
 3331SOL    HW221453   4.098   2.783   3.609 -1.4337 -0.5583 -0.0024
 3332SOL     OW21454   3.814   3.188  11.247  0.0893  0.1666  0.0716
 3332SOL    HW121455   3.874   3.229  11.185 -0.7229 -0.0012 -0.8193
 3332SOL    HW221456   3.762   3.259  11.283 -3.0612 -1.8223 -0.5530
 3333SOL     OW21457   2.601   1.509  12.163 -0.1094 -0.4127  0.1152
 3333SOL    HW121458   2.670   1.525  12.228  1.3966 -1.1863 -1.2960
 3333SOL    HW221459   2.640   1.564  12.095  1.3453 -0.7796  0.6492
 3334SOL     OW21460   4.644   4.523   7.542 -0.2339 -0.3239  0.0707
 3334SOL    HW121461   4.723   4.473   7.518  0.9272  0.1429  2.8964
 3334SOL    HW221462   4.683   4.610   7.545 -0.5829 -0.2380  1.7140
 3335SOL     OW21463   1.338   4.136   8.340 -0.5164 -0.5907  0.6420
 3335SOL    HW121464   1.325   4.209   8.280 -0.2576 -2.0118 -1.1352
 3335SOL    HW221465   1.296   4.163   8.421  0.1142 -0.5608  0.9586
 3336SOL     OW21466   4.297   2.955  12.127  0.0290 -0.3487  0.2615
 3336SOL    HW121467   4.217   2.928  12.082  0.9195 -0.5199 -1.2171
 3336SOL    HW221468   4.294   3.051  12.133 -1.5205 -0.3098 -1.2131
 3337SOL     OW21469   3.096   1.273  17.488  0.0674  0.4923 -0.2317
 3337SOL    HW121470   3.031   1.289  17.557 -2.2438 -0.0009 -2.3040
 3337SOL    HW221471   3.159   1.345  17.488 -1.3913  1.7727 -0.3506
 3338SOL     OW21472   2.129   1.587  15.983 -0.2646 -0.4754 -0.4797
 3338SOL    HW121473   2.085   1.667  16.011 -0.8371 -0.6183 -0.9793
 3338SOL    HW221474   2.116   1.523  16.053  0.1837 -0.1630 -0.1055
 3339SOL     OW21475   3.521   1.830   0.803 -0.6815 -0.3770  0.2673
 3339SOL    HW121476   3.543   1.872   0.720  0.5578  0.4913  1.0359
 3339SOL    HW221477   3.524   1.736   0.784 -0.8918 -0.6634  1.6881
 3340SOL     OW21478   4.035   0.341   0.698  0.9910 -0.5309  0.3745
 3340SOL    HW121479   4.017   0.409   0.764  0.8071 -1.2401  1.0578
 3340SOL    HW221480   4.130   0.351   0.695  0.9680 -0.2319  0.6423
 3341SOL     OW21481   3.847   4.128   3.359  0.5007  0.4297  0.4645
 3341SOL    HW121482   3.759   4.092   3.367  0.8154 -0.7519 -1.3822
 3341SOL    HW221483   3.875   4.069   3.429  0.7796 -0.6784 -0.5682
 3342SOL     OW21484   0.933   0.206   1.188  0.5024 -0.3509  0.6079
 3342SOL    HW121485   1.008   0.169   1.143  0.4776 -0.6978  0.8445
 3342SOL    HW221486   0.979   0.258   1.254 -0.2349  1.6357 -0.4610
 3343SOL     OW21487   4.133   1.181   3.313 -0.3756 -0.4604  0.3030
 3343SOL    HW121488   4.127   1.089   3.339 -0.8339 -0.9835 -1.6274
 3343SOL    HW221489   4.172   1.221   3.390 -0.6664  1.4452 -0.5318
 3344SOL     OW21490   0.661   3.253   0.073  0.2698 -0.9075 -0.8176
 3344SOL    HW121491   0.709   3.170   0.074 -0.2723 -1.2267 -2.3958
 3344SOL    HW221492   0.587   3.237   0.015  1.5630 -0.8129 -2.4861
 3345SOL     OW21493   1.113   1.578  11.009  0.2780  0.3703 -0.0511
 3345SOL    HW121494   1.162   1.631  10.946  2.0943  1.0055  1.9132
 3345SOL    HW221495   1.125   1.627  11.090  0.6067 -1.1240  0.7937
 3346SOL     OW21496   0.833   2.911   2.919  0.3889  0.3587 -0.4472
 3346SOL    HW121497   0.927   2.906   2.900  0.0936 -0.5206 -1.6590
 3346SOL    HW221498   0.790   2.936   2.837 -0.4102 -1.5595 -0.5957
 3347SOL     OW21499   1.843   0.171   7.419  0.2780  0.7494  0.3426
 3347SOL    HW121500   1.899   0.225   7.475 -2.1262  2.6767  0.8802
 3347SOL    HW221501   1.805   0.237   7.361 -0.1961 -0.6175 -0.8809
 3348SOL     OW21502   0.841   2.259  10.243 -0.0929 -0.0149 -0.6580
 3348SOL    HW121503   0.779   2.328  10.267 -1.3804 -1.2291 -0.4695
 3348SOL    HW221504   0.913   2.282  10.302 -0.0307 -1.6344 -0.0840
 3349SOL     OW21505   0.601   3.160   7.910  0.4978  0.6441  0.0332
 3349SOL    HW121506   0.672   3.141   7.849 -0.0653  2.3602 -1.1494
 3349SOL    HW221507   0.573   3.070   7.929  0.8588  0.7063  0.8706
 3350SOL     OW21508   3.454   0.817  16.334 -0.5754  0.5049  0.3722
 3350SOL    HW121509   3.545   0.791  16.319 -1.2050 -1.2238 -0.4720
 3350SOL    HW221510   3.406   0.748  16.289  1.0524 -0.2373 -0.2168
 3351SOL     OW21511   0.470   2.936   2.313  0.2362 -0.4542  0.0918
 3351SOL    HW121512   0.547   2.971   2.271 -0.8847  0.9521 -0.7791
 3351SOL    HW221513   0.418   3.016   2.322  2.7944  1.4259 -2.3235
 3352SOL     OW21514   0.680   4.544   9.205  0.0781  0.2241  0.2400
 3352SOL    HW121515   0.631   4.476   9.158  1.7767  0.2305 -1.5334
 3352SOL    HW221516   0.644   4.538   9.293 -0.7838 -4.2406 -0.4241
 3353SOL     OW21517   2.248   3.231   7.225 -0.7063 -0.2552  0.4726
 3353SOL    HW121518   2.253   3.244   7.320  0.5649 -0.0735  0.3857
 3353SOL    HW221519   2.218   3.318   7.201 -0.2290 -0.6841 -1.6782
 3354SOL     OW21520   1.576   3.117   5.621  0.1407  0.5217  0.1618
 3354SOL    HW121521   1.542   3.126   5.711 -0.2560 -0.5074  0.1123
 3354SOL    HW221522   1.653   3.063   5.636  0.9844  1.2665 -1.5895
 3355SOL     OW21523   2.080   3.821   3.398 -0.0278  0.3276 -0.0904
 3355SOL    HW121524   2.059   3.899   3.347  2.0293 -0.2203 -1.7542
 3355SOL    HW221525   2.016   3.822   3.470 -0.4776 -1.9383 -0.4543
 3356SOL     OW21526   3.002   1.925   2.520  0.1354  0.3380  0.6976
 3356SOL    HW121527   2.982   1.838   2.555  0.1522 -0.2233 -0.6852
 3356SOL    HW221528   3.064   1.956   2.586 -0.6551  0.8323  1.2026
 3357SOL     OW21529   2.339   3.980   0.791  0.0449  0.2370  0.0751
 3357SOL    HW121530   2.351   3.893   0.752 -1.2094 -0.3401  1.0048
 3357SOL    HW221531   2.374   4.034   0.719  1.4291 -1.6483 -0.6766
 3358SOL     OW21532   4.156   2.401   8.999 -0.2387 -0.1060  0.4263
 3358SOL    HW121533   4.179   2.318   8.958  0.5320  1.2421 -1.8855
 3358SOL    HW221534   4.082   2.426   8.943 -0.5823 -1.5149  0.2677
 3359SOL     OW21535   0.223   4.472   3.194 -0.4476 -0.1147  0.1311
 3359SOL    HW121536   0.218   4.429   3.109  0.6420  0.8992 -0.4443
 3359SOL    HW221537   0.317   4.485   3.181 -0.9540  1.5472 -1.8068
 3360SOL     OW21538   2.072   4.179   7.010  0.1094  0.3927  0.2343
 3360SOL    HW121539   2.098   4.217   7.095 -2.0021 -1.5335  1.7385
 3360SOL    HW221540   2.148   4.126   6.986 -0.7864  0.3009 -2.3135
 3361SOL     OW21541   2.682   3.253  12.538 -0.4302 -0.0369  0.2806
 3361SOL    HW121542   2.641   3.328  12.496 -0.6182 -0.3508 -0.0900
 3361SOL    HW221543   2.757   3.301  12.575 -3.1561  2.5379  2.4796
 3362SOL     OW21544   2.097   4.439  16.049  0.0998  0.1124 -0.2692
 3362SOL    HW121545   2.043   4.432  15.970 -0.8891  0.2955  0.3951
 3362SOL    HW221546   2.036   4.413  16.118  0.0039 -0.5981 -0.6101
 3363SOL     OW21547   3.213   2.110   2.009  0.4956 -0.3458  0.2743
 3363SOL    HW121548   3.244   2.107   2.099  0.7044  3.3118  0.3013
 3363SOL    HW221549   3.229   2.199   1.977 -1.9623  0.4439  1.2913
 3364SOL     OW21550   1.709   0.140   1.124 -0.0185  0.0970  0.1748
 3364SOL    HW121551   1.668   0.217   1.084  3.4640  0.9628 -1.7342
 3364SOL    HW221552   1.730   0.085   1.048  3.5203 -0.9497  1.8970
 3365SOL     OW21553   2.183   4.389   8.423 -0.0632  0.4289 -0.0271
 3365SOL    HW121554   2.127   4.464   8.405  1.2372  1.2425 -0.6522
 3365SOL    HW221555   2.116   4.333   8.462  0.5040  0.1838  0.6030
 3366SOL     OW21556   0.755   1.708   6.451 -0.6225 -0.4418 -0.4309
 3366SOL    HW121557   0.846   1.681   6.446 -0.2505  0.8362 -0.5335
 3366SOL    HW221558   0.733   1.675   6.363  0.1706  0.3529 -0.9266
 3367SOL     OW21559   4.636   4.374  13.390 -0.1882 -0.5033  0.0737
 3367SOL    HW121560   4.716   4.322  13.392 -0.5434 -1.1343 -1.6895
 3367SOL    HW221561   4.581   4.330  13.325 -0.2965  3.2123 -2.3876
 3368SOL     OW21562   2.091   1.821   3.265  0.4904 -0.2608  0.1277
 3368SOL    HW121563   2.058   1.857   3.348  1.0174  0.2523  0.1131
 3368SOL    HW221564   2.151   1.891   3.239 -1.5926  1.9607  1.2095
 3369SOL     OW21565   1.381   1.566   7.006  0.0316 -0.1072 -0.4813
 3369SOL    HW121566   1.341   1.642   7.049  0.5504 -0.4931  0.6841
 3369SOL    HW221567   1.449   1.552   7.072 -0.9137  0.4417  0.6087
 3370SOL     OW21568   1.144   3.239   4.504  0.0014 -0.0415  0.4969
 3370SOL    HW121569   1.223   3.248   4.557  2.1514  0.2099 -2.7686
 3370SOL    HW221570   1.094   3.170   4.548 -0.1531  0.2164  0.7301
 3371SOL     OW21571   4.183   2.855   8.121  0.3564  0.1572 -0.0754
 3371SOL    HW121572   4.265   2.896   8.092  1.1845 -1.8228 -0.4963
 3371SOL    HW221573   4.164   2.807   8.040 -1.6972 -0.4504  0.7669
 3372SOL     OW21574   4.108   3.873   2.868  0.0805 -0.2716  0.1156
 3372SOL    HW121575   4.026   3.852   2.912 -0.8941  1.2135 -0.9823
 3372SOL    HW221576   4.093   3.838   2.780  5.0071 -0.2971 -0.7510
 3373SOL     OW21577   2.458   3.241   6.686  0.3442 -0.0812  0.5049
 3373SOL    HW121578   2.458   3.336   6.672  1.4226 -0.2339 -0.5979
 3373SOL    HW221579   2.384   3.239   6.746 -0.0345 -1.0738  0.0077
 3374SOL     OW21580   3.885   2.014   6.132 -0.3811  0.0165  0.3964
 3374SOL    HW121581   3.930   1.950   6.076 -0.3338 -0.1394  0.6106
 3374SOL    HW221582   3.850   2.083   6.076  0.4851  1.2409  1.3487
 3375SOL     OW21583   0.223   2.673   7.982 -0.5639 -0.5645 -0.1431
 3375SOL    HW121584   0.135   2.704   7.961 -0.9015  0.5216  2.9153
 3375SOL    HW221585   0.240   2.716   8.066 -1.3822  2.1812 -1.3970
 3376SOL     OW21586   3.780   1.997   2.296  0.2691 -0.0686 -0.5191
 3376SOL    HW121587   3.831   2.036   2.225  0.3383  0.7247 -0.0372
 3376SOL    HW221588   3.760   1.907   2.270  3.2415  0.4546 -4.6171
 3377SOL     OW21589   2.616   1.763  12.861 -0.0033  0.1952  0.8906
 3377SOL    HW121590   2.559   1.776  12.937  0.0712  2.2742  0.5839
 3377SOL    HW221591   2.562   1.716  12.797  0.1461 -1.2489  1.8101
 3378SOL     OW21592   3.723   3.860  14.283 -0.1077  0.1231 -0.2593
 3378SOL    HW121593   3.738   3.954  14.274 -0.7374  0.2446 -0.0693
 3378SOL    HW221594   3.746   3.830  14.195 -1.2514 -0.8394 -0.2296
 3379SOL     OW21595   0.241   0.641   0.008  0.3120  0.1989  0.3519
 3379SOL    HW121596   0.257   0.702   0.079 -1.5379  2.2568 -1.0191
 3379SOL    HW221597   0.238   0.707  17.634  0.0219  0.3310  0.4968
 3380SOL     OW21598   4.309   0.562   4.386  0.0496  0.5405 -0.4809
 3380SOL    HW121599   4.389   0.514   4.405 -0.6076  0.9893  3.5968
 3380SOL    HW221600   4.274   0.579   4.474  0.2188 -1.9926  0.0922
 3381SOL     OW21601   0.297   1.726  10.935  0.4269 -0.0588  0.0564
 3381SOL    HW121602   0.360   1.761  10.999  0.8141 -0.9538  0.1766
 3381SOL    HW221603   0.290   1.639  10.976  0.2237  0.2158  0.6091
 3382SOL     OW21604   1.192   3.579   4.357 -0.1859 -0.1790 -0.0370
 3382SOL    HW121605   1.249   3.553   4.429  1.9843  2.7599 -0.7105
 3382SOL    HW221606   1.142   3.649   4.398 -0.6918  0.6108 -1.9968
 3383SOL     OW21607   1.227   0.512  11.199  0.2865  0.5159 -0.0895
 3383SOL    HW121608   1.185   0.475  11.121 -0.8106  0.0707  0.7096
 3383SOL    HW221609   1.208   0.606  11.203 -0.7902  0.1936  2.7401
 3384SOL     OW21610   0.889   3.404   7.886 -0.7424 -0.3118 -0.3446
 3384SOL    HW121611   0.950   3.365   7.823 -2.8229  0.7555 -3.0371
 3384SOL    HW221612   0.862   3.470   7.823  0.8366 -0.6845 -1.4154
 3385SOL     OW21613   0.799   2.477  16.662 -0.1417 -0.6301 -0.0301
 3385SOL    HW121614   0.858   2.539  16.705 -1.0066  2.3203 -3.0797
 3385SOL    HW221615   0.740   2.445  16.729 -1.3153  0.8759 -0.3531
 3386SOL     OW21616   0.923   0.999   6.824  0.2194 -0.4144 -0.0736
 3386SOL    HW121617   0.984   0.969   6.757  0.7283  1.3687 -0.4019
 3386SOL    HW221618   0.937   1.093   6.812 -2.1228  0.1636  1.5338
 3387SOL     OW21619   2.611   1.478   7.577 -0.3052 -0.5034 -0.3611
 3387SOL    HW121620   2.653   1.523   7.504 -2.1176 -0.3827 -1.3206
 3387SOL    HW221621   2.664   1.399   7.577  2.8383  1.5893 -1.3656
 3388SOL     OW21622   1.874   1.855  15.547 -0.1123 -0.1151  0.0289
 3388SOL    HW121623   1.862   1.833  15.454  0.3930 -1.6371  0.3290
 3388SOL    HW221624   1.823   1.934  15.566  1.0676  0.1707  1.9762
 3389SOL     OW21625   0.345   0.012   6.119 -0.0748  0.4389 -0.3633
 3389SOL    HW121626   0.365   0.053   6.203 -0.5715  0.5528 -0.3022
 3389SOL    HW221627   0.432   4.719   6.083  1.3420  1.5663  2.5763
 3390SOL     OW21628   2.815   0.322   8.547 -0.3074  0.3930  0.1892
 3390SOL    HW121629   2.883   0.389   8.543  0.1733 -0.0916  0.1948
 3390SOL    HW221630   2.739   0.376   8.524 -0.5907 -0.9457 -2.0137
 3391SOL     OW21631   0.193   2.980   3.511 -0.3488  0.4474  0.2367
 3391SOL    HW121632   0.245   2.993   3.590 -1.1700 -1.5754  1.1069
 3391SOL    HW221633   0.253   3.013   3.444  2.5000  1.3081  3.2305
 3392SOL     OW21634   2.276   0.067   8.601 -0.2781 -0.5394 -0.1308
 3392SOL    HW121635   2.343   0.135   8.591 -2.3956  1.6210  0.5893
 3392SOL    HW221636   2.334   4.717   8.578  0.6507  0.9169 -2.4260
 3393SOL     OW21637   2.830   0.424   4.453 -0.3714  0.0664  0.1285
 3393SOL    HW121638   2.752   0.460   4.411 -1.8773 -3.3047  0.0442
 3393SOL    HW221639   2.890   0.437   4.380 -1.1857 -0.7838 -0.6927
 3394SOL     OW21640   3.698   0.043   7.087  0.4648  0.8454 -0.6152
 3394SOL    HW121641   3.743   0.060   7.005  0.1315  0.1020 -0.9593
 3394SOL    HW221642   3.643   0.121   7.095 -1.0610 -0.1291 -1.6746
 3395SOL     OW21643   2.641   3.479   0.602 -0.2465 -0.1751  0.0517
 3395SOL    HW121644   2.616   3.568   0.576  0.5251  0.1225  0.3417
 3395SOL    HW221645   2.592   3.428   0.538 -2.2035  1.9288 -0.1429
 3396SOL     OW21646   4.247   1.099   5.495  0.2517  0.5710  0.3794
 3396SOL    HW121647   4.258   1.142   5.411 -0.3641 -0.3890 -0.1952
 3396SOL    HW221648   4.151   1.103   5.504  0.1735 -1.2299  0.4531
 3397SOL     OW21649   0.760   1.995   9.001  0.0076  0.5428 -0.6290
 3397SOL    HW121650   0.811   2.035   8.930 -0.2340 -0.2378 -1.2504
 3397SOL    HW221651   0.699   2.067   9.016 -1.4000 -0.8426  0.2849
 3398SOL     OW21652   0.488   0.222  17.674 -0.2706 -0.2750  0.4735
 3398SOL    HW121653   0.559   0.258   0.031 -1.1047  1.7926  0.1714
 3398SOL    HW221654   0.472   0.290  17.608 -0.2128  0.6300  1.3943
 3399SOL     OW21655   3.601   0.838   4.280 -0.1462  0.5442 -0.0286
 3399SOL    HW121656   3.629   0.762   4.331  0.9741  0.2935 -1.0227
 3399SOL    HW221657   3.541   0.805   4.214  1.0717 -0.8021 -0.4533
 3400SOL     OW21658   0.030   2.085   2.038  0.1544  0.2419 -0.0105
 3400SOL    HW121659   0.011   2.160   1.980 -1.2098  1.9939  2.7213
 3400SOL    HW221660   0.055   2.023   1.970  0.1335  0.9150 -0.6452
 3401SOL     OW21661   2.562   2.621   1.163 -0.0159 -0.0346  0.0055
 3401SOL    HW121662   2.530   2.538   1.200  1.2545 -0.5457 -0.0610
 3401SOL    HW221663   2.528   2.608   1.075  2.0466  0.1184 -0.8098
 3402SOL     OW21664   0.025   1.708  10.241  0.2502  0.8341 -0.3944
 3402SOL    HW121665   0.051   1.799  10.231  1.2611  0.7103  1.0920
 3402SOL    HW221666   0.110   1.679  10.274  1.0846  1.2989 -2.1803
 3403SOL     OW21667   4.040   4.159   2.433  0.1040 -0.1496  0.2592
 3403SOL    HW121668   3.959   4.164   2.384 -0.9733  3.4079  2.4112
 3403SOL    HW221669   4.020   4.083   2.488  1.8537  0.8306  2.2529
 3404SOL     OW21670   0.148   4.084   0.695 -0.0310 -0.3726  0.0566
 3404SOL    HW121671   0.221   4.025   0.714  0.0825 -0.0776  0.5308
 3404SOL    HW221672   0.107   4.105   0.779 -1.3471 -2.4716 -0.0771
 3405SOL     OW21673   3.707   4.521  11.296 -0.3665 -0.1569 -0.0080
 3405SOL    HW121674   3.753   4.452  11.345  0.5551  0.8950  0.5896
 3405SOL    HW221675   3.776   4.586  11.296 -0.0671 -0.4734  0.4180
 3406SOL     OW21676   0.378   4.091   7.937 -0.3364 -0.4860 -0.0024
 3406SOL    HW121677   0.421   4.073   8.020  1.4111  0.6392 -0.6619
 3406SOL    HW221678   0.316   4.163   7.951  1.9198  0.9176  2.8645
 3407SOL     OW21679   3.601   4.368   0.450  0.3521 -0.1906  0.2539
 3407SOL    HW121680   3.664   4.296   0.446  0.6334  0.0345  0.6750
 3407SOL    HW221681   3.543   4.335   0.381  1.3396 -0.6962 -0.3479
 3408SOL     OW21682   0.012   0.430  12.131 -0.1428  0.1288 -0.3545
 3408SOL    HW121683   0.040   0.420  12.222  0.2818  1.3548 -0.3476
 3408SOL    HW221684   0.098   0.443  12.090 -0.5008  0.3407 -1.0261
 3409SOL     OW21685   2.980   2.817   5.165  0.7775  0.1032  0.1529
 3409SOL    HW121686   2.929   2.817   5.246 -0.9660  0.3213 -0.9601
 3409SOL    HW221687   2.908   2.804   5.103  0.4121  0.0709  0.5803
 3410SOL     OW21688   2.249   0.765  14.561  0.3118 -0.0643 -0.2516
 3410SOL    HW121689   2.236   0.839  14.501  1.0136  0.6212  0.4378
 3410SOL    HW221690   2.265   0.793  14.651 -2.1594  2.2934 -0.5653
 3411SOL     OW21691   0.939   3.740   2.308 -0.2388 -0.0560 -0.0055
 3411SOL    HW121692   0.966   3.771   2.221  0.0783 -0.7747 -0.1719
 3411SOL    HW221693   0.977   3.652   2.313 -1.3144 -0.6134 -1.4649
 3412SOL     OW21694   0.833   0.179   4.398  0.6068  0.9223 -0.3007
 3412SOL    HW121695   0.807   0.271   4.399 -0.9477  0.4866 -1.1551
 3412SOL    HW221696   0.775   0.142   4.332 -0.6361 -0.2020  1.4401
 3413SOL     OW21697   1.104   2.486   6.414  0.4289 -0.0361 -0.2967
 3413SOL    HW121698   1.136   2.556   6.357  2.2819 -0.4221  0.2727
 3413SOL    HW221699   1.011   2.500   6.399  0.4774 -1.7444 -2.1485
 3414SOL     OW21700   3.478   3.276   7.681 -0.5770 -0.0975 -0.1975
 3414SOL    HW121701   3.572   3.289   7.694 -0.6563  0.4524 -0.1604
 3414SOL    HW221702   3.484   3.277   7.586  1.0577  2.6712 -0.0812
 3415SOL     OW21703   2.280   0.670   3.577 -0.1543  0.2131 -0.1748
 3415SOL    HW121704   2.233   0.753   3.575 -1.8999 -0.7459  1.1621
 3415SOL    HW221705   2.372   0.692   3.565 -0.0291 -0.2366 -0.0330
 3416SOL     OW21706   3.988   1.210   8.109  0.2909  0.1762  0.1532
 3416SOL    HW121707   4.026   1.128   8.140  0.0631 -0.7374 -1.9934
 3416SOL    HW221708   3.981   1.257   8.193  2.2461  2.2503 -0.8469
 3417SOL     OW21709   4.046   1.696  14.707  0.7045 -0.3086  0.0924
 3417SOL    HW121710   4.049   1.626  14.773 -2.1202  1.3247  1.9616
 3417SOL    HW221711   3.958   1.733  14.710  0.0122 -1.9906  1.2570
 3418SOL     OW21712   4.174   3.560  16.844 -0.1982 -0.0507  0.0777
 3418SOL    HW121713   4.220   3.643  16.832  0.3455 -0.2929  0.5409
 3418SOL    HW221714   4.090   3.587  16.882 -0.9034 -2.3068  0.1651
 3419SOL     OW21715   4.451   1.304   8.141 -0.3804  0.3995  0.1415
 3419SOL    HW121716   4.480   1.393   8.161  1.7561 -0.8072  2.4013
 3419SOL    HW221717   4.509   1.280   8.069  0.4785 -1.1867  1.3688
 3420SOL     OW21718   3.721   1.924   6.818  0.1642 -0.5299  0.4460
 3420SOL    HW121719   3.817   1.927   6.826  0.2101 -0.1460 -0.2355
 3420SOL    HW221720   3.699   1.846   6.768 -2.5607  0.8374 -0.4615
 3421SOL     OW21721   4.271   2.225   8.814  0.0117  0.1995 -0.3620
 3421SOL    HW121722   4.219   2.287   8.762 -1.9585  2.0363  3.7691
 3421SOL    HW221723   4.204   2.159   8.797  1.4431 -1.4288  0.2636
 3422SOL     OW21724   3.729   2.963   2.600  0.5549 -0.4906 -0.5032
 3422SOL    HW121725   3.694   2.996   2.517  0.3807  1.0291  0.1693
 3422SOL    HW221726   3.763   2.880   2.567  2.2995 -0.0578  0.2079
 3423SOL     OW21727   2.832   3.733   6.430 -0.0001 -0.2167 -0.4053
 3423SOL    HW121728   2.739   3.709   6.430 -0.1613  0.3581 -1.5776
 3423SOL    HW221729   2.852   3.719   6.337 -1.8038 -1.8180 -0.5564
 3424SOL     OW21730   2.706   2.750   3.132  0.0367  0.1992 -0.7527
 3424SOL    HW121731   2.734   2.823   3.188 -2.2388 -0.5406  1.3277
 3424SOL    HW221732   2.657   2.698   3.197 -0.6145  2.4043  0.5397
 3425SOL     OW21733   2.740   1.204   3.869  0.0381  0.2902 -0.5310
 3425SOL    HW121734   2.683   1.214   3.793 -1.8333 -0.5666  0.7561
 3425SOL    HW221735   2.757   1.112   3.850  2.4398  0.5808  0.2183
 3426SOL     OW21736   0.902   2.386   4.449 -0.4477 -0.1486  0.2364
 3426SOL    HW121737   0.956   2.315   4.485  0.1190 -0.8261 -1.9325
 3426SOL    HW221738   0.886   2.345   4.363 -0.6039  2.1729 -0.8356
 3427SOL     OW21739   2.379   1.087   8.791 -0.4470  0.4628 -0.1294
 3427SOL    HW121740   2.355   1.138   8.713 -1.5592 -0.2352 -0.2421
 3427SOL    HW221741   2.389   1.156   8.857  3.0665  0.9120 -1.1217
 3428SOL     OW21742   3.784   1.958   6.388  0.0300  0.6756 -0.1644
 3428SOL    HW121743   3.878   1.960   6.406  0.1104  1.3044 -0.6549
 3428SOL    HW221744   3.794   1.962   6.293 -3.2062  1.2805 -0.4852
 3429SOL     OW21745   3.619   0.018   6.482 -0.1760  0.4661 -0.3228
 3429SOL    HW121746   3.645   0.088   6.541  0.8828  0.0543 -0.2971
 3429SOL    HW221747   3.689   0.014   6.417  1.3719 -1.2692  1.4625
 3430SOL     OW21748   0.457   0.079   0.934 -0.6809  0.6069  0.4581
 3430SOL    HW121749   0.447   0.122   1.019 -1.6196 -0.0562  0.6776
 3430SOL    HW221750   0.406   4.722   0.946  1.3376 -0.7068  0.2739
 3431SOL     OW21751   1.273   0.778  14.297  0.0894 -0.2383 -0.8839
 3431SOL    HW121752   1.268   0.868  14.265 -1.2411 -0.0565 -0.1771
 3431SOL    HW221753   1.185   0.758  14.329  0.0457  1.2883 -0.0487
 3432SOL     OW21754   3.498   1.123   0.890 -0.8470  0.3035 -0.4687
 3432SOL    HW121755   3.437   1.150   0.821 -1.7860 -2.8112 -0.8683
 3432SOL    HW221756   3.497   1.034   0.854  2.9062  0.3828 -0.8369
 3433SOL     OW21757   1.268   2.595   1.273  0.2660  0.2547  0.4234
 3433SOL    HW121758   1.342   2.552   1.230 -0.7672 -1.0990  0.0367
 3433SOL    HW221759   1.222   2.521   1.312 -1.0602 -0.2177 -2.0611
 3434SOL     OW21760   4.260   1.758   9.467 -0.4935 -0.1191  0.2609
 3434SOL    HW121761   4.300   1.773   9.553 -0.5481  0.2124  0.2313
 3434SOL    HW221762   4.170   1.767   9.499 -0.5602 -1.2737  0.3880
 3435SOL     OW21763   2.893   0.857  10.643  0.1535 -0.1951 -0.8056
 3435SOL    HW121764   2.947   0.778  10.639 -1.1816 -1.0899 -1.0739
 3435SOL    HW221765   2.903   0.885  10.553 -2.2031  0.3836 -0.8854
 3436SOL     OW21766   2.247   4.251   6.366 -0.0925  0.2212  0.1986
 3436SOL    HW121767   2.227   4.313   6.296 -1.1590  0.2293  0.5118
 3436SOL    HW221768   2.328   4.290   6.397  0.2435  1.4994 -2.2788
 3437SOL     OW21769   4.239   2.072   2.373 -0.5781  0.7630 -0.0579
 3437SOL    HW121770   4.319   2.123   2.383 -0.8509  1.0825  0.5039
 3437SOL    HW221771   4.176   2.133   2.411  0.6907  1.8031  0.3278
 3438SOL     OW21772   2.453   2.342   4.176  0.1131  0.2993 -0.3758
 3438SOL    HW121773   2.421   2.291   4.250  0.1933  1.3710  0.4009
 3438SOL    HW221774   2.409   2.424   4.201 -0.2248 -0.9787  3.1238
 3439SOL     OW21775   4.390   3.817   4.327 -0.5656  0.6322  0.0852
 3439SOL    HW121776   4.450   3.879   4.287  1.4623  0.4204  2.7790
 3439SOL    HW221777   4.339   3.790   4.251  0.1897 -0.3870 -0.0537
 3440SOL     OW21778   1.013   0.861  13.335 -0.0933  0.8486 -0.7209
 3440SOL    HW121779   1.008   0.773  13.372 -1.1495  1.2980  0.2217
 3440SOL    HW221780   0.921   0.883  13.351  0.3311  1.2268  1.2459
 3441SOL     OW21781   0.640   4.440  13.099 -0.3480  0.2348  0.6070
 3441SOL    HW121782   0.669   4.521  13.057 -0.9268 -1.5172 -3.1714
 3441SOL    HW221783   0.570   4.406  13.044 -2.1021  1.2955  2.1654
 3442SOL     OW21784   1.547   1.137   7.878 -0.5177 -0.6350  0.0150
 3442SOL    HW121785   1.452   1.142   7.870 -0.6348 -1.4412  0.9420
 3442SOL    HW221786   1.564   1.049   7.847  1.1782  0.6745 -2.7348
 3443SOL     OW21787   0.924   0.039   3.822 -0.6566 -0.6603 -0.7969
 3443SOL    HW121788   0.828   0.032   3.821 -0.8304  1.3678  0.6319
 3443SOL    HW221789   0.927   0.092   3.902  1.8629 -0.6247 -0.9230
 3444SOL     OW21790   3.943   4.145   6.568  0.7342 -0.4536 -0.1914
 3444SOL    HW121791   4.014   4.127   6.506  0.2774 -0.2748 -0.7685
 3444SOL    HW221792   3.940   4.064   6.618 -0.8351  0.1979  0.7512
 3445SOL     OW21793   2.137   4.399   2.432 -0.5443 -0.9162 -0.2365
 3445SOL    HW121794   2.154   4.492   2.413 -1.1362 -0.9250 -0.7981
 3445SOL    HW221795   2.181   4.391   2.516 -1.3421  3.8921  0.6365
 3446SOL     OW21796   0.651   2.707   9.054 -0.3406 -0.5988  0.1373
 3446SOL    HW121797   0.684   2.738   8.970  1.7748 -1.3316  0.6970
 3446SOL    HW221798   0.717   2.733   9.119 -1.2166  0.0334  0.7847
 3447SOL     OW21799   0.798   1.321  12.549 -0.1845 -0.6953 -0.0457
 3447SOL    HW121800   0.749   1.393  12.511  0.9948  0.4738  0.6319
 3447SOL    HW221801   0.805   1.273  12.466  1.3948  1.1922 -1.0219
 3448SOL     OW21802   3.107   2.921   5.611  0.2087  0.1163 -0.3183
 3448SOL    HW121803   3.181   2.880   5.656 -0.3529 -0.1369  0.3760
 3448SOL    HW221804   3.141   2.996   5.562 -2.7413  1.1802 -0.7821
 3449SOL     OW21805   1.557   0.122   4.918  0.4977  0.0460  0.4671
 3449SOL    HW121806   1.576   0.182   4.845  0.1219  0.3795  0.6419
 3449SOL    HW221807   1.524   0.187   4.981  0.8219  0.3287  0.3472
 3450SOL     OW21808   0.897   2.776   4.255 -0.0452 -0.0145 -0.7937
 3450SOL    HW121809   0.866   2.864   4.279  3.3583  0.9774 -0.0525
 3450SOL    HW221810   0.961   2.798   4.188  1.0531 -0.7007  0.0392
 3451SOL     OW21811   2.432   3.654  15.972 -0.3137 -0.4080  0.4047
 3451SOL    HW121812   2.479   3.638  15.891 -3.0553 -0.6073 -1.1364
 3451SOL    HW221813   2.397   3.740  15.952 -1.2575 -1.0200 -0.5857
 3452SOL     OW21814   1.454   1.124  13.590  0.0363  0.0789  0.0695
 3452SOL    HW121815   1.517   1.070  13.541 -0.5432  0.8036 -1.4743
 3452SOL    HW221816   1.377   1.070  13.578 -0.3176  0.5091  0.4272
 3453SOL     OW21817   1.219   1.329   3.367 -0.1157 -0.3819 -0.2358
 3453SOL    HW121818   1.157   1.257   3.354  1.8875 -1.7089 -2.4637
 3453SOL    HW221819   1.171   1.410   3.353  0.6341  0.4190  1.8477
 3454SOL     OW21820   3.315   0.563  14.889 -0.9152  0.1154 -0.2751
 3454SOL    HW121821   3.273   0.560  14.803 -2.0898 -0.1432  0.3034
 3454SOL    HW221822   3.387   0.622  14.868 -0.1918 -1.0935 -1.1946
 3455SOL     OW21823   4.505   2.086   9.855 -0.4246 -0.0640  0.1870
 3455SOL    HW121824   4.514   2.054   9.944  1.2050 -0.9680 -0.3012
 3455SOL    HW221825   4.514   2.181   9.865  0.6033 -0.0956 -0.4152
 3456SOL     OW21826   2.342   3.681  16.968  0.0772 -0.4856 -0.0568
 3456SOL    HW121827   2.249   3.675  16.990 -0.0407  0.0293 -0.4126
 3456SOL    HW221828   2.374   3.704  17.055 -1.9981 -2.8135  1.3237
 3457SOL     OW21829   4.312   3.741   3.025  0.0738 -0.2557  0.1594
 3457SOL    HW121830   4.235   3.767   2.975  0.2196  0.7088  0.4355
 3457SOL    HW221831   4.273   3.701   3.103  2.1663 -0.1357  1.2870
 3458SOL     OW21832   1.513   0.292  10.122  0.1315  0.0102 -0.2548
 3458SOL    HW121833   1.608   0.291  10.131 -0.0093  1.4901  1.4629
 3458SOL    HW221834   1.493   0.214  10.175  0.3965  0.5616  0.6649
 3459SOL     OW21835   1.925   3.637   7.292 -0.0254 -0.0170 -0.4773
 3459SOL    HW121836   1.881   3.678   7.217 -0.5576 -2.1200 -1.3232
 3459SOL    HW221837   1.916   3.543   7.278 -0.2788  0.0268 -0.6042
 3460SOL     OW21838   0.269   2.812   6.257 -0.2796  0.5260  0.2142
 3460SOL    HW121839   0.229   2.854   6.182  0.3275  0.6939 -0.0132
 3460SOL    HW221840   0.208   2.744   6.287 -0.4389  0.2533 -0.7538
 3461SOL     OW21841   4.249   2.050   7.395  0.6933 -0.6658 -0.1465
 3461SOL    HW121842   4.232   2.143   7.406  1.0447 -0.5219 -0.7888
 3461SOL    HW221843   4.165   2.006   7.382 -0.3392  0.8164  1.4787
 3462SOL     OW21844   1.508   4.430   7.057 -0.4349  0.3610 -0.0578
 3462SOL    HW121845   1.584   4.459   7.107 -1.7443  1.3722  1.3575
 3462SOL    HW221846   1.506   4.476   6.973  0.7587 -0.7904 -0.6997
 3463SOL     OW21847   0.545   0.942  17.677 -0.6107 -0.2704  0.2800
 3463SOL    HW121848   0.457   0.965   0.014 -0.8387  0.4565 -0.8911
 3463SOL    HW221849   0.601   1.000   0.034  1.4462 -0.1967 -2.0511
 3464SOL     OW21850   1.758   0.070   3.133 -0.1467  0.3300  0.1334
 3464SOL    HW121851   1.797   0.017   3.064  0.7613 -0.1384  1.0076
 3464SOL    HW221852   1.781   0.021   3.212  2.2904 -1.8307 -1.9306
 3465SOL     OW21853   2.219   4.694   6.088  0.1267  0.4872  0.0594
 3465SOL    HW121854   2.201   0.016   6.005 -0.4516  0.2785  0.0709
 3465SOL    HW221855   2.197   0.032   6.158  2.2508  0.9586  0.3134
 3466SOL     OW21856   3.473   0.253   9.410 -0.0722 -1.0240 -0.1721
 3466SOL    HW121857   3.566   0.244   9.391  0.3650  1.3089  0.9309
 3466SOL    HW221858   3.474   0.323   9.475 -0.1617 -0.8195 -0.3914
 3467SOL     OW21859   1.716   3.264   9.741  0.0701 -0.4157 -0.6820
 3467SOL    HW121860   1.772   3.249   9.817 -0.3079  0.2315 -0.2768
 3467SOL    HW221861   1.640   3.216   9.775  0.3593 -1.2273 -1.1942
 3468SOL     OW21862   0.285   3.757   6.285 -0.0249  0.0354 -0.0631
 3468SOL    HW121863   0.228   3.826   6.253  3.8490  2.8822 -0.8246
 3468SOL    HW221864   0.237   3.675   6.278 -1.0741  0.3654  3.5151
 3469SOL     OW21865   3.615   3.674   3.360 -0.1373  0.5462 -0.3397
 3469SOL    HW121866   3.616   3.715   3.447  1.5697  0.7792 -0.4733
 3469SOL    HW221867   3.582   3.586   3.378 -2.8561  1.4319 -0.9202
 3470SOL     OW21868   1.082   1.561  14.512  0.0577 -0.0909 -0.2523
 3470SOL    HW121869   1.087   1.627  14.444 -0.0693  0.9594  0.7630
 3470SOL    HW221870   1.171   1.561  14.548 -0.2683 -0.1462  0.5561
 3471SOL     OW21871   2.869   1.444   7.980  0.0873 -0.2568  0.6159
 3471SOL    HW121872   2.894   1.524   7.933 -1.8787  0.6353  1.0855
 3471SOL    HW221873   2.877   1.372   7.918  0.7942  0.2177  0.1582
 3472SOL     OW21874   0.280   3.143   6.072  0.8763 -0.6215  0.1142
 3472SOL    HW121875   0.262   3.145   5.979 -0.2910 -1.0100  0.3395
 3472SOL    HW221876   0.234   3.061   6.090 -0.6427 -0.1204 -1.5614
 3473SOL     OW21877   0.501   2.654   9.753 -0.0672  0.2702 -0.2514
 3473SOL    HW121878   0.544   2.582   9.705 -0.0162  0.6469 -0.7757
 3473SOL    HW221879   0.457   2.600   9.818 -0.4597  0.7864 -0.0915
 3474SOL     OW21880   3.216   0.956   9.026 -0.4281 -0.2036 -0.7751
 3474SOL    HW121881   3.149   0.901   9.067 -0.0106 -0.9671 -1.1207
 3474SOL    HW221882   3.179   1.044   9.016 -1.0448 -0.4908 -0.9987
 3475SOL     OW21883   2.169   3.538   9.053 -0.0282 -0.0125  0.1086
 3475SOL    HW121884   2.231   3.483   9.100  0.8311 -0.5009 -1.6128
 3475SOL    HW221885   2.089   3.486   9.062 -0.4119  0.8245  1.6112
 3476SOL     OW21886   3.574   3.309   5.685  0.1529 -0.2948 -0.0446
 3476SOL    HW121887   3.568   3.274   5.774 -1.9551  0.4614  0.1032
 3476SOL    HW221888   3.551   3.402   5.688 -0.1115 -0.3810  0.5712
 3477SOL     OW21889   1.307   4.117   3.367  0.2979 -0.2771 -0.4869
 3477SOL    HW121890   1.288   4.084   3.455  1.3473 -0.2348 -0.2524
 3477SOL    HW221891   1.297   4.040   3.310  0.6559 -0.6835 -0.0052
 3478SOL     OW21892   3.123   2.099  15.479 -0.1425 -0.3413 -0.6394
 3478SOL    HW121893   3.145   2.116  15.387 -0.7737 -0.5392 -0.8275
 3478SOL    HW221894   3.205   2.072  15.521  0.0437  1.4551  0.1567
 3479SOL     OW21895   3.831   2.395  12.926  0.0111 -0.5060 -0.4612
 3479SOL    HW121896   3.803   2.476  12.969  2.4307 -0.3005  0.6989
 3479SOL    HW221897   3.781   2.410  12.846  0.2712  0.9328 -0.3518
 3480SOL     OW21898   2.353   4.448  10.807  0.6846 -0.2800  0.1260
 3480SOL    HW121899   2.448   4.461  10.814  1.2286 -3.3377 -1.4827
 3480SOL    HW221900   2.332   4.499  10.885 -3.4225  0.3254 -1.3952
 3481SOL     OW21901   0.959   2.025   3.618 -0.2659  0.6038 -0.4335
 3481SOL    HW121902   0.870   2.060   3.615 -0.6329 -0.1136  1.7704
 3481SOL    HW221903   0.986   2.040   3.527  2.5919  0.5264  0.3935
 3482SOL     OW21904   1.166   0.807   6.017 -0.2327  0.0848 -0.0952
 3482SOL    HW121905   1.200   0.895   6.036 -1.0840  0.7755 -1.8214
 3482SOL    HW221906   1.108   0.789   6.091 -2.7775  0.9919 -1.8893
 3483SOL     OW21907   3.457   3.652   8.027  0.2693  0.0425 -0.6084
 3483SOL    HW121908   3.509   3.575   8.053 -1.9096 -0.4042  2.4887
 3483SOL    HW221909   3.517   3.725   8.043  1.3558 -1.1202  0.6686
 3484SOL     OW21910   2.881   4.695  10.630 -0.5725  0.6832 -0.0195
 3484SOL    HW121911   2.880   4.694  10.534  0.9338  1.1373 -0.0428
 3484SOL    HW221912   2.791   0.001  10.641 -0.8083 -0.0204 -0.0640
 3485SOL     OW21913   0.586   4.232   9.650 -0.0616 -1.1819  0.3216
 3485SOL    HW121914   0.580   4.137   9.654  1.7779 -1.3345 -0.8372
 3485SOL    HW221915   0.502   4.245   9.695  0.5883  0.3090  1.0777
 3486SOL     OW21916   2.304   2.511   8.723 -0.0532  0.9247 -0.1070
 3486SOL    HW121917   2.276   2.602   8.710  0.4275  0.8845 -1.4090
 3486SOL    HW221918   2.322   2.519   8.817  1.6465 -2.7650 -0.1061
 3487SOL     OW21919   3.973   4.158  14.059  0.0288  0.4896 -0.0096
 3487SOL    HW121920   4.027   4.188  14.132  2.0290 -0.9375 -0.8931
 3487SOL    HW221921   3.919   4.094  14.103  0.4567  0.4869  0.5078
 3488SOL     OW21922   1.102   0.914   6.635 -0.7437  0.7559 -0.0995
 3488SOL    HW121923   1.177   0.937   6.581  0.3730  0.5082  1.3710
 3488SOL    HW221924   1.068   0.846   6.576 -0.2985  1.0458 -0.6855
 3489SOL     OW21925   0.725   3.686  12.582  0.0122  0.9307  0.1033
 3489SOL    HW121926   0.790   3.619  12.601  0.8707  1.6430 -0.3151
 3489SOL    HW221927   0.712   3.666  12.489 -0.7708 -0.2440  0.4799
 3490SOL     OW21928   2.529   1.409   5.636  0.5019 -0.1047  0.1484
 3490SOL    HW121929   2.580   1.328   5.638 -1.2730 -1.1812  1.1823
 3490SOL    HW221930   2.560   1.449   5.554  0.7312  0.7510  0.6525
 3491SOL     OW21931   0.211   1.596   7.688 -0.4146 -0.0291 -0.2281
 3491SOL    HW121932   0.303   1.590   7.662 -0.6400 -2.1926 -0.5560
 3491SOL    HW221933   0.184   1.518   7.639  0.7982 -1.3394  1.2124
 3492SOL     OW21934   1.103   3.593  17.166 -0.1404 -0.0083  0.2134
 3492SOL    HW121935   1.132   3.591  17.258 -0.8162  0.4129  0.4337
 3492SOL    HW221936   1.083   3.686  17.156  0.6922  0.0852 -0.5456
 3493SOL     OW21937   1.175   3.884  17.074  0.0865  0.1979  0.6133
 3493SOL    HW121938   1.113   3.953  17.051 -1.4350 -1.1137  0.8036
 3493SOL    HW221939   1.243   3.895  17.008 -2.6643  0.1940 -2.2127
 3494SOL     OW21940   3.769   3.621   8.766 -0.5846 -0.3969 -0.5192
 3494SOL    HW121941   3.846   3.654   8.812 -0.9229 -1.5228  0.8544
 3494SOL    HW221942   3.696   3.639   8.824  1.1630 -1.1036  1.8774
 3495SOL     OW21943   0.128   3.495  15.437  0.2370 -0.7713  0.3651
 3495SOL    HW121944   0.117   3.512  15.530  2.5043 -3.8239  1.1766
 3495SOL    HW221945   0.071   3.560  15.396  0.6697 -1.2196 -0.9721
 3496SOL     OW21946   3.054   2.719  13.298  0.1316 -0.0546  0.3272
 3496SOL    HW121947   2.973   2.720  13.249  0.8330 -2.6730 -0.8827
 3496SOL    HW221948   3.023   2.761  13.378 -0.5669 -0.0581  0.0575
 3497SOL     OW21949   0.528   3.669   6.696  0.3136  0.4900  0.1337
 3497SOL    HW121950   0.500   3.650   6.786  0.3811  0.9241  0.2435
 3497SOL    HW221951   0.445   3.678   6.649  0.3398 -0.2316 -0.0554
 3498SOL     OW21952   4.208   3.637  11.902  0.8157  0.0961 -0.5229
 3498SOL    HW121953   4.229   3.676  11.986  3.2794  0.9866 -1.5379
 3498SOL    HW221954   4.170   3.714  11.860  0.2044  0.1885  0.2091
 3499SOL     OW21955   3.381   0.398   5.839  0.2132  0.2496  0.5228
 3499SOL    HW121956   3.382   0.492   5.861  0.2386 -0.1435  2.1825
 3499SOL    HW221957   3.458   0.362   5.884  0.1225  0.2078  0.6450
 3500SOL     OW21958   3.947   1.492  12.246 -0.2464  0.2002 -0.2579
 3500SOL    HW121959   3.861   1.517  12.213 -0.1656  2.0469  0.9193
 3500SOL    HW221960   3.993   1.509  12.164  3.2634  0.8955  1.8308
 3501SOL     OW21961   0.052   1.271   4.896 -0.1686  0.0017 -0.0477
 3501SOL    HW121962   0.110   1.280   4.971 -1.3577 -1.6042  1.0555
 3501SOL    HW221963   0.066   1.358   4.859  0.9418 -0.8844 -1.7302
 3502SOL     OW21964   0.039   1.242   4.367  0.4306  0.3610 -0.2509
 3502SOL    HW121965   4.670   1.248   4.344  0.8095 -1.0505 -2.0987
 3502SOL    HW221966   0.038   1.222   4.461  0.0236 -2.2792 -0.8245
 3503SOL     OW21967   2.408   1.614   0.688  0.4220 -0.0520 -0.3386
 3503SOL    HW121968   2.485   1.656   0.726 -0.7329  2.6830 -1.0247
 3503SOL    HW221969   2.358   1.595   0.767  1.5969 -1.6458  0.0259
 3504SOL     OW21970   0.176   0.344   3.429 -0.0211  0.2436 -0.2051
 3504SOL    HW121971   0.132   0.389   3.501 -0.6809 -0.3313 -0.2433
 3504SOL    HW221972   0.261   0.325   3.468 -0.8049 -1.0086  0.8799
 3505SOL     OW21973   4.126   3.828   2.594 -0.1070  0.2102  0.2827
 3505SOL    HW121974   4.074   3.838   2.514 -0.4594  2.3152  0.7881
 3505SOL    HW221975   4.217   3.848   2.574 -0.3544  0.5091 -0.5278
 3506SOL     OW21976   1.176   1.466   4.160 -0.2004  0.0991 -0.1157
 3506SOL    HW121977   1.183   1.508   4.246  0.6400 -1.7115  0.6956
 3506SOL    HW221978   1.196   1.377   4.187 -0.4795 -0.0228 -0.3141
 3507SOL     OW21979   3.998   4.354   8.419 -0.1581  0.0034 -0.1619
 3507SOL    HW121980   3.992   4.268   8.459 -0.4243  0.7881  1.4850
 3507SOL    HW221981   3.913   4.386   8.449  1.8174  2.3643  2.9316
 3508SOL     OW21982   1.397   3.737   3.940 -0.0293 -0.0644  0.0501
 3508SOL    HW121983   1.318   3.690   3.915 -0.1269  0.1760 -0.0937
 3508SOL    HW221984   1.438   3.674   3.998 -0.4858  0.3281  0.8078
 3509SOL     OW21985   4.262   4.571   2.261 -0.1385 -0.2953  0.2058
 3509SOL    HW121986   4.324   4.516   2.309 -0.4613 -1.4939 -0.7295
 3509SOL    HW221987   4.193   4.567   2.327 -0.0540  1.2206  0.3755
 3510SOL     OW21988   3.429   1.648  10.493  0.1195  0.5213 -0.1112
 3510SOL    HW121989   3.463   1.701  10.566 -1.5108 -0.1369  1.1441
 3510SOL    HW221990   3.458   1.562  10.521  0.4956 -0.0277 -2.2402
 3511SOL     OW21991   2.971   0.568   8.390 -0.0473 -0.4610 -0.2161
 3511SOL    HW121992   3.041   0.623   8.354 -0.2754  0.6042  0.9613
 3511SOL    HW221993   2.951   0.623   8.466 -1.8374 -1.4009 -0.0247
 3512SOL     OW21994   2.912   2.720   7.331  0.4130 -0.0834 -0.0738
 3512SOL    HW121995   2.867   2.796   7.368  2.6447  1.4653 -0.5333
 3512SOL    HW221996   2.982   2.706   7.395 -1.3819 -0.0740  1.9022
 3513SOL     OW21997   3.403   0.472  15.247  0.3065  0.4202 -0.4305
 3513SOL    HW121998   3.479   0.501  15.197  1.1733 -0.4977  0.3608
 3513SOL    HW221999   3.342   0.453  15.175  1.2502  1.8192 -1.5852
 3514SOL     OW22000   4.233   0.904  10.147 -0.2818 -0.1406 -0.1436
 3514SOL    HW122001   4.285   0.947  10.214  0.2967 -0.2916 -0.4972
 3514SOL    HW222002   4.267   0.815  10.160 -1.2537 -0.7297 -1.6272
 3515SOL     OW22003   3.211   1.187   5.577 -0.0307 -0.7464  0.2977
 3515SOL    HW122004   3.304   1.177   5.596  0.4762  0.5451 -1.5329
 3515SOL    HW222005   3.204   1.115   5.515 -1.3407 -0.3636  0.0058
 3516SOL     OW22006   1.885   0.602   9.282 -0.1690 -0.0415 -0.3899
 3516SOL    HW122007   1.828   0.525   9.286  0.8540 -0.6158  2.9511
 3516SOL    HW222008   1.825   0.677   9.283 -2.3951 -1.8424  0.9392
 3517SOL     OW22009   2.537   1.116   6.174 -0.1663  0.1685  0.3495
 3517SOL    HW122010   2.601   1.136   6.106  2.4406 -2.9743  1.9159
 3517SOL    HW222011   2.512   1.206   6.197  0.4885 -0.2095  2.5268
 3518SOL     OW22012   0.650   0.645  10.129 -0.1112  0.3766  0.2032
 3518SOL    HW122013   0.573   0.651  10.073  1.8598 -1.0868 -2.6394
 3518SOL    HW222014   0.723   0.668  10.072  1.6777 -2.8611  1.1932
 3519SOL     OW22015   4.277   0.380   3.920 -0.2474 -0.3268  0.1882
 3519SOL    HW122016   4.279   0.323   3.997 -0.0339 -0.2442  0.2437
 3519SOL    HW222017   4.352   0.363   3.863 -1.2786 -0.5856 -1.1029
 3520SOL     OW22018   1.288   4.478  16.144  0.0505  0.3427 -0.0673
 3520SOL    HW122019   1.228   4.404  16.138  0.0156  0.5192 -2.1677
 3520SOL    HW222020   1.353   4.451  16.208 -0.9034 -1.7915  0.0060
 3521SOL     OW22021   2.257   0.200   2.066 -0.2096  0.2236 -0.4521
 3521SOL    HW122022   2.269   0.127   2.006 -1.6134 -0.1413 -0.2842
 3521SOL    HW222023   2.185   0.251   2.028 -0.1636 -0.5903 -1.6335
 3522SOL     OW22024   2.949   0.105   3.431  0.2716  0.6642 -0.4662
 3522SOL    HW122025   2.907   0.191   3.442 -1.2052 -0.1690  0.4305
 3522SOL    HW222026   2.934   0.056   3.512  0.0302 -3.5665 -3.0583
 3523SOL     OW22027   2.396   3.242   7.500  0.0480  0.8261 -0.4794
 3523SOL    HW122028   2.390   3.180   7.573  0.3311 -0.1727 -1.2957
 3523SOL    HW222029   2.396   3.324   7.548  1.1773 -0.4713  1.7345
 3524SOL     OW22030   0.136   3.709  14.530 -0.3433 -0.0428 -0.5614
 3524SOL    HW122031   0.098   3.781  14.479 -1.0552 -0.5676 -0.7637
 3524SOL    HW222032   0.160   3.756  14.610 -1.1301 -1.5935  0.5879
 3525SOL     OW22033   0.329   1.802  12.771 -0.1506 -0.0478 -0.6097
 3525SOL    HW122034   0.314   1.895  12.788  1.2394 -0.2197  1.5854
 3525SOL    HW222035   0.247   1.772  12.733 -0.8164  0.1993  0.6424
 3526SOL     OW22036   1.836   3.631  13.637 -0.4686 -0.4479 -0.2700
 3526SOL    HW122037   1.874   3.707  13.681  0.1517  1.4355 -4.0877
 3526SOL    HW222038   1.823   3.576  13.714  0.8930 -1.5161 -0.8134
 3527SOL     OW22039   2.099   4.173   7.666  0.1225 -0.3275 -0.2536
 3527SOL    HW122040   2.039   4.220   7.608  1.9428  1.5497 -0.6382
 3527SOL    HW222041   2.069   4.205   7.752 -2.1395 -2.9855 -0.0380
 3528SOL     OW22042   4.042   3.902  13.994  0.2208 -0.4109 -0.0405
 3528SOL    HW122043   4.036   3.997  13.995 -1.2194 -0.5000 -0.1194
 3528SOL    HW222044   4.120   3.890  13.939  1.4511  0.2137  1.5388
 3529SOL     OW22045   1.147   4.671   7.627  0.5352 -0.0476  0.6005
 3529SOL    HW122046   1.168   4.627   7.545 -1.6748 -1.2609  0.7129
 3529SOL    HW222047   1.142   0.041   7.603  1.3491 -0.0191  0.5212
 3530SOL     OW22048   2.846   0.032  11.343 -0.7308 -0.4494  0.3903
 3530SOL    HW122049   2.778   4.700  11.305 -0.4960  0.2526 -1.0519
 3530SOL    HW222050   2.877   0.077  11.264  1.3943  2.3792  2.8128
 3531SOL     OW22051   2.562   3.554  10.145 -0.8481 -1.3418 -0.2136
 3531SOL    HW122052   2.554   3.500  10.066  3.2623  1.3915 -2.5259
 3531SOL    HW222053   2.623   3.514  10.206  0.1090 -1.8883 -1.5126
 3532SOL     OW22054   3.214   3.950   8.753  0.1063  0.1994 -0.0408
 3532SOL    HW122055   3.218   3.858   8.725 -2.3467  0.1581 -0.2443
 3532SOL    HW222056   3.151   3.949   8.825  1.6810 -0.0129  1.3363
 3533SOL     OW22057   1.820   1.249  13.499  0.2449 -0.2927  0.8877
 3533SOL    HW122058   1.837   1.335  13.538  0.3375  0.2782 -0.4139
 3533SOL    HW222059   1.776   1.274  13.418  0.3720 -1.6852  0.4040
 3534SOL     OW22060   4.461   0.644   9.065 -0.1161 -0.2825  0.9237
 3534SOL    HW122061   4.374   0.607   9.050 -0.0144 -0.4419  0.7305
 3534SOL    HW222062   4.455   0.697   9.144  3.2834 -0.0852  1.0557
 3535SOL     OW22063   3.318   4.047   3.991 -0.3553  0.4598  0.3097
 3535SOL    HW122064   3.384   3.978   3.991 -1.5249 -0.6633  1.2461
 3535SOL    HW222065   3.243   4.012   3.942  0.7859  0.2086 -1.2635
 3536SOL     OW22066   4.035   3.774   5.789  0.2837 -0.5306  0.4169
 3536SOL    HW122067   4.068   3.688   5.817  2.1118 -0.4301 -1.5031
 3536SOL    HW222068   4.042   3.771   5.694 -1.1391  0.0361  0.2857
 3537SOL     OW22069   3.249   1.262   4.382 -0.0855 -0.3270 -0.3680
 3537SOL    HW122070   3.265   1.336   4.440 -1.4603  0.0518 -0.4603
 3537SOL    HW222071   3.153   1.262   4.375 -0.0316 -0.6338 -1.0949
 3538SOL     OW22072   0.900   4.256  12.547  0.5835  0.0611 -0.3472
 3538SOL    HW122073   0.995   4.241  12.548  0.5222 -0.3129 -0.3907
 3538SOL    HW222074   0.896   4.344  12.510  0.4328  0.2501  0.1181
 3539SOL     OW22075   3.078   0.288   3.799  0.2450 -0.0357 -0.1562
 3539SOL    HW122076   3.072   0.332   3.883 -3.4822  1.0895 -1.0065
 3539SOL    HW222077   3.148   0.222   3.797  0.2490 -0.0243 -0.4391
 3540SOL     OW22078   0.311   0.050   2.775  0.6288  0.6824 -0.0698
 3540SOL    HW122079   0.402   0.055   2.746  0.4309  2.4713 -0.4134
 3540SOL    HW222080   0.325   0.033   2.868  0.6775 -0.2113 -0.2473
 3541SOL     OW22081   2.302   2.863   3.806 -0.0553 -0.2617  0.0861
 3541SOL    HW122082   2.301   2.955   3.782  0.1189 -0.1518  0.4901
 3541SOL    HW222083   2.250   2.858   3.887  0.0085  0.3119  0.1598
 3542SOL     OW22084   0.326   4.700   4.143 -0.0416 -0.4180  0.1915
 3542SOL    HW122085   0.386   4.630   4.171  1.2591  0.7958  0.4453
 3542SOL    HW222086   0.377   0.057   4.155  0.2311 -1.0018  2.9689
 3543SOL     OW22087   3.150   2.231   5.501  0.3428  0.2420  0.1262
 3543SOL    HW122088   3.207   2.292   5.453  0.3501  0.3823  0.3138
 3543SOL    HW222089   3.069   2.273   5.473  0.8077  1.6843  0.9216
 3544SOL     OW22090   3.892   1.285   4.428  0.2942  0.1410 -0.3105
 3544SOL    HW122091   3.811   1.333   4.441 -1.1392 -2.6919  1.2026
 3544SOL    HW222092   3.894   1.267   4.334 -0.5603  0.0788 -0.3158
 3545SOL     OW22093   3.644   4.273   7.384 -0.1487  0.0875  0.4792
 3545SOL    HW122094   3.574   4.296   7.446  1.1151  0.3656  1.8171
 3545SOL    HW222095   3.629   4.346   7.324 -2.2103 -1.1362 -0.5053
 3546SOL     OW22096   3.230   0.547  17.657  0.3906  0.0655 -0.4226
 3546SOL    HW122097   3.163   0.487  17.692  0.0213  0.2653 -0.7836
 3546SOL    HW222098   3.288   0.486  17.612  1.3502 -1.0579  2.3332
 3547SOL     OW22099   4.427   4.226   3.117  0.2418 -0.2515 -0.2889
 3547SOL    HW122100   4.353   4.180   3.075  1.2171 -0.1104 -2.1485
 3547SOL    HW222101   4.396   4.239   3.207  0.9732 -1.2764  0.1135
 3548SOL     OW22102   1.016   1.767   3.705 -0.2553  0.0929 -0.0520
 3548SOL    HW122103   0.988   1.858   3.692  0.0753  0.2104  0.0576
 3548SOL    HW222104   0.977   1.745   3.790  0.0962  1.6790  0.5105
 3549SOL     OW22105   3.824   3.095  13.941  0.3841 -0.0716 -0.1412
 3549SOL    HW122106   3.730   3.100  13.927  0.2406  0.8770  1.1922
 3549SOL    HW222107   3.837   3.099  14.036  1.4213 -1.1706 -0.2245
 3550SOL     OW22108   0.783   0.890   6.537  0.2827 -0.5351 -0.4224
 3550SOL    HW122109   0.729   0.857   6.465 -2.1494  0.5546  0.9136
 3550SOL    HW222110   0.769   0.985   6.543  1.3537 -0.2859 -1.8296
 3551SOL     OW22111   2.666   1.231   5.185  0.3580 -0.0708 -0.7629
 3551SOL    HW122112   2.576   1.256   5.163 -0.0109  0.1308  0.9936
 3551SOL    HW222113   2.680   1.295   5.254 -0.8979 -0.0149 -0.5718
 3552SOL     OW22114   0.313   1.676   1.967 -0.1521 -0.2155 -0.0827
 3552SOL    HW122115   0.263   1.618   1.910 -0.0329 -0.1393 -0.2655
 3552SOL    HW222116   0.311   1.762   1.925 -0.2054 -1.0340 -1.7734
 3553SOL     OW22117   1.820   4.313   8.264 -0.3961 -0.1878 -0.1196
 3553SOL    HW122118   1.804   4.325   8.358  0.7230  1.0454 -0.0909
 3553SOL    HW222119   1.732   4.285   8.239  0.4758 -2.5173 -0.6010
 3554SOL     OW22120   2.205   3.708   5.166 -0.2331 -0.0317 -0.0698
 3554SOL    HW122121   2.258   3.767   5.113  0.7668  0.5701  1.6025
 3554SOL    HW222122   2.168   3.649   5.101 -0.2351 -1.4105  1.1702
 3555SOL     OW22123   3.460   0.834   7.631  0.5382  0.3670  0.5647
 3555SOL    HW122124   3.438   0.741   7.624 -0.1908  0.3968  2.5425
 3555SOL    HW222125   3.511   0.835   7.712  0.7975 -1.4859  0.4136
 3556SOL     OW22126   0.461   3.689  16.647 -0.0573  0.1358  0.1302
 3556SOL    HW122127   0.517   3.765  16.661 -1.7770  1.8009 -1.8794
 3556SOL    HW222128   0.381   3.734  16.620 -0.2734 -0.2906  0.0633
 3557SOL     OW22129   4.290   1.834   7.966  0.1639  0.3468  0.4555
 3557SOL    HW122130   4.239   1.893   8.022  1.3082  2.2243 -0.4507
 3557SOL    HW222131   4.222   1.799   7.909  0.1074  0.7291  0.2866
 3558SOL     OW22132   1.269   2.114   3.200  0.4133 -0.9037  0.3170
 3558SOL    HW122133   1.266   2.054   3.126 -0.4045 -2.4360  1.5855
 3558SOL    HW222134   1.286   2.196   3.153 -0.7853 -1.9876 -2.0115
 3559SOL     OW22135   2.713   0.497   6.936  0.0658  0.2207 -0.1767
 3559SOL    HW122136   2.765   0.574   6.915 -2.2097  1.4129 -1.4993
 3559SOL    HW222137   2.625   0.535   6.937  0.5818  1.3146  2.0652
 3560SOL     OW22138   3.592   0.732   0.654 -0.8925 -0.5676 -0.2760
 3560SOL    HW122139   3.567   0.696   0.739 -1.9270  2.8177  0.8225
 3560SOL    HW222140   3.626   0.656   0.607 -4.3162  0.6763 -4.8444
 3561SOL     OW22141   4.244   3.279   4.047 -0.2658 -0.6087 -0.5673
 3561SOL    HW122142   4.261   3.360   4.095 -0.4553  0.8557 -2.9968
 3561SOL    HW222143   4.254   3.323   3.963 -1.1063  1.6532  0.5066
 3562SOL     OW22144   3.188   4.402   7.789  0.3019  0.1517 -0.6567
 3562SOL    HW122145   3.265   4.458   7.781  0.8176 -0.4550  0.0319
 3562SOL    HW222146   3.118   4.459   7.756 -0.3894 -1.8663 -2.7301
 3563SOL     OW22147   2.434   3.933   6.305 -0.4270 -0.4273 -0.1940
 3563SOL    HW122148   2.432   4.021   6.267 -1.9727  0.0693  1.0554
 3563SOL    HW222149   2.393   3.879   6.237 -1.5675  0.3757 -0.1398
 3564SOL     OW22150   3.420   2.960   6.764  0.6367  0.5580  0.0885
 3564SOL    HW122151   3.337   2.990   6.725 -0.0328 -1.7608 -0.2915
 3564SOL    HW222152   3.392   2.919   6.846 -1.4776  0.7924 -0.5041
 3565SOL     OW22153   0.603   4.647   3.265 -0.4224 -0.1717 -0.2058
 3565SOL    HW122154   0.612   4.685   3.178  0.0785  1.9649  0.7826
 3565SOL    HW222155   0.639   0.001   3.310 -0.8663 -0.6015  0.8867
 3566SOL     OW22156   0.467   2.840   4.263  0.1684 -0.6197  0.1432
 3566SOL    HW122157   0.508   2.818   4.347 -0.2673 -0.5654  0.3706
 3566SOL    HW222158   0.467   2.751   4.227  3.4718  0.0855 -1.5992
 3567SOL     OW22159   1.242   0.597  10.824  0.0034 -0.0629  0.1597
 3567SOL    HW122160   1.189   0.533  10.871 -0.7207  0.8460  0.5978
 3567SOL    HW222161   1.236   0.667  10.890  0.5562 -0.4965  0.6742
 3568SOL     OW22162   3.760   0.214  17.209 -0.3119 -0.0432  0.0839
 3568SOL    HW122163   3.706   0.285  17.245 -1.2299 -0.7133  0.0122
 3568SOL    HW222164   3.795   0.177  17.290  1.3728  2.8310  0.7016
 3569SOL     OW22165   2.898   2.318   0.191  0.1216  0.2394 -0.0504
 3569SOL    HW122166   2.846   2.396   0.173 -2.2356 -0.9341  1.7152
 3569SOL    HW222167   2.849   2.280   0.263 -1.5842  0.4629 -1.0956
 3570SOL     OW22168   2.039   4.249  17.465  0.7814  0.4405 -0.4444
 3570SOL    HW122169   2.002   4.276  17.381 -0.4140  1.1019  0.2981
 3570SOL    HW222170   2.033   4.329  17.516 -0.1296 -0.3065  0.6170
 3571SOL     OW22171   0.452   3.434   8.436  0.3328  0.3231 -0.0387
 3571SOL    HW122172   0.524   3.437   8.499 -0.0447  0.6160  0.3761
 3571SOL    HW222173   0.482   3.490   8.365 -0.8200  1.2961  0.2450
 3572SOL     OW22174   2.150   2.598   4.681  0.3318  0.0183 -0.2504
 3572SOL    HW122175   2.131   2.671   4.624  0.3063  2.5347  2.9686
 3572SOL    HW222176   2.246   2.591   4.686  0.4472  0.4765 -1.8517
 3573SOL     OW22177   3.571   3.185   3.400  0.0466  0.1410 -0.3560
 3573SOL    HW122178   3.630   3.260   3.395  2.8997 -2.0477 -0.0080
 3573SOL    HW222179   3.625   3.130   3.457  0.8383  1.2354 -0.0459
 3574SOL     OW22180   2.432   2.637  10.725 -0.0063  0.4272 -0.4524
 3574SOL    HW122181   2.492   2.652  10.798  0.5823 -1.2610 -0.5797
 3574SOL    HW222182   2.464   2.709  10.672 -1.2486  1.1512 -0.2244
 3575SOL     OW22183   3.284   4.211   2.882  0.0520 -0.0230 -0.3989
 3575SOL    HW122184   3.360   4.155   2.896  0.6281  1.3835  1.9910
 3575SOL    HW222185   3.212   4.148   2.886  1.5533 -1.5487  2.1898
 3576SOL     OW22186   3.913   0.256   7.352 -0.2016  0.7138 -0.5234
 3576SOL    HW122187   3.859   0.322   7.308 -0.8458  1.7881  1.8796
 3576SOL    HW222188   3.996   0.303   7.365  0.2908 -0.0819 -0.8238
 3577SOL     OW22189   2.297   3.500  12.470  0.5781  0.8153  0.6751
 3577SOL    HW122190   2.298   3.545  12.554  1.4739  1.7963  0.1338
 3577SOL    HW222191   2.234   3.559  12.430  1.1143 -0.2177 -1.7616
 3578SOL     OW22192   0.378   1.490   2.632 -0.3547 -0.4707 -0.5676
 3578SOL    HW122193   0.434   1.557   2.593 -1.7664 -0.3732 -2.3920
 3578SOL    HW222194   0.297   1.537   2.649  1.5039  1.8308  1.9246
 3579SOL     OW22195   3.030   0.135   4.524  0.7173  0.2677 -0.0670
 3579SOL    HW122196   3.061   0.218   4.560  1.5195  0.0584 -0.2697
 3579SOL    HW222197   2.935   0.144   4.532  0.5789  1.1630 -2.5447
 3580SOL     OW22198   3.965   3.784   2.384  0.5161 -0.5711  0.2831
 3580SOL    HW122199   3.944   3.714   2.323  0.7641 -0.4565  0.0623
 3580SOL    HW222200   3.902   3.852   2.357  0.7941 -0.7271 -0.7662
 3581SOL     OW22201   0.291   3.399  16.036  0.0681  0.5976  0.0998
 3581SOL    HW122202   0.315   3.438  16.119 -1.3837  0.7193  0.4634
 3581SOL    HW222203   0.198   3.419  16.035 -0.1853 -0.5405  0.4487
 3582SOL     OW22204   3.921   4.621  17.281 -0.2051 -0.2331  0.5141
 3582SOL    HW122205   3.869   4.549  17.316  0.0871 -1.3760 -1.3846
 3582SOL    HW222206   4.007   4.591  17.313 -0.0565  0.0982  0.4226
 3583SOL     OW22207   4.182   1.589  10.784  0.3636 -0.1436  0.2923
 3583SOL    HW122208   4.223   1.615  10.702 -1.1514  0.7821 -0.1820
 3583SOL    HW222209   4.233   1.512  10.808  2.4966  0.6590 -1.7347
 3584SOL     OW22210   2.664   1.171   7.544  0.3186  0.1620 -0.1435
 3584SOL    HW122211   2.722   1.169   7.468 -0.5133 -0.6049 -0.7585
 3584SOL    HW222212   2.632   1.081   7.541  0.6734  0.1180 -2.1020
 3585SOL     OW22213   1.796   2.336   2.844  0.2968  0.1519 -0.0688
 3585SOL    HW122214   1.845   2.298   2.917 -1.0831  2.1041  1.8618
 3585SOL    HW222215   1.806   2.431   2.851  1.0695  0.1448 -0.9451
 3586SOL     OW22216   4.152   1.760   9.072  0.0402 -0.1195  0.4399
 3586SOL    HW122217   4.118   1.849   9.056  0.0949 -0.6479 -2.5497
 3586SOL    HW222218   4.179   1.739   8.983 -2.6377 -4.6897  0.6968
 3587SOL     OW22219   0.334   3.073   2.849 -0.2536 -0.3663  0.1818
 3587SOL    HW122220   0.345   3.154   2.897  2.1538 -1.7295  1.9134
 3587SOL    HW222221   0.242   3.054   2.872 -0.4585  0.2617 -0.1350
 3588SOL     OW22222   4.604   2.392   4.850 -0.4160  0.2039  0.0070
 3588SOL    HW122223   4.573   2.316   4.800  1.4246 -0.0636 -0.7673
 3588SOL    HW222224   4.607   2.364   4.941  2.0026  2.0010  0.4814
 3589SOL     OW22225   4.183   1.440   5.217 -0.2269 -0.3716  0.0058
 3589SOL    HW122226   4.141   1.413   5.135 -0.0290 -0.8999  0.0724
 3589SOL    HW222227   4.252   1.376   5.236  1.9453  1.0228 -3.3817
 3590SOL     OW22228   3.923   4.262  16.023  0.4827  0.1335 -0.0262
 3590SOL    HW122229   3.837   4.300  16.002 -0.4739 -1.4197  1.0732
 3590SOL    HW222230   3.974   4.339  15.997 -1.9799  0.5874 -3.5781
 3591SOL     OW22231   2.347   0.468  15.069 -0.4272 -0.4058  0.1274
 3591SOL    HW122232   2.299   0.527  15.012 -3.1263 -0.6872  2.1092
 3591SOL    HW222233   2.338   0.387  15.019 -0.0202  1.9927 -3.8585
 3592SOL     OW22234   1.952   4.409  15.104  0.7056 -0.0719 -0.1513
 3592SOL    HW122235   2.038   4.450  15.114  1.0273 -1.2442  1.8965
 3592SOL    HW222236   1.895   4.446  15.172 -0.0649  1.7165 -1.7910
 3593SOL     OW22237   0.807   2.812   6.532  0.2100  0.1870 -0.1203
 3593SOL    HW122238   0.813   2.722   6.500  1.8916  1.1312 -2.4163
 3593SOL    HW222239   0.841   2.855   6.454 -0.6104 -0.2023 -0.7013
 3594SOL     OW22240   0.816   2.451   2.409 -0.1783 -0.0667  0.7830
 3594SOL    HW122241   0.901   2.476   2.373 -0.1937 -0.0009  0.7929
 3594SOL    HW222242   0.791   2.386   2.343 -0.9313 -1.1265  2.1276
 3595SOL     OW22243   4.712   3.519   4.868 -0.4739  0.4300 -0.2161
 3595SOL    HW122244   4.629   3.568   4.874 -0.0935  1.0225  0.2681
 3595SOL    HW222245   4.679   3.437   4.832 -0.0270 -0.1467  0.6949
 3596SOL     OW22246   3.300   3.259  16.951 -0.2632  0.5242  0.1116
 3596SOL    HW122247   3.266   3.177  16.917  2.8040  0.2318 -2.3106
 3596SOL    HW222248   3.315   3.241  17.044  0.8747  1.2264  0.0744
 3597SOL     OW22249   0.911   4.675  10.187  0.2443  0.0884 -0.6487
 3597SOL    HW122250   0.859   0.029  10.210  0.1596  0.2990 -1.5341
 3597SOL    HW222251   0.933   4.641  10.274 -0.9326  1.3939  0.1624
 3598SOL     OW22252   1.338   2.755   3.869 -0.1392 -0.2753 -0.2522
 3598SOL    HW122253   1.266   2.813   3.893 -0.2585 -0.5767  0.1253
 3598SOL    HW222254   1.331   2.755   3.773  1.1397 -0.3084 -0.3448
 3599SOL     OW22255   3.619   0.288   4.981  0.5473  0.1785  0.3283
 3599SOL    HW122256   3.658   0.238   4.910 -0.3463 -1.9063  1.2917
 3599SOL    HW222257   3.558   0.343   4.932 -1.1870 -0.0863  2.1965
 3600SOL     OW22258   1.423   2.829   4.465 -0.4719  0.6270  0.5487
 3600SOL    HW122259   1.449   2.856   4.553  1.1265 -0.4021  0.4136
 3600SOL    HW222260   1.330   2.848   4.458 -0.9631 -2.0388 -0.3787
 3601SOL     OW22261   1.697   2.720  14.650 -0.5978  0.0396  0.3189
 3601SOL    HW122262   1.619   2.676  14.685 -0.6223  0.2316  0.5121
 3601SOL    HW222263   1.658   2.785  14.592 -2.9645 -1.6667  0.0035
 3602SOL     OW22264   4.041   2.925   2.597 -0.0837  0.0585  0.1230
 3602SOL    HW122265   3.994   3.002   2.567  2.1272  0.9449 -1.1044
 3602SOL    HW222266   3.994   2.857   2.550 -1.5067  0.1118  1.4787
 3603SOL     OW22267   1.488   3.195  10.996 -0.3742 -0.5058 -0.3626
 3603SOL    HW122268   1.471   3.248  11.074 -1.1058 -0.5989 -0.4616
 3603SOL    HW222269   1.486   3.103  11.021  0.3944 -0.4179  0.0178
 3604SOL     OW22270   3.110   3.606   4.109  0.0549  0.3843  0.5029
 3604SOL    HW122271   3.180   3.548   4.078 -0.0189  1.5865 -1.9187
 3604SOL    HW222272   3.065   3.540   4.161  1.8512 -2.3235 -1.3706
 3605SOL     OW22273   3.834   4.395   8.026 -0.2052 -0.5047 -0.4533
 3605SOL    HW122274   3.856   4.302   8.015 -0.5370 -0.6390 -0.0184
 3605SOL    HW222275   3.897   4.419   8.094 -0.6137 -0.5661 -0.0489
 3606SOL     OW22276   0.283   3.780  17.228 -0.3294 -0.0511  0.1115
 3606SOL    HW122277   0.310   3.871  17.218  0.6932 -0.3421  0.1494
 3606SOL    HW222278   0.300   3.736  17.145  0.2691  2.8185 -1.2754
 3607SOL     OW22279   1.494   4.416   0.263 -0.1084 -0.1895  0.1372
 3607SOL    HW122280   1.438   4.414   0.341  0.7891 -0.5432  0.7774
 3607SOL    HW222281   1.430   4.434   0.195 -1.4602 -2.0061  0.9190
 3608SOL     OW22282   1.249   1.076   6.867 -0.1048  0.1877  0.4082
 3608SOL    HW122283   1.276   1.130   6.792 -0.7311 -0.7409 -0.4834
 3608SOL    HW222284   1.181   1.019   6.830  0.8291 -0.3020 -0.5495
 3609SOL     OW22285   3.283   1.858   2.334 -0.3218 -0.1689 -0.3946
 3609SOL    HW122286   3.222   1.931   2.328  1.4941  1.2861 -1.1311
 3609SOL    HW222287   3.368   1.896   2.312 -2.2407  3.1258 -2.0814
 3610SOL     OW22288   4.223   0.773   9.641  0.0101 -0.0256  0.2826
 3610SOL    HW122289   4.315   0.746   9.641 -0.2201 -0.7930 -1.0467
 3610SOL    HW222290   4.217   0.801   9.733  1.8451  1.1355  0.0409
 3611SOL     OW22291   2.788   0.878   8.823 -0.0228  0.0950 -0.2085
 3611SOL    HW122292   2.728   0.808   8.798 -3.8370  2.8199  1.3652
 3611SOL    HW222293   2.847   0.812   8.860  0.2091 -0.6858 -1.9839
 3612SOL     OW22294   4.031   0.625   5.963 -0.7983 -0.6440 -0.2148
 3612SOL    HW122295   4.040   0.720   5.973  1.4616 -0.9214  0.4967
 3612SOL    HW222296   4.043   0.596   6.053  0.1743 -0.5223 -0.3081
 3613SOL     OW22297   4.586   0.933   6.834 -0.2981  0.1914 -0.3582
 3613SOL    HW122298   4.594   1.028   6.832  0.7970  0.0631 -1.7019
 3613SOL    HW222299   4.633   0.913   6.915 -1.7833  2.1603  0.9883
 3614SOL     OW22300   4.458   1.782   4.520 -0.3559 -0.2611 -0.2277
 3614SOL    HW122301   4.460   1.747   4.431 -3.0147 -0.5374 -0.1762
 3614SOL    HW222302   4.364   1.795   4.530 -0.3727 -0.8401  0.3755
 3615SOL     OW22303   4.241   4.004   5.565  0.1987  0.5877 -0.0389
 3615SOL    HW122304   4.184   3.930   5.587  1.1885 -0.3391 -0.5737
 3615SOL    HW222305   4.275   3.986   5.477 -1.3764 -1.5164 -0.2003
 3616SOL     OW22306   2.392   2.635   4.236 -0.2290 -0.3776 -0.1354
 3616SOL    HW122307   2.358   2.650   4.148  0.2542  0.4315 -0.1864
 3616SOL    HW222308   2.316   2.667   4.284  0.9199 -1.4297  2.3538
 3617SOL     OW22309   1.079   4.628  16.069 -0.0394  0.0962 -1.2920
 3617SOL    HW122310   1.149   4.565  16.085  0.7933  1.1909 -0.6264
 3617SOL    HW222311   1.040   4.603  15.985 -2.9039 -0.6281  0.2424
 3618SOL     OW22312   0.359   0.254   9.224  0.6407  0.1356  0.2087
 3618SOL    HW122313   0.452   0.262   9.242  0.7885 -0.9671 -0.0690
 3618SOL    HW222314   0.318   0.298   9.299 -0.8860 -0.9941  0.0578
 3619SOL     OW22315   1.912   4.523   2.837 -1.0731  0.1557  0.2659
 3619SOL    HW122316   1.983   4.554   2.894 -0.1636  1.9451 -1.8353
 3619SOL    HW222317   1.957   4.510   2.754 -0.5457 -0.6828  0.6774
 3620SOL     OW22318   4.168   4.635   1.266  0.1698  0.6542  0.0523
 3620SOL    HW122319   4.240   4.656   1.326  1.6618  0.6059 -1.7083
 3620SOL    HW222320   4.094   4.631   1.326  0.4383 -4.5860  0.0408
 3621SOL     OW22321   0.430   1.968   3.926 -0.6646 -0.3345 -0.1551
 3621SOL    HW122322   0.417   1.905   3.998 -0.9879  0.7351  0.7119
 3621SOL    HW222323   0.349   2.019   3.926 -0.4830 -0.0556  1.9987
 3622SOL     OW22324   0.875   4.332   4.386  0.5129  0.1551  0.2588
 3622SOL    HW122325   0.911   4.381   4.459  1.8955  1.7564 -1.4858
 3622SOL    HW222326   0.895   4.388   4.311  1.2579 -0.5798 -0.0949
 3623SOL     OW22327   0.218   4.632   8.302  0.2174  0.4320 -0.6596
 3623SOL    HW122328   0.253   4.699   8.244  0.4052  1.3631  0.5422
 3623SOL    HW222329   0.238   4.664   8.390 -1.6521 -1.8472  0.5952
 3624SOL     OW22330   0.179   4.543   6.016 -0.4909  0.0488  0.1760
 3624SOL    HW122331   0.247   4.600   6.050 -1.1869  1.7927 -1.3773
 3624SOL    HW222332   0.232   4.478   5.971  0.4567  0.1753  1.1323
 3625SOL     OW22333   4.500   3.174   5.239 -0.5756 -0.0821  0.0324
 3625SOL    HW122334   4.460   3.229   5.307 -0.8905 -1.8896  1.2895
 3625SOL    HW222335   4.490   3.087   5.276  0.0286  0.6639  1.9943
 3626SOL     OW22336   3.236   4.164   2.347 -0.5678 -0.6285  0.4692
 3626SOL    HW122337   3.239   4.152   2.442  1.2821  1.9322  0.7505
 3626SOL    HW222338   3.328   4.146   2.325 -0.6484 -0.2646 -0.1428
 3627SOL     OW22339   2.155   2.111  11.464 -0.0237 -0.5141  0.1545
 3627SOL    HW122340   2.132   2.101  11.556  1.5732  3.3485  0.9829
 3627SOL    HW222341   2.119   2.199  11.456 -1.6372 -0.9379  2.6959
 3628SOL     OW22342   2.720   1.680  13.117 -0.3486 -0.4501  0.0397
 3628SOL    HW122343   2.703   1.618  13.045  0.0259  0.1688 -0.5761
 3628SOL    HW222344   2.699   1.623  13.190 -2.0647 -1.7088 -1.4314
 3629SOL     OW22345   1.633   4.578   5.147 -0.0872 -0.0368  0.7920
 3629SOL    HW122346   1.687   4.569   5.068  0.3718  1.4934  0.9313
 3629SOL    HW222347   1.696   4.603   5.215 -0.5086 -0.5636  1.3672
 3630SOL     OW22348   2.774   1.921  12.402  0.0901 -0.0108 -0.0407
 3630SOL    HW122349   2.824   1.959  12.475  0.8872 -0.5464 -0.3120
 3630SOL    HW222350   2.767   1.831  12.435  0.7554  0.0586  0.3066
 3631SOL     OW22351   4.596   0.994   1.308 -0.3426  0.5410  0.1791
 3631SOL    HW122352   4.628   1.063   1.249  1.8206  0.9522  1.8429
 3631SOL    HW222353   4.628   1.029   1.391 -0.9256  0.7476  0.3190
 3632SOL     OW22354   1.237   3.502   7.023 -0.7760  0.2113 -0.2477
 3632SOL    HW122355   1.248   3.595   7.007 -0.7136 -0.1707 -2.4491
 3632SOL    HW222356   1.206   3.472   6.938  2.2443  2.0644 -1.9936
 3633SOL     OW22357   3.106   1.314  15.411  0.0189 -0.3136  0.2567
 3633SOL    HW122358   3.076   1.311  15.502 -1.6585  1.4839 -0.2269
 3633SOL    HW222359   3.175   1.248  15.415  2.0650  1.7384 -1.5878
 3634SOL     OW22360   0.153   0.634   3.355 -0.2503 -0.2712 -0.0900
 3634SOL    HW122361   0.214   0.669   3.421  0.0691  1.3703 -1.2519
 3634SOL    HW222362   0.171   0.697   3.286 -1.1775  0.2047  0.1118
 3635SOL     OW22363   2.649   1.663   6.509  0.0396 -0.2035  0.5106
 3635SOL    HW122364   2.591   1.676   6.585 -0.3443  0.2827  0.1402
 3635SOL    HW222365   2.723   1.723   6.520 -0.0328 -0.0574  0.2006
 3636SOL     OW22366   3.095   3.895   9.464 -0.0375 -0.1454  0.2470
 3636SOL    HW122367   3.119   3.964   9.526  0.6847 -0.4926  0.3503
 3636SOL    HW222368   3.173   3.841   9.452 -0.0402 -0.1384  0.1984
 3637SOL     OW22369   4.005   2.785   4.954 -0.0172  0.2037  0.3599
 3637SOL    HW122370   4.059   2.837   4.895  0.8636 -0.4885  0.5620
 3637SOL    HW222371   3.925   2.797   4.902 -0.2051  0.2533  0.6610
 3638SOL     OW22372   1.679   3.535   6.206 -0.3867 -0.0470 -0.0833
 3638SOL    HW122373   1.607   3.524   6.268 -0.8522 -0.1003 -0.6280
 3638SOL    HW222374   1.645   3.602   6.146  2.3662  0.7656 -0.7379
 3639SOL     OW22375   1.600   0.803   2.090 -0.1202 -0.0633  0.2417
 3639SOL    HW122376   1.588   0.826   1.998  1.8867  1.4912  0.3888
 3639SOL    HW222377   1.694   0.817   2.099  0.1471 -1.6405  0.0261
 3640SOL     OW22378   4.063   1.839  10.842 -0.2028  0.4288 -0.3719
 3640SOL    HW122379   4.125   1.766  10.833  0.1406  0.3325  2.7106
 3640SOL    HW222380   4.052   1.865  10.751  1.2980  1.6286 -0.2153
 3641SOL     OW22381   4.116   2.140   5.263 -0.6319 -0.4775  0.1270
 3641SOL    HW122382   4.027   2.154   5.230 -0.7332 -1.3916 -0.0053
 3641SOL    HW222383   4.158   2.209   5.211 -0.0735 -0.8001  0.1560
 3642SOL     OW22384   2.822   4.092  16.680 -0.5073  0.0199  0.0217
 3642SOL    HW122385   2.835   4.099  16.585  2.0353 -1.7981  0.2367
 3642SOL    HW222386   2.844   4.185  16.693  0.7940 -0.5151  1.6225
 3643SOL     OW22387   0.741   3.217   3.621 -0.3074 -0.2128  0.1965
 3643SOL    HW122388   0.717   3.226   3.529 -0.9667 -0.0833  0.3814
 3643SOL    HW222389   0.757   3.307   3.647  0.5687 -0.8471  1.8785
 3644SOL     OW22390   3.865   4.441   6.436  0.2897  0.1769 -0.0694
 3644SOL    HW122391   3.860   4.531   6.403 -2.1004  0.3291  0.6853
 3644SOL    HW222392   3.954   4.415   6.414  0.6165  0.8760  0.4351
 3645SOL     OW22393   3.753   3.911   6.148  0.3490 -0.6234 -0.2392
 3645SOL    HW122394   3.736   3.909   6.242 -0.3474  2.9453 -0.2898
 3645SOL    HW222395   3.757   4.005   6.129  3.0929 -0.8731 -0.8276
 3646SOL     OW22396   3.217   4.468  14.622 -0.0952  0.0873 -0.3105
 3646SOL    HW122397   3.280   4.490  14.553  0.9438 -1.3636  0.1895
 3646SOL    HW222398   3.144   4.459  14.560  0.0022 -0.7890 -0.2968
 3647SOL     OW22399   3.796   1.844   4.620 -0.1214 -0.0752 -0.4484
 3647SOL    HW122400   3.875   1.866   4.669  0.3101  0.9497 -1.6268
 3647SOL    HW222401   3.810   1.890   4.538 -3.1493  1.8738  0.1450
 3648SOL     OW22402   0.317   2.472   8.306 -0.2172 -0.3945  0.5125
 3648SOL    HW122403   0.339   2.558   8.271  2.8025 -1.7311 -0.8605
 3648SOL    HW222404   0.407   2.456   8.335  0.8139  0.4329 -2.2877
 3649SOL     OW22405   1.489   2.874   5.444  0.3132 -0.1248 -0.1922
 3649SOL    HW122406   1.549   2.941   5.477  0.1750 -0.4075  0.6293
 3649SOL    HW222407   1.429   2.861   5.518 -2.1952  0.5978 -2.1236
 3650SOL     OW22408   4.383   0.071   3.900  0.6660  0.2114 -0.0674
 3650SOL    HW122409   4.352   0.049   3.812  0.5209 -0.6428  0.1981
 3650SOL    HW222410   4.467   0.027   3.891 -0.4455 -1.5521 -1.6905
 3651SOL     OW22411   4.456   1.600   7.962 -0.7122 -0.1786 -0.2162
 3651SOL    HW122412   4.501   1.590   8.046  1.9317 -0.5471 -1.6725
 3651SOL    HW222413   4.409   1.683   7.972  0.1135 -0.1601  3.5064
 3652SOL     OW22414   1.643   4.381   8.971 -0.0571  0.2646 -0.5073
 3652SOL    HW122415   1.673   4.468   8.943 -2.4809  1.7879  1.6607
 3652SOL    HW222416   1.716   4.339   8.926  0.0753  0.3148 -0.3381
 3653SOL     OW22417   3.975   3.193   7.509 -0.2493  0.5685  0.6751
 3653SOL    HW122418   3.999   3.225   7.422 -2.8058  1.5366  0.3099
 3653SOL    HW222419   3.900   3.141   7.481  0.0869 -0.3162  1.4215
 3654SOL     OW22420   0.897   0.662   5.167  0.0587 -0.6616 -0.0890
 3654SOL    HW122421   0.892   0.630   5.077  4.8428  0.9905 -0.9456
 3654SOL    HW222422   0.983   0.629   5.196  0.1510  1.2057  1.7942
 3655SOL     OW22423   4.212   1.824   2.539  0.0997  0.6131 -0.9218
 3655SOL    HW122424   4.245   1.752   2.485 -0.7126 -0.2107 -0.3136
 3655SOL    HW222425   4.235   1.902   2.488 -2.2944  0.6734 -1.9308
 3656SOL     OW22426   3.677   3.945   1.696 -0.0133  0.7253 -0.2935
 3656SOL    HW122427   3.679   4.039   1.676 -2.4390  0.3212 -2.4929
 3656SOL    HW222428   3.716   3.911   1.615 -0.1984 -1.9611  0.7479
 3657SOL     OW22429   0.832   4.468   1.716  0.4949 -0.2392  0.5512
 3657SOL    HW122430   0.768   4.479   1.647  1.1887  1.1572  0.1323
 3657SOL    HW222431   0.918   4.471   1.673  0.5928 -1.3673  0.6666
 3658SOL     OW22432   3.370   2.471  10.090 -0.2347 -0.1393 -0.1554
 3658SOL    HW122433   3.404   2.523  10.163  2.1119  0.8503 -1.9722
 3658SOL    HW222434   3.349   2.537  10.024 -1.7746  0.0826  0.5626
 3659SOL     OW22435   1.433   3.391   1.362  0.6052  0.1417 -0.2149
 3659SOL    HW122436   1.478   3.347   1.435 -0.8876 -0.2342  0.4810
 3659SOL    HW222437   1.497   3.455   1.331  1.7632 -0.7368  0.3800
 3660SOL     OW22438   3.449   2.287  11.580 -0.4030  0.1236 -0.1975
 3660SOL    HW122439   3.424   2.365  11.629  0.7314  0.7466 -0.6192
 3660SOL    HW222440   3.392   2.218  11.613  1.3046 -1.2132 -0.0433
 3661SOL     OW22441   1.531   1.607   8.500 -0.2133 -0.0576  0.3204
 3661SOL    HW122442   1.591   1.552   8.550  1.0734 -0.4125 -1.6301
 3661SOL    HW222443   1.507   1.663   8.574  0.6441 -1.1216  1.4031
 3662SOL     OW22444   1.218   2.171   4.226  0.6782  0.2138  0.1265
 3662SOL    HW122445   1.294   2.137   4.179  0.8245 -0.1165  0.6039
 3662SOL    HW222446   1.154   2.171   4.155  0.0359  0.1115  0.7104
 3663SOL     OW22447   4.420   1.519   2.728 -0.3679 -0.5173  0.5545
 3663SOL    HW122448   4.354   1.568   2.777  1.6989  1.3476  1.4687
 3663SOL    HW222449   4.360   1.460   2.682  2.1872 -0.9229 -2.2354
 3664SOL     OW22450   3.540   2.389   3.019  0.0625 -0.4869  0.2576
 3664SOL    HW122451   3.462   2.441   3.000  0.3786  0.9920  3.0570
 3664SOL    HW222452   3.505   2.301   3.036 -1.8299  0.2558  0.2622
 3665SOL     OW22453   1.864   3.561   8.941  0.1937 -0.2967  0.8887
 3665SOL    HW122454   1.889   3.469   8.950 -0.1903 -0.6509 -1.6993
 3665SOL    HW222455   1.772   3.560   8.917 -0.0257  1.9335  1.6321
 3666SOL     OW22456   2.680   3.514   5.182 -0.1062 -0.1156  0.2203
 3666SOL    HW122457   2.719   3.580   5.239  0.8233 -1.2766  0.9504
 3666SOL    HW222458   2.586   3.527   5.183 -0.1441 -0.4479  1.0693
 3667SOL     OW22459   1.505   0.153   1.450 -0.0396 -0.3788  0.3376
 3667SOL    HW122460   1.467   0.124   1.367 -3.4109 -0.0027  1.7650
 3667SOL    HW222461   1.495   0.075   1.505 -1.7203 -0.3841  0.0231
 3668SOL     OW22462   0.708   2.519   4.921 -0.1485 -0.2463 -0.4434
 3668SOL    HW122463   0.671   2.534   5.007 -0.2594  2.9012 -1.0524
 3668SOL    HW222464   0.633   2.541   4.866 -0.7705  0.5801  0.7540
 3669SOL     OW22465   1.562   3.517   4.253  0.2594  0.0759  0.1257
 3669SOL    HW122466   1.552   3.478   4.166  1.3156  0.3034 -0.0948
 3669SOL    HW222467   1.473   3.551   4.263  0.2648 -0.0696  0.6473
 3670SOL     OW22468   0.895   0.505  16.801 -0.2266  0.3149 -0.2347
 3670SOL    HW122469   0.945   0.492  16.720 -0.2280 -0.1198 -0.1637
 3670SOL    HW222470   0.852   0.420  16.810 -2.0016  1.1988 -0.4879
 3671SOL     OW22471   1.726   1.006   3.124 -0.0876 -0.3314 -0.2820
 3671SOL    HW122472   1.643   0.974   3.088  0.3472 -0.1056 -1.4977
 3671SOL    HW222473   1.732   0.973   3.214  2.9106  2.2658  0.4513
 3672SOL     OW22474   0.479   3.164   3.076 -0.3718 -0.0848  0.0064
 3672SOL    HW122475   0.510   3.073   3.075 -4.5652 -1.5180  0.0003
 3672SOL    HW222476   0.551   3.201   3.025 -2.1711  0.1540 -2.3821
 3673SOL     OW22477   0.478   4.532  17.313  0.6146  0.1613 -0.3162
 3673SOL    HW122478   0.403   4.590  17.301  0.0753 -0.4891 -0.0519
 3673SOL    HW222479   0.553   4.588  17.334  1.7074 -1.3920 -0.1221
 3674SOL     OW22480   1.877   1.507   8.895  0.0066  0.4424  0.5535
 3674SOL    HW122481   1.920   1.430   8.859  2.2914  1.3794  1.3197
 3674SOL    HW222482   1.937   1.534   8.965 -2.5971  2.8908  1.8578
 3675SOL     OW22483   0.834   3.340   6.918 -0.0172 -0.7748 -0.8512
 3675SOL    HW122484   0.857   3.432   6.913 -0.9223 -0.3662  2.2805
 3675SOL    HW222485   0.752   3.343   6.870 -0.7518  0.2259  0.4917
 3676SOL     OW22486   4.210   0.389   4.650 -0.1532  0.0709 -0.7445
 3676SOL    HW122487   4.239   0.407   4.740 -1.4925  1.0453 -0.5118
 3676SOL    HW222488   4.289   0.341   4.625 -0.1944  0.7137 -2.0936
 3677SOL     OW22489   0.337   3.122  16.058  0.1470  0.0896  0.3258
 3677SOL    HW122490   0.316   3.215  16.047 -1.4175 -0.4146 -1.0100
 3677SOL    HW222491   0.405   3.118  15.990  0.6443 -2.4910  0.9522
 3678SOL     OW22492   4.600   1.855   8.429  0.0101  0.3591 -0.1853
 3678SOL    HW122493   4.539   1.929   8.432  0.7957  0.9866  0.3819
 3678SOL    HW222494   4.665   1.901   8.375  0.8219 -0.8976 -0.2759
 3679SOL     OW22495   2.508   1.588  14.623  0.0008  0.0723  0.2713
 3679SOL    HW122496   2.463   1.571  14.705  2.1184  0.6171  1.5357
 3679SOL    HW222497   2.443   1.627  14.566 -0.0879 -1.2788 -0.5691
 3680SOL     OW22498   3.338   1.387   2.805  0.0238  0.8958 -0.0107
 3680SOL    HW122499   3.383   1.413   2.725  0.4859 -1.7126 -0.5844
 3680SOL    HW222500   3.379   1.303   2.822  0.4236  1.2699  0.9128
 3681SOL     OW22501   3.132   0.463  15.303  0.0460  0.3963 -0.1126
 3681SOL    HW122502   3.185   0.539  15.324 -0.0092  0.7584 -1.3125
 3681SOL    HW222503   3.117   0.430  15.392 -2.2333  2.7889  0.3770
 3682SOL     OW22504   1.448   0.542   8.231 -0.2141  0.0268  0.2461
 3682SOL    HW122505   1.455   0.447   8.217  0.1578  0.3059 -1.5159
 3682SOL    HW222506   1.430   0.551   8.324 -0.2891 -1.1262  0.3459
 3683SOL     OW22507   2.538   2.147   2.715  0.2866 -0.2840 -0.0477
 3683SOL    HW122508   2.612   2.093   2.689  0.3852  0.6901 -1.7853
 3683SOL    HW222509   2.549   2.134   2.810 -3.0993  1.1506  0.5778
 3684SOL     OW22510   2.231   4.041   3.891  0.1180  0.4825  0.3376
 3684SOL    HW122511   2.267   4.091   3.818 -0.2814 -1.5797 -1.2708
 3684SOL    HW222512   2.204   4.112   3.950 -0.0973 -0.0246  0.8572
 3685SOL     OW22513   3.991   3.249   1.022 -0.1205 -0.1514 -0.4600
 3685SOL    HW122514   3.961   3.262   1.112 -0.5266  0.0601 -0.6265
 3685SOL    HW222515   3.985   3.154   1.019  1.8105 -0.2114 -2.2626
 3686SOL     OW22516   1.927   4.621   9.086  0.3873  0.4354  0.1995
 3686SOL    HW122517   1.971   4.541   9.057  0.0450 -0.0044  0.9088
 3686SOL    HW222518   1.865   4.629   9.014  0.1377  3.7690  0.7763
 3687SOL     OW22519   2.420   4.201   8.610  0.0824  0.2844  0.3145
 3687SOL    HW122520   2.476   4.124   8.619  2.7274  2.0886 -0.7605
 3687SOL    HW222521   2.348   4.152   8.569 -0.3367  1.4185 -0.3142
 3688SOL     OW22522   1.745   0.856   1.260 -0.0679 -0.2860  0.5188
 3688SOL    HW122523   1.720   0.909   1.336 -0.4110  0.7028 -0.2815
 3688SOL    HW222524   1.801   0.789   1.298  0.1140 -0.5079 -0.1375
 3689SOL     OW22525   2.556   3.816  16.881 -0.0633 -0.1219  0.3969
 3689SOL    HW122526   2.631   3.755  16.880  0.5681  0.6617  0.3421
 3689SOL    HW222527   2.482   3.761  16.908 -0.5771  1.0179  1.2592
 3690SOL     OW22528   1.200   2.554   7.514  0.4191  0.1355 -0.2934
 3690SOL    HW122529   1.135   2.602   7.463  0.5332  0.4667 -0.1252
 3690SOL    HW222530   1.161   2.564   7.601 -1.7386  0.0884 -1.2519
 3691SOL     OW22531   4.472   0.833  12.842 -1.0399 -0.6371 -0.2866
 3691SOL    HW122532   4.401   0.898  12.840 -0.7762 -0.3349  0.1816
 3691SOL    HW222533   4.531   0.853  12.768 -1.5220  0.5626 -0.3531
 3692SOL     OW22534   0.461   1.288   6.723 -0.1248  0.2755 -0.3075
 3692SOL    HW122535   0.471   1.193   6.731 -1.1991  0.1704 -0.2259
 3692SOL    HW222536   0.548   1.322   6.743  1.1810 -2.5466 -1.2053
 3693SOL     OW22537   0.150   3.748  11.973 -0.4513  1.0146  0.1769
 3693SOL    HW122538   0.086   3.768  11.905  0.9443 -1.6104 -1.9023
 3693SOL    HW222539   0.205   3.826  11.967 -2.1568  2.1647 -0.6358
 3694SOL     OW22540   3.392   4.632   1.865  0.4894  0.3533 -0.1794
 3694SOL    HW122541   3.347   4.548   1.867  0.4391  0.3854  0.1039
 3694SOL    HW222542   3.441   4.624   1.947 -1.0569 -0.3343  0.6808
 3695SOL     OW22543   1.651   0.682   3.569  0.3977  0.0867  0.2465
 3695SOL    HW122544   1.652   0.730   3.486 -0.0555 -0.0932  0.1353
 3695SOL    HW222545   1.727   0.717   3.614  0.5727  0.4942 -0.3615
 3696SOL     OW22546   3.005   3.986   2.886 -0.5656 -0.7731 -0.6723
 3696SOL    HW122547   2.946   4.060   2.900  0.3105 -0.4352  1.2873
 3696SOL    HW222548   3.042   3.986   2.974  0.2948  0.2614 -1.0351
 3697SOL     OW22549   1.046   1.784   9.912  0.1235  0.1464 -0.4574
 3697SOL    HW122550   1.065   1.781   9.818  0.2922 -0.1556 -0.4140
 3697SOL    HW222551   0.961   1.826   9.905 -0.7777 -1.6154 -0.0960
 3698SOL     OW22552   3.442   3.149   5.045 -0.0378 -0.0911 -0.2556
 3698SOL    HW122553   3.396   3.233   5.040 -2.2578 -1.3298 -0.2678
 3698SOL    HW222554   3.398   3.106   4.972 -0.9784  0.2300  0.1181
 3699SOL     OW22555   0.773   0.939   5.765 -0.4784 -0.2050 -0.0370
 3699SOL    HW122556   0.723   0.890   5.701  2.0806 -0.3692 -1.9243
 3699SOL    HW222557   0.705   0.996   5.801  0.3230  1.8318 -1.7256
 3700SOL     OW22558   2.472   2.213   8.052 -0.2749 -0.1433 -0.0616
 3700SOL    HW122559   2.421   2.142   8.012  1.0635 -1.0901 -0.0972
 3700SOL    HW222560   2.548   2.165   8.084  0.3992 -0.9438 -2.9177
 3701SOL     OW22561   4.235   0.243  10.050 -0.2282  0.8152  0.0884
 3701SOL    HW122562   4.279   0.260  10.134 -0.5366 -2.5749  0.9406
 3701SOL    HW222563   4.246   0.328  10.007 -1.3588  1.5149  1.1648
 3702SOL     OW22564   2.300   1.123   3.707 -0.4509  0.4782  0.3091
 3702SOL    HW122565   2.365   1.125   3.778  0.6532 -0.9079 -0.6715
 3702SOL    HW222566   2.353   1.089   3.635  1.8641  2.8473  0.9200
 3703SOL     OW22567   2.696   0.249   0.935  0.1268 -0.0847 -0.1446
 3703SOL    HW122568   2.789   0.255   0.957  0.1691 -0.9179 -0.1246
 3703SOL    HW222569   2.696   0.241   0.839  0.0177 -0.7866 -0.0859
 3704SOL     OW22570   3.751   2.307   3.758  0.6506 -0.1338 -0.1999
 3704SOL    HW122571   3.668   2.338   3.795  0.4403 -0.2084 -0.6099
 3704SOL    HW222572   3.767   2.379   3.697  1.5957 -0.7477 -0.6784
 3705SOL     OW22573   0.960   4.198  10.752 -0.2623  0.1699  0.2701
 3705SOL    HW122574   1.006   4.126  10.709 -1.6515 -0.4109 -0.2224
 3705SOL    HW222575   0.886   4.147  10.784 -0.2211  1.8858  3.1142
 3706SOL     OW22576   2.824   4.642   6.933 -0.6024 -0.4074  0.8697
 3706SOL    HW122577   2.860   0.003   6.961 -2.4193  0.4568  0.6306
 3706SOL    HW222578   2.836   4.600   7.018 -1.4968  2.5780  2.5062
 3707SOL     OW22579   1.862   3.335   6.427  0.4508 -0.1053  0.4171
 3707SOL    HW122580   1.892   3.270   6.491 -1.9326 -0.9910  0.6190
 3707SOL    HW222581   1.769   3.349   6.444  0.3236 -1.1716  0.5862
 3708SOL     OW22582   2.311   3.548   8.591 -0.4415  0.2628 -0.0908
 3708SOL    HW122583   2.366   3.609   8.541 -0.1382  2.3355  2.7409
 3708SOL    HW222584   2.276   3.500   8.516  1.2814  0.1169 -0.8065
 3709SOL     OW22585   2.132   1.966   4.764  0.1360 -0.3357 -0.4488
 3709SOL    HW122586   2.088   2.035   4.814 -1.2419  0.5124 -2.8101
 3709SOL    HW222587   2.222   1.994   4.775 -0.1757  0.2489  0.6355
 3710SOL     OW22588   0.088   2.599   6.319  0.4834  0.2234 -0.1525
 3710SOL    HW122589   0.018   2.645   6.364 -0.5007 -0.3361 -1.1387
 3710SOL    HW222590   0.084   2.518   6.370 -1.7345  0.2917 -0.2567
 3711SOL     OW22591   1.416   4.244  11.605  0.2674  0.6292 -0.4036
 3711SOL    HW122592   1.401   4.324  11.555  1.8231 -0.0663 -1.9897
 3711SOL    HW222593   1.482   4.213  11.543 -1.1879 -2.2136 -0.5613
 3712SOL     OW22594   3.040   1.756   4.156  0.1351 -0.1027 -0.1675
 3712SOL    HW122595   2.973   1.694   4.185 -1.2979  0.3048 -2.6044
 3712SOL    HW222596   3.104   1.705   4.106  1.5552  0.1946  1.3514
 3713SOL     OW22597   1.248   1.139   7.871  0.1556  0.4230 -0.6262
 3713SOL    HW122598   1.242   1.168   7.962  2.5162  0.2558 -0.4000
 3713SOL    HW222599   1.200   1.213   7.834  2.0186  0.5572 -2.8059
 3714SOL     OW22600   2.002   1.843   7.228 -0.1999 -0.1739 -0.2787
 3714SOL    HW122601   2.056   1.766   7.207 -1.1656 -0.7946 -0.5074
 3714SOL    HW222602   1.971   1.870   7.141  3.0539  2.7915 -0.5102
 3715SOL     OW22603   0.855   3.382   7.278  1.2348  0.1870 -0.0994
 3715SOL    HW122604   0.840   3.403   7.370  0.0659  1.1140 -0.5040
 3715SOL    HW222605   0.839   3.463   7.229 -0.4063 -0.2478 -0.2681
 3716SOL     OW22606   2.112   1.335   7.580 -0.0651  0.0766 -0.3500
 3716SOL    HW122607   2.089   1.416   7.535 -2.3273 -1.2056 -1.4734
 3716SOL    HW222608   2.205   1.329   7.556  0.1412 -0.9595  0.7079
 3717SOL     OW22609   0.935   1.093   2.168  0.2938 -0.3897  0.4873
 3717SOL    HW122610   0.892   1.034   2.230  1.1046 -0.7619  0.6846
 3717SOL    HW222611   0.910   1.046   2.088 -0.0769 -1.6344  1.3166
 3718SOL     OW22612   4.094   0.114   8.472 -0.4806  0.3227 -0.2401
 3718SOL    HW122613   4.018   0.090   8.526 -0.4973  2.6606  0.7614
 3718SOL    HW222614   4.089   0.042   8.409 -0.2340  1.3401 -1.4415
 3719SOL     OW22615   1.337   3.785   2.254 -0.0896 -0.2152 -0.2275
 3719SOL    HW122616   1.270   3.767   2.188  0.8051  4.9635 -2.5706
 3719SOL    HW222617   1.411   3.823   2.205 -1.1707  1.6299 -0.4459
 3720SOL     OW22618   2.031   2.188   3.377 -0.6914  0.5827 -0.5264
 3720SOL    HW122619   2.125   2.200   3.389 -0.5841 -0.0452 -0.7324
 3720SOL    HW222620   2.010   2.120   3.442 -1.5935  3.0437  1.7782
 3721SOL     OW22621   3.070   4.631   4.904  0.5099  0.3536  0.1986
 3721SOL    HW122622   3.040   4.715   4.938 -0.9564 -0.5962  1.2424
 3721SOL    HW222623   2.998   4.571   4.923  1.2449 -0.8146 -0.7006
 3722SOL     OW22624   3.571   3.016   5.830 -0.1520 -0.1142  0.3520
 3722SOL    HW122625   3.531   3.080   5.889 -0.4977 -1.3880  1.4766
 3722SOL    HW222626   3.622   2.966   5.894 -0.3364  0.2813  0.8131
 3723SOL     OW22627   4.180   2.896   6.963 -0.9911 -0.1952  0.1135
 3723SOL    HW122628   4.091   2.910   6.998 -0.3725  0.9847  1.2139
 3723SOL    HW222629   4.152   2.837   6.893  2.1660  0.4779 -1.6688
 3724SOL     OW22630   4.631   1.623   7.455 -0.0391  0.1287 -0.0028
 3724SOL    HW122631   4.636   1.649   7.547  0.2544  2.9235 -0.8117
 3724SOL    HW222632   4.647   1.532   7.478  0.9813  0.0653 -0.9278
 3725SOL     OW22633   1.236   0.393   1.747 -0.1889 -0.8218  0.2378
 3725SOL    HW122634   1.173   0.322   1.736 -1.0756  0.1058 -0.7314
 3725SOL    HW222635   1.175   0.456   1.787  0.5991  0.0066  0.1417
 3726SOL     OW22636   0.738   3.863  13.180  0.1237  0.2359  0.1494
 3726SOL    HW122637   0.785   3.848  13.098 -1.5037 -1.4584 -0.4523
 3726SOL    HW222638   0.658   3.904  13.146 -0.5439 -2.2301 -1.2445
 3727SOL     OW22639   3.288   0.978   4.431 -0.0585  0.2846 -0.2784
 3727SOL    HW122640   3.266   1.071   4.433 -2.1404 -0.2225  0.1365
 3727SOL    HW222641   3.384   0.984   4.424 -0.0184 -1.0230 -0.7693
 3728SOL     OW22642   0.361   1.659   6.339  0.1371 -0.0014 -0.3221
 3728SOL    HW122643   0.277   1.704   6.342  0.2417  0.3602 -2.7776
 3728SOL    HW222644   0.341   1.566   6.351  1.3648 -0.1342  0.7832
 3729SOL     OW22645   0.886   3.409  12.122  0.4713 -0.4929  0.3781
 3729SOL    HW122646   0.877   3.433  12.214  0.4018 -3.1856  1.0731
 3729SOL    HW222647   0.835   3.477  12.078  0.6760 -0.0858  0.7618
 3730SOL     OW22648   0.374   4.719   3.865 -0.0853  0.4169  0.0812
 3730SOL    HW122649   0.332   4.700   3.949 -0.8967  0.9080 -0.2152
 3730SOL    HW222650   0.319   0.066   3.832  2.2326  2.2181  0.0367
 3731SOL     OW22651   3.431   2.643   3.129  0.5295 -0.3241  0.0098
 3731SOL    HW122652   3.507   2.696   3.154  0.5250  1.3009 -3.4822
 3731SOL    HW222653   3.431   2.653   3.034  3.0608  0.4343  0.0889
 3732SOL     OW22654   0.051   4.495  12.707  0.4509 -0.0295  0.4865
 3732SOL    HW122655   0.064   4.496  12.613  2.1283  2.9616  0.7399
 3732SOL    HW222656   0.064   4.589  12.723  1.8338 -0.1880  0.2832
 3733SOL     OW22657   1.265   2.727  17.461  0.4061 -0.3511 -1.0847
 3733SOL    HW122658   1.254   2.632  17.453 -3.1768  0.0708 -1.2360
 3733SOL    HW222659   1.355   2.738  17.430  0.4381 -1.6966 -1.4970
 3734SOL     OW22660   4.353   2.387   0.696  0.3530  0.8673  0.3666
 3734SOL    HW122661   4.437   2.379   0.652  0.8234 -0.6250  1.5419
 3734SOL    HW222662   4.305   2.335   0.632  0.0972  0.0671  1.2016
 3735SOL     OW22663   0.472   3.402   2.257 -0.2480 -0.1891 -0.3275
 3735SOL    HW122664   0.458   3.383   2.164  0.6040 -1.5636 -0.1757
 3735SOL    HW222665   0.462   3.497   2.269 -0.8530 -0.4758  1.3414
 3736SOL     OW22666   0.228   1.972  15.045 -0.0251 -0.3217 -0.3843
 3736SOL    HW122667   0.304   2.029  15.055  0.6163 -0.6613 -3.3125
 3736SOL    HW222668   0.270   1.890  15.020 -1.1309 -0.3976 -2.0109
 3737SOL     OW22669   3.538   4.166   4.189  0.1533 -0.0658 -0.1610
 3737SOL    HW122670   3.576   4.098   4.245 -0.4351  0.3207  0.7182
 3737SOL    HW222671   3.456   4.119   4.173 -0.9565  2.0391 -0.6000
 3738SOL     OW22672   2.663   0.375   5.422  0.1668 -0.4643 -0.1094
 3738SOL    HW122673   2.689   0.355   5.512  2.7985  0.5136 -0.6689
 3738SOL    HW222674   2.584   0.323   5.409  1.0515 -1.6555 -0.6751
 3739SOL     OW22675   4.046   2.388  10.044  0.1846  0.4396 -0.2686
 3739SOL    HW122676   3.954   2.414  10.047 -0.5930 -2.5090  2.0237
 3739SOL    HW222677   4.047   2.331   9.967 -1.6216  1.7666 -1.2846
 3740SOL     OW22678   3.633   1.337  12.115  0.3277 -0.3270  0.2861
 3740SOL    HW122679   3.678   1.316  12.197  0.9199  0.5854  0.1978
 3740SOL    HW222680   3.605   1.248  12.095 -1.4218  0.2466  0.2006
 3741SOL     OW22681   3.399   1.956   1.638 -0.1649  0.0982  0.5007
 3741SOL    HW122682   3.336   1.913   1.696 -0.9654 -1.9337 -1.8433
 3741SOL    HW222683   3.356   1.948   1.553  0.1310  0.4234  0.3195
 3742SOL     OW22684   3.026   0.782   1.972 -0.5719 -0.2244 -0.1246
 3742SOL    HW122685   3.025   0.695   1.933  0.7667 -0.0481 -0.5401
 3742SOL    HW222686   2.987   0.831   1.900  2.9587  1.4619 -0.9152
 3743SOL     OW22687   1.100   2.993   9.694 -0.0107  0.3891  0.1298
 3743SOL    HW122688   1.026   2.933   9.708 -0.1564  0.4828 -0.2326
 3743SOL    HW222689   1.113   2.990   9.599  0.2839 -0.4174  0.1931
 3744SOL     OW22690   3.298   0.739   4.583  0.5894 -0.3794  0.3952
 3744SOL    HW122691   3.343   0.757   4.665  2.1320  2.0226 -0.9882
 3744SOL    HW222692   3.291   0.826   4.545 -0.5721 -0.4480  0.4351
 3745SOL     OW22693   3.166   2.829   2.753 -0.1454 -0.0174  0.7140
 3745SOL    HW122694   3.243   2.831   2.696 -0.8169  1.4545 -0.1397
 3745SOL    HW222695   3.154   2.920   2.777 -3.4918 -0.2345 -0.1338
 3746SOL     OW22696   3.015   2.562   0.086  0.3557  0.0579 -0.5527
 3746SOL    HW122697   3.000   2.595   0.174 -1.1679  1.3671 -1.2981
 3746SOL    HW222698   3.006   2.640   0.030 -2.4946 -0.6863 -1.1426
 3747SOL     OW22699   2.735   2.070   6.811 -0.0499  0.4946 -0.2575
 3747SOL    HW122700   2.813   2.123   6.792 -1.1464  2.1408 -0.1194
 3747SOL    HW222701   2.684   2.125   6.870 -1.9119 -3.8266  2.0969
 3748SOL     OW22702   0.667   0.595   3.135  0.2291  0.0355 -0.4546
 3748SOL    HW122703   0.669   0.599   3.040  1.3435  0.0234 -0.4263
 3748SOL    HW222704   0.637   0.506   3.151 -0.5325  0.4448  0.4541
 3749SOL     OW22705   2.059   2.755   2.828  0.0512 -0.0542 -0.2990
 3749SOL    HW122706   2.007   2.835   2.833 -1.2325 -0.6751 -3.3571
 3749SOL    HW222707   2.134   2.786   2.778 -0.6650  0.1267 -1.2652
 3750SOL     OW22708   0.839   3.820   5.613  0.4750 -0.2379 -0.3352
 3750SOL    HW122709   0.865   3.800   5.523 -0.1749  0.9952 -0.7989
 3750SOL    HW222710   0.746   3.800   5.612  0.7824 -1.6556 -0.2959
 3751SOL     OW22711   1.420   3.051   5.209 -0.2946 -0.0779  0.3061
 3751SOL    HW122712   1.428   3.013   5.297  0.2193 -2.1402 -0.6270
 3751SOL    HW222713   1.444   3.143   5.217 -2.7017  0.5424  0.5558
 3752SOL     OW22714   0.936   1.480   2.080 -0.1239 -0.5283  0.6041
 3752SOL    HW122715   0.967   1.526   2.157  0.7601  0.8695 -0.5750
 3752SOL    HW222716   0.878   1.551   2.051  0.8106 -0.5172 -1.2366
 3753SOL     OW22717   3.164   0.983   6.288 -0.8124  0.4479 -0.8857
 3753SOL    HW122718   3.177   1.077   6.302  0.9582 -0.2166  1.8973
 3753SOL    HW222719   3.082   0.977   6.337  0.5662 -2.2334  1.0754
 3754SOL     OW22720   2.534   3.700   6.460  0.6972 -0.3278 -0.7239
 3754SOL    HW122721   2.498   3.788   6.466 -1.2240 -1.1779  0.0267
 3754SOL    HW222722   2.499   3.681   6.373 -1.4280 -0.2726  0.1282
 3755SOL     OW22723   1.584   2.025   2.828  0.2123  0.2704  0.1984
 3755SOL    HW122724   1.605   2.085   2.757  1.2613  2.8496  2.6907
 3755SOL    HW222725   1.574   1.940   2.785 -1.9093 -0.0880  1.3995
 3756SOL     OW22726   2.349   2.691   7.920 -0.5018  0.9092 -0.0351
 3756SOL    HW122727   2.415   2.706   7.851 -0.5021 -0.6366 -0.3552
 3756SOL    HW222728   2.286   2.759   7.896 -0.3287  0.2754 -2.3066
 3757SOL     OW22729   3.637   2.308   3.394 -1.0687 -0.3358 -0.4698
 3757SOL    HW122730   3.599   2.322   3.480  0.2189 -2.6352  0.4696
 3757SOL    HW222731   3.639   2.213   3.405 -3.8231 -0.4923 -1.2819
 3758SOL     OW22732   0.548   1.766   7.953  0.4232 -0.5729 -0.0354
 3758SOL    HW122733   0.587   1.758   7.865 -1.7244  0.7013 -1.0882
 3758SOL    HW222734   0.629   1.781   8.002  0.5693  2.5770 -1.2407
 3759SOL     OW22735   1.514   1.711   0.019  0.6310  0.2848  0.4186
 3759SOL    HW122736   1.537   1.789   0.070  4.2352 -0.4839 -0.0310
 3759SOL    HW222737   1.571   1.647   0.061  0.3970 -1.3197 -1.7321
 3760SOL     OW22738   1.279   1.483   5.820 -0.1808  0.2063  0.0821
 3760SOL    HW122739   1.244   1.394   5.816 -1.3358  0.6515  0.4965
 3760SOL    HW222740   1.212   1.539   5.858 -1.4833  0.2914 -2.3813
 3761SOL     OW22741   0.470   3.925   4.717  0.2609 -0.4310 -0.0094
 3761SOL    HW122742   0.506   3.942   4.631 -1.2882  1.7229 -0.2294
 3761SOL    HW222743   0.541   3.876   4.758 -1.3376 -3.1961 -0.5334
 3762SOL     OW22744   0.099   0.292  15.920  0.9137  0.4500 -0.0583
 3762SOL    HW122745   0.028   0.356  15.920  0.1494 -0.3912  0.2955
 3762SOL    HW222746   0.160   0.346  15.970 -0.0910  0.7620  0.8375
 3763SOL     OW22747   0.536   3.528   4.136  1.2608  0.3012  0.5935
 3763SOL    HW122748   0.539   3.624   4.130  0.9783  0.2225 -0.6312
 3763SOL    HW222749   0.466   3.516   4.201 -0.2864  0.3335 -1.0814
 3764SOL     OW22750   3.062   0.109   2.426 -0.1178 -0.1282 -0.4681
 3764SOL    HW122751   2.986   0.142   2.378 -0.0345 -1.1435 -1.3008
 3764SOL    HW222752   3.135   0.122   2.365  0.5909  1.1028  0.6498
 3765SOL     OW22753   3.984   1.932   6.907 -0.2233 -0.3408  0.6929
 3765SOL    HW122754   3.960   1.936   6.999  1.8082  0.6477  1.1705
 3765SOL    HW222755   4.047   1.861   6.914 -0.9548 -0.8916  1.6913
 3766SOL     OW22756   3.639   1.992   4.339  0.0477  0.3389  0.0349
 3766SOL    HW122757   3.550   1.982   4.306 -0.2297  0.2505  0.8204
 3766SOL    HW222758   3.693   1.963   4.265  0.2735 -0.0648  0.3576
 3767SOL     OW22759   2.637   2.266   6.988 -0.4731 -0.1498 -0.1297
 3767SOL    HW122760   2.559   2.310   7.020  0.4986  0.8772  0.8432
 3767SOL    HW222761   2.659   2.211   7.063  0.2515  1.5612  0.9350
 3768SOL     OW22762   0.001   1.856   9.946  0.1002 -0.1880  0.5093
 3768SOL    HW122763   0.047   1.899   9.874 -1.8380  1.9180  0.5355
 3768SOL    HW222764   0.009   1.914  10.022  0.9821  0.1436  0.1562
 3769SOL     OW22765   3.741   2.533  10.301  0.6145  0.2701  0.2887
 3769SOL    HW122766   3.736   2.543  10.206 -0.2273  0.6173  0.3700
 3769SOL    HW222767   3.648   2.549  10.322  0.1208  0.1739 -1.8431
 3770SOL     OW22768   2.996   3.745  10.895 -0.7780 -0.7013 -0.1424
 3770SOL    HW122769   2.916   3.712  10.854 -2.0982  1.1758  0.9288
 3770SOL    HW222770   2.963   3.767  10.982 -1.6868 -1.7971 -0.2147
 3771SOL     OW22771   2.151   2.366   7.652 -0.4828 -0.1875 -0.7584
 3771SOL    HW122772   2.173   2.432   7.586 -1.4509  0.4459 -0.4453
 3771SOL    HW222773   2.206   2.392   7.726  0.2382 -2.1028 -0.6158
 3772SOL     OW22774   0.874   3.657   5.916 -0.0129  0.8909 -0.1960
 3772SOL    HW122775   0.939   3.588   5.898 -0.1449  0.7336 -0.0638
 3772SOL    HW222776   0.807   3.608   5.963  1.7082 -2.3185 -1.0647
 3773SOL     OW22777   1.625   4.536  12.291 -0.1855  0.1189 -0.0425
 3773SOL    HW122778   1.652   4.521  12.201 -1.7207  2.2961 -0.8584
 3773SOL    HW222779   1.674   4.617  12.305  0.5040 -0.5854  1.6937
 3774SOL     OW22780   1.440   4.674   7.784 -0.2973 -0.1536 -0.0202
 3774SOL    HW122781   1.355   4.659   7.744 -1.5881 -0.8970  2.9955
 3774SOL    HW222782   1.488   0.001   7.719  1.6279 -0.2730  1.2936
 3775SOL     OW22783   0.953   3.975   1.050 -0.2033  0.6461  0.0258
 3775SOL    HW122784   0.871   3.958   1.095  0.7681 -4.0597 -0.0007
 3775SOL    HW222785   1.004   3.987   1.131 -1.6452 -1.2173  1.2079
 3776SOL     OW22786   2.549   0.050   5.110  0.0190 -0.0228 -0.2754
 3776SOL    HW122787   2.616   0.034   5.043 -0.8411 -0.5326 -1.0250
 3776SOL    HW222788   2.476   4.719   5.077 -1.9175  1.5199  1.5120
 3777SOL     OW22789   3.483   0.365   4.072  0.0870  0.0497 -0.2697
 3777SOL    HW122790   3.501   0.276   4.101 -2.0715 -0.5868 -0.8730
 3777SOL    HW222791   3.531   0.419   4.135 -0.1492  0.1503 -0.1739
 3778SOL     OW22792   1.884   2.747   7.455 -0.2182 -0.3966 -0.1820
 3778SOL    HW122793   1.941   2.743   7.532 -0.1483  0.7514 -0.1759
 3778SOL    HW222794   1.855   2.656   7.456  3.3872 -1.5335  0.8760
 3779SOL     OW22795   0.598   0.042   5.096 -0.6383  0.3844 -0.5860
 3779SOL    HW122796   0.583   4.702   5.166  1.9809  0.0702 -0.2788
 3779SOL    HW222797   0.527   0.018   5.037 -0.2512 -1.0159 -0.4788
 3780SOL     OW22798   0.562   0.813   6.075 -0.6968 -0.1389 -0.6607
 3780SOL    HW122799   0.531   0.887   6.023  0.2783 -0.2389 -1.3806
 3780SOL    HW222800   0.479   0.765   6.072 -0.7342 -0.0452 -1.1913
 3781SOL     OW22801   0.698   4.105   4.488 -0.3373 -0.2668 -0.2281
 3781SOL    HW122802   0.764   4.136   4.426 -1.4518  1.2673 -0.6322
 3781SOL    HW222803   0.720   4.014   4.510  1.1007  0.5451  1.6806
 3782SOL     OW22804   1.984   0.315  10.836  0.6665 -0.0394 -0.3316
 3782SOL    HW122805   1.909   0.278  10.884 -0.0410  1.2847 -0.4033
 3782SOL    HW222806   1.995   0.242  10.775 -1.6019 -1.0628  0.4624
 3783SOL     OW22807   0.326   0.698  11.196 -0.5581  0.1836 -0.0902
 3783SOL    HW122808   0.262   0.762  11.166  0.7655  1.7295  0.4115
 3783SOL    HW222809   0.332   0.720  11.289 -0.2874 -2.2260  0.4574
 3784SOL     OW22810   1.095   2.015   7.121 -0.3891  0.2677 -0.0466
 3784SOL    HW122811   1.044   1.961   7.061 -2.2658 -1.0628  2.7936
 3784SOL    HW222812   1.038   2.027   7.197 -0.7633 -0.8035 -0.1612
 3785SOL     OW22813   1.317   2.875  10.805  0.4804  0.1677  0.1179
 3785SOL    HW122814   1.299   2.968  10.794 -0.4002 -0.0459 -0.3108
 3785SOL    HW222815   1.278   2.864  10.892  1.2944 -1.7804  0.2321
 3786SOL     OW22816   3.744   0.872   5.064 -0.6256  0.2836 -0.2787
 3786SOL    HW122817   3.712   0.921   4.988 -1.5020 -0.2673 -0.2595
 3786SOL    HW222818   3.811   0.824   5.016  0.1295 -0.0885  1.1421
 3787SOL     OW22819   2.153   4.157   6.675 -0.0859  0.1698  0.0274
 3787SOL    HW122820   2.161   4.246   6.641 -0.2735  0.6069  1.1331
 3787SOL    HW222821   2.212   4.106   6.619 -1.8631 -0.3454 -1.3864
 3788SOL     OW22822   4.157   3.430   3.053  0.3472  0.1215  0.2981
 3788SOL    HW122823   4.217   3.422   2.979 -1.0192  2.5195 -1.0723
 3788SOL    HW222824   4.082   3.419   2.995 -0.1451 -0.7537  1.1092
 3789SOL     OW22825   4.055   2.115   5.554  0.7388  0.3086 -0.1275
 3789SOL    HW122826   3.989   2.076   5.496  2.1732 -1.5089 -0.5587
 3789SOL    HW222827   4.130   2.111   5.495  0.8256  1.5203 -0.0953
 3790SOL     OW22828   2.281   3.997   8.512 -0.5612 -0.1269  0.1041
 3790SOL    HW122829   2.226   3.958   8.444 -0.4214 -0.3888  0.1438
 3790SOL    HW222830   2.294   3.920   8.566  1.0439 -0.6976 -1.0814
 3791SOL     OW22831   0.525   2.869  16.073 -0.4440  0.5060 -0.5783
 3791SOL    HW122832   0.561   2.930  16.138  0.3777 -0.3107 -0.2586
 3791SOL    HW222833   0.576   2.798  16.112  1.1182  1.7245 -0.3910
 3792SOL     OW22834   0.676   3.029  10.310  0.2891 -0.2406 -0.4922
 3792SOL    HW122835   0.587   3.062  10.292 -0.1755 -1.3355 -0.1883
 3792SOL    HW222836   0.658   2.980  10.391 -0.6859  3.1874  1.3685
 3793SOL     OW22837   0.316   1.320   6.381 -0.4190  0.0860  0.1585
 3793SOL    HW122838   0.232   1.289   6.348 -0.2649 -0.5473  0.3620
 3793SOL    HW222839   0.307   1.319   6.476  1.2476  1.2950  0.3163
 3794SOL     OW22840   4.417   0.633   3.719 -0.2097  0.1175 -0.5912
 3794SOL    HW122841   4.435   0.541   3.701 -2.9236 -0.1628 -1.7852
 3794SOL    HW222842   4.455   0.671   3.640 -0.8075 -1.3520 -1.5873
 3795SOL     OW22843   0.033   3.933  14.379  0.2520 -0.4107 -0.1992
 3795SOL    HW122844   0.077   3.969  14.302 -0.6481  1.4990  0.1722
 3795SOL    HW222845   4.717   4.010  14.419  2.8565  1.3308 -0.9562
 3796SOL     OW22846   1.998   4.399   4.240 -0.4928 -0.1432  0.2181
 3796SOL    HW122847   1.913   4.370   4.274 -0.1843 -0.0147  1.0992
 3796SOL    HW222848   2.053   4.410   4.317 -1.1720  1.5240  0.4685
 3797SOL     OW22849   3.272   3.507   8.489 -0.3347  0.0998 -0.0952
 3797SOL    HW122850   3.195   3.450   8.486 -1.1286  1.1067  1.4188
 3797SOL    HW222851   3.261   3.540   8.400  1.5730  2.0391  0.3834
 3798SOL     OW22852   3.192   2.707   3.843 -0.1559  0.5634  0.3130
 3798SOL    HW122853   3.181   2.787   3.792  0.9009 -0.0387 -0.8645
 3798SOL    HW222854   3.199   2.643   3.773 -2.7461  0.2770  0.2888
 3799SOL     OW22855   1.632   0.108   7.638  0.0182  0.0090  0.6091
 3799SOL    HW122856   1.655   0.062   7.557 -1.0984 -0.1125  0.3590
 3799SOL    HW222857   1.716   0.143   7.666  0.0756  0.4380 -0.0835
 3800SOL     OW22858   1.870   2.624   5.747  0.0441  0.1981  0.3172
 3800SOL    HW122859   1.842   2.588   5.831  1.5854 -1.9612 -0.0847
 3800SOL    HW222860   1.789   2.649   5.703  2.1356  3.6727 -1.5613
 3801SOL     OW22861   1.248   0.713  11.670  0.0424  0.0671  0.1023
 3801SOL    HW122862   1.258   0.740  11.579  1.2031  0.0402  0.2209
 3801SOL    HW222863   1.171   0.758  11.703 -0.7773  0.0026 -1.6868
 3802SOL     OW22864   0.759   2.263   1.521  0.5447 -0.2056 -0.4484
 3802SOL    HW122865   0.845   2.250   1.479  0.1534  0.4692 -1.4759
 3802SOL    HW222866   0.710   2.322   1.464 -1.2681 -0.9086  0.3925
 3803SOL     OW22867   2.358   2.369   6.451  0.1573 -0.3352 -0.1016
 3803SOL    HW122868   2.340   2.461   6.470 -0.7354 -0.5826  0.2233
 3803SOL    HW222869   2.399   2.354   6.536 -0.3305  0.1749  0.2236
 3804SOL     OW22870   0.293   1.125   0.927 -0.6183  0.5708  0.0423
 3804SOL    HW122871   0.248   1.102   0.846  1.3184 -1.8970 -0.3420
 3804SOL    HW222872   0.385   1.136   0.902 -0.7234 -0.3536 -0.7547
 3805SOL     OW22873   0.293   2.426  13.271 -0.1953 -1.2125 -0.1447
 3805SOL    HW122874   0.223   2.475  13.229 -0.1057 -1.6007 -0.7490
 3805SOL    HW222875   0.240   2.360  13.316 -0.8170  1.1715  2.6364
 3806SOL     OW22876   1.297   3.114   2.102  0.3911  0.5895  0.1845
 3806SOL    HW122877   1.350   3.062   2.162  1.1957  0.9776 -0.1851
 3806SOL    HW222878   1.265   3.187   2.156 -1.6388  1.9254 -2.8602
 3807SOL     OW22879   2.440   4.627   3.489  0.4656  0.1118 -0.2488
 3807SOL    HW122880   2.480   4.667   3.567 -0.2301  0.4298 -0.0513
 3807SOL    HW222881   2.402   4.707   3.452  0.6762 -0.5625 -1.9169
 3808SOL     OW22882   3.652   3.866   5.250  0.2724  0.0972 -0.1348
 3808SOL    HW122883   3.567   3.848   5.289 -1.5455  1.2827 -3.5308
 3808SOL    HW222884   3.644   3.813   5.171  2.0882 -2.0908  1.1479
 3809SOL     OW22885   0.823   4.446   3.690  0.0463  0.1546 -0.1842
 3809SOL    HW122886   0.756   4.513   3.701 -0.1951  0.2176 -2.0237
 3809SOL    HW222887   0.820   4.440   3.594  2.2140  1.2826 -0.3183
 3810SOL     OW22888   2.209   0.346  14.502  0.1399  0.1322  0.3906
 3810SOL    HW122889   2.201   0.422  14.444  0.9839 -1.1104 -1.3305
 3810SOL    HW222890   2.272   0.382  14.565 -0.1225  0.9981  0.1664
 3811SOL     OW22891   0.983   0.826   2.515 -0.1352 -0.6439 -0.4368
 3811SOL    HW122892   0.922   0.865   2.452  0.0207 -1.8118 -1.2994
 3811SOL    HW222893   1.060   0.811   2.461  0.1301  0.1062 -0.2726
 3812SOL     OW22894   1.747   0.655  11.208 -0.6652 -0.5915  0.0616
 3812SOL    HW122895   1.786   0.617  11.129  2.6094  1.1894  0.8001
 3812SOL    HW222896   1.783   0.611  11.286 -0.5931 -1.0354 -0.2225
 3813SOL     OW22897   3.390   4.348   6.040  0.4477 -0.3505 -0.1663
 3813SOL    HW122898   3.297   4.346   6.060  0.0384  0.2502 -2.0028
 3813SOL    HW222899   3.401   4.253   6.032  0.8468 -0.3286  0.0910
 3814SOL     OW22900   3.600   1.467   5.531  0.6406 -0.0629 -0.5599
 3814SOL    HW122901   3.691   1.493   5.515  0.0587  2.0097 -0.4801
 3814SOL    HW222902   3.559   1.472   5.444 -0.6168 -0.9121 -0.0125
 3815SOL     OW22903   1.228   1.292   7.636 -0.0081  0.6156 -0.2153
 3815SOL    HW122904   1.306   1.346   7.622 -0.1974  1.1091  0.6396
 3815SOL    HW222905   1.209   1.259   7.548 -0.2549  0.4898 -0.1143
 3816SOL     OW22906   3.709   4.056   8.989 -0.6591  0.2580  0.3380
 3816SOL    HW122907   3.639   4.050   9.054 -0.5750 -3.7934  0.0579
 3816SOL    HW222908   3.660   4.105   8.923 -0.7099 -2.6092 -1.7584
 3817SOL     OW22909   2.415   0.776   8.244  0.4421 -0.2122  0.0692
 3817SOL    HW122910   2.377   0.789   8.331  1.0684  2.9037 -0.1449
 3817SOL    HW222911   2.507   0.775   8.270  0.0948  0.1922  1.3028
 3818SOL     OW22912   0.868   4.082   6.835 -0.5187  0.3577 -0.2337
 3818SOL    HW122913   0.813   4.095   6.912  3.1700 -0.9614  2.5618
 3818SOL    HW222914   0.803   4.033   6.784  0.5368 -0.6139 -0.6335
 3819SOL     OW22915   1.533   4.014   2.173 -0.0302  0.3046 -0.8436
 3819SOL    HW122916   1.590   4.068   2.227 -0.8976 -1.3227  1.7062
 3819SOL    HW222917   1.588   3.956   2.121 -2.9445 -0.3920 -3.1957
 3820SOL     OW22918   0.652   3.547  16.220 -0.4380  0.0242  1.0314
 3820SOL    HW122919   0.679   3.468  16.173 -0.8711  1.1109 -1.0815
 3820SOL    HW222920   0.563   3.529  16.248 -1.0798 -0.8003 -1.5206
 3821SOL     OW22921   1.049   3.959  16.271  0.4975 -0.4596  0.6526
 3821SOL    HW122922   0.979   3.939  16.210  0.4742 -0.7978  0.7898
 3821SOL    HW222923   1.128   3.960  16.216  0.3122  1.8172  0.4402
 3822SOL     OW22924   0.950   2.027  11.952 -0.3889 -0.1528 -0.1730
 3822SOL    HW122925   0.948   2.116  11.986 -0.9215 -0.1042 -0.3356
 3822SOL    HW222926   1.014   2.035  11.881 -0.8649 -1.5122 -0.7612
 3823SOL     OW22927   2.409   2.821   6.080  0.6634  0.0466 -0.4539
 3823SOL    HW122928   2.437   2.809   6.171 -2.7921 -2.1405  0.3045
 3823SOL    HW222929   2.405   2.916   6.069 -0.4428 -0.2134 -2.2680
 3824SOL     OW22930   3.685   3.856   6.418  0.2069  0.2372  0.3291
 3824SOL    HW122931   3.605   3.875   6.466 -0.0994 -0.5325  0.1219
 3824SOL    HW222932   3.750   3.886   6.482  0.7101 -2.4225  1.0477
 3825SOL     OW22933   2.336   0.010   4.825  0.2869  0.0700 -0.2326
 3825SOL    HW122934   2.277   4.704   4.756  0.9463 -0.2282 -0.6647
 3825SOL    HW222935   2.334   4.663   4.890 -1.8071 -1.0190 -1.4925
 3826SOL     OW22936   1.948   0.519   3.116 -0.1231 -0.2065  0.5044
 3826SOL    HW122937   1.969   0.432   3.083  1.4023  0.0597  0.7719
 3826SOL    HW222938   1.864   0.491   3.153  0.2788 -1.9060  0.1281
 3827SOL     OW22939   2.371   1.421  15.836 -0.2016  0.0440 -0.8738
 3827SOL    HW122940   2.390   1.388  15.748  0.5613 -2.1351  0.1216
 3827SOL    HW222941   2.440   1.380  15.888 -0.2484  0.1464 -0.7300
 3828SOL     OW22942   0.060   1.422   9.519  0.4754  0.2006 -0.2714
 3828SOL    HW122943   0.152   1.422   9.545  0.2089  3.0235  0.6368
 3828SOL    HW222944   0.050   1.330   9.543  0.9551  0.0767 -0.5338
 3829SOL     OW22945   0.666   1.692   7.715 -0.5136  0.0714  0.0468
 3829SOL    HW122946   0.732   1.731   7.657 -0.9328  0.3139 -0.2645
 3829SOL    HW222947   0.734   1.646   7.765  0.7402  0.0195 -1.6983
 3830SOL     OW22948   1.129   1.177  16.746 -0.3925  0.3175 -0.5702
 3830SOL    HW122949   1.166   1.157  16.660  0.2621  0.0585 -0.2306
 3830SOL    HW222950   1.186   1.121  16.798 -1.6866 -0.6742 -0.2242
 3831SOL     OW22951   4.397   0.400   2.330 -0.0712  0.3678  0.3988
 3831SOL    HW122952   4.316   0.448   2.312 -0.6848 -1.2097 -1.0099
 3831SOL    HW222953   4.360   0.314   2.310  2.0586 -0.3217 -0.6389
 3832SOL     OW22954   3.368   3.999   2.590  0.3838 -0.2626 -0.1091
 3832SOL    HW122955   3.349   3.921   2.642 -1.8695 -0.1730 -0.8126
 3832SOL    HW222956   3.410   3.964   2.512  0.2353 -1.0085  0.1473
 3833SOL     OW22957   1.303   0.511   3.165  0.2058 -0.0888  0.4986
 3833SOL    HW122958   1.367   0.505   3.237  2.2105  1.6895 -1.1242
 3833SOL    HW222959   1.298   0.599   3.129  2.3598 -0.8474 -1.6551
 3834SOL     OW22960   3.205   0.721  13.585  0.1984  0.6639 -0.0256
 3834SOL    HW122961   3.198   0.759  13.497  0.4186  0.2508 -0.2217
 3834SOL    HW222962   3.137   0.768  13.633 -0.8381  0.1439 -0.9960
 3835SOL     OW22963   0.873   1.785  14.092 -0.0649  0.3072 -0.0038
 3835SOL    HW122964   0.964   1.790  14.123  0.0370 -0.2115 -0.2044
 3835SOL    HW222965   0.816   1.782  14.168 -0.8350  1.2161 -0.5511
 3836SOL     OW22966   0.830   1.376   3.476  0.1108 -0.1598 -0.7130
 3836SOL    HW122967   0.823   1.401   3.384 -0.4434  0.3051 -0.5410
 3836SOL    HW222968   0.893   1.440   3.510 -0.7291 -0.2980  1.1296
 3837SOL     OW22969   2.373   1.135  15.252 -0.2189 -0.1768  0.5032
 3837SOL    HW122970   2.406   1.169  15.169 -2.3968 -1.0772 -0.7496
 3837SOL    HW222971   2.340   1.214  15.294  1.8671  0.4733  0.9128
 3838SOL     OW22972   0.985   0.869   7.054 -0.0121  0.3348  0.4923
 3838SOL    HW122973   0.965   0.932   6.984  1.7559 -0.7516 -1.0168
 3838SOL    HW222974   0.911   0.875   7.114 -1.8371  2.2658 -1.9717
 3839SOL     OW22975   2.750   2.039   5.379  0.4592 -0.5110  0.1792
 3839SOL    HW122976   2.717   2.127   5.364 -1.8395 -1.2952  0.6201
 3839SOL    HW222977   2.845   2.044   5.366  0.5249 -1.9349  0.1028
 3840SOL     OW22978   3.098   1.191   5.859 -0.0039 -0.4801  0.0175
 3840SOL    HW122979   3.177   1.217   5.811 -0.4534  0.1384 -0.3859
 3840SOL    HW222980   3.108   1.102   5.893  1.5756 -0.6233 -0.7854
 3841SOL     OW22981   1.675   2.804   6.283 -0.4858  0.3330 -0.6273
 3841SOL    HW122982   1.612   2.738   6.254 -1.1502  0.9735 -0.6334
 3841SOL    HW222983   1.705   2.769   6.367 -0.2798  0.4155 -0.6652
 3842SOL     OW22984   2.286   2.431  10.603  0.1995  0.5187 -0.0042
 3842SOL    HW122985   2.334   2.512  10.616 -1.6532  1.4896  0.7807
 3842SOL    HW222986   2.318   2.370  10.669 -0.4538  0.6363  0.4257
 3843SOL     OW22987   4.265   3.801   4.101  0.1956  0.4248 -0.1578
 3843SOL    HW122988   4.325   3.816   4.028 -0.1043 -3.2369 -1.1446
 3843SOL    HW222989   4.183   3.845   4.076 -1.8656 -2.7712  1.0067
 3844SOL     OW22990   3.495   4.232   1.756  0.0631 -0.5951 -0.2893
 3844SOL    HW122991   3.454   4.152   1.723  0.7589 -1.5379  1.1225
 3844SOL    HW222992   3.574   4.247   1.705  0.4123  1.8495  0.9661
 3845SOL     OW22993   0.623   2.585   6.025  0.7637  0.1674  0.0089
 3845SOL    HW122994   0.641   2.494   6.001 -0.5899 -0.7064  2.3176
 3845SOL    HW222995   0.683   2.639   5.974  1.7845 -1.4698 -0.5175
 3846SOL     OW22996   2.043   2.424   6.355  0.1119 -0.2813  0.4646
 3846SOL    HW122997   2.022   2.353   6.415 -0.7345 -3.2093 -3.2924
 3846SOL    HW222998   2.080   2.486   6.418  0.5747 -0.1143  0.0323
 3847SOL     OW22999   4.073   1.920  10.583 -0.3250  0.1597  0.7652
 3847SOL    HW123000   4.030   2.001  10.557  1.4396  0.6250 -0.7636
 3847SOL    HW223001   4.027   1.852  10.534 -0.1131  0.4525  0.1601
 3848SOL     OW23002   2.154   3.964   8.957  0.0508 -0.1648 -0.5017
 3848SOL    HW123003   2.100   3.918   8.893 -2.3585  2.4107 -0.3179
 3848SOL    HW223004   2.227   3.903   8.961 -0.9802 -1.4000 -0.6096
 3849SOL     OW23005   3.257   1.418   7.244 -0.6940 -0.2310  0.1398
 3849SOL    HW123006   3.194   1.355   7.210  1.7523 -2.7408  0.3096
 3849SOL    HW223007   3.301   1.358   7.304 -3.3158 -1.4272  0.8871
 3850SOL     OW23008   3.126   3.381  13.938  0.3896  0.3005  0.4111
 3850SOL    HW123009   3.102   3.362  13.847 -1.6935  1.4285  0.7321
 3850SOL    HW223010   3.045   3.402  13.983 -0.0905  2.0339 -1.2387
 3851SOL     OW23011   3.926   3.509   6.067 -0.1596  0.3115  0.0568
 3851SOL    HW123012   3.998   3.505   6.004 -0.6534 -0.8895 -0.4277
 3851SOL    HW223013   3.961   3.454   6.137 -1.1305 -0.8335 -0.3432
 3852SOL     OW23014   3.773   2.389   5.771  0.4692 -0.1522  0.1638
 3852SOL    HW123015   3.823   2.388   5.690  0.5445  1.5442  0.1989
 3852SOL    HW223016   3.738   2.301   5.760  0.4227 -0.2877  1.3113
 3853SOL     OW23017   1.980   4.483   6.141  0.0557  0.5309  0.0596
 3853SOL    HW123018   2.058   4.435   6.111  0.1934  0.2040  0.9340
 3853SOL    HW223019   1.998   4.485   6.235  1.0320  0.7662 -0.1391
 3854SOL     OW23020   0.294   1.808  14.165  0.6826 -0.0059  0.3364
 3854SOL    HW123021   0.372   1.861  14.178 -0.3786  1.6628 -0.0655
 3854SOL    HW223022   0.235   1.881  14.145  1.8523  0.8209 -0.0740
 3855SOL     OW23023   0.478   3.106   1.634  0.1135  0.1137  0.0080
 3855SOL    HW123024   0.572   3.121   1.625 -0.0181  0.5557 -0.6291
 3855SOL    HW223025   0.467   3.012   1.649  0.1945  0.1222  0.1247
 3856SOL     OW23026   0.860   4.501   6.529 -0.3938 -0.4224 -0.2149
 3856SOL    HW123027   0.875   4.547   6.612  0.3474  0.0422 -0.5948
 3856SOL    HW223028   0.817   4.417   6.543 -1.4376 -0.3328 -2.9501
 3857SOL     OW23029   1.048   2.237   4.022 -0.6617 -0.3825 -0.1460
 3857SOL    HW123030   0.967   2.259   3.977 -1.2220 -0.4874  0.8190
 3857SOL    HW223031   1.113   2.281   3.966 -0.7956  0.4826  0.3858
 3858SOL     OW23032   1.218   2.359   2.838 -0.2920  0.5181  0.1336
 3858SOL    HW123033   1.287   2.310   2.882  1.2427 -0.8914 -3.8370
 3858SOL    HW223034   1.251   2.341   2.750 -1.7962  2.2385 -0.7756
 3859SOL     OW23035   3.315   1.299   0.058  0.0225  0.0916 -0.2030
 3859SOL    HW123036   3.280   1.211   0.053 -0.9574  0.4911 -0.4408
 3859SOL    HW223037   3.389   1.289   0.118 -0.2289  0.2378  0.1304
 3860SOL     OW23038   3.442   1.019   2.363 -0.7038 -0.2708 -0.3889
 3860SOL    HW123039   3.453   0.985   2.451  0.5319  1.7828  0.2454
 3860SOL    HW223040   3.526   1.061   2.345 -0.0328 -1.0671  0.9537
 3861SOL     OW23041   0.414   1.325   8.905  0.3122  0.5321  0.1820
 3861SOL    HW123042   0.440   1.414   8.883  1.1788  0.2233 -0.0156
 3861SOL    HW223043   0.320   1.344   8.913  0.6317  2.4945 -0.6298
 3862SOL     OW23044   0.191   0.698   8.469  0.1753 -0.0766  0.1617
 3862SOL    HW123045   0.265   0.711   8.528  0.6865 -1.7021 -0.1253
 3862SOL    HW223046   0.135   0.637   8.518  0.8637  0.0771  1.1215
 3863SOL     OW23047   0.448   0.224   4.183  0.5278  0.1588  0.8779
 3863SOL    HW123048   0.474   0.299   4.129 -0.0422  0.0865  0.5000
 3863SOL    HW223049   0.384   0.272   4.236  0.3375  0.9884 -0.0858
 3864SOL     OW23050   2.635   4.005   9.176  0.1760  0.0877 -0.0264
 3864SOL    HW123051   2.577   4.003   9.253 -2.1539  1.9289 -1.7183
 3864SOL    HW223052   2.611   3.922   9.136 -1.4481  0.4794  0.1198
 3865SOL     OW23053   0.361   1.104   6.151  0.2742 -0.0170  0.4790
 3865SOL    HW123054   0.330   1.079   6.238 -0.2846 -3.9103 -0.8154
 3865SOL    HW223055   0.314   1.043   6.093  1.4106 -1.5423  1.1578
 3866SOL     OW23056   0.141   0.090   4.716 -0.0045  0.6466 -0.9076
 3866SOL    HW123057   0.104   0.074   4.802 -1.0649 -3.1606 -2.0673
 3866SOL    HW223058   0.202   0.019   4.696  0.1343  1.5994 -3.9094
 3867SOL     OW23059   0.098   2.362   6.475 -0.1414 -0.3484  0.2017
 3867SOL    HW123060   0.072   2.277   6.440 -1.7409  0.1128  0.2744
 3867SOL    HW223061   0.087   2.334   6.566  0.9496  4.3162  1.7659
 3868SOL     OW23062   0.811   2.659   4.481  0.1759 -0.0667 -0.1767
 3868SOL    HW123063   0.866   2.696   4.413  1.9434  0.6886  1.6466
 3868SOL    HW223064   0.840   2.571   4.458 -1.2312  0.0141 -2.2242
 3869SOL     OW23065   0.754   1.518   1.342 -0.0412 -0.0936 -0.4252
 3869SOL    HW123066   0.774   1.605   1.307  0.7560  0.9664  2.6168
 3869SOL    HW223067   0.674   1.538   1.390  0.8491  3.3916 -0.3917
 3870SOL     OW23068   2.491   1.635   5.230  0.1391 -0.2094  0.6189
 3870SOL    HW123069   2.538   1.717   5.214 -0.6232  0.1158  0.0191
 3870SOL    HW223070   2.563   1.582   5.262 -0.1146 -0.9551 -0.0488
 3871SOL     OW23071   4.622   2.376   0.022 -0.4720  0.7336 -0.0940
 3871SOL    HW123072   4.542   2.351  17.671 -0.9287  0.0844  1.0585
 3871SOL    HW223073   4.687   2.307   0.008 -0.1705  0.9030  0.4304
 3872SOL     OW23074   2.569   0.685   8.845 -0.0250 -0.4008 -0.0222
 3872SOL    HW123075   2.599   0.603   8.884 -0.5330 -0.8756 -0.6318
 3872SOL    HW223076   2.482   0.700   8.883 -0.9631 -1.4785 -1.7796
 3873SOL     OW23077   2.538   4.248   8.164  0.1666 -0.0280  0.4638
 3873SOL    HW123078   2.457   4.227   8.210  0.4242 -0.1561  0.8561
 3873SOL    HW223079   2.592   4.178   8.200  0.0376  0.5785  1.8202
 3874SOL     OW23080   4.306   2.386   6.002 -0.5233 -0.6130 -0.2090
 3874SOL    HW123081   4.252   2.370   5.925 -0.4806 -2.7707  0.1920
 3874SOL    HW223082   4.356   2.305   6.015  0.9261  0.3418  0.1091
 3875SOL     OW23083   0.106   3.358  16.671  0.3135  0.1440 -0.2484
 3875SOL    HW123084   0.104   3.267  16.642 -1.7350  0.7062 -1.8904
 3875SOL    HW223085   0.028   3.366  16.726 -0.0286  1.8346 -0.9910
 3876SOL     OW23086   2.027   1.561  15.500  0.3158 -0.0722 -0.3829
 3876SOL    HW123087   1.945   1.582  15.545  0.7949 -1.5013  1.1461
 3876SOL    HW223088   2.082   1.568  15.578  2.3850 -1.5898 -1.7088
 3877SOL     OW23089   1.287   0.924   0.314  0.2470 -0.5904  0.1672
 3877SOL    HW123090   1.270   0.869   0.390 -1.4942  0.0483  0.2458
 3877SOL    HW223091   1.363   0.975   0.341  0.0834 -1.2312  1.8168
 3878SOL     OW23092   3.382   4.034   3.192 -0.4553  0.6766  0.5343
 3878SOL    HW123093   3.316   3.975   3.228  1.7649 -2.2799 -0.2734
 3878SOL    HW223094   3.383   3.999   3.103 -0.9491 -0.1804  0.8706
 3879SOL     OW23095   2.466   3.867   6.752 -0.4480 -0.0860 -0.0965
 3879SOL    HW123096   2.424   3.900   6.673 -0.2460 -1.5217 -0.8135
 3879SOL    HW223097   2.542   3.919   6.776  0.1816 -0.6408 -0.8916
 3880SOL     OW23098   4.382   2.110   7.919  0.5676  0.0139 -0.3609
 3880SOL    HW123099   4.352   2.020   7.904  1.8170 -0.3467 -0.7149
 3880SOL    HW223100   4.455   2.086   7.976  0.9601  0.7734 -0.5453
 3881SOL     OW23101   4.558   0.994   4.109 -0.1375  0.3198  0.1567
 3881SOL    HW123102   4.528   0.984   4.018  0.1813 -4.0615  0.5190
 3881SOL    HW223103   4.493   1.057   4.142 -0.8006  1.1287 -2.6637
 3882SOL     OW23104   0.527   2.082   5.268 -0.1787  0.1053 -0.0978
 3882SOL    HW123105   0.619   2.099   5.250  0.0861 -0.3300  0.8633
 3882SOL    HW223106   0.479   2.095   5.186 -1.3036  3.1717  1.0047
 3883SOL     OW23107   0.510   0.310  15.374  0.3448  0.0635 -0.2114
 3883SOL    HW123108   0.596   0.331  15.338  0.3735  1.6156  0.7307
 3883SOL    HW223109   0.433   0.345  15.328  0.1317 -0.0279  0.0751
 3884SOL     OW23110   1.102   4.006   6.477 -0.3873 -0.1208 -0.4391
 3884SOL    HW123111   1.008   3.990   6.485 -0.6251  1.2296 -0.5192
 3884SOL    HW223112   1.116   3.972   6.389  2.0327  1.1021 -0.5224
 3885SOL     OW23113   1.149   2.713   6.260  0.1637  0.0708 -0.2173
 3885SOL    HW123114   1.102   2.785   6.302  0.7491  0.4268 -0.1674
 3885SOL    HW223115   1.138   2.750   6.172  3.0033  0.3871 -0.4504
 3886SOL     OW23116   2.117   1.065   1.679  0.3118  0.2656  0.0373
 3886SOL    HW123117   2.187   1.120   1.644  0.1741 -0.4004 -1.2899
 3886SOL    HW223118   2.103   1.021   1.595 -1.1151 -1.4557  1.1911
 3887SOL     OW23119   3.916   3.385  14.541  0.0436  0.1984  0.0781
 3887SOL    HW123120   3.843   3.426  14.588  0.7785  1.6998 -0.1212
 3887SOL    HW223121   3.993   3.441  14.544 -0.2046  0.5205  0.4000
 3888SOL     OW23122   0.695   3.583  11.948 -0.0366  0.4359  0.0972
 3888SOL    HW123123   0.639   3.644  11.900 -0.8582 -0.7474 -0.4620
 3888SOL    HW223124   0.781   3.611  11.915  0.0025  1.4080  1.0085
 3889SOL     OW23125   3.799   1.402   1.787 -0.1800 -0.3254  0.0286
 3889SOL    HW123126   3.781   1.466   1.719  0.1455 -0.0139  0.2401
 3889SOL    HW223127   3.866   1.445   1.839 -0.5628  1.5744 -1.0356
 3890SOL     OW23128   2.996   4.339   4.048 -0.0804 -0.2309 -0.0243
 3890SOL    HW123129   2.927   4.367   3.987 -0.3367 -1.6249 -0.3680
 3890SOL    HW223130   3.066   4.396   4.017 -0.3695 -0.1769 -0.5872
 3891SOL     OW23131   0.849   3.197   4.877  0.1941 -0.1680 -0.3822
 3891SOL    HW123132   0.805   3.241   4.804 -1.0331  2.2868  1.8397
 3891SOL    HW223133   0.839   3.105   4.853  1.1985  0.1256 -1.9360
 3892SOL     OW23134   2.193   0.460   7.794 -0.7649  0.6921 -0.1467
 3892SOL    HW123135   2.198   0.555   7.803  1.2081  0.6905 -1.2564
 3892SOL    HW223136   2.232   0.424   7.874  1.7521 -0.7947 -2.0512
 3893SOL     OW23137   3.715   0.295   4.412 -0.2860 -0.1088  0.0860
 3893SOL    HW123138   3.760   0.252   4.485  1.7127  0.6866 -0.6543
 3893SOL    HW223139   3.796   0.330   4.373  1.1391 -3.5629 -0.0885
 3894SOL     OW23140   2.485   0.862   7.161 -0.4673  0.4811 -0.3343
 3894SOL    HW123141   2.561   0.873   7.219 -1.0960  0.5567  0.4817
 3894SOL    HW223142   2.417   0.874   7.227 -1.1124  2.0751 -1.2999
 3895SOL     OW23143   0.671   3.105  13.119 -0.3124 -0.0709  0.0041
 3895SOL    HW123144   0.703   3.017  13.140 -3.5432 -1.3941 -0.6324
 3895SOL    HW223145   0.730   3.164  13.165 -2.1266  0.2821  1.8958
 3896SOL     OW23146   1.142   1.333   1.374 -0.1349 -0.3686 -0.7207
 3896SOL    HW123147   1.094   1.252   1.389  2.5656 -1.8249 -0.0176
 3896SOL    HW223148   1.095   1.395   1.430 -0.1444 -1.6381  0.6514
 3897SOL     OW23149   1.936   4.281   7.468  0.5392  0.2892  0.1711
 3897SOL    HW123150   1.945   4.373   7.492  2.7274  0.6600 -2.1299
 3897SOL    HW223151   1.849   4.268   7.507  1.2287  0.4369  1.7711
 3898SOL     OW23152   0.391   1.925   9.594 -0.1608  0.8954  0.1073
 3898SOL    HW123153   0.483   1.954   9.597  0.8230 -2.1363 -0.5481
 3898SOL    HW223154   0.352   2.012   9.593 -0.0641  0.9200 -1.4864
 3899SOL     OW23155   4.592   4.699   8.749 -0.4894 -0.1117 -0.5814
 3899SOL    HW123156   4.520   4.662   8.699 -0.8527 -0.4880  0.2255
 3899SOL    HW223157   4.607   4.636   8.819 -0.2342 -1.0584 -1.4983
 3900SOL     OW23158   0.011   1.858   4.439 -0.1898 -0.7046  0.0835
 3900SOL    HW123159   4.658   1.816   4.478 -0.5821  1.0862  1.2648
 3900SOL    HW223160   0.090   1.825   4.483  1.4597 -1.4618 -3.4753
 3901SOL     OW23161   1.414   1.240   3.165 -0.5936 -0.3274  0.2599
 3901SOL    HW123162   1.456   1.165   3.207  1.4643 -0.2137 -1.5576
 3901SOL    HW223163   1.391   1.295   3.239 -0.9527 -0.3017  0.1263
 3902SOL     OW23164   3.769   4.114   9.326 -0.0794  0.4550  0.3874
 3902SOL    HW123165   3.692   4.089   9.274  1.1885  0.3553 -1.4251
 3902SOL    HW223166   3.815   4.168   9.263  1.0397 -1.3883 -0.3645
 3903SOL     OW23167   3.605   0.017   2.460 -0.5030 -0.0805  0.3230
 3903SOL    HW123168   3.635   0.093   2.410 -1.1978  0.6790  1.0636
 3903SOL    HW223169   3.534   4.711   2.403 -1.3091  1.0129  0.7596
 3904SOL     OW23170   3.720   4.295   9.631  0.0116  0.3834  0.0136
 3904SOL    HW123171   3.709   4.300   9.726 -1.4610  0.7686 -0.1761
 3904SOL    HW223172   3.809   4.260   9.630 -0.6969 -1.4227 -0.4437
 3905SOL     OW23173   3.867   1.820  10.399  0.5775  0.2258 -0.0454
 3905SOL    HW123174   3.852   1.910  10.370  2.0403  0.3895 -0.2667
 3905SOL    HW223175   3.857   1.766  10.321  1.7793  1.2244 -0.8883
 3906SOL     OW23176   3.916   3.636  16.904 -0.4277  0.2473  0.1343
 3906SOL    HW123177   3.872   3.720  16.894  2.9149  1.6257 -3.1298
 3906SOL    HW223178   3.859   3.587  16.964  0.9074 -3.2908 -1.4727
 3907SOL     OW23179   2.448   3.707   0.689 -0.4283 -0.0521  0.8766
 3907SOL    HW123180   2.513   3.655   0.736  1.1574  0.2566 -0.9625
 3907SOL    HW223181   2.507   3.746   0.624  0.6279 -3.6315 -0.2986
 3908SOL     OW23182   0.316   2.807  10.359 -0.2017  0.1923  0.1333
 3908SOL    HW123183   0.255   2.868  10.402 -0.8645  0.7092 -1.5508
 3908SOL    HW223184   0.387   2.815  10.423  0.2191  0.5703 -0.3779
 3909SOL     OW23185   3.705   4.423   2.780 -0.1518 -0.1140 -0.3944
 3909SOL    HW123186   3.650   4.345   2.785  1.7096 -1.5947 -2.4923
 3909SOL    HW223187   3.681   4.474   2.857  1.9745 -1.1767  0.9999
 3910SOL     OW23188   3.613   4.303   2.007 -0.1877  0.0580  0.3147
 3910SOL    HW123189   3.568   4.285   1.924  0.8318 -0.2312 -0.1859
 3910SOL    HW223190   3.694   4.258   1.984 -0.4242 -0.8885  1.3160
 3911SOL     OW23191   4.633   0.695   4.543  0.5325  0.5210  0.0192
 3911SOL    HW123192   4.688   0.618   4.532  0.0151  0.3369 -1.4243
 3911SOL    HW223193   4.641   0.742   4.459 -2.0421 -0.1019 -0.6007
 3912SOL     OW23194   4.205   3.348   1.666 -0.1809  0.1659 -0.0817
 3912SOL    HW123195   4.187   3.301   1.748  1.2229 -0.5340 -0.1650
 3912SOL    HW223196   4.143   3.419   1.680 -0.9154 -0.6767  0.9909
 3913SOL     OW23197   0.804   4.644   2.573  0.4310 -0.0318  0.3340
 3913SOL    HW123198   0.742   4.572   2.587 -2.6344  2.8248  1.7520
 3913SOL    HW223199   0.835   4.659   2.662 -0.7649  0.4405  0.6822
 3914SOL     OW23200   1.921   2.739   4.857 -0.0121 -0.3585  0.8429
 3914SOL    HW123201   2.005   2.698   4.835 -0.0281  1.0554 -1.8595
 3914SOL    HW223202   1.866   2.671   4.818  0.5064  0.2016 -0.8672
 3915SOL     OW23203   0.387   3.483  15.789 -0.2377  0.1226  0.6646
 3915SOL    HW123204   0.482   3.492  15.801 -0.0855  1.1234 -1.3286
 3915SOL    HW223205   0.360   3.466  15.879 -3.0738 -1.9747 -0.6089
 3916SOL     OW23206   2.829   0.434   1.720  0.6330 -0.3886  0.3936
 3916SOL    HW123207   2.761   0.501   1.722  1.6336  0.5779  2.1186
 3916SOL    HW223208   2.827   0.395   1.633 -0.7038  0.8723 -0.1421
 3917SOL     OW23209   2.876   0.900   4.790  0.4426 -0.1625  0.2115
 3917SOL    HW123210   2.808   0.851   4.837 -0.3378 -0.0748 -0.8279
 3917SOL    HW223211   2.837   0.909   4.703 -2.0509 -0.9676  1.2264
 3918SOL     OW23212   2.085   2.538   8.379 -0.3739  0.2943  0.7075
 3918SOL    HW123213   2.051   2.517   8.292 -0.8911  0.6437  0.8308
 3918SOL    HW223214   2.160   2.582   8.339 -0.4744 -0.6396 -0.4909
 3919SOL     OW23215   1.753   2.945   6.865 -0.3249 -0.7452 -0.1219
 3919SOL    HW123216   1.725   3.000   6.792  1.8859  0.5173 -0.0447
 3919SOL    HW223217   1.788   2.998   6.937 -0.8392  0.1145 -0.5008
 3920SOL     OW23218   2.758   0.891   5.709  0.4039  0.0326  0.2001
 3920SOL    HW123219   2.764   0.799   5.735 -1.5604 -0.4028 -0.8853
 3920SOL    HW223220   2.709   0.918   5.788  0.5497  1.4721 -0.1969
 3921SOL     OW23221   4.314   0.160   4.123  0.2361 -1.1870 -0.0585
 3921SOL    HW123222   4.349   0.124   4.042 -1.0480 -0.6584 -0.8423
 3921SOL    HW223223   4.223   0.132   4.122  0.5764 -2.2302 -0.8503
 3922SOL     OW23224   0.472   4.461   8.745 -0.5282 -0.5952 -0.0291
 3922SOL    HW123225   0.556   4.506   8.746  0.1947 -1.9433 -1.8918
 3922SOL    HW223226   0.430   4.520   8.682  1.0358  1.5284  0.9303
 3923SOL     OW23227   3.920   1.184  15.210  0.2010  0.3946 -0.2329
 3923SOL    HW123228   3.916   1.194  15.115 -0.5080  0.9210 -0.1535
 3923SOL    HW223229   4.003   1.228  15.229  0.6003 -1.1550  1.5203
 3924SOL     OW23230   0.779   3.358   1.819  0.0654 -0.5427  0.3830
 3924SOL    HW123231   0.723   3.282   1.832  0.3835 -0.7547  0.5291
 3924SOL    HW223232   0.848   3.320   1.874  0.4231 -0.8997 -0.3086
 3925SOL     OW23233   0.923   1.781   6.708  0.0133 -0.6422 -0.2073
 3925SOL    HW123234   0.916   1.855   6.648 -0.6313  1.2109  2.1575
 3925SOL    HW223235   0.863   1.810   6.777  0.8337 -0.8930  0.6113
 3926SOL     OW23236   3.454   4.687  11.409  0.0748  0.0559  0.3762
 3926SOL    HW123237   3.454   4.646  11.323  1.3214  1.5058 -0.3333
 3926SOL    HW223238   3.549   4.696  11.424  0.5985  1.3790 -3.7854
 3927SOL     OW23239   2.351   3.121  12.289  0.0662  0.6955 -0.0575
 3927SOL    HW123240   2.268   3.094  12.329  0.1659  1.5519  0.7383
 3927SOL    HW223241   2.417   3.106  12.356  0.6539 -0.1584 -0.8390
 3928SOL     OW23242   2.523   3.277   3.510 -0.1890  0.3185  0.1438
 3928SOL    HW123243   2.439   3.321   3.518  0.3765  1.6710 -1.3796
 3928SOL    HW223244   2.518   3.254   3.417  2.9021  2.0272 -0.4350
 3929SOL     OW23245   2.698   1.712   2.481 -0.9036 -0.3818  0.4415
 3929SOL    HW123246   2.793   1.710   2.496 -0.7879  1.6875  0.1152
 3929SOL    HW223247   2.651   1.672   2.553  0.1915 -1.4416  0.5651
 3930SOL     OW23248   3.075   0.317   7.469 -0.2606 -0.0488 -0.0226
 3930SOL    HW123249   3.138   0.268   7.418  1.4456  2.7428 -0.5771
 3930SOL    HW223250   2.989   0.276   7.456 -0.4667  0.3657  0.0111
 3931SOL     OW23251   3.651   2.454  12.417  0.6198  0.4998  0.9388
 3931SOL    HW123252   3.677   2.472  12.327 -2.0597  0.0321  0.0578
 3931SOL    HW223253   3.644   2.359  12.418 -2.4139  0.6918 -2.5699
 3932SOL     OW23254   0.168   2.929   4.561 -0.7152 -0.4710  0.0293
 3932SOL    HW123255   0.248   2.876   4.570  0.3517  1.3927  1.6076
 3932SOL    HW223256   0.208   3.016   4.554 -0.8580 -0.4726 -0.7953
 3933SOL     OW23257   3.124   1.051   3.110  0.8674  0.5033  0.4899
 3933SOL    HW123258   3.132   0.975   3.052  1.3641  2.2787 -1.7233
 3933SOL    HW223259   3.166   1.120   3.060 -0.8838  1.7070  0.6627
 3934SOL     OW23260   1.581   3.829  16.475 -0.2475 -0.3757 -0.0954
 3934SOL    HW123261   1.630   3.753  16.444  1.3791  0.8420 -0.4384
 3934SOL    HW223262   1.637   3.862  16.545  0.6238 -0.6641 -0.6657
 3935SOL     OW23263   3.774   0.017   3.476 -0.4019  0.0508  0.2108
 3935SOL    HW123264   3.804   0.108   3.468 -1.9109  0.6460  1.2901
 3935SOL    HW223265   3.786   4.721   3.569  0.6156 -2.7721 -0.4949
 3936SOL     OW23266   4.647   3.880   9.195 -0.4125  0.0102  0.1489
 3936SOL    HW123267   4.655   3.793   9.156 -2.6175 -0.9513  1.7929
 3936SOL    HW223268   4.684   3.857   9.280 -2.8908  0.7743  1.4422
 3937SOL     OW23269   0.732   1.780  13.581  0.7406 -0.7224 -0.1964
 3937SOL    HW123270   0.730   1.688  13.604  2.3474 -1.0274 -1.3284
 3937SOL    HW223271   0.707   1.769  13.489 -0.3856  0.7104 -0.0734
 3938SOL     OW23272   0.506   4.111   4.120 -0.2643 -0.1229 -0.6484
 3938SOL    HW123273   0.570   4.182   4.125  0.5386 -0.7752 -1.6356
 3938SOL    HW223274   0.479   4.119   4.029  2.1786 -0.1712 -1.3789
 3939SOL     OW23275   3.552   1.722   6.137  0.0375 -0.5051 -0.8242
 3939SOL    HW123276   3.501   1.748   6.061  0.3454  0.7563 -0.6016
 3939SOL    HW223277   3.514   1.772   6.209  0.1418 -0.1670 -1.0038
 3940SOL     OW23278   1.290   0.743  11.410 -0.0619 -0.5642  0.5009
 3940SOL    HW123279   1.207   0.733  11.365 -0.1833 -2.6324  1.1705
 3940SOL    HW223280   1.352   0.783  11.349  0.1112 -1.6103 -0.0033
 3941SOL     OW23281   0.837   1.151   7.686  1.0639 -0.0103 -0.0489
 3941SOL    HW123282   0.895   1.213   7.643  0.2020  2.2591  2.0907
 3941SOL    HW223283   0.880   1.137   7.770 -0.7422 -1.0301  0.7111
 3942SOL     OW23284   4.051   0.288  15.876 -0.3416 -0.8077 -0.5427
 3942SOL    HW123285   4.094   0.293  15.791  0.0013  1.0236 -0.2651
 3942SOL    HW223286   4.065   0.201  15.913 -0.5122  0.7081  3.1301
 3943SOL     OW23287   3.637   1.769  17.549  0.7738 -0.4973  0.2592
 3943SOL    HW123288   3.641   1.681  17.586 -1.3819  0.2103  2.1701
 3943SOL    HW223289   3.729   1.796  17.545  0.6180 -0.1874 -1.1927
 3944SOL     OW23290   0.431   0.136   7.420 -0.3746 -0.0998  0.2810
 3944SOL    HW123291   0.467   0.103   7.338  2.2538 -1.3879  1.9548
 3944SOL    HW223292   0.337   0.131   7.404 -0.4320 -0.4786  0.7298
 3945SOL     OW23293   0.516   3.824  15.960 -0.0892  0.3579 -0.2402
 3945SOL    HW123294   0.588   3.885  15.974  1.6416 -1.1111 -2.9087
 3945SOL    HW223295   0.444   3.884  15.982 -0.8590 -0.9759  0.9029
 3946SOL     OW23296   1.934   4.223  16.776 -0.6120  0.2703  0.2153
 3946SOL    HW123297   1.999   4.293  16.773  1.2184 -1.3739  1.5094
 3946SOL    HW223298   1.879   4.262  16.843  1.3452  0.1442  1.8796
 3947SOL     OW23299   0.028   0.040   7.594 -0.4273  0.2113 -0.4300
 3947SOL    HW123300   0.085   0.071   7.523 -0.2480  0.1141 -0.3286
 3947SOL    HW223301   4.683   0.106   7.581 -0.0131  0.7503  0.1329
 3948SOL     OW23302   0.218   3.237   1.589  0.5375 -0.1797 -0.1259
 3948SOL    HW123303   0.214   3.261   1.681 -1.5875 -0.4417 -0.1465
 3948SOL    HW223304   0.298   3.184   1.594 -0.1904 -1.1805  0.6699
 3949SOL     OW23305   0.383   1.476   3.172  0.0096  0.0738 -0.0144
 3949SOL    HW123306   0.357   1.430   3.093 -0.9698  1.0568 -0.2616
 3949SOL    HW223307   0.399   1.565   3.139  0.5864 -0.6423 -1.6278
 3950SOL     OW23308   0.043   1.205   5.842 -0.0259 -0.5206 -0.4921
 3950SOL    HW123309   4.697   1.169   5.786 -0.0183 -1.1923 -0.0817
 3950SOL    HW223310   4.721   1.256   5.910 -0.0617 -1.0255 -0.1331
 3951SOL     OW23311   1.704   2.656   7.807  0.0099 -0.0966  0.1738
 3951SOL    HW123312   1.624   2.670   7.858  2.4188 -2.3558  4.5222
 3951SOL    HW223313   1.681   2.568   7.775 -1.7537  1.1349 -1.9603
 3952SOL     OW23314   2.484   4.633   6.268 -0.1817  0.2356 -0.2049
 3952SOL    HW123315   2.486   4.722   6.235  1.1103  1.0898  2.1916
 3952SOL    HW223316   2.414   4.593   6.216 -1.1084  0.5306  0.8152
 3953SOL     OW23317   4.318   4.445   5.899  0.3324  0.0516 -0.4580
 3953SOL    HW123318   4.317   4.380   5.829 -0.2032 -1.2079  0.6959
 3953SOL    HW223319   4.228   4.444   5.931  0.0487 -0.4416 -1.2764
 3954SOL     OW23320   2.846   4.015  10.177 -0.2119 -0.1757  0.2569
 3954SOL    HW123321   2.923   3.994  10.123 -0.5943 -0.0592 -0.3415
 3954SOL    HW223322   2.871   3.969  10.257  1.4129  1.5905  0.7502
 3955SOL     OW23323   1.708   1.604  12.542  0.2045  0.3309  0.1430
 3955SOL    HW123324   1.786   1.589  12.488  0.0499  1.0227 -0.2726
 3955SOL    HW223325   1.717   1.539  12.611  0.2319  2.2078  1.8932
 3956SOL     OW23326   3.704   3.940   1.279 -0.0510 -0.0893  0.8368
 3956SOL    HW123327   3.658   4.022   1.262 -0.8273 -1.0342 -1.7129
 3956SOL    HW223328   3.797   3.964   1.273  0.5713 -3.0900 -1.7033
 3957SOL     OW23329   0.536   3.187   0.876 -0.5077 -0.0311 -0.3156
 3957SOL    HW123330   0.607   3.175   0.814 -1.0483 -0.1982 -0.9057
 3957SOL    HW223331   0.534   3.282   0.867  2.5195 -0.0247 -0.6763
 3958SOL     OW23332   4.018   3.740   9.776  0.4733  0.2307  0.0037
 3958SOL    HW123333   4.068   3.725   9.856 -0.4429 -0.1675  0.4908
 3958SOL    HW223334   3.942   3.686   9.794  0.5840  0.1306  0.1668
 3959SOL     OW23335   4.551   4.273   6.211 -0.2320  0.1566  0.1062
 3959SOL    HW123336   4.505   4.333   6.270 -1.2764 -0.0895 -0.4697
 3959SOL    HW223337   4.491   4.250   6.140  0.2147 -0.0689 -0.2019
 3960SOL     OW23338   4.708   2.731   8.316  0.3715 -0.0549 -0.1573
 3960SOL    HW123339   0.037   2.811   8.310  0.9934 -0.5024 -0.5968
 3960SOL    HW223340   0.022   2.698   8.398 -1.3965  1.3370  1.2322
 3961SOL     OW23341   2.331   2.361   3.598 -0.6771 -0.4612 -0.6528
 3961SOL    HW123342   2.278   2.437   3.573  2.1207  1.9423  0.7107
 3961SOL    HW223343   2.305   2.353   3.690 -0.3429  0.5229 -0.4771
 3962SOL     OW23344   3.005   0.862  13.692 -0.6701  0.4151 -0.6017
 3962SOL    HW123345   2.924   0.907  13.716  0.4679  2.0754  0.1072
 3962SOL    HW223346   3.003   0.794  13.760 -0.8444  2.2557  1.2148
 3963SOL     OW23347   2.656   4.114   4.969 -0.3411  0.2883 -0.8853
 3963SOL    HW123348   2.704   4.043   4.925 -0.2257 -0.7184  0.8563
 3963SOL    HW223349   2.574   4.082   5.008  1.2299  0.6900  2.6654
 3964SOL     OW23350   4.133   0.243  12.478  0.4055  0.1657 -0.3219
 3964SOL    HW123351   4.215   0.200  12.456 -0.5057 -1.1625 -1.1412
 3964SOL    HW223352   4.164   0.332  12.494 -0.8496  0.7843 -1.2757
 3965SOL     OW23353   4.157   3.446   8.284 -0.1756  1.0203 -0.3266
 3965SOL    HW123354   4.081   3.400   8.319  0.0806  1.1457  0.3931
 3965SOL    HW223355   4.139   3.536   8.310  0.4876  1.2350 -0.6284
 3966SOL     OW23356   4.486   3.139   2.811  0.1418  0.2700  0.2316
 3966SOL    HW123357   4.517   3.097   2.891  0.3865 -2.7257 -1.3964
 3966SOL    HW223358   4.434   3.071   2.767  0.1069 -1.0031  2.2190
 3967SOL     OW23359   3.617   3.133   2.906 -0.3442 -0.0786  0.0252
 3967SOL    HW123360   3.709   3.114   2.927 -0.8479 -0.9086  1.4871
 3967SOL    HW223361   3.631   3.139   2.811 -0.8831  1.5989  0.0565
 3968SOL     OW23362   4.303   2.013  13.738 -0.1976 -0.4665  0.1950
 3968SOL    HW123363   4.220   1.973  13.715 -0.9138  0.6609  0.7901
 3968SOL    HW223364   4.345   2.017  13.652  2.0944  0.2259  1.3328
 3969SOL     OW23365   0.626   1.337   7.756  0.4213 -0.3628 -0.1462
 3969SOL    HW123366   0.680   1.266   7.722 -0.6568 -0.3998 -1.7810
 3969SOL    HW223367   0.696   1.396   7.785  0.0353 -0.5632  1.2142
 3970SOL     OW23368   1.353   0.514   9.103 -0.4235  0.0798 -0.3388
 3970SOL    HW123369   1.282   0.544   9.160  0.5713  0.6560  0.5988
 3970SOL    HW223370   1.316   0.438   9.059 -1.3570 -0.0123  0.5999
 3971SOL     OW23371   4.613   4.631   3.822 -0.2647  0.9145  0.1163
 3971SOL    HW123372   4.614   4.596   3.733  0.0773  1.6190 -0.1576
 3971SOL    HW223373   4.703   4.611   3.848 -0.4332 -1.3520 -1.1262
 3972SOL     OW23374   2.763   1.047   8.049 -0.3513  0.1810  0.3813
 3972SOL    HW123375   2.846   1.085   8.078 -0.7112 -0.0648  1.7649
 3972SOL    HW223376   2.721   1.016   8.130 -2.4719 -0.0184 -0.7871
 3973SOL     OW23377   3.038   1.921  13.530  0.2370 -0.4081  0.3429
 3973SOL    HW123378   3.111   1.978  13.553  1.2567 -1.0475 -1.3081
 3973SOL    HW223379   3.089   1.851  13.489 -0.4844  0.1052 -1.4389
 3974SOL     OW23380   0.532   2.745  16.672 -0.2315 -0.0688 -0.3257
 3974SOL    HW123381   0.469   2.689  16.717 -1.1966 -1.8345 -3.9104
 3974SOL    HW223382   0.558   2.692  16.597  1.8996  1.0203 -0.3491
 3975SOL     OW23383   0.566   1.504   0.443 -0.4275  0.4287  0.0002
 3975SOL    HW123384   0.530   1.593   0.443 -0.8089  0.2765 -0.5275
 3975SOL    HW223385   0.486   1.451   0.444 -1.1862  1.5449 -0.8874
 3976SOL     OW23386   3.780   3.546   1.819  0.6314  0.2808 -0.7350
 3976SOL    HW123387   3.710   3.611   1.820 -0.6699 -1.1700  2.4878
 3976SOL    HW223388   3.736   3.462   1.806  0.3291  0.0819  1.6246
 3977SOL     OW23389   2.538   3.064  16.489 -0.5892 -0.4086 -0.4319
 3977SOL    HW123390   2.483   3.035  16.416 -0.9091 -2.4626  0.6363
 3977SOL    HW223391   2.535   2.991  16.550  0.2002  1.0562  1.3876
 3978SOL     OW23392   4.093   3.249   6.977  0.4876  0.1253  0.4382
 3978SOL    HW123393   4.187   3.252   6.962  0.3070  1.4378 -0.4696
 3978SOL    HW223394   4.055   3.275   6.893  0.3189  1.3473  0.8928
 3979SOL     OW23395   3.055   0.965   3.910  0.9999 -0.6769  0.0835
 3979SOL    HW123396   2.963   0.954   3.886  0.4000 -0.1502  2.1410
 3979SOL    HW223397   3.075   1.038   3.851 -0.3958  0.7992  1.4183
 3980SOL     OW23398   3.359   4.533   3.651 -0.7603  0.9916  0.0567
 3980SOL    HW123399   3.381   4.545   3.559 -0.7091 -0.5294 -0.1291
 3980SOL    HW223400   3.447   4.508   3.679 -0.4689 -0.5340 -2.1956
 3981SOL     OW23401   0.370   3.284  15.072 -0.3231 -0.1272  0.0566
 3981SOL    HW123402   0.278   3.281  15.046 -0.3206  0.7925 -0.0341
 3981SOL    HW223403   0.382   3.376  15.096  1.0934 -0.5905  1.1345
 3982SOL     OW23404   2.316   0.955   6.043 -0.2378 -0.8103  0.1945
 3982SOL    HW123405   2.254   1.003   5.988 -1.8521 -2.0569  0.9269
 3982SOL    HW223406   2.378   1.026   6.055 -1.4559  0.3205 -0.1872
 3983SOL     OW23407   2.446   2.418   5.225 -0.6650  0.6733 -0.5577
 3983SOL    HW123408   2.426   2.495   5.278 -0.2807 -0.7185  1.5961
 3983SOL    HW223409   2.391   2.360   5.277 -2.9890  3.0758 -0.3819
 3984SOL     OW23410   1.847   4.503  15.869  0.1986 -0.1707  0.5340
 3984SOL    HW123411   1.797   4.427  15.899 -0.3221  0.3073  0.8650
 3984SOL    HW223412   1.880   4.472  15.785  1.8999  2.3649  0.2569
 3985SOL     OW23413   4.719   2.937   8.904 -0.4504  0.4125  0.3036
 3985SOL    HW123414   4.659   2.939   8.830 -0.6229 -1.3823  0.3934
 3985SOL    HW223415   0.043   3.019   8.891  0.8739 -1.0133 -3.6021
 3986SOL     OW23416   0.251   0.938   9.603 -0.3394  0.2599  0.9646
 3986SOL    HW123417   0.337   0.930   9.646  1.0191  0.2556 -1.7338
 3986SOL    HW223418   0.272   0.988   9.524  0.6244 -1.0748  0.3867
 3987SOL     OW23419   0.401   2.363   3.316  0.3727  0.0436  0.0891
 3987SOL    HW123420   0.322   2.309   3.309  0.6989 -0.9803  4.2940
 3987SOL    HW223421   0.384   2.418   3.239  1.3567  0.6578  0.3122
 3988SOL     OW23422   1.101   2.280  15.316  0.0934  0.1027 -0.1078
 3988SOL    HW123423   1.069   2.193  15.295  1.0016 -0.0839 -0.7259
 3988SOL    HW223424   1.077   2.332  15.239 -2.7322 -0.7264  0.2000
 3989SOL     OW23425   3.642   1.517  17.673  0.0630  0.1160 -0.5279
 3989SOL    HW123426   3.579   1.497  17.604 -0.0773 -1.8457  0.1625
 3989SOL    HW223427   3.623   1.463   0.055 -0.1746 -1.2021 -1.5193
 3990SOL     OW23428   0.186   2.140  14.050  0.2887 -0.5041  0.0677
 3990SOL    HW123429   0.235   2.205  14.000  1.1557 -2.6879 -1.8928
 3990SOL    HW223430   0.244   2.131  14.126  0.3396  0.2589  0.1213
 3991SOL     OW23431   2.018   3.799   8.786 -0.2881  0.3862  0.2853
 3991SOL    HW123432   1.990   3.708   8.789  0.9621 -0.0238 -0.2222
 3991SOL    HW223433   2.041   3.808   8.693  3.9663 -2.0723  1.0998
 3992SOL     OW23434   0.864   3.554  15.850 -0.1170  0.0364  0.4495
 3992SOL    HW123435   0.789   3.539  15.906 -1.2421  0.6970 -0.8820
 3992SOL    HW223436   0.866   3.649  15.842 -2.9471 -0.1110 -1.9232
 3993SOL     OW23437   0.376   4.450  15.337 -0.7802 -0.6682  0.1058
 3993SOL    HW123438   0.468   4.476  15.345 -1.5992  2.0180  0.4506
 3993SOL    HW223439   0.359   4.419  15.426  1.7954 -1.5796  0.3071
 3994SOL     OW23440   1.151   4.660  11.216  0.3074  0.8648 -0.0883
 3994SOL    HW123441   1.111   4.581  11.254  0.1814  0.8289 -0.3014
 3994SOL    HW223442   1.225   4.625  11.166  0.8361  1.5574  0.2110
 3995SOL     OW23443   3.035   3.238   1.102 -0.0127  0.0257  0.3421
 3995SOL    HW123444   3.106   3.234   1.038  0.8708 -0.8568  1.3650
 3995SOL    HW223445   3.045   3.150   1.137  0.2002 -0.0449  0.1027
 3996SOL     OW23446   1.603   4.378  17.579 -0.6717  0.0224  0.3236
 3996SOL    HW123447   1.518   4.360  17.540  0.2152 -0.0130 -1.5933
 3996SOL    HW223448   1.580   4.464  17.612  1.3036  0.2083  1.2052
 3997SOL     OW23449   4.660   3.895  12.361 -0.0751 -0.5922  0.2334
 3997SOL    HW123450   4.569   3.903  12.391 -0.1167  1.4494 -0.4034
 3997SOL    HW223451   4.708   3.969  12.398  0.6185  0.1797 -2.2184
 3998SOL     OW23452   0.083   2.676   5.365  0.1153  0.3232  0.6496
 3998SOL    HW123453   0.047   2.662   5.453 -2.8351 -1.5833 -0.8486
 3998SOL    HW223454   0.102   2.770   5.364 -1.2548  0.6212  2.4353
 3999SOL     OW23455   0.055   1.201   6.441  0.8111  0.1071 -0.0861
 3999SOL    HW123456   0.050   1.113   6.480  0.8680  0.3654  0.5081
 3999SOL    HW223457   0.080   1.252   6.518 -2.0884 -0.7214  1.3832
 4000SOL     OW23458   0.635   3.339   6.414 -0.3860 -0.3152 -0.0392
 4000SOL    HW123459   0.586   3.349   6.333  0.2160  0.9671 -0.2430
 4000SOL    HW223460   0.564   3.307   6.470  0.0916 -1.4854 -0.0889
 4001SOL     OW23461   2.322   4.349  10.431 -0.3053 -0.1856 -0.7868
 4001SOL    HW123462   2.338   4.429  10.482  0.1719 -1.2870  0.7957
 4001SOL    HW223463   2.387   4.349  10.361  0.5772  0.2180  0.0336
 4002SOL     OW23464   1.506   1.790  16.634  0.4132 -0.5509 -0.2182
 4002SOL    HW123465   1.477   1.780  16.543  0.2271  0.2800 -0.2511
 4002SOL    HW223466   1.426   1.758  16.676  0.5325  0.0187  0.4436
 4003SOL     OW23467   0.697   2.873   7.884  0.1073  0.0215 -0.4025
 4003SOL    HW123468   0.781   2.829   7.891 -0.8647 -1.8280 -0.2911
 4003SOL    HW223469   0.678   2.831   7.800 -1.4323 -1.6005  0.7454
 4004SOL     OW23470   1.819   1.381  17.317  0.1207 -0.9604  0.3114
 4004SOL    HW123471   1.772   1.302  17.290 -0.6526 -0.7160  0.9492
 4004SOL    HW223472   1.850   1.346  17.401  1.3783  0.2564  0.3697
 4005SOL     OW23473   2.794   1.418  12.978  0.1156 -0.1662  0.9192
 4005SOL    HW123474   2.731   1.349  13.001 -0.5442 -0.2402 -1.0418
 4005SOL    HW223475   2.874   1.369  12.964  0.4365  0.5617  0.1678
 4006SOL     OW23476   4.529   2.134   4.772  0.0599  0.6463 -0.2196
 4006SOL    HW123477   4.506   2.056   4.823 -0.9894  1.2944  0.3065
 4006SOL    HW223478   4.622   2.121   4.755  0.0168 -1.0980  0.9041
 4007SOL     OW23479   4.652   1.166   2.558  0.3675 -0.5429  0.0340
 4007SOL    HW123480   4.644   1.235   2.623 -1.9114 -0.9100  0.1645
 4007SOL    HW223481   0.021   1.143   2.569 -0.4747 -2.6774  2.5671
 4008SOL     OW23482   2.719   0.886   2.746 -0.0405  0.4315  0.0017
 4008SOL    HW123483   2.703   0.898   2.652 -1.3310  1.0095  0.2964
 4008SOL    HW223484   2.736   0.971   2.786 -0.5038  0.8704 -0.7400
 4009SOL     OW23485   3.648   0.430   5.615  0.3177  0.3043 -0.5414
 4009SOL    HW123486   3.714   0.485   5.657 -1.1799  0.0370  2.1724
 4009SOL    HW223487   3.578   0.494   5.625 -0.2527 -0.5287  0.8822
 4010SOL     OW23488   1.916   3.625   5.689  0.1736  0.1179 -0.2492
 4010SOL    HW123489   1.886   3.714   5.707 -0.0460  0.1434 -0.7253
 4010SOL    HW223490   1.833   3.577   5.681  0.3067  0.0483 -1.2544
 4011SOL     OW23491   3.967   2.913   9.235 -0.0604 -0.1975 -0.4656
 4011SOL    HW123492   3.946   3.004   9.214 -0.0113  0.4919  2.4596
 4011SOL    HW223493   4.058   2.929   9.257  0.8472 -2.0950 -2.8388
 4012SOL     OW23494   0.091   0.493   4.450  0.9733 -0.0367 -0.2808
 4012SOL    HW123495   0.171   0.473   4.402  1.1922 -0.6615  0.3353
 4012SOL    HW223496   0.124   0.463   4.535  0.8375  0.1017 -0.1788
 4013SOL     OW23497   0.896   0.631   4.184  0.1064  0.2008  0.6826
 4013SOL    HW123498   0.906   0.726   4.183 -0.1749  0.1971 -1.5063
 4013SOL    HW223499   0.841   0.618   4.107 -0.1098 -0.0538  0.8796
 4014SOL     OW23500   3.262   4.411  14.087  0.3017  0.5381 -0.5983
 4014SOL    HW123501   3.293   4.331  14.129  0.1438  0.3477 -0.8479
 4014SOL    HW223502   3.343   4.456  14.113 -0.2269  0.7441  0.7012
 4015SOL     OW23503   0.415   2.509   9.330 -0.4182 -0.0431  0.1442
 4015SOL    HW123504   0.471   2.584   9.350 -2.0678  0.9891  0.9189
 4015SOL    HW223505   0.438   2.505   9.237  4.0871  0.7783  1.2130
 4016SOL     OW23506   4.248   2.979  12.927  0.2015  0.1586 -0.3708
 4016SOL    HW123507   4.219   2.906  12.872 -1.0284  0.5078 -0.1798
 4016SOL    HW223508   4.304   3.016  12.859 -0.1854 -0.4557 -1.0256
 4017SOL     OW23509   3.663   3.163  14.430  0.1723  0.6280  0.2300
 4017SOL    HW123510   3.643   3.257  14.433  0.6228  0.8016 -1.8534
 4017SOL    HW223511   3.582   3.120  14.457  1.4466 -1.3058  0.9540
 4018SOL     OW23512   0.211   2.071   2.473 -0.5887 -0.6112  0.3782
 4018SOL    HW123513   0.253   1.987   2.454  5.0935  2.0588  0.9521
 4018SOL    HW223514   0.280   2.135   2.453 -0.2911 -1.1397 -0.2946
 4019SOL     OW23515   0.929   1.361   5.737 -0.6059 -0.3294  0.3144
 4019SOL    HW123516   0.982   1.325   5.666 -0.5907 -1.7610  1.0397
 4019SOL    HW223517   0.936   1.293   5.804 -1.5794 -0.1732  0.5727
 4020SOL     OW23518   4.364   2.518   1.978  0.4052  0.1807 -0.1269
 4020SOL    HW123519   4.415   2.531   1.898  0.2434  1.8268  0.0534
 4020SOL    HW223520   4.397   2.583   2.040  1.4562  0.4193 -0.9343
 4021SOL     OW23521   0.887   3.702  13.815 -0.7066  0.3066  0.1101
 4021SOL    HW123522   0.824   3.645  13.859  1.2487  0.7051  3.4131
 4021SOL    HW223523   0.958   3.642  13.794 -0.3404  0.7165  0.1657
 4022SOL     OW23524   2.436   3.935   2.107  0.1162 -0.0956 -0.0377
 4022SOL    HW123525   2.351   3.969   2.080 -0.2520 -1.7156 -0.8975
 4022SOL    HW223526   2.421   3.889   2.189  0.6510  3.6338  2.1652
 4023SOL     OW23527   1.972   1.652   4.003  0.6598  0.5229  0.1722
 4023SOL    HW123528   1.892   1.705   4.004  1.5193  1.7767  2.1346
 4023SOL    HW223529   1.945   1.561   4.006 -0.4101  0.8717  1.0392
 4024SOL     OW23530   3.301   2.653   2.559 -0.1569 -0.1883 -0.2573
 4024SOL    HW123531   3.218   2.604   2.557  0.4275 -1.1449 -1.0333
 4024SOL    HW223532   3.291   2.697   2.474 -0.0830 -0.7529 -0.5594
 4025SOL     OW23533   1.240   0.920  16.923 -0.2539  0.8884 -0.4320
 4025SOL    HW123534   1.254   0.912  16.829 -0.8853 -2.7892 -0.1914
 4025SOL    HW223535   1.192   0.839  16.940  1.6131  0.4309  2.7335
 4026SOL     OW23536   3.779   0.570  15.999 -0.9987  0.9205 -0.2106
 4026SOL    HW123537   3.729   0.619  15.934  1.5952  0.7833 -2.2988
 4026SOL    HW223538   3.774   0.621  16.080  0.6442  0.7833 -0.0350
 4027SOL     OW23539   3.006   1.358   6.674  0.3036  0.8515  0.0721
 4027SOL    HW123540   2.990   1.311   6.756  1.3717  1.7450  0.8032
 4027SOL    HW223541   2.985   1.443   6.715 -0.6942  0.1591  1.0245
 4028SOL     OW23542   2.138   4.387   4.462 -0.4703  0.3701  0.2984
 4028SOL    HW123543   2.060   4.389   4.518 -2.0260  1.5089 -1.9154
 4028SOL    HW223544   2.147   4.294   4.443 -2.3417 -0.0610  1.5088
 4029SOL     OW23545   0.459   3.694   2.803  0.2459  0.4523 -0.1721
 4029SOL    HW123546   0.447   3.778   2.847 -1.0208  0.0226  0.2929
 4029SOL    HW223547   0.383   3.646   2.835 -0.1406  0.9683 -0.3161
 4030SOL     OW23548   2.710   0.794   0.681 -1.0774  0.3916 -0.3345
 4030SOL    HW123549   2.687   0.821   0.769  0.4350 -1.1346  0.5219
 4030SOL    HW223550   2.642   0.729   0.663 -0.3038  0.0351 -2.0416
 4031SOL     OW23551   1.259   2.848   5.137  0.6001 -0.4098  0.0416
 4031SOL    HW123552   1.316   2.925   5.149  2.5752 -1.6367 -1.5057
 4031SOL    HW223553   1.183   2.890   5.177  2.1540  3.3505 -0.8754
 4032SOL     OW23554   2.115   1.747  13.201  0.3295  0.4348 -0.4627
 4032SOL    HW123555   2.028   1.788  13.195  0.0298 -0.1710 -0.2637
 4032SOL    HW223556   2.101   1.660  13.164 -0.0971  0.5225 -0.5164
 4033SOL     OW23557   1.947   4.290   8.518 -0.0867 -0.1829  0.1365
 4033SOL    HW123558   1.916   4.200   8.529  1.5553 -0.7217  0.4337
 4033SOL    HW223559   1.907   4.325   8.598  1.4062 -1.2321  1.3385
 4034SOL     OW23560   1.677   2.304  11.222  0.2617  0.0792  0.0281
 4034SOL    HW123561   1.735   2.278  11.150  1.2742  0.4354  0.7140
 4034SOL    HW223562   1.730   2.288  11.300  1.0736 -1.3546 -0.8353
 4035SOL     OW23563   4.016   1.619  11.764 -0.2321  0.2760 -0.5344
 4035SOL    HW123564   4.110   1.611  11.781 -0.7123  2.0622  3.0288
 4035SOL    HW223565   3.982   1.606  11.853  0.3384 -1.2449 -0.5500
 4036SOL     OW23566   2.202   4.336   8.724 -0.5749 -0.1925  0.2500
 4036SOL    HW123567   2.141   4.370   8.659 -0.2185  2.6521  1.3728
 4036SOL    HW223568   2.281   4.323   8.672 -1.9849 -0.3334 -1.8508
 4037SOL     OW23569   3.756   1.515   7.746 -0.0108  0.3210 -0.0498
 4037SOL    HW123570   3.741   1.502   7.840  2.1052 -1.0219  0.0917
 4037SOL    HW223571   3.692   1.452   7.712 -1.3647  1.8325 -0.3021
 4038SOL     OW23572   4.594   1.898   6.223 -0.5693  0.5412  0.0945
 4038SOL    HW123573   4.519   1.941   6.181 -1.2703 -0.2147  0.5584
 4038SOL    HW223574   4.565   1.922   6.312 -1.2746  1.3899 -0.3656
 4039SOL     OW23575   1.249   0.960  13.567 -0.6441 -0.1201  0.4766
 4039SOL    HW123576   1.200   0.903  13.626  0.3299  0.0098  1.4046
 4039SOL    HW223577   1.191   0.944  13.493 -1.6214  2.9264  0.6084
 4040SOL     OW23578   2.085   2.646  15.143  0.1517 -0.3063 -0.2563
 4040SOL    HW123579   2.103   2.740  15.134  0.7878 -0.4397 -0.3978
 4040SOL    HW223580   2.128   2.629  15.226  0.8776 -2.6538 -1.1072
 4041SOL     OW23581   1.168   2.021  12.156  0.3204 -0.3021  0.3121
 4041SOL    HW123582   1.238   1.973  12.201  1.6861  0.5915 -0.8634
 4041SOL    HW223583   1.134   1.948  12.105 -0.3216  0.3410 -0.1660
 4042SOL     OW23584   1.048   3.547   8.429 -0.1310  0.5263  0.3692
 4042SOL    HW123585   1.095   3.506   8.356  0.9847  0.2435  1.2430
 4042SOL    HW223586   1.106   3.622   8.443  1.5707 -0.1504 -3.0417
 4043SOL     OW23587   3.659   0.065   7.767  0.0253  0.0289  0.0739
 4043SOL    HW123588   3.578   0.090   7.811 -0.8194  0.5352 -1.7801
 4043SOL    HW223589   3.704   0.012   7.833  1.0813  0.3478 -0.3758
 4044SOL     OW23590   2.871   0.556  10.285 -0.1139 -0.8574 -0.3383
 4044SOL    HW123591   2.902   0.506  10.209  2.0301  0.1558 -0.1146
 4044SOL    HW223592   2.877   0.647  10.255  2.5816 -0.5035  1.3063
 4045SOL     OW23593   0.015   0.799   9.634  0.3321 -0.8206  0.7113
 4045SOL    HW123594   0.100   0.837   9.613 -0.0468 -0.1837  0.3415
 4045SOL    HW223595   0.020   0.821   9.727 -0.9137  3.0844 -0.1713
 4046SOL     OW23596   3.530   0.478   4.366 -0.8461  0.7592  0.1432
 4046SOL    HW123597   3.600   0.535   4.334 -1.5596  1.8569  0.5372
 4046SOL    HW223598   3.590   0.414   4.403  0.0956  0.2356 -2.2691
 4047SOL     OW23599   1.088   1.390  15.095 -0.2211  0.3053  0.4734
 4047SOL    HW123600   1.075   1.324  15.163 -3.3359 -1.3704 -1.7351
 4047SOL    HW223601   1.161   1.440  15.132 -0.8781  1.2044  0.5376
 4048SOL     OW23602   0.291   1.828  13.382  1.0002  0.2543 -0.0404
 4048SOL    HW123603   0.235   1.750  13.387 -0.6396  1.2150 -2.9862
 4048SOL    HW223604   0.287   1.853  13.474  2.2497  2.5057 -0.5967
 4049SOL     OW23605   3.604   1.191   1.120 -0.2971  0.1698 -0.0257
 4049SOL    HW123606   3.678   1.137   1.150 -0.8313  0.3833  1.7071
 4049SOL    HW223607   3.590   1.153   1.033  0.5179  1.7494 -0.8435
 4050SOL     OW23608   2.415   4.243   9.318  1.1582 -0.4212 -0.1058
 4050SOL    HW123609   2.412   4.158   9.275 -0.4874 -1.0343  1.2233
 4050SOL    HW223610   2.335   4.234   9.369  0.6254  0.9101 -0.7138
 4051SOL     OW23611   1.110   0.128   7.879  0.1118 -0.2894  0.3815
 4051SOL    HW123612   1.082   0.164   7.795 -0.2419 -1.7319 -0.1208
 4051SOL    HW223613   1.086   0.036   7.867  0.4993 -0.5498  1.5986
 4052SOL     OW23614   3.022   3.897  14.756 -0.0537  0.5840 -0.1927
 4052SOL    HW123615   3.078   3.938  14.822 -1.1520  1.4189  0.2089
 4052SOL    HW223616   2.934   3.891  14.792 -0.0276  1.4011 -0.0012
 4053SOL     OW23617   3.261   0.579   7.711 -0.6772  0.4328  0.0981
 4053SOL    HW123618   3.166   0.582   7.716 -0.7913 -0.8841 -1.1946
 4053SOL    HW223619   3.278   0.487   7.688  1.0122  1.4902 -2.9352
 4054SOL     OW23620   1.219   4.596  10.307 -0.3271  0.2370 -0.0397
 4054SOL    HW123621   1.173   4.548  10.239  0.0240  0.8833 -0.7416
 4054SOL    HW223622   1.154   4.619  10.374 -0.7952  0.0791 -0.4474
 4055SOL     OW23623   3.072   0.629   4.670  0.2690  0.1275 -0.5100
 4055SOL    HW123624   3.020   0.671   4.602 -0.2100  1.2720  0.5714
 4055SOL    HW223625   3.159   0.661   4.644 -0.7133  2.5162 -0.8465
 4056SOL     OW23626   3.344   2.126   5.967 -0.1536 -0.1098  0.1266
 4056SOL    HW123627   3.344   2.046   5.914 -1.0419 -1.3438  1.9702
 4056SOL    HW223628   3.276   2.172   5.916  0.5164 -0.5294 -1.1417
 4057SOL     OW23629   2.964   4.716  17.220  0.2249 -0.4443  0.0847
 4057SOL    HW123630   2.869   4.713  17.215  0.3078 -1.3871 -0.9538
 4057SOL    HW223631   2.985   4.638  17.169  0.8218  0.5218 -1.1304
 4058SOL     OW23632   0.638   1.559   0.755 -0.2553 -0.1777  0.7329
 4058SOL    HW123633   0.691   1.595   0.826 -1.5095  0.2537  1.4299
 4058SOL    HW223634   0.689   1.483   0.726 -1.3802 -0.0897 -1.5078
 4059SOL     OW23635   2.827   1.029   5.219 -0.2074 -0.1455 -0.1157
 4059SOL    HW123636   2.770   0.965   5.263  1.2377 -0.5737  1.1362
 4059SOL    HW223637   2.773   1.108   5.222  0.0050  0.0720 -2.4373
 4060SOL     OW23638   3.832   0.772  16.178  0.1230  0.3665  0.5720
 4060SOL    HW123639   3.796   0.799  16.263  1.1882 -1.6002  1.6404
 4060SOL    HW223640   3.768   0.822  16.127 -0.5747 -0.1731  0.9151
 4061SOL     OW23641   0.534   2.542   8.080 -0.4658 -0.1436 -0.0664
 4061SOL    HW123642   0.483   2.464   8.060 -1.2167 -0.1415  1.8987
 4061SOL    HW223643   0.562   2.568   7.992 -1.9426  0.6199 -0.2963
 4062SOL     OW23644   3.855   3.906   9.520 -0.2054 -0.4045 -0.4286
 4062SOL    HW123645   3.835   3.973   9.455 -0.0805  0.6387  0.6053
 4062SOL    HW223646   3.787   3.840   9.505 -2.5002  1.5258  1.5224
 4063SOL     OW23647   0.351   1.248   2.760  0.1849 -0.4133  0.0037
 4063SOL    HW123648   0.439   1.268   2.792  0.2559  1.5593 -1.4478
 4063SOL    HW223649   0.333   1.326   2.708 -0.1208 -0.3395  0.2214
 4064SOL     OW23650   1.305   0.888   6.442 -0.5790 -1.0435  0.7033
 4064SOL    HW123651   1.246   0.871   6.368  0.6556  2.9199 -1.1696
 4064SOL    HW223652   1.389   0.862   6.403 -0.9134 -2.8414  1.2012
 4065SOL     OW23653   3.328   1.098   1.216  0.2129 -0.0574 -0.2997
 4065SOL    HW123654   3.321   1.029   1.150  1.8715  1.7482 -2.3572
 4065SOL    HW223655   3.422   1.101   1.235 -0.2037 -1.8797  2.0301
 4066SOL     OW23656   3.588   4.598   2.099 -0.0482 -0.2124  0.1229
 4066SOL    HW123657   3.613   4.506   2.099 -0.0046 -0.1960  2.5166
 4066SOL    HW223658   3.556   4.611   2.188 -0.6707 -0.9465  0.0090
 4067SOL     OW23659   2.106   3.852   3.761 -0.0400  0.1500 -0.2477
 4067SOL    HW123660   2.061   3.913   3.702 -0.0950 -0.0093 -0.3686
 4067SOL    HW223661   2.147   3.913   3.823  2.2190 -2.1407  0.5230
 4068SOL     OW23662   1.781   0.892   8.051  0.5900 -0.4941  0.3537
 4068SOL    HW123663   1.691   0.900   8.019  1.3014 -0.1105 -1.5635
 4068SOL    HW223664   1.829   0.952   7.993 -1.4780  0.3696 -0.4489
 4069SOL     OW23665   1.444   1.158   4.011  0.0942 -0.1752  0.1092
 4069SOL    HW123666   1.392   1.214   3.954  0.7971 -0.9542 -1.3075
 4069SOL    HW223667   1.508   1.130   3.946  1.9077  1.1727  1.3358
 4070SOL     OW23668   2.404   3.887   8.192 -0.4758  0.5821  0.0894
 4070SOL    HW123669   2.338   3.948   8.226 -0.8180 -0.4501  1.2967
 4070SOL    HW223670   2.419   3.841   8.275 -1.2186 -0.3789 -0.3061
 4071SOL     OW23671   2.636   4.063  16.864  0.0652 -0.3177  0.1191
 4071SOL    HW123672   2.608   3.972  16.869 -0.9262 -0.0813 -1.3429
 4071SOL    HW223673   2.716   4.061  16.812 -0.5833 -1.6272 -0.8166
 4072SOL     OW23674   4.271   0.736   8.804 -0.0399  0.3268  0.0253
 4072SOL    HW123675   4.316   0.820   8.813  0.1738  0.3985 -1.6949
 4072SOL    HW223676   4.215   0.726   8.881  2.2470  0.9243  1.7455
 4073SOL     OW23677   0.811   4.001   6.552 -0.0070 -0.4397 -0.0861
 4073SOL    HW123678   0.758   4.000   6.472  0.7742 -0.4163 -0.6021
 4073SOL    HW223679   0.748   3.964   6.615  1.2913  1.6838  2.4460
 4074SOL     OW23680   3.416   0.501  17.349 -0.0761  0.1040  0.3382
 4074SOL    HW123681   3.427   0.406  17.356 -2.6571 -0.2278  0.0165
 4074SOL    HW223682   3.322   0.501  17.330  0.1119 -0.4610 -0.6191
 4075SOL     OW23683   3.123   4.003   6.996  0.6128 -0.0928  0.1532
 4075SOL    HW123684   3.201   3.959   7.029 -0.4564 -1.0741  1.4250
 4075SOL    HW223685   3.138   4.085   7.043  0.6454  0.9497 -1.6722
 4076SOL     OW23686   2.153   1.762  16.941 -0.2052  0.5830  0.0338
 4076SOL    HW123687   2.180   1.683  16.989 -4.8715 -1.0186  0.0295
 4076SOL    HW223688   2.188   1.824  17.005  0.3228 -1.5259  1.7983
 4077SOL     OW23689   3.280   2.933  12.837 -1.0308  0.0090  0.0004
 4077SOL    HW123690   3.259   2.931  12.930 -0.8838 -0.4410  0.0230
 4077SOL    HW223691   3.277   3.028  12.827 -5.0720 -0.1986 -0.9074
 4078SOL     OW23692   2.003   0.589   4.067 -0.7118 -0.0346 -0.0350
 4078SOL    HW123693   2.052   0.630   4.139  0.7528  0.5841 -1.3793
 4078SOL    HW223694   1.960   0.658   4.017 -2.9942 -2.2612 -1.1426
 4079SOL     OW23695   3.863   2.922   6.201 -0.5265  0.0993  0.1366
 4079SOL    HW123696   3.831   2.870   6.275  1.7524 -0.9941  0.3334
 4079SOL    HW223697   3.881   3.007   6.241  1.1650 -0.0459 -0.3345
 4080SOL     OW23698   2.216   2.528  10.884 -0.0965 -0.1945  0.4346
 4080SOL    HW123699   2.277   2.588  10.841 -2.3390  1.2099 -0.7935
 4080SOL    HW223700   2.135   2.567  10.851 -0.1791 -1.2444 -0.5840
 4081SOL     OW23701   1.501   0.361  16.167 -0.0524 -0.4857 -0.1777
 4081SOL    HW123702   1.554   0.428  16.212  0.4955  0.5966 -2.4258
 4081SOL    HW223703   1.474   0.316  16.246 -1.4232 -0.3766 -0.5736
 4082SOL     OW23704   1.960   2.170   3.068  0.7547  0.2437 -0.7589
 4082SOL    HW123705   1.935   2.184   3.159 -1.8095 -1.7024 -1.1635
 4082SOL    HW223706   2.050   2.201   3.072  0.5484  0.7760 -0.2859
 4083SOL     OW23707   4.338   4.182   6.070 -0.0307  0.2013  0.1217
 4083SOL    HW123708   4.247   4.200   6.094 -0.4208 -1.2990 -0.2276
 4083SOL    HW223709   4.349   4.088   6.088  0.8447  0.6417  1.8401
 4084SOL     OW23710   2.976   0.563  10.962 -0.2119  0.2036  0.4542
 4084SOL    HW123711   2.940   0.651  10.954 -2.2214 -0.8327 -1.8961
 4084SOL    HW223712   2.940   0.526  10.882 -1.3771  2.8076 -0.2082
 4085SOL     OW23713   2.155   1.138   0.890 -0.5702  0.2116 -0.1572
 4085SOL    HW123714   2.133   1.224   0.925 -0.3530  0.9952 -1.9123
 4085SOL    HW223715   2.244   1.110   0.910 -0.3025  0.2395 -1.2983
 4086SOL     OW23716   1.296   1.936   0.303  0.3222 -0.4140 -0.3837
 4086SOL    HW123717   1.266   2.027   0.293 -3.7181 -1.6607  0.5013
 4086SOL    HW223718   1.222   1.891   0.262  0.0201  1.1098 -1.5347
 4087SOL     OW23719   1.215   0.906   8.744 -0.4901  0.5284  0.0094
 4087SOL    HW123720   1.247   0.920   8.833  2.3416  0.0069 -0.9260
 4087SOL    HW223721   1.128   0.869   8.758 -0.5436  1.0229  0.9526
 4088SOL     OW23722   1.372   4.421   0.682  0.4949  0.0926  0.1414
 4088SOL    HW123723   1.404   4.395   0.768  1.0128  2.0477  0.5377
 4088SOL    HW223724   1.409   4.354   0.625  0.6021  0.7898 -0.6159
 4089SOL     OW23725   2.997   4.111   8.587  0.1431 -0.0125  0.0909
 4089SOL    HW123726   3.087   4.097   8.557 -0.1286 -1.8442  0.1707
 4089SOL    HW223727   3.014   4.092   8.679  0.2195  1.7197  0.4360
 4090SOL     OW23728   1.782   3.943   9.914  0.1147  0.2564 -0.1794
 4090SOL    HW123729   1.741   4.013   9.964  0.2383  0.6827 -0.6749
 4090SOL    HW223730   1.707   3.896   9.877  0.9834 -0.2565 -1.2790
 4091SOL     OW23731   1.024   0.157   4.080  0.0872 -0.3102 -0.3512
 4091SOL    HW123732   1.114   0.176   4.053  0.0247 -1.6303 -1.4609
 4091SOL    HW223733   1.028   0.061   4.079  0.7891 -0.2758 -0.7333
 4092SOL     OW23734   1.846   2.541   8.516 -0.3061  0.6630 -0.3049
 4092SOL    HW123735   1.904   2.525   8.442  1.2206 -0.1794  1.0731
 4092SOL    HW223736   1.904   2.520   8.589 -0.0549  2.0073 -0.1239
 4093SOL     OW23737   3.356   0.514   3.066  0.5755  0.3803 -0.3634
 4093SOL    HW123738   3.370   0.488   3.157  1.7276 -0.2935 -0.7358
 4093SOL    HW223739   3.448   0.537   3.056  0.3487  2.1600  1.7166
 4094SOL     OW23740   0.179   0.718   3.064 -0.0965  0.2887  0.2710
 4094SOL    HW123741   0.264   0.755   3.090  0.2306  0.2514 -0.7591
 4094SOL    HW223742   0.209   0.627   3.069  0.4204  0.7246  5.3135
 4095SOL     OW23743   4.170   1.393  11.483 -0.2862 -0.5393 -0.5510
 4095SOL    HW123744   4.159   1.298  11.474  0.2415 -0.5814 -0.7279
 4095SOL    HW223745   4.257   1.408  11.446 -0.3148  2.6771  0.7256
 4096SOL     OW23746   4.133   0.415   7.217 -0.1007 -0.0507 -0.0098
 4096SOL    HW123747   4.163   0.324   7.205 -0.9675 -0.5140  1.3295
 4096SOL    HW223748   4.213   0.461   7.196 -0.8227  0.4700 -1.5788
 4097SOL     OW23749   4.321   1.455   9.174 -0.2536  1.2395 -0.0398
 4097SOL    HW123750   4.292   1.543   9.148 -0.7733  1.0033 -0.2465
 4097SOL    HW223751   4.328   1.458   9.270  1.3122 -1.5714 -0.0980
 4098SOL     OW23752   0.823   2.287   7.428  0.2901 -0.3529 -0.5483
 4098SOL    HW123753   0.734   2.294   7.394 -1.2437 -2.9010  2.9450
 4098SOL    HW223754   0.874   2.336   7.363  0.3274  1.8454  1.1728
 4099SOL     OW23755   1.339   4.461  11.446 -0.0203 -0.6987 -0.2573
 4099SOL    HW123756   1.259   4.453  11.393 -0.5344  3.1578 -0.1096
 4099SOL    HW223757   1.322   4.539  11.499  0.4136 -1.8022  1.5028
 4100SOL     OW23758   0.378   1.331  14.302 -0.6382  0.0327  0.0553
 4100SOL    HW123759   0.382   1.277  14.381  2.3141  1.3773  0.8125
 4100SOL    HW223760   0.411   1.277  14.231 -1.6554 -0.6066  0.0651
 4101SOL     OW23761   4.633   1.556   9.709  0.0011  0.2838  0.8241
 4101SOL    HW123762   4.644   1.649   9.688  0.7451 -0.3718 -1.6564
 4101SOL    HW223763   4.696   1.515   9.650  0.3975  0.2209  1.2888
 4102SOL     OW23764   2.177   2.053   6.696 -0.0191  0.1317 -0.3335
 4102SOL    HW123765   2.128   1.978   6.664  2.5918 -1.3401 -0.9310
 4102SOL    HW223766   2.260   2.042   6.649 -0.1863  1.4291 -0.9328
 4103SOL     OW23767   2.591   4.305   7.623 -0.6900  0.1639  0.3271
 4103SOL    HW123768   2.621   4.248   7.694 -0.4015 -2.8861 -2.2463
 4103SOL    HW223769   2.509   4.312   7.674 -1.6054 -1.9211 -0.8489
 4104SOL     OW23770   2.967   2.420   7.930  0.7470  0.1036  0.4930
 4104SOL    HW123771   2.956   2.410   8.025  0.8780  0.0427  0.5023
 4104SOL    HW223772   3.004   2.507   7.919 -0.6770  0.5499 -0.7464
 4105SOL     OW23773   0.812   0.350   2.751 -0.2279  0.0145  0.4865
 4105SOL    HW123774   0.818   0.425   2.691  2.4034 -0.9369 -0.4393
 4105SOL    HW223775   0.815   0.274   2.693  2.0659  1.3813 -1.1825
 4106SOL     OW23776   3.250   0.435   6.301  0.0100  0.2080 -0.3156
 4106SOL    HW123777   3.184   0.367   6.292 -0.3460  0.2441  2.0393
 4106SOL    HW223778   3.221   0.491   6.230 -1.9103  0.4878  0.6856
 4107SOL     OW23779   4.663   0.389   2.312 -0.0166 -0.0809 -0.2456
 4107SOL    HW123780   4.574   0.422   2.318 -0.2500 -0.5399 -1.0628
 4107SOL    HW223781   4.658   0.306   2.360  0.6035 -1.2393 -2.1442
 4108SOL     OW23782   1.676   1.701   2.245 -0.1722 -0.1325  0.3050
 4108SOL    HW123783   1.766   1.705   2.213 -0.6442  3.3538 -0.5790
 4108SOL    HW223784   1.687   1.662   2.331 -2.6522 -1.9240 -0.2052
 4109SOL     OW23785   0.140   2.844   1.385 -0.1040 -0.2158 -0.5611
 4109SOL    HW123786   0.180   2.834   1.471 -0.9253  1.4374 -0.0056
 4109SOL    HW223787   0.108   2.931   1.407  2.2164  0.3452  0.6322
 4110SOL     OW23788   1.071   4.208   8.630 -0.4271 -0.1412 -0.1206
 4110SOL    HW123789   1.110   4.242   8.550 -0.4002  0.4555  0.1451
 4110SOL    HW223790   1.141   4.147   8.653 -0.0455  0.2820 -0.1569
 4111SOL     OW23791   0.640   4.348   5.951 -0.2931 -0.5524 -0.2161
 4111SOL    HW123792   0.682   4.415   5.897 -2.2288 -1.3922 -2.7496
 4111SOL    HW223793   0.655   4.375   6.041  0.5159 -2.1255  0.1204
 4112SOL     OW23794   0.873   0.300   7.443  0.1275  0.0739  0.0864
 4112SOL    HW123795   0.785   0.337   7.447 -1.1491 -2.9691  0.4622
 4112SOL    HW223796   0.883   0.306   7.348  0.1588 -1.3437  0.0051
 4113SOL     OW23797   3.384   4.083  16.268 -0.9900  0.1543 -0.1364
 4113SOL    HW123798   3.435   4.152  16.226  1.8582 -1.0867  1.3538
 4113SOL    HW223799   3.417   4.074  16.357 -0.2365 -1.7371 -0.6014
 4114SOL     OW23800   2.973   0.268   2.864 -0.3069  0.0604  1.1782
 4114SOL    HW123801   3.054   0.267   2.915  1.0515  0.5489 -0.9796
 4114SOL    HW223802   2.979   0.195   2.803 -2.5056  1.0119 -0.1864
 4115SOL     OW23803   1.797   4.296  11.860 -0.3012  0.0930 -0.8465
 4115SOL    HW123804   1.812   4.261  11.772 -0.0671 -0.4853 -0.5739
 4115SOL    HW223805   1.789   4.391  11.852 -0.0062  0.2240  0.3390
 4116SOL     OW23806   1.128   2.042   8.162  0.5235  0.2892  0.2128
 4116SOL    HW123807   1.061   2.019   8.098  0.1591  3.6727 -0.6116
 4116SOL    HW223808   1.208   2.005   8.124 -0.5121 -1.5137 -0.2203
 4117SOL     OW23809   1.611   2.008  11.336 -0.1268 -0.1129 -0.2366
 4117SOL    HW123810   1.674   2.020  11.407  0.4193  0.6850 -0.8623
 4117SOL    HW223811   1.566   2.091  11.350 -0.3875 -0.4010  0.6509
 4118SOL     OW23812   0.259   1.348   7.561  0.2103 -0.4100  0.0040
 4118SOL    HW123813   0.230   1.330   7.472  0.9799  1.2612 -0.5946
 4118SOL    HW223814   0.349   1.373   7.541 -0.6867  3.8496  1.1316
 4119SOL     OW23815   1.168   0.722  15.172  0.3712  0.5238  0.2921
 4119SOL    HW123816   1.196   0.684  15.090  0.5266  0.0607  0.5637
 4119SOL    HW223817   1.241   0.784  15.178 -0.0117  1.0233 -0.1593
 4120SOL     OW23818   1.330   3.547   8.679  0.0358  0.6104 -0.1949
 4120SOL    HW123819   1.405   3.489   8.667 -0.0285  0.7583 -1.3245
 4120SOL    HW223820   1.261   3.482   8.690  0.1131  0.6105  0.2997
 4121SOL     OW23821   2.772   3.439   4.150 -0.3825  0.0363 -0.1044
 4121SOL    HW123822   2.764   3.400   4.062  0.6968  0.2429 -0.3014
 4121SOL    HW223823   2.860   3.419   4.182 -0.2735  0.5317 -0.0982
 4122SOL     OW23824   4.685   1.481   1.110  0.1273 -0.2677  0.0528
 4122SOL    HW123825   4.683   1.514   1.199 -1.7526 -0.8239  0.2278
 4122SOL    HW223826   0.057   1.473   1.100 -0.0399 -1.4659 -0.6269
 4123SOL     OW23827   3.191   1.729   0.624  0.0708  0.0673 -0.3206
 4123SOL    HW123828   3.119   1.696   0.678  0.4499  1.1313  0.8507
 4123SOL    HW223829   3.168   1.696   0.537 -1.6060  0.2105  0.0691
 4124SOL     OW23830   0.682   1.076   4.641  0.3742  0.4235  0.0236
 4124SOL    HW123831   0.627   1.076   4.720  1.9877 -0.5748  1.1373
 4124SOL    HW223832   0.757   1.127   4.671  0.7039  0.1419 -0.3301
 4125SOL     OW23833   0.524   2.160   8.621  0.4483 -0.7406  0.2537
 4125SOL    HW123834   0.512   2.224   8.552 -1.9272 -2.4083 -0.8681
 4125SOL    HW223835   0.505   2.217   8.696 -2.0928  0.2841 -1.1924
 4126SOL     OW23836   0.322   4.273   5.116 -0.5746 -0.1611  0.1807
 4126SOL    HW123837   0.332   4.182   5.141  2.3049 -0.5796 -2.4380
 4126SOL    HW223838   0.228   4.279   5.133 -0.5904  2.3223 -0.6845
 4127SOL     OW23839   2.054   0.342   7.558 -0.1077 -0.0705 -0.3056
 4127SOL    HW123840   2.116   0.374   7.623  0.6158 -2.1574  0.0298
 4127SOL    HW223841   2.020   0.419   7.513 -1.2646 -0.0621  0.5874
 4128SOL     OW23842   2.846   2.774   7.057  0.4494 -0.1281 -1.5472
 4128SOL    HW123843   2.900   2.753   7.134 -0.0727  0.8651 -0.9045
 4128SOL    HW223844   2.881   2.860   7.033  2.2266 -0.9316 -1.8360
 4129SOL     OW23845   2.351   1.390   5.872  0.2193 -0.0270  0.2254
 4129SOL    HW123846   2.412   1.390   5.799  1.7972  0.1301  1.5249
 4129SOL    HW223847   2.269   1.363   5.832 -0.2045 -0.3808  1.3235
 4130SOL     OW23848   4.254   4.531   6.488 -0.5839 -0.5841 -0.3639
 4130SOL    HW123849   4.342   4.562   6.467 -0.3766  0.3760  1.8757
 4130SOL    HW223850   4.262   4.448   6.535 -2.1961  0.9752  2.6779
 4131SOL     OW23851   2.917   1.302   6.350 -0.1122  0.0391 -0.3896
 4131SOL    HW123852   2.920   1.207   6.341  2.9402  0.3199 -2.3675
 4131SOL    HW223853   2.939   1.308   6.443  1.5548 -3.5680 -0.5471
 4132SOL     OW23854   1.852   1.684  15.809  0.3469  0.2599 -0.2904
 4132SOL    HW123855   1.786   1.694  15.878 -0.1171  0.2225 -0.7290
 4132SOL    HW223856   1.848   1.767  15.761 -1.7450 -0.4787 -1.3869
 4133SOL     OW23857   3.544   0.580   4.653  0.1240  0.2202 -0.3887
 4133SOL    HW123858   3.557   0.559   4.561  3.1700  0.8913 -0.1145
 4133SOL    HW223859   3.601   0.654   4.674  0.3965 -0.5088  1.4569
 4134SOL     OW23860   3.280   1.955   5.094 -0.3892  0.5197 -0.4187
 4134SOL    HW123861   3.341   2.006   5.040  1.0666 -0.8214 -0.0450
 4134SOL    HW223862   3.211   1.927   5.034 -0.7939 -0.3558  0.4540
 4135SOL     OW23863   3.631   2.699  15.981 -0.1790  0.1895 -0.4426
 4135SOL    HW123864   3.718   2.710  16.021  0.3872 -1.4265 -1.2687
 4135SOL    HW223865   3.620   2.605  15.986 -0.5444  0.1722 -1.6544
 4136SOL     OW23866   0.070   0.037   1.913  0.2303 -0.0626 -0.2039
 4136SOL    HW123867   0.142   4.698   1.901 -0.7409 -1.0753 -0.7670
 4136SOL    HW223868   0.029   4.715   1.987  0.0126  0.5158  0.0236
 4137SOL     OW23869   0.264   0.072   5.614 -0.0857 -0.1126 -0.4081
 4137SOL    HW123870   0.279   4.705   5.641 -0.7400 -0.5210 -1.3949
 4137SOL    HW223871   0.171   0.077   5.635 -0.2614  0.6095 -1.3363
 4138SOL     OW23872   3.305   1.912   9.347 -0.0799  0.7187 -0.3033
 4138SOL    HW123873   3.252   1.935   9.423 -1.3458 -2.1189 -0.3618
 4138SOL    HW223874   3.344   1.833   9.384 -1.6871 -0.0471 -0.2447
 4139SOL     OW23875   2.474   4.192   1.505 -0.0551 -0.1667 -0.2389
 4139SOL    HW123876   2.489   4.175   1.412 -1.6786  1.1197 -0.7469
 4139SOL    HW223877   2.410   4.126   1.532 -0.6076  0.0806 -0.9361
 4140SOL     OW23878   3.526   4.645   2.882 -0.6118 -0.0453 -0.0601
 4140SOL    HW123879   3.466   4.701   2.833  1.8285  1.9305 -0.8177
 4140SOL    HW223880   3.466   4.596   2.939 -1.4913  0.8136 -0.2714
 4141SOL     OW23881   4.436   0.339   6.422  0.7409 -0.0805 -0.0501
 4141SOL    HW123882   4.486   0.373   6.348 -0.6072 -2.0395 -1.8365
 4141SOL    HW223883   4.383   0.277   6.373 -1.0109  0.3707  1.2772
 4142SOL     OW23884   0.580   0.369   8.905  0.0272  0.0528 -0.2529
 4142SOL    HW123885   0.485   0.381   8.910 -0.0302 -0.6887  0.4899
 4142SOL    HW223886   0.614   0.424   8.976  0.3942  1.0951 -1.2333
 4143SOL     OW23887   3.566   4.425   4.386  0.2746  0.2545  0.0304
 4143SOL    HW123888   3.502   4.367   4.345 -1.0137  1.8823 -0.2595
 4143SOL    HW223889   3.515   4.505   4.369 -2.0968 -1.1216  0.7044
 4144SOL     OW23890   2.707   0.168   1.365 -0.4680  0.1197  0.0812
 4144SOL    HW123891   2.647   0.204   1.430 -0.5643 -0.4713  0.3187
 4144SOL    HW223892   2.770   0.239   1.355 -0.4813  0.0414 -0.5783
 4145SOL     OW23893   1.970   3.234   6.667  0.2880 -0.3591 -0.1349
 4145SOL    HW123894   1.879   3.205   6.661  0.7376 -2.0711  1.4388
 4145SOL    HW223895   2.007   3.158   6.711 -0.7097 -0.8600 -0.1623
 4146SOL     OW23896   0.844   0.327   4.851 -0.4340 -0.3550 -0.4487
 4146SOL    HW123897   0.906   0.398   4.836 -0.9786 -0.5454 -3.6945
 4146SOL    HW223898   0.853   0.267   4.777 -1.3757 -0.0105 -0.8381
 4147SOL     OW23899   1.534   4.284  15.728 -0.1146 -0.7541  0.1257
 4147SOL    HW123900   1.469   4.349  15.757 -1.1071 -0.9182 -1.6996
 4147SOL    HW223901   1.609   4.310  15.780 -0.3247  0.8118 -0.3506
 4148SOL     OW23902   3.184   4.446   2.782  0.6409 -0.5273 -0.2515
 4148SOL    HW123903   3.215   4.357   2.797  0.0015 -0.3263  2.2705
 4148SOL    HW223904   3.184   4.482   2.870 -2.0653 -0.9019 -0.0726
 4149SOL     OW23905   2.810   1.778   6.829  0.6737  0.6049 -0.3837
 4149SOL    HW123906   2.802   1.872   6.847  0.5048  0.7702 -1.3412
 4149SOL    HW223907   2.716   1.764   6.817  0.7125  0.5319 -0.5955
 4150SOL     OW23908   3.955   4.377   8.844 -0.4922  0.1535 -0.1443
 4150SOL    HW123909   3.990   4.344   8.927 -2.9774 -2.9956 -0.3277
 4150SOL    HW223910   3.868   4.410   8.866  0.3715  1.7514  0.7997
 4151SOL     OW23911   2.313   4.416  13.606 -0.0026  0.0609  0.0644
 4151SOL    HW123912   2.258   4.439  13.681  0.9694  1.6977  0.2708
 4151SOL    HW223913   2.300   4.493  13.550  0.0577 -1.4881 -2.0789
 4152SOL     OW23914   2.607   3.650  14.885  0.3901 -0.7170 -0.0479
 4152SOL    HW123915   2.548   3.618  14.952 -1.0283 -1.0543 -1.4594
 4152SOL    HW223916   2.613   3.744  14.902 -0.5911 -0.8621  1.0509
 4153SOL     OW23917   1.175   0.991   3.648 -0.8796 -0.0172 -0.7921
 4153SOL    HW123918   1.220   0.936   3.713  1.6864  2.5670 -0.4113
 4153SOL    HW223919   1.133   1.058   3.702 -1.2586  1.1535 -2.5701
 4154SOL     OW23920   0.772   3.892   3.206 -0.5880 -0.2322 -0.0586
 4154SOL    HW123921   0.791   3.872   3.114 -0.3184  0.3877 -0.1368
 4154SOL    HW223922   0.731   3.978   3.207  1.0071  0.4921  2.6071
 4155SOL     OW23923   1.548   3.818   8.106 -0.3187 -0.0851 -0.1864
 4155SOL    HW123924   1.562   3.907   8.140  0.4803  0.3764 -1.6699
 4155SOL    HW223925   1.453   3.806   8.106 -0.0973 -1.8586 -1.6794
 4156SOL     OW23926   0.253   4.706  17.317 -0.0229 -0.4741 -0.1397
 4156SOL    HW123927   0.250   4.717  17.412  1.8806 -0.6656 -0.0504
 4156SOL    HW223928   0.258   0.073  17.285  2.6374 -0.2198  1.0174
 4157SOL     OW23929   1.562   0.610   3.278 -0.1041  0.1406  0.8226
 4157SOL    HW123930   1.559   0.593   3.184  0.5122  1.4645  0.5685
 4157SOL    HW223931   1.611   0.691   3.288  0.6056 -0.1468 -0.3301
 4158SOL     OW23932   3.039   3.333   8.447 -0.0258  0.1580  0.0107
 4158SOL    HW123933   3.054   3.275   8.372 -0.8286 -1.8029  1.3697
 4158SOL    HW223934   2.965   3.386   8.418  0.3077  0.8395  0.4004
 4159SOL     OW23935   2.542   0.713   4.531  0.2140  0.1874  0.3597
 4159SOL    HW123936   2.485   0.662   4.473  1.9517 -0.9571 -0.3506
 4159SOL    HW223937   2.571   0.642   4.588  4.0037  1.1253 -0.4060
 4160SOL     OW23938   0.256   0.020  15.400  0.1970 -0.1926 -0.1780
 4160SOL    HW123939   0.247   4.648  15.397  3.2074 -0.4318 -1.9296
 4160SOL    HW223940   0.320   0.034  15.470 -0.5871  0.3952  0.4328
 4161SOL     OW23941   2.320   1.647   2.349  0.3320  0.2775  0.3097
 4161SOL    HW123942   2.284   1.653   2.437  1.1852  0.9498  0.6235
 4161SOL    HW223943   2.367   1.730   2.338  0.4835  0.3526  1.5286
 4162SOL     OW23944   2.549   3.383   7.836  0.3948  0.5187 -0.1432
 4162SOL    HW123945   2.514   3.468   7.810  2.3025  0.6630 -2.2829
 4162SOL    HW223946   2.614   3.373   7.766  0.3554  1.0274 -0.2510
 4163SOL     OW23947   1.397   0.903   1.606  0.5020 -0.1691 -0.1516
 4163SOL    HW123948   1.316   0.941   1.640  0.9550 -2.0545  3.0011
 4163SOL    HW223949   1.394   0.811   1.630  0.7165  0.6745  3.0754
 4164SOL     OW23950   3.212   3.081   6.620 -0.1430  0.2556 -0.4022
 4164SOL    HW123951   3.196   3.168   6.585 -0.2439  0.6215  0.5424
 4164SOL    HW223952   3.235   3.039   6.537  0.0875 -0.9033  0.2450
 4165SOL     OW23953   1.860   4.097  16.079  0.2040  0.1408  0.0496
 4165SOL    HW123954   1.934   4.037  16.089 -0.3076 -0.9191 -2.5582
 4165SOL    HW223955   1.820   4.098  16.166 -2.8944  0.6128 -1.3802
 4166SOL     OW23956   0.355   1.186   2.086 -0.3146 -0.5986 -0.3724
 4166SOL    HW123957   0.360   1.255   2.019  1.8004 -1.7150 -1.3648
 4166SOL    HW223958   0.338   1.237   2.165 -0.9010  0.0378 -0.9104
 4167SOL     OW23959   0.730   1.174  12.773 -0.1033 -0.2293 -0.0282
 4167SOL    HW123960   0.758   1.233  12.703 -0.8196  1.4039  1.0567
 4167SOL    HW223961   0.639   1.146  12.759  0.2523 -1.1919 -0.3833
 4168SOL     OW23962   1.559   0.079   4.525  0.0493 -0.5432  0.1714
 4168SOL    HW123963   1.637   0.102   4.575  0.8564 -0.0385 -1.3112
 4168SOL    HW223964   1.556   4.708   4.538  2.3474 -0.6904 -0.4444
 4169SOL     OW23965   3.605   4.094   6.826 -0.2576 -0.4738 -0.4655
 4169SOL    HW123966   3.657   4.164   6.786  0.2684 -0.7184 -0.2095
 4169SOL    HW223967   3.523   4.138   6.849 -0.2828 -0.3110 -0.8613
 4170SOL     OW23968   3.146   3.099   3.358 -0.2085 -0.0292  0.4700
 4170SOL    HW123969   3.122   3.151   3.281  0.8483  0.7543  0.6716
 4170SOL    HW223970   3.182   3.017   3.324 -1.1079  0.6602 -2.0831
 4171SOL     OW23971   3.017   3.221  17.183  0.2645  0.7636  0.2548
 4171SOL    HW123972   3.036   3.229  17.090  1.0708  1.1193  0.4524
 4171SOL    HW223973   3.092   3.170  17.214 -2.9962 -4.1020  0.2307
 4172SOL     OW23974   0.616   0.446   2.458 -0.3305 -0.0180  0.1897
 4172SOL    HW123975   0.710   0.450   2.473 -0.7054  2.5299  1.9543
 4172SOL    HW223976   0.575   0.520   2.505  2.9957  0.2006  2.7475
 4173SOL     OW23977   3.509   2.362  11.275 -0.0656 -0.3924 -0.3579
 4173SOL    HW123978   3.535   2.431  11.334  2.1684 -0.9607 -0.6985
 4173SOL    HW223979   3.502   2.292  11.340 -0.3882  1.8342  1.9688
 4174SOL     OW23980   1.247   1.402   5.337 -0.1359 -0.3170 -0.1143
 4174SOL    HW123981   1.308   1.339   5.298 -0.6114 -1.3732  0.8470
 4174SOL    HW223982   1.241   1.480   5.283 -0.8765 -0.5761 -0.4112
 4175SOL     OW23983   2.746   3.658   0.033  0.2822 -0.0308  0.1327
 4175SOL    HW123984   2.673   3.599   0.015  0.9154 -0.5971 -0.5454
 4175SOL    HW223985   2.722   3.693   0.119 -0.8298 -1.2558  0.3266
 4176SOL     OW23986   2.763   0.893   6.125 -0.1974  0.0259 -0.1639
 4176SOL    HW123987   2.725   0.805   6.122  0.1997 -0.1336 -0.4560
 4176SOL    HW223988   2.697   0.941   6.075  0.0475 -0.7279 -1.2120
 4177SOL     OW23989   1.616   4.128  10.746 -0.5638 -0.3625 -0.4325
 4177SOL    HW123990   1.595   4.220  10.764 -0.5018 -0.5401  0.5338
 4177SOL    HW223991   1.631   4.087  10.831  1.0699 -0.8578 -0.9646
 4178SOL     OW23992   2.312   4.167   2.328  0.9322  0.0913  0.0433
 4178SOL    HW123993   2.253   4.241   2.345  1.2864  0.0885  1.2849
 4178SOL    HW223994   2.282   4.098   2.386  0.1835 -1.4093 -2.1510
 4179SOL     OW23995   1.879   0.549   5.092  0.7349  0.1034  0.4920
 4179SOL    HW123996   1.832   0.580   5.014  0.3150 -0.7936  0.3887
 4179SOL    HW223997   1.853   0.457   5.090 -1.8131  0.8219  2.1748
 4180SOL     OW23998   4.245   2.624   9.497  0.1573  0.6382 -0.6384
 4180SOL    HW123999   4.160   2.595   9.530  0.5294 -0.8814 -0.9786
 4180SOL    HW224000   4.259   2.560   9.427 -0.5782  0.2670 -0.4479
 4181SOL     OW24001   3.508   2.729   7.135  0.4894 -0.2184 -0.2116
 4181SOL    HW124002   3.468   2.751   7.218  0.7828  0.1530 -0.1714
 4181SOL    HW224003   3.460   2.648   7.116 -1.4956  0.5949  1.2814
 4182SOL     OW24004   4.662   4.589   5.868  0.2980 -0.2530 -0.1456
 4182SOL    HW124005   4.669   4.650   5.795 -1.3432  2.0954  1.6496
 4182SOL    HW224006   0.028   4.589   5.903  0.9164 -1.6430 -1.7552
 4183SOL     OW24007   0.379   4.336   5.892  0.2898  0.0047 -0.0020
 4183SOL    HW124008   0.471   4.325   5.915  0.3377  1.0577  0.2766
 4183SOL    HW224009   0.336   4.250   5.897  1.3013 -0.6017 -2.0997
 4184SOL     OW24010   3.176   1.527   8.557  0.1575 -0.1289  0.3007
 4184SOL    HW124011   3.236   1.580   8.504 -3.9627  1.8431 -2.3066
 4184SOL    HW224012   3.196   1.566   8.643  0.0049 -1.0790  0.7625
 4185SOL     OW24013   4.381   4.462  16.101  0.2521 -0.0448 -0.2790
 4185SOL    HW124014   4.311   4.429  16.044  0.7177  0.9347 -1.4283
 4185SOL    HW224015   4.335   4.538  16.139  3.0338  0.5252  1.9124
 4186SOL     OW24016   0.083   3.911   8.578  0.3726  0.5982  0.6321
 4186SOL    HW124017   0.070   3.884   8.669 -1.1698  0.7982  0.4709
 4186SOL    HW224018   0.169   3.876   8.553 -0.0444 -0.5611  0.8398
 4187SOL     OW24019   3.069   0.862   4.319 -0.0604 -0.6903  0.3185
 4187SOL    HW124020   3.102   0.876   4.230 -0.5238 -2.0119 -0.0716
 4187SOL    HW224021   3.153   0.885   4.359  0.3883  0.6910 -1.4514
 4188SOL     OW24022   4.459   3.106   3.276  0.5003  0.4028 -0.0819
 4188SOL    HW124023   4.550   3.080   3.268  0.4913 -0.6923  3.3417
 4188SOL    HW224024   4.409   3.040   3.228 -0.4488  2.1737 -1.5161
 4189SOL     OW24025   4.120   1.034   4.520 -0.0319 -0.6612 -0.0917
 4189SOL    HW124026   4.035   1.059   4.484 -0.9768 -1.9975  1.1747
 4189SOL    HW224027   4.105   0.939   4.518  2.0951 -1.0574  2.5944
 4190SOL     OW24028   3.447   1.168   8.726 -0.0201 -1.0777 -0.0350
 4190SOL    HW124029   3.365   1.194   8.685 -0.3392 -0.9143  0.7160
 4190SOL    HW224030   3.502   1.241   8.698 -1.2410 -0.7915 -1.7536
 4191SOL     OW24031   1.383   0.491   4.520 -0.0662  0.6036  0.5908
 4191SOL    HW124032   1.375   0.428   4.448 -0.2586  3.9647 -2.3033
 4191SOL    HW224033   1.395   0.578   4.483 -2.4883  1.0801  0.8838
 4192SOL     OW24034   0.406   2.934  11.647 -0.3832  0.0321  0.4007
 4192SOL    HW124035   0.418   2.991  11.724 -1.4502 -1.1866  1.4796
 4192SOL    HW224036   0.351   2.863  11.681  0.5208  0.0757  1.9681
 4193SOL     OW24037   1.676   1.331   6.744  0.3997 -1.0699 -0.1944
 4193SOL    HW124038   1.630   1.414   6.731  0.2882 -1.1785 -0.4978
 4193SOL    HW224039   1.667   1.300   6.654 -0.3954 -1.8145  0.1354
 4194SOL     OW24040   1.167   3.629   2.915  0.3970  0.1828 -0.1706
 4194SOL    HW124041   1.098   3.690   2.940  0.5709 -0.3788  1.6448
 4194SOL    HW224042   1.220   3.676   2.850  0.8242  0.3282  0.2811
 4195SOL     OW24043   0.356   2.000   7.935  0.2548 -0.3078 -0.3598
 4195SOL    HW124044   0.331   1.981   7.845  0.5978  0.5556 -0.6424
 4195SOL    HW224045   0.430   1.940   7.944  2.2084  2.0771 -0.5542
 4196SOL     OW24046   4.675   2.177  13.934 -0.4977  0.0092  0.0375
 4196SOL    HW124047   0.007   2.172  14.012  1.9605 -0.0716 -1.7377
 4196SOL    HW224048   0.020   2.195  13.870  0.0352 -1.2861  0.2400
 4197SOL     OW24049   0.903   0.758   1.977 -0.0818 -0.0324  0.0264
 4197SOL    HW124050   0.815   0.749   1.941  0.1421  0.1148 -0.5612
 4197SOL    HW224051   0.924   0.841   1.934 -1.5353 -1.2148 -2.9738
 4198SOL     OW24052   0.114   1.096   3.250 -0.4428 -0.3005 -0.4878
 4198SOL    HW124053   0.200   1.095   3.292 -0.2030 -1.4051 -0.9945
 4198SOL    HW224054   0.086   1.186   3.266  0.8407 -0.3293  2.0078
 4199SOL     OW24055   2.145   1.382   9.270  0.1009 -0.0967  0.2238
 4199SOL    HW124056   2.167   1.419   9.185  1.0698  1.8276  1.3303
 4199SOL    HW224057   2.090   1.306   9.251 -1.8652  0.8504  2.2703
 4200SOL     OW24058   0.963   2.918   6.317  0.3575  0.0020 -0.6178
 4200SOL    HW124059   0.929   2.954   6.235 -2.7516  0.3353  0.8305
 4200SOL    HW224060   0.993   3.001   6.356  2.1843 -0.2885 -1.3774
 4201SOL     OW24061   3.242   3.667   3.128 -0.3121  0.3207  0.4840
 4201SOL    HW124062   3.182   3.702   3.062  1.7388 -0.0488 -1.5400
 4201SOL    HW224063   3.313   3.731   3.129 -0.5026  0.5468 -0.9845
 4202SOL     OW24064   1.151   3.532   9.929  0.7809  0.0768  0.2652
 4202SOL    HW124065   1.146   3.458   9.868  0.9130  0.4309 -0.1712
 4202SOL    HW224066   1.177   3.488  10.010 -2.1755 -0.1468  1.0978
 4203SOL     OW24067   1.676   4.127  14.062 -0.3019 -0.3425 -0.1777
 4203SOL    HW124068   1.695   4.037  14.037  0.0163 -0.0604 -0.9515
 4203SOL    HW224069   1.611   4.160  14.001  0.0249  1.3670  0.3801
 4204SOL     OW24070   1.588   4.076   3.347 -0.2785  0.4136  0.2123
 4204SOL    HW124071   1.504   4.085   3.392  0.8483 -1.0755  2.5977
 4204SOL    HW224072   1.551   4.085   3.259  1.4601 -3.3580 -0.9323
 4205SOL     OW24073   2.063   4.661  13.397 -0.2935 -0.1801 -0.0786
 4205SOL    HW124074   2.011   4.715  13.337  0.1528  0.5871  0.2219
 4205SOL    HW224075   2.059   4.570  13.367  1.8187 -1.3919  3.3111
 4206SOL     OW24076   2.366   2.705   3.307 -0.0826 -0.2213 -0.1612
 4206SOL    HW124077   2.457   2.703   3.337 -0.2809 -0.8534  0.3885
 4206SOL    HW224078   2.319   2.666   3.381 -1.6872  0.0408 -1.0400
 4207SOL     OW24079   1.367   0.640   1.657 -0.5180  0.0147 -0.0340
 4207SOL    HW124080   1.332   0.570   1.602  0.8376 -1.2828  0.7645
 4207SOL    HW224081   1.431   0.593   1.712 -1.8759  0.4959  1.9573
 4208SOL     OW24082   2.724   0.607   7.365  0.2327  0.0083  0.2452
 4208SOL    HW124083   2.722   0.567   7.452 -1.6460  0.8747  0.5941
 4208SOL    HW224084   2.681   0.543   7.309 -2.4247  1.5497  0.5561
 4209SOL     OW24085   4.531   2.869   9.310  0.1808 -0.1842 -0.7225
 4209SOL    HW124086   4.568   2.938   9.365  0.0467 -0.2061 -0.6050
 4209SOL    HW224087   4.566   2.795   9.359 -0.7628 -1.0784 -1.3935
 4210SOL     OW24088   0.802   2.639   3.867  0.7133  0.7869 -0.3731
 4210SOL    HW124089   0.869   2.628   3.935  2.1829 -0.4213 -1.9985
 4210SOL    HW224090   0.854   2.631   3.787 -0.4336 -0.6153 -0.9591
 4211SOL     OW24091   3.619   1.834   1.510  0.0467 -0.0903 -0.0265
 4211SOL    HW124092   3.566   1.884   1.572 -0.2980 -0.7779  0.2282
 4211SOL    HW224093   3.620   1.751   1.557 -1.7965  0.9848  1.9491
 4212SOL     OW24094   2.375   2.918   5.723 -0.3227 -0.0337 -0.3512
 4212SOL    HW124095   2.378   2.938   5.816 -1.6402 -0.5617 -0.1942
 4212SOL    HW224096   2.295   2.956   5.687 -0.6460 -1.0913 -0.7572
 4213SOL     OW24097   3.365   3.288   0.033 -0.0228 -0.1750 -0.1573
 4213SOL    HW124098   3.351   3.381   0.050  0.2342 -0.3302  0.8963
 4213SOL    HW224099   3.318   3.252   0.108  1.4143 -0.3582  0.6685
 4214SOL     OW24100   3.800   1.853  11.035 -0.9428 -0.6860  0.1602
 4214SOL    HW124101   3.879   1.820  11.077 -1.0150  0.5762  1.2739
 4214SOL    HW224102   3.828   1.869  10.945 -1.4626  1.8225  0.4578
 4215SOL     OW24103   2.522   4.675   9.206  0.2670  0.2752 -0.2166
 4215SOL    HW124104   2.565   4.632   9.280  0.0711  0.7328  0.1591
 4215SOL    HW224105   2.470   0.020   9.248 -0.9617  0.1295 -1.4909
 4216SOL     OW24106   3.378   2.161   6.806  0.7793 -0.5416  1.0039
 4216SOL    HW124107   3.389   2.151   6.711 -1.3117 -1.8853  0.9048
 4216SOL    HW224108   3.340   2.249   6.812  1.4295 -0.0928 -1.3957
 4217SOL     OW24109   3.312   3.976  10.117  0.6793 -0.3358 -0.1386
 4217SOL    HW124110   3.303   4.050  10.177 -0.2813  0.9986 -1.9167
 4217SOL    HW224111   3.308   3.906  10.182 -0.3953  0.3055  0.4800
 4218SOL     OW24112   1.253   4.081  11.815  0.0634 -0.0787 -0.1980
 4218SOL    HW124113   1.320   4.048  11.875  1.1276  1.4002 -0.5662
 4218SOL    HW224114   1.308   4.134  11.757  0.5290 -0.7983 -0.4250
 4219SOL     OW24115   2.108   3.841   2.169 -0.1394  0.1564 -0.8186
 4219SOL    HW124116   2.133   3.931   2.149  0.5674  0.1254 -0.0717
 4219SOL    HW224117   2.017   3.845   2.198  0.2232  1.2907  0.1618
 4220SOL     OW24118   2.027   3.190   8.096  1.0986  0.6816  0.6823
 4220SOL    HW124119   2.118   3.175   8.124  0.8668 -1.2520  0.3998
 4220SOL    HW224120   1.982   3.177   8.179  0.3246 -4.5942 -0.5167
 4221SOL     OW24121   4.545   1.651   4.206 -0.3788 -0.4056  0.5059
 4221SOL    HW124122   4.475   1.609   4.256 -0.3037 -2.2692 -0.9432
 4221SOL    HW224123   4.609   1.581   4.218  2.6057  2.2758  0.0260
 4222SOL     OW24124   3.650   2.845  10.376 -0.3096  0.1433 -0.0788
 4222SOL    HW124125   3.714   2.820  10.309  1.0181  1.8767  0.5515
 4222SOL    HW224126   3.574   2.874  10.325 -1.7000 -2.3256  0.5901
 4223SOL     OW24127   0.296   3.197   7.874 -0.0100  0.4612 -0.2999
 4223SOL    HW124128   0.388   3.221   7.886  0.2338 -0.4848 -0.2745
 4223SOL    HW224129   0.270   3.263   7.810 -1.9425  0.7231  0.7678
 4224SOL     OW24130   4.653   2.575   2.598  0.3314  0.3045  0.1842
 4224SOL    HW124131   4.593   2.506   2.572  0.7616  0.1684 -0.4611
 4224SOL    HW224132   0.009   2.525   2.577  0.2252  0.3939 -0.4395
 4225SOL     OW24133   4.014   0.582   0.808  0.7181  0.2432  0.0257
 4225SOL    HW124134   4.109   0.588   0.818  0.7888 -0.8608 -0.0093
 4225SOL    HW224135   3.994   0.666   0.766 -2.7142 -1.1801 -1.2542
 4226SOL     OW24136   0.085   2.315   8.439 -0.6151 -0.1818  0.4543
 4226SOL    HW124137   0.156   2.356   8.390  1.6056 -3.0290  1.3226
 4226SOL    HW224138   0.021   2.322   8.368  1.1343  0.0729 -1.0910
 4227SOL     OW24139   1.045   2.117   2.387 -0.2427 -0.0094  0.5691
 4227SOL    HW124140   0.985   2.113   2.460 -0.8059 -1.3977  0.0287
 4227SOL    HW224141   1.007   2.051   2.328  2.1732  0.1237 -1.1409
 4228SOL     OW24142   1.331   2.931   9.831 -0.2217  0.2423  0.1957
 4228SOL    HW124143   1.285   2.850   9.807  0.9714 -0.4592  0.3179
 4228SOL    HW224144   1.263   2.991   9.798  0.7819  1.6443  0.6593
 4229SOL     OW24145   2.536   1.903   4.794 -0.4009 -0.4451 -0.0843
 4229SOL    HW124146   2.461   1.853   4.826 -0.6907  0.3755  0.5067
 4229SOL    HW224147   2.497   1.984   4.761  2.6989  0.7576 -0.7424
 4230SOL     OW24148   3.659   1.101   3.821 -0.3209  0.1282 -0.2515
 4230SOL    HW124149   3.613   1.185   3.826  1.0842  0.8244  1.0692
 4230SOL    HW224150   3.657   1.086   3.916 -1.6380  0.9043 -0.1548
 4231SOL     OW24151   4.527   0.430   4.760  0.6738  0.3970  0.2616
 4231SOL    HW124152   4.450   0.426   4.817  2.0800 -1.4950  2.0188
 4231SOL    HW224153   4.518   0.371   4.686  3.7751 -2.0133  1.7866
 4232SOL     OW24154   1.810   3.753  10.779  0.1779 -0.3410  0.4350
 4232SOL    HW124155   1.794   3.757  10.873  0.9152  0.6542  0.5188
 4232SOL    HW224156   1.799   3.659  10.766  0.0253 -0.3550  0.6837
 4233SOL     OW24157   0.157   2.651   1.179 -0.0403  0.0861  0.4702
 4233SOL    HW124158   0.097   2.664   1.252 -0.4403 -0.2915  0.2104
 4233SOL    HW224159   0.244   2.641   1.217  0.3175 -0.7698 -0.5731
 4234SOL     OW24160   3.452   3.898   6.585  0.1055 -0.2786  0.1553
 4234SOL    HW124161   3.408   3.837   6.644 -1.5375 -0.4895 -1.2939
 4234SOL    HW224162   3.422   3.987   6.605 -0.1319 -1.0230  3.0807
 4235SOL     OW24163   2.356   0.657   9.031  0.1019  0.3361 -0.1084
 4235SOL    HW124164   2.318   0.734   8.989 -0.6285  0.6046  1.0558
 4235SOL    HW224165   2.284   0.621   9.083  0.1259  1.1415  0.4873
 4236SOL     OW24166   1.079   4.623   8.506  0.0856  0.4241 -0.5978
 4236SOL    HW124167   1.111   4.703   8.465 -1.8455  1.5141  0.0078
 4236SOL    HW224168   0.997   4.608   8.460  0.3039 -1.4007 -0.4123
 4237SOL     OW24169   2.540   1.525  14.314 -0.4935 -0.1101 -0.6674
 4237SOL    HW124170   2.466   1.567  14.358 -1.2475 -1.5551 -0.5641
 4237SOL    HW224171   2.529   1.430  14.322 -0.0142  0.0896  2.1870
 4238SOL     OW24172   3.879   2.651   3.121 -0.0889 -0.0364 -0.2404
 4238SOL    HW124173   3.808   2.592   3.146 -0.5065  0.6679  0.2529
 4238SOL    HW224174   3.945   2.588   3.093 -0.1623  0.3921 -1.3724
 4239SOL     OW24175   3.804   4.523  16.861  0.2052 -0.3168 -0.3878
 4239SOL    HW124176   3.822   4.467  16.937 -0.4154 -1.3934 -1.0311
 4239SOL    HW224177   3.787   4.606  16.905  1.4586  0.5208 -1.4921
 4240SOL     OW24178   0.289   4.681  13.787 -0.2913  0.1668 -0.3164
 4240SOL    HW124179   0.383   4.688  13.802 -0.2934  0.7081 -0.5503
 4240SOL    HW224180   0.262   4.686  13.878  1.5932  1.1852  0.1940
 4241SOL     OW24181   0.553   3.452   0.885 -0.6454  0.3893 -0.3716
 4241SOL    HW124182   0.613   3.526   0.877 -1.4977  0.9816 -1.3232
 4241SOL    HW224183   0.542   3.470   0.978  0.4411 -1.7126  0.1650
 4242SOL     OW24184   1.042   2.593  14.550  0.1050 -0.3035  0.2111
 4242SOL    HW124185   1.099   2.593  14.627 -1.4582  0.3032  1.3736
 4242SOL    HW224186   1.099   2.648  14.497 -0.0787 -1.2594 -0.9711
 4243SOL     OW24187   1.086   4.570   7.871  0.4953 -0.5651  0.6709
 4243SOL    HW124188   1.102   4.478   7.894  0.3229 -0.7810 -0.0730
 4243SOL    HW224189   1.099   4.571   7.777 -1.2774  0.0800  0.4217
 4244SOL     OW24190   3.334   1.400   1.933  0.1718  0.2192 -0.2407
 4244SOL    HW124191   3.388   1.323   1.952  0.8027  0.6080 -0.4682
 4244SOL    HW224192   3.401   1.462   1.906  0.3533 -0.2647 -0.8947
 4245SOL     OW24193   0.059   0.209   6.029 -0.0437  0.4328  0.1190
 4245SOL    HW124194   0.061   0.234   5.937 -2.2426 -1.0572 -0.3413
 4245SOL    HW224195   0.149   0.228   6.055 -0.7562  1.5417  1.7535
 4246SOL     OW24196   3.166   0.234  16.276 -0.3115 -0.3496 -0.1318
 4246SOL    HW124197   3.097   0.182  16.318  0.1327 -0.7267  0.1367
 4246SOL    HW224198   3.178   0.177  16.200 -1.2412 -0.5550 -0.1263
 4247SOL     OW24199   2.182   0.699   0.442  0.3271  0.5234  0.0568
 4247SOL    HW124200   2.263   0.652   0.462 -0.6985 -0.9511  0.7134
 4247SOL    HW224201   2.139   0.716   0.526 -0.7306  0.7813 -0.5331
 4248SOL     OW24202   0.489   0.516  15.030  0.5476 -0.4969 -0.6479
 4248SOL    HW124203   0.429   0.466  15.085 -0.3498  1.7012  0.3926
 4248SOL    HW224204   0.478   0.472  14.946  0.1651 -2.1583  0.2843
 4249SOL     OW24205   1.583   1.891  15.765  0.6715  0.8282 -0.2216
 4249SOL    HW124206   1.657   1.922  15.817  0.5021  0.8636  0.0033
 4249SOL    HW224207   1.516   1.942  15.810 -0.2325 -0.6089  0.0702
 4250SOL     OW24208   0.927   2.451   8.418 -0.0210 -0.4156  0.5298
 4250SOL    HW124209   0.976   2.376   8.385 -0.5299 -0.8085  0.6706
 4250SOL    HW224210   0.890   2.478   8.334 -1.5734  0.9335  1.6433
 4251SOL     OW24211   1.781   4.112  11.503  0.7852  0.4624 -0.1754
 4251SOL    HW124212   1.742   4.032  11.538 -1.4503  2.6751  2.4502
 4251SOL    HW224213   1.705   4.155  11.465  0.5124  0.3177  0.2096
 4252SOL     OW24214   1.976   2.011   2.851 -0.1516 -0.2375  0.6517
 4252SOL    HW124215   1.979   2.069   2.927  0.5765  0.9579 -0.2910
 4252SOL    HW224216   2.068   1.987   2.845 -0.0064 -0.2722  2.8533
 4253SOL     OW24217   2.667   3.156   5.922  0.5188 -0.5275 -0.1132
 4253SOL    HW124218   2.745   3.198   5.957 -0.8211  0.7906  1.3434
 4253SOL    HW224219   2.693   3.163   5.830  0.7372  0.8019  0.0399
 4254SOL     OW24220   0.161   4.355   7.518  0.5038  0.2030 -0.1353
 4254SOL    HW124221   0.182   4.408   7.594  2.9838 -1.7685  0.5678
 4254SOL    HW224222   0.243   4.362   7.469  1.4028  2.4935  1.7524
 4255SOL     OW24223   2.518   3.373  14.147 -0.1747  0.2532 -0.2556
 4255SOL    HW124224   2.470   3.375  14.064 -0.7357  0.1707  0.0653
 4255SOL    HW224225   2.466   3.419  14.213  1.3473 -0.4136  1.4061
 4256SOL     OW24226   4.589   1.368   6.601 -0.4936  0.0239 -0.3197
 4256SOL    HW124227   4.495   1.379   6.617 -0.3322  0.6289  0.2172
 4256SOL    HW224228   4.590   1.356   6.506 -0.5020  0.0359 -0.3212
 4257SOL     OW24229   0.242   2.624   4.630 -0.1915 -0.0521 -0.3681
 4257SOL    HW124230   0.280   2.565   4.565 -0.4749 -0.1659 -0.4317
 4257SOL    HW224231   0.148   2.606   4.620 -0.1263  0.2413 -1.5354
 4258SOL     OW24232   1.497   2.977   3.525 -0.5241 -0.3378 -0.2285
 4258SOL    HW124233   1.463   3.060   3.558  1.5903  0.4096  0.0626
 4258SOL    HW224234   1.514   2.993   3.432  1.0231  2.5681  0.5768
 4259SOL     OW24235   0.716   0.421   1.869 -0.1720  0.1993  0.1477
 4259SOL    HW124236   0.655   0.457   1.934 -0.9625  1.1293 -1.1299
 4259SOL    HW224237   0.667   0.340   1.851  1.7571 -1.1247  0.8594
 4260SOL     OW24238   0.815   4.117   8.644 -0.0602  0.4531 -0.0102
 4260SOL    HW124239   0.908   4.116   8.620 -0.1272 -0.9184 -0.2078
 4260SOL    HW224240   0.826   4.137   8.737 -0.8575  1.4712 -0.1378
 4261SOL     OW24241   3.176   1.706   3.141  0.6665  0.3943 -0.5103
 4261SOL    HW124242   3.221   1.789   3.159  0.6270  0.2996  0.0131
 4261SOL    HW224243   3.086   1.739   3.146  1.6231  2.8703  0.5499
 4262SOL     OW24244   4.614   0.466   1.139  0.0399  0.4997 -0.3540
 4262SOL    HW124245   4.611   0.373   1.116 -0.5380  0.4188  0.0423
 4262SOL    HW224246   4.581   0.476   1.228  0.3407 -3.5801  0.2364
 4263SOL     OW24247   1.471   2.378   6.875  0.1783 -0.5520  0.0343
 4263SOL    HW124248   1.502   2.291   6.901 -0.1589 -0.4626  0.7261
 4263SOL    HW224249   1.456   2.345   6.786  2.3024 -1.5046  0.0173
 4264SOL     OW24250   1.773   1.824   7.382  0.5463  0.5128 -0.2656
 4264SOL    HW124251   1.864   1.820   7.351  0.9267 -0.6936  0.9881
 4264SOL    HW224252   1.787   1.811   7.476 -1.1132  0.5133 -0.0269
 4265SOL     OW24253   0.821   3.113  11.206  0.0617  1.0214  0.0151
 4265SOL    HW124254   0.837   3.184  11.268  0.5181  0.3049  0.7124
 4265SOL    HW224255   0.726   3.121  11.204 -0.2974 -2.4006  2.7239
 4266SOL     OW24256   1.079   3.910  10.009 -0.0533  0.1107 -0.0799
 4266SOL    HW124257   1.126   3.993   9.998  0.3119 -0.0386  0.3509
 4266SOL    HW224258   1.099   3.875  10.096 -1.3244  0.6204  0.4168
 4267SOL     OW24259   0.025   2.516   8.991  0.2309 -0.6091  0.5615
 4267SOL    HW124260   0.006   2.459   9.065 -0.3335 -0.7972  0.2751
 4267SOL    HW224261   4.659   2.547   8.974  1.7857  5.8873  4.3460
 4268SOL     OW24262   0.248   2.759   1.636  0.7158  0.4135  0.0741
 4268SOL    HW124263   0.244   2.827   1.704  3.0765 -0.0749  0.6860
 4268SOL    HW224264   0.341   2.739   1.638  0.2398 -1.7016  0.7235
 4269SOL     OW24265   0.644   4.427   6.257 -0.1454 -0.1077 -0.2529
 4269SOL    HW124266   0.573   4.395   6.312  0.0018 -0.6241 -0.3631
 4269SOL    HW224267   0.653   4.516   6.291 -2.8813  0.1075 -0.0795
 4270SOL     OW24268   1.030   3.474   2.121 -0.2220  0.5128 -0.4902
 4270SOL    HW124269   1.054   3.432   2.204  2.0686  3.5092  0.3734
 4270SOL    HW224270   0.936   3.463   2.133 -0.2613 -0.3285 -1.5679
 4271SOL     OW24271   4.108   1.782   4.765  0.2701 -0.1532 -0.1103
 4271SOL    HW124272   4.165   1.761   4.840  0.7714  0.0159 -0.4437
 4271SOL    HW224273   4.077   1.868   4.795 -2.3228 -0.2047 -2.6779
 4272SOL     OW24274   4.705   3.320  15.202  0.3597  0.0199 -0.2496
 4272SOL    HW124275   4.641   3.362  15.144 -1.4459 -1.8811  0.3651
 4272SOL    HW224276   4.669   3.323  15.291 -0.3498 -0.8048 -0.5107
 4273SOL     OW24277   3.819   2.695   8.170 -0.1457  0.0748 -0.0832
 4273SOL    HW124278   3.904   2.652   8.165 -0.7671 -1.0634 -0.7170
 4273SOL    HW224279   3.780   2.655   8.247 -0.0718 -0.2075 -0.1949
 4274SOL     OW24280   2.991   1.363   5.036  0.2337  0.6511  0.3430
 4274SOL    HW124281   2.921   1.420   5.006 -1.2385 -0.4620  1.5958
 4274SOL    HW224282   2.953   1.281   5.005  1.7579  0.7656 -1.8232
 4275SOL     OW24283   4.567   0.832  10.106  0.4380 -0.1333  0.2793
 4275SOL    HW124284   4.604   0.881  10.179 -0.9755  1.9232 -0.3688
 4275SOL    HW224285   4.509   0.772  10.154 -1.4523  0.0295 -1.7644
 4276SOL     OW24286   4.141   0.373   2.147  0.3868 -0.3581 -0.1997
 4276SOL    HW124287   4.215   0.414   2.101  1.4894 -0.3021  1.6438
 4276SOL    HW224288   4.071   0.437   2.135 -0.2477 -0.7435  1.4214
 4277SOL     OW24289   3.193   0.889   6.688 -0.3785 -0.1827  0.4085
 4277SOL    HW124290   3.211   0.973   6.730 -0.4601 -0.0662  0.2096
 4277SOL    HW224291   3.099   0.883   6.704 -0.3449  1.5669  1.2786
 4278SOL     OW24292   3.381   0.074   7.833 -0.2100  0.1970  0.3843
 4278SOL    HW124293   3.360   0.007   7.768  0.2265 -0.0912  0.5440
 4278SOL    HW224294   3.355   0.038   7.918 -0.0051  0.1012  0.4065
 4279SOL     OW24295   3.797   3.396   3.143 -0.0106 -0.4268 -0.6031
 4279SOL    HW124296   3.703   3.413   3.133  0.1215  0.5388 -0.1881
 4279SOL    HW224297   3.807   3.308   3.107 -0.6841 -1.2173  1.1254
 4280SOL     OW24298   0.631   1.843  14.281  0.1160  0.1363  0.4588
 4280SOL    HW124299   0.614   1.756  14.316  2.7028  0.4243  2.4127
 4280SOL    HW224300   0.568   1.891  14.335  1.6282 -0.2576  2.5576
 4281SOL     OW24301   4.062   2.819   3.420 -0.2820 -0.3659 -0.4673
 4281SOL    HW124302   4.136   2.764   3.396  0.8601  1.8661 -2.0603
 4281SOL    HW224303   4.072   2.895   3.363 -0.9771 -0.1682 -0.3177
 4282SOL     OW24304   1.180   3.007   8.597 -0.2981  1.0605 -0.1986
 4282SOL    HW124305   1.108   3.070   8.602 -1.1182  0.0978  0.1565
 4282SOL    HW224306   1.178   2.974   8.687 -3.2752  1.4565 -0.1268
 4283SOL     OW24307   4.494   0.911   8.210  0.5135 -0.0529 -0.0741
 4283SOL    HW124308   4.527   0.968   8.280  0.5022 -0.5944  0.3732
 4283SOL    HW224309   4.556   0.917   8.137 -1.2108  0.8504 -1.4521
 4284SOL     OW24310   0.939   2.045   1.789 -0.3761 -0.7617 -0.0222
 4284SOL    HW124311   0.898   1.999   1.716 -1.1266  1.1304 -0.8075
 4284SOL    HW224312   0.953   2.133   1.752  0.4895 -1.0325 -0.3433
 4285SOL     OW24313   1.935   3.400   5.341 -0.1879 -0.2348 -0.2417
 4285SOL    HW124314   1.842   3.423   5.352  0.1498  3.0873 -4.0624
 4285SOL    HW224315   1.931   3.345   5.262 -0.4708  0.1075 -0.4661
 4286SOL     OW24316   1.370   3.454   6.359  0.6550 -0.3191 -0.2404
 4286SOL    HW124317   1.286   3.472   6.315  0.0543  1.2198  1.5336
 4286SOL    HW224318   1.372   3.540   6.402  0.3386 -1.7849  2.6993
 4287SOL     OW24319   1.669   2.856   2.739 -0.0219 -0.1521 -0.1014
 4287SOL    HW124320   1.700   2.872   2.650  1.0300  0.9791  0.4652
 4287SOL    HW224321   1.583   2.821   2.716 -0.7893  2.0548 -0.5339
 4288SOL     OW24322   2.334   0.542  15.902 -0.0343 -0.2039  0.4208
 4288SOL    HW124323   2.350   0.458  15.860  1.3825 -1.1731  2.8522
 4288SOL    HW224324   2.321   0.513  15.993  2.4361 -1.0595  0.4939
 4289SOL     OW24325   0.198   4.592   8.996 -0.1747  0.0368 -0.2571
 4289SOL    HW124326   0.247   4.517   9.030  0.0912 -1.2321 -3.4256
 4289SOL    HW224327   0.269   4.657   8.994 -1.3423  1.3536  1.4548
 4290SOL     OW24328   2.674   2.463   5.038  0.2499 -0.5323 -0.1436
 4290SOL    HW124329   2.710   2.384   5.078 -0.1562  0.8572  2.9348
 4290SOL    HW224330   2.598   2.482   5.093  1.5650 -2.6345  2.3815
 4291SOL     OW24331   3.975   2.057  12.965 -0.9482  0.6722  0.3658
 4291SOL    HW124332   3.989   2.129  13.026  1.2380  1.8285 -1.4812
 4291SOL    HW224333   4.060   2.013  12.962 -1.8416 -0.9322 -1.5375
 4292SOL     OW24334   3.556   1.269  16.151 -0.3684  0.1659 -0.2055
 4292SOL    HW124335   3.538   1.216  16.228  0.7859  0.8840  0.5633
 4292SOL    HW224336   3.612   1.213  16.097  2.6161  2.9184 -0.0010
 4293SOL     OW24337   2.381   1.065  16.562  0.7764 -0.2142  0.0985
 4293SOL    HW124338   2.379   1.107  16.648  0.1053 -0.2275  0.0908
 4293SOL    HW224339   2.313   1.112  16.515  0.2114  0.7482  1.8749
 4294SOL     OW24340   0.215   3.813   4.561 -0.2855  0.0928 -0.2483
 4294SOL    HW124341   0.183   3.812   4.651 -0.6408  0.2807 -0.3721
 4294SOL    HW224342   0.147   3.759   4.521 -0.9969 -0.3400  1.5597
 4295SOL     OW24343   2.637   3.639   6.092 -0.7026  0.3746  0.7523
 4295SOL    HW124344   2.602   3.584   6.021  1.0427  0.7393 -0.3676
 4295SOL    HW224345   2.573   3.613   6.159 -0.7859  0.1390  0.5834
 4296SOL     OW24346   0.428   2.903   5.877 -0.1429 -0.6970  0.1114
 4296SOL    HW124347   0.419   2.902   5.972  1.3058 -0.8302  0.2374
 4296SOL    HW224348   0.485   2.979   5.870  2.1115 -2.3945  0.1226
 4297SOL     OW24349   1.682   4.522   8.592  0.2360 -0.4113  0.5783
 4297SOL    HW124350   1.677   4.617   8.591 -0.0709 -0.4448 -1.2187
 4297SOL    HW224351   1.614   4.504   8.528  2.3214 -0.4414 -1.6417
 4298SOL     OW24352   0.517   2.180   0.114  0.6345  0.0812 -0.2060
 4298SOL    HW124353   0.611   2.172   0.096  0.6096  3.1437 -1.6944
 4298SOL    HW224354   0.522   2.226   0.198 -0.2430 -0.5817  0.2097
 4299SOL     OW24355   1.900   2.468  16.232  0.3209  0.2995  0.2105
 4299SOL    HW124356   1.992   2.444  16.227  0.4927  1.6443 -2.5885
 4299SOL    HW224357   1.887   2.504  16.320 -0.5518 -4.3201  1.9901
 4300SOL     OW24358   0.197   1.359   1.090  0.3633  0.4416 -0.0069
 4300SOL    HW124359   0.196   1.331   0.999 -0.8515  0.8358 -0.1143
 4300SOL    HW224360   0.282   1.328   1.124  0.2721  0.5601  0.3336
 4301SOL     OW24361   2.858   3.067   5.234 -0.2356  0.2272 -0.2841
 4301SOL    HW124362   2.842   2.999   5.299  0.5074  0.8800  0.5851
 4301SOL    HW224363   2.845   3.141   5.294  2.0812  0.9471 -0.6776
 4302SOL     OW24364   4.044   3.041   2.027 -0.2076  0.1944 -0.0394
 4302SOL    HW124365   4.123   3.000   2.063 -0.0618  1.7726  1.4212
 4302SOL    HW224366   3.971   3.000   2.074  1.0226 -1.7101  0.2443
 4303SOL     OW24367   3.758   0.738   5.600 -0.1555  0.4845 -0.4717
 4303SOL    HW124368   3.790   0.759   5.513  2.2002  1.8507  0.7292
 4303SOL    HW224369   3.665   0.736   5.577 -0.5074 -1.1361  1.0764
 4304SOL     OW24370   0.682   2.348  11.073  0.7486 -0.1379  0.0294
 4304SOL    HW124371   0.647   2.265  11.104  1.0616  1.0503  3.5944
 4304SOL    HW224372   0.607   2.379  11.023 -0.1489 -0.7743  0.9992
 4305SOL     OW24373   2.150   1.363   5.292  0.4686  0.0050 -0.7906
 4305SOL    HW124374   2.130   1.361   5.199  1.4129 -0.8110 -0.9752
 4305SOL    HW224375   2.140   1.273   5.322 -1.1666  0.7892  0.9894
 4306SOL     OW24376   4.275   1.449   4.657 -0.1920  0.2385  0.4233
 4306SOL    HW124377   4.300   1.404   4.577 -0.3120 -0.6166  0.8720
 4306SOL    HW224378   4.181   1.454   4.642 -0.6508 -0.7334  2.8920
 4307SOL     OW24379   1.103   2.067   6.701 -0.0681  0.4239  0.3032
 4307SOL    HW124380   1.131   2.143   6.651  1.8283 -1.1986 -1.0956
 4307SOL    HW224381   1.011   2.073   6.674 -0.1944 -4.1632 -0.2998
 4308SOL     OW24382   0.662   4.627   8.656 -0.0054  0.5342  0.3495
 4308SOL    HW124383   0.699   4.539   8.659 -0.3436  0.2780 -2.9926
 4308SOL    HW224384   0.743   4.679   8.663  0.5310 -0.0590 -1.4849
 4309SOL     OW24385   0.629   2.871   9.347 -0.5720 -0.0555  0.0497
 4309SOL    HW124386   0.607   2.960   9.319 -0.7458  0.0916  0.6477
 4309SOL    HW224387   0.581   2.862   9.429  1.6047 -2.5370  1.0393
 4310SOL     OW24388   1.092   3.316   2.950 -0.6832  0.0703 -0.2440
 4310SOL    HW124389   1.152   3.294   2.878  0.0177 -0.0261  0.3630
 4310SOL    HW224390   1.130   3.400   2.978  1.6530 -0.7068 -1.0572
 4311SOL     OW24391   1.368   2.990   2.318 -0.2756 -0.3599  0.1121
 4311SOL    HW124392   1.411   2.905   2.332  0.8271  0.4935  1.9918
 4311SOL    HW224393   1.354   3.014   2.410 -0.1108  0.4844 -0.0906
 4312SOL     OW24394   0.248   0.335   0.287  0.2846  0.0141  0.2029
 4312SOL    HW124395   0.192   0.375   0.353  1.3093  1.9072 -0.0486
 4312SOL    HW224396   0.333   0.373   0.309  0.1564  1.2894 -1.5463
 4313SOL     OW24397   1.433   3.927   5.124  0.1135  0.6274 -0.3487
 4313SOL    HW124398   1.366   3.875   5.169 -0.7806  0.8184 -1.4766
 4313SOL    HW224399   1.372   3.973   5.067 -0.6786  1.0439  0.8299
 4314SOL     OW24400   3.215   1.793   3.529 -0.3192 -0.0796  0.0729
 4314SOL    HW124401   3.164   1.865   3.492 -1.5093  0.2953  2.4573
 4314SOL    HW224402   3.189   1.712   3.483  3.3696  0.1247 -2.3921
 4315SOL     OW24403   0.687   4.039  14.184 -0.1456  0.1368  0.3979
 4315SOL    HW124404   0.730   3.979  14.124  0.7875  0.1711  1.0271
 4315SOL    HW224405   0.687   3.981  14.261 -2.3562 -0.1895  0.1232
 4316SOL     OW24406   1.128   2.049  13.878  0.0180 -0.3316  0.2149
 4316SOL    HW124407   1.054   1.989  13.884  1.0373 -1.8834 -2.3383
 4316SOL    HW224408   1.093   2.124  13.830 -1.4299 -0.5909  0.8626
 4317SOL     OW24409   0.570   4.677   8.413  0.0265 -0.2802 -0.3350
 4317SOL    HW124410   0.481   4.642   8.418 -0.0148 -0.3199 -1.2324
 4317SOL    HW224411   0.598   4.671   8.504  1.0480 -0.0276 -0.6305
 4318SOL     OW24412   2.198   3.047   0.116 -0.0837  0.4299 -0.3471
 4318SOL    HW124413   2.263   3.058   0.047  0.3356 -0.4658 -0.0930
 4318SOL    HW224414   2.128   3.062   0.053  0.2340  0.4081 -0.7033
 4319SOL     OW24415   0.561   0.701   3.414 -0.3349 -0.4543 -0.1263
 4319SOL    HW124416   0.599   0.625   3.369 -0.4548 -0.7758  0.3030
 4319SOL    HW224417   0.636   0.756   3.436 -0.9675  1.0874 -1.8960
 4320SOL     OW24418   2.715   0.369  11.945  0.3778 -0.3566  0.4827
 4320SOL    HW124419   2.635   0.422  11.949 -0.0896 -1.0569  0.3584
 4320SOL    HW224420   2.749   0.388  11.858  1.2476  0.8143  1.0829
 4321SOL     OW24421   1.902   2.395   4.400  0.2935 -0.3193 -0.2620
 4321SOL    HW124422   1.948   2.367   4.479 -1.2494 -1.9650  0.0575
 4321SOL    HW224423   1.826   2.437   4.442  1.4839  0.9499  0.6203
 4322SOL     OW24424   3.172   1.675   7.192  0.2216  0.0194 -0.8875
 4322SOL    HW124425   3.178   1.582   7.216 -1.4879  0.6199  1.9173
 4322SOL    HW224426   3.078   1.692   7.185 -0.1102 -0.2507  2.7096
 4323SOL     OW24427   3.892   2.191   7.271 -0.0465  0.5776 -0.6712
 4323SOL    HW124428   3.904   2.109   7.320  1.9965  2.1250  1.3762
 4323SOL    HW224429   3.797   2.201   7.284 -0.1462 -0.4415 -0.6039
 4324SOL     OW24430   1.199   3.911   3.749 -0.2538  0.1666  0.5705
 4324SOL    HW124431   1.291   3.932   3.737  0.0667 -1.3793  0.2932
 4324SOL    HW224432   1.172   3.997   3.781  1.4404 -0.1428  2.8509
 4325SOL     OW24433   3.062   2.033   6.500 -0.1699 -0.1463 -0.4759
 4325SOL    HW124434   3.089   2.052   6.589 -0.0919  1.2749 -0.7960
 4325SOL    HW224435   3.103   2.105   6.451 -0.9326  0.2234 -0.5694
 4326SOL     OW24436   1.360   0.607   3.604 -0.3307 -0.1386 -0.3007
 4326SOL    HW124437   1.293   0.615   3.536  1.0118  1.4083 -1.4410
 4326SOL    HW224438   1.438   0.634   3.556  1.6350 -0.7375  2.5861
 4327SOL     OW24439   3.650   0.927  15.469  0.0990  0.0431  0.3641
 4327SOL    HW124440   3.707   0.992  15.510  0.4130  0.0937 -0.1409
 4327SOL    HW224441   3.567   0.968  15.492  0.8209  1.2950  0.7088
 4328SOL     OW24442   4.140   1.032   7.429 -0.0513 -0.8379  0.6725
 4328SOL    HW124443   4.181   1.004   7.347  1.8880 -0.7899  1.6041
 4328SOL    HW224444   4.052   1.053   7.399 -0.2141 -0.6405  1.2911
 4329SOL     OW24445   2.450   0.391   6.482 -0.4764 -0.2754 -0.2290
 4329SOL    HW124446   2.364   0.402   6.522 -0.2654  1.4395 -0.2541
 4329SOL    HW224447   2.501   0.359   6.557 -2.4275  1.9581  2.0544
 4330SOL     OW24448   0.541   2.857   1.836  0.1618  0.1742 -0.3420
 4330SOL    HW124449   0.635   2.841   1.841  0.6265  2.0781 -3.0167
 4330SOL    HW224450   0.505   2.824   1.918 -1.0849 -2.2744 -1.8772
 4331SOL     OW24451   1.455   3.826   1.171  0.1516 -0.1070 -0.6950
 4331SOL    HW124452   1.513   3.842   1.096  0.9899 -0.6516 -0.1650
 4331SOL    HW224453   1.371   3.815   1.126 -1.1182  1.4631  1.3012
 4332SOL     OW24454   1.656   1.337   8.031 -0.1752  0.6270 -0.2724
 4332SOL    HW124455   1.729   1.299   8.080 -0.5884 -1.5306 -1.3303
 4332SOL    HW224456   1.615   1.261   7.990 -1.1502  1.0452 -0.0750
 4333SOL     OW24457   1.499   0.273   0.752  0.3962 -0.0350  0.6264
 4333SOL    HW124458   1.558   0.298   0.823  0.8161  1.0245 -0.0960
 4333SOL    HW224459   1.491   0.179   0.771  0.1999  0.5496  3.3647
 4334SOL     OW24460   4.386   1.808   9.223 -0.2716  0.4352 -0.2500
 4334SOL    HW124461   4.349   1.774   9.304 -0.6704  1.6476  0.0798
 4334SOL    HW224462   4.311   1.793   9.164 -1.2632  0.0578  1.1188
 4335SOL     OW24463   4.031   0.494   4.020 -0.8164  0.7894 -0.9655
 4335SOL    HW124464   4.106   0.551   4.036 -1.4176  0.8937  1.3978
 4335SOL    HW224465   4.045   0.452   3.935  0.7744  0.5175 -0.5724
 4336SOL     OW24466   4.686   3.259   9.349  0.3636  0.5899  0.2102
 4336SOL    HW124467   4.652   3.189   9.405  1.3705 -2.4299 -2.9912
 4336SOL    HW224468   4.651   3.336   9.394 -2.0217  0.0357 -0.7179
 4337SOL     OW24469   0.748   3.617   2.780 -0.2249  0.1620 -0.0277
 4337SOL    HW124470   0.774   3.694   2.730 -0.7224 -0.7005 -1.6131
 4337SOL    HW224471   0.655   3.634   2.796 -0.6934 -1.7887 -0.6467
 4338SOL     OW24472   3.954   2.573  15.628  0.2782  0.6366 -0.5541
 4338SOL    HW124473   3.954   2.610  15.539  2.3421 -0.4260 -0.9959
 4338SOL    HW224474   3.958   2.478  15.627  0.7137  0.6646 -1.3939
 4339SOL     OW24475   0.465   0.077  15.539 -0.4056  0.2057  0.1284
 4339SOL    HW124476   0.436   0.132  15.612  1.9143  2.5096 -0.6940
 4339SOL    HW224477   0.519   0.141  15.493  1.3989 -0.0670  1.8661
 4340SOL     OW24478   2.375   3.284   1.204 -0.3558  0.3330 -0.0120
 4340SOL    HW124479   2.466   3.310   1.211  0.1013 -1.6804  1.3914
 4340SOL    HW224480   2.362   3.266   1.111 -1.3668  0.5977  0.0767
 4341SOL     OW24481   3.382   3.888  14.670 -0.1297  0.1777  0.2424
 4341SOL    HW124482   3.436   3.934  14.606  0.7875  1.0770  1.6480
 4341SOL    HW224483   3.417   3.799  14.665  0.0883  0.4828 -3.7008
 4342SOL     OW24484   3.815   1.536  10.022  0.0702 -0.8638 -1.0026
 4342SOL    HW124485   3.881   1.467  10.011 -0.1601 -1.2014 -0.2687
 4342SOL    HW224486   3.734   1.490  10.044  0.6331 -0.5018  1.8535
 4343SOL     OW24487   2.244   0.684  16.882  0.0418  0.1097  0.3407
 4343SOL    HW124488   2.182   0.631  16.831  0.4846  1.5662 -1.6949
 4343SOL    HW224489   2.221   0.771  16.851  1.3023 -0.9383 -3.5811
 4344SOL     OW24490   3.538   3.832   8.833 -0.7550  0.2790 -0.3253
 4344SOL    HW124491   3.547   3.926   8.815  1.7080 -0.3031 -2.1335
 4344SOL    HW224492   3.454   3.810   8.793 -0.3338 -1.7274 -0.1039
 4345SOL     OW24493   1.977   1.576   3.587 -0.3750  0.1443 -0.6373
 4345SOL    HW124494   2.042   1.551   3.522  1.0862 -1.6125  1.4776
 4345SOL    HW224495   2.022   1.627   3.655  0.9806  0.1301 -1.5435
 4346SOL     OW24496   2.988   2.572   5.751  0.7176 -0.1780 -0.1381
 4346SOL    HW124497   3.005   2.566   5.845 -0.5786 -1.3426  0.0285
 4346SOL    HW224498   2.923   2.642   5.743 -1.2080 -1.8893  0.5170
 4347SOL     OW24499   2.659   2.066   6.513 -0.5078  0.0789  0.0497
 4347SOL    HW124500   2.709   1.990   6.485  0.6397  0.6964  0.4592
 4347SOL    HW224501   2.689   2.093   6.600  0.7809 -2.2501  0.3095
 4348SOL     OW24502   4.583   4.651  13.226  0.2385 -0.1401  0.5613
 4348SOL    HW124503   4.574   4.667  13.132  0.5176 -0.3867  0.4963
 4348SOL    HW224504   4.554   0.011  13.264 -0.3411 -0.7438  1.4115
 4349SOL     OW24505   3.225   1.129  16.465 -0.1293  0.1103  0.7401
 4349SOL    HW124506   3.172   1.057  16.498  0.3752  0.0829  1.4787
 4349SOL    HW224507   3.178   1.209  16.489  1.7721  1.1227  1.0678
 4350SOL     OW24508   0.705   0.416   5.267 -0.2241  0.4867  0.4672
 4350SOL    HW124509   0.784   0.402   5.215 -0.6154  1.6541 -0.4441
 4350SOL    HW224510   0.741   0.470   5.338 -2.0085  0.4484  1.4071
 4351SOL     OW24511   2.669   0.466   7.598  0.5632 -0.1934  0.4548
 4351SOL    HW124512   2.714   0.473   7.683  1.3296  1.4217 -0.0864
 4351SOL    HW224513   2.631   0.379   7.607  1.2412 -0.5156  0.1546
 4352SOL     OW24514   1.535   2.467   2.728  0.1190 -0.2511  0.1135
 4352SOL    HW124515   1.488   2.394   2.686 -1.2247  1.8937 -2.1391
 4352SOL    HW224516   1.612   2.428   2.769 -0.3343 -0.6714  0.5596
 4353SOL     OW24517   2.481   2.422   8.215  0.3950 -0.1835 -0.0787
 4353SOL    HW124518   2.474   2.341   8.165 -0.0281  0.5961 -1.2647
 4353SOL    HW224519   2.570   2.412   8.251 -0.2278 -2.6987  0.7765
 4354SOL     OW24520   3.001   2.320  11.129 -0.0010 -0.1222  0.2060
 4354SOL    HW124521   3.079   2.313  11.074 -0.1187  1.6028 -0.1873
 4354SOL    HW224522   3.010   2.414  11.141 -0.6498  0.3250 -2.7951
 4355SOL     OW24523   0.983   3.320   3.882  0.1023  0.1594 -0.2413
 4355SOL    HW124524   1.023   3.327   3.796 -2.6323  0.9951 -1.4567
 4355SOL    HW224525   0.964   3.412   3.902  0.2764 -0.3148  2.1116
 4356SOL     OW24526   4.488   1.317   2.126 -0.3577 -0.1642 -0.3075
 4356SOL    HW124527   4.482   1.234   2.079 -1.1407 -0.2960  0.0224
 4356SOL    HW224528   4.495   1.380   2.054 -3.0530  1.6614  1.0308
 4357SOL     OW24529   1.289   0.696   4.343 -0.0694 -0.0621  0.5120
 4357SOL    HW124530   1.224   0.713   4.275  1.2475  1.2434 -0.4348
 4357SOL    HW224531   1.249   0.762   4.400  3.7746  1.6111  1.2749
 4358SOL     OW24532   0.938   0.496  16.330  0.3810 -0.3782  0.3276
 4358SOL    HW124533   0.973   0.480  16.243 -0.4645 -2.1809  0.3169
 4358SOL    HW224534   0.847   0.476  16.306 -0.1874  0.6713  1.5929
 4359SOL     OW24535   2.609   0.468   8.417 -0.7648  0.3410  0.5549
 4359SOL    HW124536   2.660   0.537   8.373 -1.2691  0.6455  0.4503
 4359SOL    HW224537   2.543   0.526   8.455 -2.3375 -0.7172 -0.5821
 4360SOL     OW24538   3.478   3.465  17.459  0.0308 -0.0382  0.4019
 4360SOL    HW124539   3.398   3.468  17.512 -0.1207 -0.0965  0.1739
 4360SOL    HW224540   3.523   3.541  17.495  1.3275 -0.7221  0.1955
 4361SOL     OW24541   2.009   2.665  10.733  0.4197 -0.3269 -0.3937
 4361SOL    HW124542   1.919   2.696  10.726 -0.0012 -1.3649  0.4227
 4361SOL    HW224543   2.051   2.750  10.722  0.0255 -0.0850  0.0031
 4362SOL     OW24544   1.558   1.991  14.412 -0.6037 -0.0699 -0.1572
 4362SOL    HW124545   1.526   2.071  14.369  0.2330  0.6340  0.5298
 4362SOL    HW224546   1.592   1.940  14.339 -0.1239 -0.0237  0.0365
 4363SOL     OW24547   3.663   2.135   5.760 -0.1193 -0.0617  0.0815
 4363SOL    HW124548   3.681   2.115   5.668  1.6958 -3.8953  1.2589
 4363SOL    HW224549   3.586   2.080   5.774 -0.4526 -0.0471 -1.6683
 4364SOL     OW24550   0.077   0.542   0.780 -0.0650 -0.2721  0.0561
 4364SOL    HW124551   0.076   0.585   0.866 -2.4133 -0.3223  0.0377
 4364SOL    HW224552   0.137   0.473   0.810 -1.8021 -1.3905  0.9887
 4365SOL     OW24553   0.657   1.353   2.241 -0.4738  1.1471 -0.7224
 4365SOL    HW124554   0.601   1.343   2.318 -1.1399 -1.4821 -1.5197
 4365SOL    HW224555   0.615   1.419   2.186  1.8203  1.4393 -2.1292
 4366SOL     OW24556   0.981   4.385  11.571  0.2949 -0.0315 -0.2470
 4366SOL    HW124557   1.027   4.303  11.555  1.8936  0.7292  0.4590
 4366SOL    HW224558   0.978   4.424  11.483  0.4288  2.9580  1.0589
 4367SOL     OW24559   4.453   2.935   8.065  0.6600  0.1036 -0.4159
 4367SOL    HW124560   4.521   2.976   8.118  0.8079 -0.2311 -0.3435
 4367SOL    HW224561   4.442   3.004   8.000  2.2518 -1.1139 -1.9896
 4368SOL     OW24562   2.483   2.148  15.537  0.1646 -1.0046  0.3933
 4368SOL    HW124563   2.533   2.212  15.486  3.0241 -1.1811  2.9301
 4368SOL    HW224564   2.436   2.099  15.470 -1.1294 -1.2925  1.5014
 4369SOL     OW24565   2.285   0.034   2.687  0.8449 -0.1905 -0.5063
 4369SOL    HW124566   2.297   0.121   2.648 -0.5847  0.9123  1.4539
 4369SOL    HW224567   2.347   0.038   2.760  1.7905 -0.7830 -1.2863
 4370SOL     OW24568   4.242   1.925  17.273  0.4250 -0.5561  0.1657
 4370SOL    HW124569   4.212   1.905  17.184  0.7313  2.1571 -0.5340
 4370SOL    HW224570   4.165   1.886  17.316 -1.2599  3.6198  0.9470
 4371SOL     OW24571   2.629   1.665   4.069  0.3906  0.4369 -0.6629
 4371SOL    HW124572   2.658   1.581   4.034  0.4225  0.1983 -0.0578
 4371SOL    HW224573   2.537   1.675   4.044  0.1560  3.3834  1.4416
 4372SOL     OW24574   2.488   1.433   2.206  0.4335 -0.2703 -0.7232
 4372SOL    HW124575   2.574   1.472   2.218  0.1855  0.4130 -1.1054
 4372SOL    HW224576   2.424   1.495   2.243  2.4394  1.5894 -0.3479
 4373SOL     OW24577   2.454   3.995   4.733 -0.2679 -0.9647 -0.0800
 4373SOL    HW124578   2.481   4.086   4.718 -0.5677 -0.8146  0.2939
 4373SOL    HW224579   2.410   3.974   4.650 -1.4355  0.6734  0.1279
 4374SOL     OW24580   3.041   1.834   7.976 -0.0706  0.1030  0.4326
 4374SOL    HW124581   3.097   1.763   7.944 -0.1807  0.1396  0.1602
 4374SOL    HW224582   3.044   1.816   8.070 -0.3908 -1.7104  0.0972
 4375SOL     OW24583   2.506   0.684   6.938  0.0738  0.0211  1.1354
 4375SOL    HW124584   2.484   0.727   7.020  1.0015 -0.7215  1.7662
 4375SOL    HW224585   2.465   0.738   6.869  0.1807 -0.7280  0.4886
 4376SOL     OW24586   3.878   0.686   8.632  0.1651 -1.0335  0.1279
 4376SOL    HW124587   3.966   0.718   8.615 -1.0446  0.2551 -3.7954
 4376SOL    HW224588   3.866   0.611   8.574 -1.2557 -1.1935  0.6259
 4377SOL     OW24589   4.509   0.257   8.776 -0.0171 -0.0194  0.2808
 4377SOL    HW124590   4.571   0.303   8.833 -1.3061  2.3375 -0.2320
 4377SOL    HW224591   4.525   0.163   8.790  0.4181 -0.0517 -0.4041
 4378SOL     OW24592   0.584   3.503  12.193 -0.8907 -0.1019  0.0311
 4378SOL    HW124593   0.608   3.568  12.126  0.7109  2.0634  2.6988
 4378SOL    HW224594   0.576   3.562  12.268  0.6103 -2.0172  1.6936
 4379SOL     OW24595   4.511   0.251   5.668 -0.1187 -0.9330 -0.5467
 4379SOL    HW124596   4.417   0.252   5.684  0.4049  0.8098  2.5436
 4379SOL    HW224597   4.514   0.318   5.600 -0.5651 -0.4319 -0.0621
 4380SOL     OW24598   3.814   0.472   7.660  0.1909  0.5678  0.4833
 4380SOL    HW124599   3.782   0.544   7.606  1.6458 -0.0719 -1.1972
 4380SOL    HW224600   3.759   0.397   7.637  1.6737  0.4640 -2.6190
 4381SOL     OW24601   2.755   4.173   1.536  0.6210 -0.0210  0.1203
 4381SOL    HW124602   2.660   4.171   1.543  0.5430  1.0091 -0.5612
 4381SOL    HW224603   2.774   4.264   1.560 -3.3259  1.8703 -3.9764
 4382SOL     OW24604   2.961   4.020   8.875 -0.2912  0.1964 -0.5434
 4382SOL    HW124605   2.985   4.040   8.965 -2.3881 -1.2009  0.3432
 4382SOL    HW224606   2.865   4.013   8.881 -0.4812  1.6669 -1.8395
 4383SOL     OW24607   1.971   2.004   8.037 -0.0955  0.3973 -0.1761
 4383SOL    HW124608   2.021   2.066   8.090  1.6623  1.2542 -2.7960
 4383SOL    HW224609   2.045   1.987   7.978 -1.2805 -1.5763 -1.0854
 4384SOL     OW24610   4.583   4.720   0.740  0.7539  0.8823  0.1394
 4384SOL    HW124611   4.654   4.667   0.775  0.3856  0.2527 -0.0837
 4384SOL    HW224612   4.641   0.070   0.717  1.8102 -1.0141 -3.2245
 4385SOL     OW24613   4.572   4.107   7.482  0.5330  0.1735  0.2167
 4385SOL    HW124614   4.571   4.038   7.548  3.9900  1.0928  1.2383
 4385SOL    HW224615   4.541   4.177   7.541  0.3082  2.2882 -2.4065
 4386SOL     OW24616   0.135   1.371   8.886 -0.3431  0.8145 -0.1756
 4386SOL    HW124617   0.040   1.368   8.875 -0.1730 -2.3544 -0.9115
 4386SOL    HW224618   0.144   1.328   8.801 -2.1154  1.0033 -0.4614
 4387SOL     OW24619   1.414   3.696   0.655 -0.4468 -0.5512 -0.3313
 4387SOL    HW124620   1.436   3.672   0.745 -1.5260 -1.0693 -0.2112
 4387SOL    HW224621   1.467   3.775   0.655 -1.2212 -0.0349 -0.3469
 4388SOL     OW24622   2.281   3.907  15.896 -0.4406 -0.0729 -0.2266
 4388SOL    HW124623   2.218   3.898  15.968  0.7773  1.8232  1.0886
 4388SOL    HW224624   2.248   3.966  15.829  0.3011  1.7289  0.9740
 4389SOL     OW24625   2.287   1.627   6.271  0.3270  0.7683 -0.5603
 4389SOL    HW124626   2.278   1.542   6.313 -0.5925  0.4252 -1.4699
 4389SOL    HW224627   2.370   1.662   6.305  0.8832 -2.8102  1.6945
 4390SOL     OW24628   1.381   0.888   1.071  0.1179 -0.1568 -0.0552
 4390SOL    HW124629   1.470   0.882   1.034  0.5347 -1.6615  1.2090
 4390SOL    HW224630   1.351   0.798   1.057 -0.3660  0.2109 -1.4651
 4391SOL     OW24631   0.870   0.966   0.503  0.0392 -0.5914 -0.4366
 4391SOL    HW124632   0.786   0.992   0.541 -1.3029 -3.7710 -1.2745
 4391SOL    HW224633   0.902   1.050   0.470 -0.9610  0.7130  1.8647
 4392SOL     OW24634   3.847   4.600  15.741 -0.2821 -0.6573 -0.3279
 4392SOL    HW124635   3.814   4.687  15.761 -1.1377 -1.5055  2.0003
 4392SOL    HW224636   3.883   4.577  15.827  2.1075  1.5950 -0.7554
 4393SOL     OW24637   0.155   3.904  15.195  0.1231  0.3712  0.0288
 4393SOL    HW124638   0.239   3.931  15.157  0.4156 -0.0544  0.3773
 4393SOL    HW224639   0.176   3.879  15.285 -0.4748  1.5145  0.4914
 4394SOL     OW24640   1.589   1.037  14.564  0.3269 -0.5320  0.5683
 4394SOL    HW124641   1.606   0.948  14.532  2.7232  0.1582 -0.0741
 4394SOL    HW224642   1.496   1.021  14.580 -0.6601  1.3772 -3.2823
 4395SOL     OW24643   4.563   2.837  14.559 -0.9172 -0.0260  0.1939
 4395SOL    HW124644   4.617   2.774  14.511 -1.0944 -1.3825  1.7479
 4395SOL    HW224645   4.546   2.787  14.639 -3.1882  1.5671  0.6916
 4396SOL     OW24646   0.493   1.197   9.965 -0.0836  0.2429 -0.4617
 4396SOL    HW124647   0.409   1.238   9.943  0.1511 -0.0202 -1.8582
 4396SOL    HW224648   0.451   1.121  10.006  1.3543 -1.0047 -1.2909
 4397SOL     OW24649   2.950   2.063   3.767 -0.2096 -0.8748  0.2267
 4397SOL    HW124650   2.935   2.097   3.679  0.1472 -0.2424  0.4114
 4397SOL    HW224651   2.920   2.132   3.827 -0.9684  0.0175 -1.1481
 4398SOL     OW24652   2.690   4.005   8.890 -0.6505  0.0181  0.0566
 4398SOL    HW124653   2.638   3.984   8.813  0.4039 -1.0064 -0.3792
 4398SOL    HW224654   2.621   4.022   8.954  0.0086 -0.2528  0.8357
 4399SOL     OW24655   4.034   1.884  11.691  0.5115 -0.0869  0.6050
 4399SOL    HW124656   4.036   1.789  11.703  2.3577 -0.2259 -0.7763
 4399SOL    HW224657   4.054   1.885  11.597  3.6193  0.8736  1.2879
 4400SOL     OW24658   2.092   0.009   5.460  0.1487  0.8399 -0.3491
 4400SOL    HW124659   2.075   4.646   5.497  2.4589 -0.7304 -2.9587
 4400SOL    HW224660   2.006   0.050   5.469 -0.3048  0.0932 -1.1449
 4401SOL     OW24661   2.650   0.011   6.457 -0.1982  0.6148 -0.1901
 4401SOL    HW124662   2.593   4.714   6.383 -2.7239  2.5864  1.2065
 4401SOL    HW224663   2.712   4.661   6.457  1.1721  1.7937 -1.1568
 4402SOL     OW24664   0.390   2.620   5.250 -0.2188  0.2412  0.0031
 4402SOL    HW124665   0.353   2.569   5.322  0.7888  1.0908  1.1451
 4402SOL    HW224666   0.412   2.696   5.303 -2.3825  1.2856 -0.5906
 4403SOL     OW24667   0.136   0.708  13.461 -0.3569  0.2600  0.2961
 4403SOL    HW124668   0.058   0.725  13.408 -1.6923 -0.0268  2.1567
 4403SOL    HW224669   0.087   0.704  13.543 -2.2754  2.2944 -0.7474
 4404SOL     OW24670   3.763   0.921   2.961  0.1202  0.0805 -0.6002
 4404SOL    HW124671   3.667   0.917   2.957 -0.0079  0.0426  2.6629
 4404SOL    HW224672   3.782   1.008   2.997  0.6320 -0.8373  1.3300
 4405SOL     OW24673   3.694   0.537   6.328  0.2590  0.5288  0.0215
 4405SOL    HW124674   3.624   0.583   6.281  1.0588  2.6171  0.8890
 4405SOL    HW224675   3.652   0.471   6.383  1.5722  0.1548  0.5755
 4406SOL     OW24676   0.897   3.901  10.325  0.5437 -0.5278  0.2916
 4406SOL    HW124677   0.840   3.944  10.262  0.8843 -0.5002  0.0004
 4406SOL    HW224678   0.981   3.936  10.295  1.5478 -1.3033  2.2044
 4407SOL     OW24679   2.885   0.564  14.474 -0.3861 -0.0047 -0.4111
 4407SOL    HW124680   2.960   0.571  14.415  1.6006 -1.7515  1.9040
 4407SOL    HW224681   2.915   0.621  14.545 -0.5540  1.8082 -1.8025
 4408SOL     OW24682   1.825   0.985   1.737  0.3494 -0.3436 -0.2514
 4408SOL    HW124683   1.907   0.945   1.706  1.9832  2.1387  0.8064
 4408SOL    HW224684   1.856   0.998   1.827  0.3019  1.0141 -0.4286
 4409SOL     OW24685   1.301   2.962   2.595 -0.4789 -0.1214  0.2470
 4409SOL    HW124686   1.327   2.870   2.599 -2.0432 -0.4845  1.9415
 4409SOL    HW224687   1.206   2.959   2.608 -0.4918 -0.1655  0.1386
 4410SOL     OW24688   2.740   2.243  16.427 -0.1904 -0.1674  0.3361
 4410SOL    HW124689   2.777   2.266  16.342  0.2736  1.1011  0.8820
 4410SOL    HW224690   2.819   2.212  16.473  0.7815  0.8867 -0.6165
 4411SOL     OW24691   4.300   0.034   6.003  0.1045 -0.0761 -0.4348
 4411SOL    HW124692   4.342   4.686   6.052 -0.3260  1.1774  1.7534
 4411SOL    HW224693   4.347   0.039   5.920  1.6182  2.5482  0.6068
 4412SOL     OW24694   1.042   0.473  16.572  0.4193 -0.2800  0.2016
 4412SOL    HW124695   1.131   0.459  16.541  0.2018 -1.3575  0.0416
 4412SOL    HW224696   1.006   0.502  16.487 -1.1854 -0.0054  0.9676
 4413SOL     OW24697   3.982   3.596  14.749 -0.8935 -0.5041  0.7457
 4413SOL    HW124698   4.066   3.577  14.791 -0.8790 -0.3451  0.7899
 4413SOL    HW224699   3.915   3.535  14.778 -1.4135 -0.3102 -0.0465
 4414SOL     OW24700   3.937   1.268   8.371 -0.3762  0.3818  0.1034
 4414SOL    HW124701   3.962   1.287   8.461 -0.9692  2.5264 -0.1821
 4414SOL    HW224702   3.872   1.338   8.370 -1.6929 -0.9013 -3.2618
 4415SOL     OW24703   2.643   3.915   6.018  0.2819 -0.9668  0.0038
 4415SOL    HW124704   2.553   3.935   6.044 -0.0539 -2.9005  0.3711
 4415SOL    HW224705   2.645   3.825   6.050 -1.1981 -0.4955  1.4220
 4416SOL     OW24706   2.006   3.927  15.596  0.0507 -0.1263  0.9997
 4416SOL    HW124707   2.019   3.834  15.618 -0.6420 -0.8615 -1.6596
 4416SOL    HW224708   2.091   3.962  15.622  0.9213  1.2120 -3.6919
 4417SOL     OW24709   4.249   2.329   4.207 -0.6488  0.3908 -0.9035
 4417SOL    HW124710   4.252   2.403   4.146  2.7479  1.1458  0.1573
 4417SOL    HW224711   4.246   2.380   4.288 -0.0508 -0.9194 -0.0576
 4418SOL     OW24712   3.557   3.965   9.954  0.6000  0.2182  0.0058
 4418SOL    HW124713   3.618   3.973  10.028  0.3475 -1.8316  0.4286
 4418SOL    HW224714   3.469   3.965   9.991  1.3398  1.0672  1.7903
 4419SOL     OW24715   3.908   0.138   0.227  0.8621  0.0251 -0.0705
 4419SOL    HW124716   3.854   0.161   0.303 -0.2944  0.2574 -0.9675
 4419SOL    HW224717   3.865   0.185   0.156  1.2489 -0.3737 -0.5746
 4420SOL     OW24718   1.239   4.384   8.491  0.9703  0.2314 -0.4192
 4420SOL    HW124719   1.181   4.455   8.464  0.8146  0.9211  1.7979
 4420SOL    HW224720   1.250   4.400   8.584  0.1846 -1.5317 -0.0189
 4421SOL     OW24721   0.649   4.537   7.265  0.3930  0.3373 -0.1518
 4421SOL    HW124722   0.646   4.488   7.183  2.5324 -0.9195  0.5125
 4421SOL    HW224723   0.726   4.503   7.311  0.2422  0.0829 -0.0890
 4422SOL     OW24724   2.697   1.222   2.139 -0.6926 -0.0017  0.4110
 4422SOL    HW124725   2.603   1.218   2.119 -0.1966 -2.1287 -1.5180
 4422SOL    HW224726   2.698   1.277   2.217 -1.9573  1.2118 -0.4060
 4423SOL     OW24727   4.373   2.474   4.990 -0.9553  0.2628  0.0865
 4423SOL    HW124728   4.402   2.491   4.901  1.0200 -1.5465  0.3781
 4423SOL    HW224729   4.441   2.410   5.012 -0.8408  1.2227  2.5066
 4424SOL     OW24730   2.763   0.328   6.028 -0.1280 -0.7952  0.4427
 4424SOL    HW124731   2.834   0.335   6.092 -0.7423  1.2035  0.8919
 4424SOL    HW224732   2.793   0.271   5.957 -0.9505 -1.1026  0.3431
 4425SOL     OW24733   4.083   3.671   4.600  0.0769 -0.2047 -0.2331
 4425SOL    HW124734   4.091   3.765   4.611  0.8282  0.2214 -4.4899
 4425SOL    HW224735   4.168   3.644   4.566 -0.0077  1.4473 -1.7285
 4426SOL     OW24736   2.546   4.533   8.730  0.7767 -0.1138  0.2413
 4426SOL    HW124737   2.484   4.513   8.801  0.6401  1.3291  0.5166
 4426SOL    HW224738   2.483   4.544   8.659 -1.0450 -1.3687  1.6515
 4427SOL     OW24739   3.148   4.144   8.157  0.0529  0.2219 -0.3656
 4427SOL    HW124740   3.146   4.228   8.201 -0.7806 -1.0681  2.0518
 4427SOL    HW224741   3.242   4.139   8.138 -0.1489 -2.2808 -0.7140
 4428SOL     OW24742   0.608   1.572   6.228  0.0530  0.1951  0.5037
 4428SOL    HW124743   0.519   1.597   6.254  0.2322  1.9286 -0.5790
 4428SOL    HW224744   0.602   1.599   6.137  1.5202 -2.9249 -0.5221
 4429SOL     OW24745   3.257   0.286   7.704  0.8154  0.0367  0.4204
 4429SOL    HW124746   3.323   0.234   7.750 -0.8580 -0.8473  1.7961
 4429SOL    HW224747   3.228   0.221   7.640  1.3918 -0.5603  0.7595
 4430SOL     OW24748   2.205   4.489   9.778  0.4263  0.3981 -0.0889
 4430SOL    HW124749   2.282   4.433   9.767  1.0052  1.1540  0.1483
 4430SOL    HW224750   2.199   4.527   9.690  1.9178  1.5266  0.3014
 4431SOL     OW24751   1.310   3.220   0.790 -0.2345  0.3596  0.1554
 4431SOL    HW124752   1.325   3.307   0.826 -2.1335  0.7809 -0.1078
 4431SOL    HW224753   1.389   3.197   0.740  0.1956 -0.2290  1.0989
 4432SOL     OW24754   3.424   1.170  12.173  0.0616  0.3799  0.0339
 4432SOL    HW124755   3.424   1.225  12.250 -0.4687 -2.1118  1.8187
 4432SOL    HW224756   3.381   1.097  12.218 -0.2007  0.1153 -0.6448
 4433SOL     OW24757   1.002   3.433   8.141 -0.0013  0.2038 -0.3743
 4433SOL    HW124758   0.946   3.499   8.181 -1.4292 -1.6841  0.7807
 4433SOL    HW224759   0.954   3.424   8.059 -4.0809  1.6056  1.8519
 4434SOL     OW24760   4.350   1.400  17.248  0.2885 -0.1213 -0.1056
 4434SOL    HW124761   4.315   1.427  17.333  0.3228 -2.5051  0.6629
 4434SOL    HW224762   4.378   1.313  17.274  0.5518 -0.8937 -2.9770
 4435SOL     OW24763   2.688   3.936  12.700 -0.4191 -0.0246 -0.0838
 4435SOL    HW124764   2.762   3.970  12.750  1.1044 -0.2786 -2.1478
 4435SOL    HW224765   2.642   4.018  12.681 -1.9696 -0.5464  1.4485
 4436SOL     OW24766   2.651   0.532   4.285  0.0606  0.2028 -0.1292
 4436SOL    HW124767   2.681   0.593   4.217  0.0284  0.4388  0.0672
 4436SOL    HW224768   2.557   0.533   4.270  0.1270  1.1939 -0.5392
 4437SOL     OW24769   0.438   0.134   0.222  0.2526  0.1229 -0.2466
 4437SOL    HW124770   0.359   0.181   0.247 -0.5421 -1.1301 -0.3905
 4437SOL    HW224771   0.437   0.154   0.129 -2.0014 -0.3797 -0.3168
 4438SOL     OW24772   0.457   2.024   7.196 -0.6989  0.6831  0.0510
 4438SOL    HW124773   0.476   2.014   7.289 -1.4513  0.7283  0.2135
 4438SOL    HW224774   0.379   1.969   7.181  0.6634 -1.5335  1.0085
 4439SOL     OW24775   1.809   2.230  10.207 -0.4015  0.2533  0.4124
 4439SOL    HW124776   1.751   2.233  10.131  0.8955 -0.4990 -0.6055
 4439SOL    HW224777   1.763   2.173  10.268  0.9831 -0.2566  0.9900
 4440SOL     OW24778   4.549   1.364   5.042 -0.1985  0.1497 -0.0679
 4440SOL    HW124779   4.624   1.334   4.990 -1.0656  1.1396 -1.8740
 4440SOL    HW224780   4.465   1.346   5.002 -0.0893  1.1628 -0.7414
 4441SOL     OW24781   3.185   3.616  10.607  0.4259 -1.1593 -0.2296
 4441SOL    HW124782   3.255   3.556  10.632  0.8703 -0.8701 -0.8194
 4441SOL    HW224783   3.164   3.661  10.689 -1.9904 -1.3374 -0.7264
 4442SOL     OW24784   2.648   3.752   2.484  0.0363 -0.6550  0.3232
 4442SOL    HW124785   2.721   3.734   2.425 -1.3035 -3.0502 -0.6390
 4442SOL    HW224786   2.683   3.712   2.563  1.1443 -0.6187 -0.1512
 4443SOL     OW24787   2.637   0.220   6.884  0.6236 -0.7428 -0.7510
 4443SOL    HW124788   2.662   0.307   6.916  0.0684 -1.3619  1.3719
 4443SOL    HW224789   2.634   0.230   6.789  0.3418 -1.1075 -0.7810
 4444SOL     OW24790   4.362   3.243   4.435  0.5338  0.0858  0.2509
 4444SOL    HW124791   4.359   3.262   4.342 -1.3131  2.0950  0.7137
 4444SOL    HW224792   4.430   3.176   4.437  0.3763 -0.0948 -0.4146
 4445SOL     OW24793   1.025   1.700   2.234 -0.0084  0.0958 -0.0430
 4445SOL    HW124794   0.944   1.751   2.238 -1.8205 -2.8892  0.9704
 4445SOL    HW224795   1.049   1.723   2.144  0.0200  0.9714  0.1872
 4446SOL     OW24796   1.980   2.292   6.598  0.3214  0.2898 -0.0315
 4446SOL    HW124797   2.064   2.251   6.618  0.8680  0.6928 -1.4889
 4446SOL    HW224798   1.923   2.217   6.610 -0.4944  0.9167  0.0086
 4447SOL     OW24799   1.553   1.121   3.758  0.2437  0.3586  0.5422
 4447SOL    HW124800   1.633   1.137   3.707  1.7270 -1.8749  2.1287
 4447SOL    HW224801   1.501   1.185   3.710  0.0445  2.1827  3.1904
 4448SOL     OW24802   1.200   2.515   8.532  0.8696  0.4191  0.0708
 4448SOL    HW124803   1.113   2.500   8.496  1.1067  0.1844 -0.4002
 4448SOL    HW224804   1.217   2.601   8.493  0.9496  0.9359  1.2272
 4449SOL     OW24805   4.263   3.825   9.682  0.3317 -0.0325  0.0563
 4449SOL    HW124806   4.190   3.763   9.680  0.4805 -0.1761 -0.7691
 4449SOL    HW224807   4.275   3.835   9.777  2.1386  0.5571 -0.2253
 4450SOL     OW24808   4.011   4.632   7.127 -0.1227  0.6266 -0.7590
 4450SOL    HW124809   3.943   4.695   7.149 -0.5016 -0.7846  2.0927
 4450SOL    HW224810   4.078   4.650   7.193  0.4047 -0.0971 -1.0911
 4451SOL     OW24811   3.096   1.136   5.319 -0.6301  0.1540  0.2075
 4451SOL    HW124812   3.101   1.205   5.386 -0.1891  2.4467 -2.1990
 4451SOL    HW224813   3.008   1.148   5.282 -0.8768 -0.0782  0.7091
 4452SOL     OW24814   1.188   0.786   3.096  0.0604  0.0588 -0.6642
 4452SOL    HW124815   1.125   0.741   3.040 -2.4041  1.3021  1.0839
 4452SOL    HW224816   1.175   0.881   3.090 -1.2338 -0.1038 -0.3789
 4453SOL     OW24817   2.907   0.311  10.696 -0.3827 -0.1819  0.2482
 4453SOL    HW124818   2.882   0.403  10.701  0.2116 -0.0078  0.0376
 4453SOL    HW224819   2.865   0.293  10.612 -0.2399 -0.1071  0.1589
 4454SOL     OW24820   4.033   1.429   5.904 -0.4411 -0.2962 -0.0480
 4454SOL    HW124821   4.018   1.513   5.948  1.9294  0.8818 -1.4999
 4454SOL    HW224822   3.970   1.371   5.947 -1.8033  0.7523 -0.6163
 4455SOL     OW24823   3.891   2.019   1.296 -0.8661  0.2460  0.4332
 4455SOL    HW124824   3.828   1.963   1.250  0.2093 -0.9797  0.4374
 4455SOL    HW224825   3.911   1.978   1.380  1.9531 -2.2397 -1.4391
 4456SOL     OW24826   1.729   3.123   3.898  0.0316 -0.5728 -0.2335
 4456SOL    HW124827   1.687   3.204   3.869  0.5238  0.3540  1.6214
 4456SOL    HW224828   1.671   3.094   3.968  1.9244 -2.0042  0.7486
 4457SOL     OW24829   1.741   4.371   1.406 -0.0017 -0.2894  0.6387
 4457SOL    HW124830   1.703   4.453   1.376  2.5885  1.3733  1.9050
 4457SOL    HW224831   1.677   4.345   1.472 -2.0087 -1.3509 -1.7301
 4458SOL     OW24832   2.037   0.161   2.750  0.3427 -0.0623  0.0887
 4458SOL    HW124833   2.114   0.109   2.726 -0.3189 -1.3051  0.6325
 4458SOL    HW224834   1.966   0.108   2.715  1.0908 -1.9149  1.3275
 4459SOL     OW24835   0.591   3.923  16.750  0.3945  0.7117  0.7804
 4459SOL    HW124836   0.681   3.951  16.732  1.5041 -2.2617  1.6070
 4459SOL    HW224837   0.576   3.978  16.827 -0.0548 -0.2573  1.3946
 4460SOL     OW24838   4.361   4.643   7.522  0.0441  0.4830 -1.0532
 4460SOL    HW124839   4.347   4.636   7.616 -0.2007  3.2916 -0.8718
 4460SOL    HW224840   4.428   4.577   7.505  0.4321  0.6198 -0.0753
 4461SOL     OW24841   4.470   3.627  15.785  0.1874  0.2468 -1.0237
 4461SOL    HW124842   4.403   3.561  15.800  0.3391  0.3021 -0.0840
 4461SOL    HW224843   4.468   3.684  15.863  2.2602 -0.2111 -0.6393
 4462SOL     OW24844   2.226   3.905  11.942  0.3642 -0.7588 -0.4880
 4462SOL    HW124845   2.137   3.880  11.916 -1.3344  0.0857  4.4947
 4462SOL    HW224846   2.227   3.866  12.029  0.4906  2.2747  0.8790
 4463SOL     OW24847   1.767   3.990   5.382 -0.1528 -0.4370 -0.1711
 4463SOL    HW124848   1.706   3.929   5.423 -0.6334  0.2989  0.2042
 4463SOL    HW224849   1.835   3.926   5.360  2.2745  1.7719  0.8636
 4464SOL     OW24850   3.944   2.571   5.149  0.3330  0.6220  0.5281
 4464SOL    HW124851   4.020   2.533   5.106  0.4235 -0.2877  1.4880
 4464SOL    HW224852   3.924   2.647   5.095  1.0621 -1.4523 -2.6610
 4465SOL     OW24853   1.067   3.514  13.755 -0.4249  0.0766  0.3075
 4465SOL    HW124854   1.141   3.493  13.812 -1.5545  2.0044  2.4784
 4465SOL    HW224855   1.049   3.431  13.709  0.0668 -1.8702  3.6190
 4466SOL     OW24856   3.294   3.476   5.815 -0.6045 -0.3713  0.0557
 4466SOL    HW124857   3.388   3.488   5.798 -0.9035  0.9498 -0.6231
 4466SOL    HW224858   3.280   3.524   5.896  1.6527 -1.7676  1.2738
 4467SOL     OW24859   3.880   3.842   8.933 -0.0232  0.4712 -0.2155
 4467SOL    HW124860   3.928   3.869   9.011  0.6926 -0.1443 -0.4427
 4467SOL    HW224861   3.805   3.901   8.933 -0.5049 -0.1345 -0.6002
 4468SOL     OW24862   4.391   1.412  17.543  0.1205 -0.0285 -0.2080
 4468SOL    HW124863   4.486   1.425  17.548  0.5181 -2.3741 -1.8750
 4468SOL    HW224864   4.359   1.500  17.523  1.5377  0.5213 -0.0928
 4469SOL     OW24865   3.549   2.831   2.834  0.0091 -0.0544  0.5966
 4469SOL    HW124866   3.634   2.842   2.791 -0.6392  2.7524  0.0926
 4469SOL    HW224867   3.560   2.897   2.902  1.8151  1.0551 -0.7841
 4470SOL     OW24868   2.644   1.168  17.560 -0.1439 -0.0885  0.2537
 4470SOL    HW124869   2.592   1.248  17.575  1.2194  0.0904  4.0155
 4470SOL    HW224870   2.628   1.141  17.470  0.1569 -1.5104  0.6218
 4471SOL     OW24871   3.124   2.372   7.151 -0.3058 -0.6723  0.1798
 4471SOL    HW124872   3.134   2.333   7.064  1.2829 -0.3221  0.2007
 4471SOL    HW224873   3.063   2.313   7.195  1.8545 -1.1366  2.5964
 4472SOL     OW24874   3.213   4.672   7.627 -0.6465 -0.3728  0.2032
 4472SOL    HW124875   3.123   4.640   7.637 -0.5797 -0.1283  1.6451
 4472SOL    HW224876   3.219   4.676   7.532 -2.1065  0.5986  0.1537
 4473SOL     OW24877   2.025   1.291   8.758  0.4795 -0.2265  0.6078
 4473SOL    HW124878   2.107   1.310   8.712  1.0166 -0.3706  1.5158
 4473SOL    HW224879   1.987   1.219   8.709 -1.5840  0.4618  1.2109
 4474SOL     OW24880   2.844   2.560   6.580  0.4639 -0.5236  0.6140
 4474SOL    HW124881   2.770   2.619   6.595  2.5541  2.0027  0.7951
 4474SOL    HW224882   2.825   2.508   6.659  0.6593 -1.7523 -0.1547
 4475SOL     OW24883   2.210   1.315  16.650 -0.1841 -0.0975 -0.0954
 4475SOL    HW124884   2.198   1.290  16.558 -0.7496  1.4256 -0.4442
 4475SOL    HW224885   2.305   1.315  16.660 -0.2660 -0.4406  0.6540
 4476SOL     OW24886   3.937   0.315  15.033 -0.0487  0.5494 -0.6520
 4476SOL    HW124887   3.976   0.390  15.078 -0.1823 -1.2736  2.5204
 4476SOL    HW224888   4.014   0.269  15.000 -0.7810 -0.1149 -1.4401
 4477SOL     OW24889   1.215   3.483   4.084 -0.7829 -0.7749  0.0545
 4477SOL    HW124890   1.185   3.517   4.168 -1.5637  0.1927 -0.6145
 4477SOL    HW224891   1.224   3.394   4.118 -1.6691 -1.3795 -1.2905
 4478SOL     OW24892   2.981   3.926   8.121  0.4114  0.4445 -0.2918
 4478SOL    HW124893   3.033   4.005   8.134 -1.4666  1.4921  0.8765
 4478SOL    HW224894   2.903   3.949   8.172  1.8479  1.8377  1.2819
 4479SOL     OW24895   1.347   0.543   2.571 -0.2718 -0.1104  0.4085
 4479SOL    HW124896   1.432   0.527   2.530  0.7180  0.5392  2.2474
 4479SOL    HW224897   1.362   0.634   2.597  0.4887  0.2032 -1.0889
 4480SOL     OW24898   0.013   4.020   4.755  0.2767  0.1513 -0.0277
 4480SOL    HW124899   0.093   3.986   4.796 -0.0761 -0.8193 -0.1407
 4480SOL    HW224900   0.057   4.081   4.696  0.4840 -1.0122 -1.1003
 4481SOL     OW24901   3.449   2.599  15.764  0.3719  0.4434  0.4849
 4481SOL    HW124902   3.385   2.668  15.742 -0.6303 -0.3073  1.0307
 4481SOL    HW224903   3.500   2.640  15.834  0.4154 -1.1444  1.3874
 4482SOL     OW24904   1.826   3.455   5.969 -0.0294 -0.2334 -0.3763
 4482SOL    HW124905   1.766   3.493   5.906 -2.0404 -1.8344  0.5725
 4482SOL    HW224906   1.786   3.495   6.046  2.0532 -0.5170  0.8518
 4483SOL     OW24907   2.976   3.664   6.759  0.2762  0.5512 -0.2019
 4483SOL    HW124908   2.942   3.750   6.783  0.8451  0.5937  0.4500
 4483SOL    HW224909   3.001   3.628   6.844 -1.7392  1.3363  0.7067
 4484SOL     OW24910   0.843   4.722   4.597  0.1496  0.4970  0.1265
 4484SOL    HW124911   0.780   4.657   4.568 -1.4345  0.9841  2.4995
 4484SOL    HW224912   0.868   0.045   4.516  0.1016  0.1034 -0.1124
 4485SOL     OW24913   0.755   2.458  11.736 -0.0451 -0.3344  0.2589
 4485SOL    HW124914   0.746   2.504  11.652  1.5274 -3.7874 -1.8005
 4485SOL    HW224915   0.671   2.414  11.745  0.3292 -0.8827  0.9853
 4486SOL     OW24916   3.454   3.884   0.434  0.2296  0.0431  0.2147
 4486SOL    HW124917   3.394   3.913   0.503  0.9489  1.0497  0.4189
 4486SOL    HW224918   3.515   3.826   0.478  2.1523  0.3859 -2.0011
 4487SOL     OW24919   3.365   4.238  13.051 -0.0461 -0.4654 -0.7630
 4487SOL    HW124920   3.273   4.248  13.029  0.1980  0.0040 -1.5914
 4487SOL    HW224921   3.354   4.150  13.084  0.9343 -0.6085 -0.8022
 4488SOL     OW24922   1.236   2.668   8.739 -0.3267  0.7351  0.1563
 4488SOL    HW124923   1.160   2.628   8.781 -2.2473 -0.0059 -4.0177
 4488SOL    HW224924   1.260   2.607   8.669 -1.7165 -1.2772  1.4189
 4489SOL     OW24925   3.638   0.524   6.939  0.6844  0.6062 -0.2740
 4489SOL    HW124926   3.727   0.510   6.970 -0.2350  0.0170  2.0895
 4489SOL    HW224927   3.648   0.603   6.885 -0.8772  1.6760  0.9684
 4490SOL     OW24928   1.694   0.342   2.880  0.0790 -0.3121  0.3096
 4490SOL    HW124929   1.745   0.305   2.953  1.7036  0.5309 -0.3917
 4490SOL    HW224930   1.756   0.403   2.840  0.0935 -0.5490 -0.0287
 4491SOL     OW24931   1.849   0.867  14.494 -0.1625  0.7093 -0.3728
 4491SOL    HW124932   1.874   0.784  14.452  0.8723  1.8813 -2.0879
 4491SOL    HW224933   1.791   0.840  14.565  1.0630 -1.4738 -0.1840
 4492SOL     OW24934   1.411   4.173   3.651  0.4706  0.3554 -0.1599
 4492SOL    HW124935   1.370   4.256   3.676 -0.6222  0.2869 -1.7108
 4492SOL    HW224936   1.472   4.166   3.724 -0.2838 -0.5050  0.3752
 4493SOL     OW24937   1.184   4.608   2.995  0.3018 -0.2546  0.4173
 4493SOL    HW124938   1.253   4.639   2.935  0.3655  0.8960  1.0861
 4493SOL    HW224939   1.207   4.515   2.990  0.8917 -0.0808 -0.0546
 4494SOL     OW24940   3.500   1.401   8.601 -0.3097  0.2002  1.4496
 4494SOL    HW124941   3.569   1.344   8.569  0.0738  0.7022  1.3810
 4494SOL    HW224942   3.456   1.427   8.520  1.7643  0.8691  0.5574
 4495SOL     OW24943   2.971   0.545   3.605 -0.3706 -0.5338 -0.5960
 4495SOL    HW124944   3.035   0.503   3.548 -1.9195 -2.9422 -0.5458
 4495SOL    HW224945   3.023   0.593   3.669 -1.2180 -0.2436 -0.1159
 4496SOL     OW24946   3.053   3.930  10.038 -0.0844 -0.3520  0.3656
 4496SOL    HW124947   3.098   3.853  10.070 -0.6575 -1.4264 -1.3925
 4496SOL    HW224948   3.126   3.991  10.047  0.2780 -0.5698 -1.0557
 4497SOL     OW24949   2.242   1.331   4.745 -0.4661  0.1777  0.2628
 4497SOL    HW124950   2.321   1.383   4.728 -0.7951  1.2648  1.9688
 4497SOL    HW224951   2.243   1.279   4.665  1.1557  1.2714 -0.4393
 4498SOL     OW24952   0.399   1.025   8.307  0.0438 -0.3014 -0.5498
 4498SOL    HW124953   0.347   0.961   8.259  1.1630 -2.1645  0.7255
 4498SOL    HW224954   0.354   1.039   8.390 -0.1966 -0.6438 -0.6224
 4499SOL     OW24955   0.325   4.093   0.371  0.2518 -0.0154 -0.1392
 4499SOL    HW124956   0.396   4.055   0.423  0.3043  0.6843  0.2980
 4499SOL    HW224957   0.292   4.011   0.333  0.9614  0.4319 -1.7218
 4500SOL     OW24958   1.604   3.463  11.713  0.3613 -0.0410  0.0084
 4500SOL    HW124959   1.665   3.395  11.685  0.5801 -0.5800  1.7991
 4500SOL    HW224960   1.611   3.461  11.809  0.9158  1.1648 -0.0148
 4501SOL     OW24961   1.386   4.619   4.878  0.5437  0.4069  0.5634
 4501SOL    HW124962   1.325   4.609   4.951 -0.7189  2.3786 -0.2239
 4501SOL    HW224963   1.428   4.700   4.906  1.6342  0.1848 -0.4303
 4502SOL     OW24964   2.598   0.629   7.927 -0.0496  0.6402  0.4852
 4502SOL    HW124965   2.519   0.680   7.943  0.6179  1.2325  1.9753
 4502SOL    HW224966   2.586   0.560   7.993  0.6458 -2.0512 -2.2283
 4503SOL     OW24967   1.700   3.722   2.799  0.2543 -0.3814  0.4633
 4503SOL    HW124968   1.652   3.644   2.774 -0.4774 -0.0304  0.7464
 4503SOL    HW224969   1.701   3.752   2.708 -1.6534 -1.3080  0.1291
 4504SOL     OW24970   3.166   0.129   9.850 -0.4586 -0.2739  0.0983
 4504SOL    HW124971   3.150   0.194   9.782  0.1143  0.1873  0.4102
 4504SOL    HW224972   3.212   0.063   9.798  0.5719  0.3995  0.1558
 4505SOL     OW24973   4.693   2.230   6.923  0.0150 -0.2592 -0.5635
 4505SOL    HW124974   4.702   2.318   6.960 -1.2714  0.6961 -2.5518
 4505SOL    HW224975   4.650   2.188   6.998  0.9805 -0.3594 -0.0607
 4506SOL     OW24976   4.272   4.379   3.433  0.3949  0.0401 -0.4258
 4506SOL    HW124977   4.298   4.287   3.438 -2.5388 -0.6947  1.2341
 4506SOL    HW224978   4.251   4.390   3.526  2.1312 -0.7807  0.0594
 4507SOL     OW24979   1.705   3.264  13.795 -0.2941  0.2317 -0.2470
 4507SOL    HW124980   1.725   3.184  13.844  3.1118  0.2277 -1.6611
 4507SOL    HW224981   1.688   3.230  13.707 -1.8647 -2.2269  1.0300
 4508SOL     OW24982   2.508   3.800   5.179 -0.3871 -0.0749  0.1025
 4508SOL    HW124983   2.490   3.846   5.097 -0.4791  1.8875  1.2231
 4508SOL    HW224984   2.422   3.783   5.217 -2.2492  0.9751 -3.6851
 4509SOL     OW24985   2.508   1.791   6.326  0.5558  0.0687  0.2619
 4509SOL    HW124986   2.558   1.771   6.247  1.7516 -2.0217  1.5298
 4509SOL    HW224987   2.568   1.760   6.395 -1.2561 -1.2437  1.2270
 4510SOL     OW24988   3.700   0.835   3.474 -0.2905  0.2447  0.0726
 4510SOL    HW124989   3.634   0.802   3.413  0.0297 -1.1100  0.4681
 4510SOL    HW224990   3.718   0.755   3.523  1.7926  0.0952 -0.9371
 4511SOL     OW24991   0.299   3.987  11.832  0.4868  0.0852 -0.1857
 4511SOL    HW124992   0.210   3.997  11.798  0.0997 -0.2619  0.7185
 4511SOL    HW224993   0.337   4.074  11.824  0.7094  0.1576  1.5965
 4512SOL     OW24994   3.167   3.254   5.858 -0.2346 -0.7041 -0.2570
 4512SOL    HW124995   3.158   3.226   5.767  2.8049  0.9054 -1.0320
 4512SOL    HW224996   3.225   3.330   5.849 -2.3346  0.9876  0.3947
 4513SOL     OW24997   0.770   3.622   0.848 -0.5879 -0.3217  0.9940
 4513SOL    HW124998   0.857   3.647   0.819 -1.1814  2.4594  1.6115
 4513SOL    HW224999   0.707   3.677   0.801 -1.3906 -2.9006 -0.9449
 4514SOL     OW25000   0.750   0.499   8.625  0.3374 -0.8357  0.5191
 4514SOL    HW125001   0.685   0.441   8.586  0.5877 -1.0291  0.3862
 4514SOL    HW225002   0.714   0.508   8.713 -1.3128 -1.2508 -0.1222
 4515SOL     OW25003   4.466   3.011   7.256  0.3788 -0.0103  0.0520
 4515SOL    HW125004   4.524   2.968   7.319 -0.5880 -2.1387 -0.5230
 4515SOL    HW225005   4.383   2.975   7.288  0.7206 -0.1497  0.7845
 4516SOL     OW25006   1.656   0.407   0.045  0.2664 -0.7459 -0.0794
 4516SOL    HW125007   1.601   0.340   0.003  1.5305 -3.0052  1.8769
 4516SOL    HW225008   1.628   0.489   0.006  1.0699 -0.4977 -0.1196
 4517SOL     OW25009   2.298   1.088   4.943  0.7594 -0.0784  0.5950
 4517SOL    HW125010   2.339   1.117   4.861  0.9226 -1.1314  0.3123
 4517SOL    HW225011   2.328   1.164   4.994 -1.5632  0.4726  1.1154
 4518SOL     OW25012   0.629   3.720  10.337  0.2341 -0.2743  0.3895
 4518SOL    HW125013   0.643   3.625  10.343 -3.7363 -0.8222  1.3130
 4518SOL    HW225014   0.640   3.743  10.430  1.8396 -2.9134  0.8647
 4519SOL     OW25015   2.267   0.856   8.850 -0.0238  0.0739 -0.3819
 4519SOL    HW125016   2.312   0.940   8.849  1.1184 -0.5225  0.3517
 4519SOL    HW225017   2.174   0.876   8.861  0.2102  0.1463  1.5398
 4520SOL     OW25018   0.952   0.794   9.626 -0.0887 -0.1878 -0.1493
 4520SOL    HW125019   0.922   0.713   9.665 -1.1619  0.1585 -0.2609
 4520SOL    HW225020   1.032   0.766   9.581 -0.1153  0.0193 -0.3297
 4521SOL     OW25021   2.375   0.838   0.839 -0.5274  0.1336 -0.0872
 4521SOL    HW125022   2.353   0.847   0.932 -2.0218  1.8392 -0.6214
 4521SOL    HW225023   2.375   0.742   0.846  1.9107  0.0556 -0.9902
 4522SOL     OW25024   0.215   2.650   2.741 -0.1616 -0.2984 -0.6752
 4522SOL    HW125025   0.170   2.664   2.657 -0.6419 -1.3096 -0.5810
 4522SOL    HW225026   0.194   2.731   2.788  2.5216 -0.0770  0.1314
 4523SOL     OW25027   0.887   3.744   9.764 -0.1264 -0.1249 -0.1459
 4523SOL    HW125028   0.976   3.741   9.730 -0.1147 -1.5758  0.0365
 4523SOL    HW225029   0.871   3.838   9.774  0.6288 -0.4337  3.9644
 4524SOL     OW25030   3.320   3.786   6.989  0.2350  0.4459  0.5080
 4524SOL    HW125031   3.331   3.744   6.903  1.9897  2.9649 -0.4945
 4524SOL    HW225032   3.401   3.750   7.026  0.0334 -1.5329 -0.9298
 4525SOL     OW25033   3.874   2.282   7.842  0.2024  0.7382  0.2518
 4525SOL    HW125034   3.843   2.353   7.785  0.7768 -0.0652 -1.0501
 4525SOL    HW225035   3.803   2.219   7.830  0.8039  0.0483  0.3442
 4526SOL     OW25036   1.088   0.635   1.408 -0.0884 -0.0874  0.0761
 4526SOL    HW125037   1.070   0.673   1.494  0.6942 -1.8195  1.0106
 4526SOL    HW225038   1.183   0.628   1.417 -0.1342  1.1345  1.6693
 4527SOL     OW25039   2.217   2.905   6.415 -0.0614 -0.1522 -0.1759
 4527SOL    HW125040   2.165   2.986   6.414  0.9191  0.4826  0.1803
 4527SOL    HW225041   2.178   2.860   6.341 -2.4992  0.2534  0.8757
 4528SOL     OW25042   3.384   4.613   2.316 -0.1496  0.2563  0.3880
 4528SOL    HW125043   3.376   4.538   2.257 -1.4633  0.1346  0.7095
 4528SOL    HW225044   3.361   4.571   2.399  2.0147 -0.8969  0.3956
 4529SOL     OW25045   1.903   0.935   6.842  0.1561  0.0770 -0.0916
 4529SOL    HW125046   1.946   0.965   6.762  1.0589 -0.2116  0.2941
 4529SOL    HW225047   1.977   0.914   6.899 -0.6152 -0.6652  0.6399
 4530SOL     OW25048   4.464   4.053  10.017  0.0579  0.1556  0.1483
 4530SOL    HW125049   4.526   4.126  10.017 -3.3370  3.0300  3.1793
 4530SOL    HW225050   4.383   4.098   9.993 -0.5443 -0.5685  0.8007
 4531SOL     OW25051   2.881   3.270  17.500  0.1911  0.5228 -1.0341
 4531SOL    HW125052   2.932   3.221  17.436 -1.6451 -2.5856 -0.1079
 4531SOL    HW225053   2.808   3.301  17.446  2.9070  0.3265 -4.8068
 4532SOL     OW25054   1.495   2.583  16.040 -0.5148  0.0040 -0.1376
 4532SOL    HW125055   1.509   2.605  15.948 -1.2053  1.4211  0.0909
 4532SOL    HW225056   1.577   2.544  16.069 -0.8433 -0.6739 -0.1247
 4533SOL     OW25057   0.780   1.794  12.637  0.7329  0.0903 -0.3130
 4533SOL    HW125058   0.821   1.708  12.633 -0.1247 -0.3123 -0.5863
 4533SOL    HW225059   0.822   1.824  12.556  1.7688  2.3498  1.0769
 4534SOL     OW25060   1.458   1.046  15.159  0.3240 -0.6795 -0.1100
 4534SOL    HW125061   1.455   0.960  15.200 -2.9693 -0.3866  0.2480
 4534SOL    HW225062   1.402   1.101  15.214  2.3753  2.5375 -1.2347
 4535SOL     OW25063   0.478   3.402   7.138 -0.1098  0.6492 -0.0405
 4535SOL    HW125064   0.467   3.310   7.115  0.3645  0.9235 -1.3920
 4535SOL    HW225065   0.399   3.410   7.190 -0.0528 -0.3346  0.2034
 4536SOL     OW25066   2.844   0.911   8.511  0.4863  0.2584  0.4593
 4536SOL    HW125067   2.906   0.840   8.528  0.0219 -0.0359  0.9447
 4536SOL    HW225068   2.812   0.931   8.599 -0.1459 -2.3016  0.8074
 4537SOL     OW25069   4.209   2.501   0.003 -0.1029 -0.0612 -0.5086
 4537SOL    HW125070   4.123   2.463  17.679 -0.7462  0.0881  1.9866
 4537SOL    HW225071   4.275   2.457  17.645  1.0811 -1.3309  1.9927
 4538SOL     OW25072   0.783   2.288   2.203  0.6317  0.7605 -0.5064
 4538SOL    HW125073   0.814   2.223   2.140 -1.8768  0.0113 -0.9646
 4538SOL    HW225074   0.688   2.278   2.196  0.6011  1.5625 -1.3193
 4539SOL     OW25075   3.289   4.624  10.621  0.1800 -0.0474 -0.0392
 4539SOL    HW125076   3.276   4.573  10.541  2.7552 -0.7506 -0.0209
 4539SOL    HW225077   3.218   4.586  10.672  0.2203 -0.4531 -0.2863
 4540SOL     OW25078   0.100   4.161   2.769  0.2996  0.2919  0.3038
 4540SOL    HW125079   0.093   4.098   2.698  0.3942  0.1454  0.4245
 4540SOL    HW225080   0.007   4.172   2.791  0.7823  2.2744  1.4083
 4541SOL     OW25081   0.655   3.895   6.271 -0.0422  0.5299  0.4423
 4541SOL    HW125082   0.571   3.936   6.291  0.0576  1.2064 -0.5269
 4541SOL    HW225083   0.653   3.908   6.176 -1.1773  2.8975  0.7915
 4542SOL     OW25084   0.702   3.352   5.361 -0.4209 -0.0879  0.7044
 4542SOL    HW125085   0.632   3.414   5.382 -2.3357 -1.1202 -2.5526
 4542SOL    HW225086   0.680   3.324   5.272 -2.6019  4.6868 -0.2737
 4543SOL     OW25087   4.498   2.945   4.072 -0.2670  0.6273 -0.3758
 4543SOL    HW125088   4.423   2.895   4.040 -1.2044 -0.0239  2.7766
 4543SOL    HW225089   4.449   3.014   4.118  0.2144  0.0352  1.0390
 4544SOL     OW25090   1.984   1.219   2.189 -0.0388 -0.1936 -0.1662
 4544SOL    HW125091   2.019   1.161   2.121  0.4067 -0.2730  0.1341
 4544SOL    HW225092   2.065   1.270   2.194 -0.2007 -0.1138  1.6461
 4545SOL     OW25093   1.340   1.214   6.228  0.7220 -0.7580 -0.5696
 4545SOL    HW125094   1.392   1.189   6.304 -2.0158 -0.6138  1.3450
 4545SOL    HW225095   1.331   1.308   6.246  0.5831 -0.7144 -0.8658
 4546SOL     OW25096   0.966   0.330   7.988 -0.0705  0.7019 -0.5192
 4546SOL    HW125097   1.024   0.256   7.975 -0.8380 -0.1086  0.6390
 4546SOL    HW225098   1.002   0.386   7.919 -0.2412  1.6463  0.1431
 4547SOL     OW25099   4.636   2.394   8.244  0.2046 -0.1074  0.0279
 4547SOL    HW125100   4.611   2.476   8.202 -1.4611 -0.8228 -0.3700
 4547SOL    HW225101   4.707   2.378   8.183 -0.4328  0.8640 -0.9563
 4548SOL     OW25102   0.613   4.323  12.281  0.1125 -0.2441  0.1912
 4548SOL    HW125103   0.654   4.409  12.273 -1.4642  0.3787 -1.3292
 4548SOL    HW225104   0.684   4.262  12.260 -0.0633 -0.2311 -0.4449
 4549SOL     OW25105   1.938   0.287  16.400 -0.3468  0.2766  0.3692
 4549SOL    HW125106   1.875   0.216  16.391  0.9589 -0.7670 -0.4274
 4549SOL    HW225107   1.890   0.350  16.347  2.2887  1.4062 -0.6623
 4550SOL     OW25108   1.815   4.632   5.377  0.3878 -0.0624 -0.3451
 4550SOL    HW125109   1.858   4.680   5.448  2.9704 -2.9895  0.0124
 4550SOL    HW225110   1.890   4.584   5.343  1.0325  1.6894 -1.4240
 4551SOL     OW25111   1.517   4.169   3.970 -0.6851 -0.6909 -0.1002
 4551SOL    HW125112   1.597   4.129   4.002 -0.9849 -0.2933  1.1326
 4551SOL    HW225113   1.446   4.118   4.008  0.0922 -1.4623  0.2890
 4552SOL     OW25114   1.992   0.608   6.895  0.2314 -0.5099  0.1136
 4552SOL    HW125115   2.075   0.590   6.939  0.8631  1.8879 -0.1190
 4552SOL    HW225116   1.948   0.531   6.932 -0.3814 -1.9225 -3.5126
 4553SOL     OW25117   1.873   1.647  16.740  0.0485 -0.5135  0.0085
 4553SOL    HW125118   1.917   1.564  16.758 -1.1380 -1.0487  0.4959
 4553SOL    HW225119   1.829   1.661  16.824  1.2019  0.7140  0.4066
 4554SOL     OW25120   0.090   2.234  14.973  0.7033  0.1555 -0.3169
 4554SOL    HW125121   0.027   2.247  14.902  0.7117 -0.5299 -0.4545
 4554SOL    HW225122   0.075   2.141  14.995  1.1728 -0.1174 -1.1811
 4555SOL     OW25123   3.877   1.254   4.137  0.2077 -0.6165 -0.2009
 4555SOL    HW125124   3.838   1.306   4.067  1.0941  2.2401  1.3930
 4555SOL    HW225125   3.802   1.197   4.152 -0.1220 -0.4557 -1.2559
 4556SOL     OW25126   1.645   0.356   1.320 -0.1089 -0.1645  0.3256
 4556SOL    HW125127   1.605   0.317   1.398  2.2293 -1.7344  0.7460
 4556SOL    HW225128   1.692   0.285   1.276  0.5099  0.4876 -0.0768
 4557SOL     OW25129   2.391   0.084   6.566 -0.0254  0.7772 -0.4095
 4557SOL    HW125130   2.419   0.029   6.493  1.5562  0.0118  0.7621
 4557SOL    HW225131   2.470   0.131   6.595 -0.7182  1.2438  0.7202
 4558SOL     OW25132   2.632   1.441  10.299 -0.6521 -0.0711  0.1654
 4558SOL    HW125133   2.690   1.401  10.235  0.0787 -0.3976  1.0286
 4558SOL    HW225134   2.642   1.533  10.273  3.6909 -0.8248 -0.7556
 4559SOL     OW25135   3.457   3.205   4.068  0.3015 -0.5231 -0.1237
 4559SOL    HW125136   3.513   3.282   4.077 -2.7456  1.5183  1.4997
 4559SOL    HW225137   3.412   3.210   4.152 -1.5588  0.6856 -1.1994
 4560SOL     OW25138   1.781   3.141  14.750 -0.2407  0.2190  0.3285
 4560SOL    HW125139   1.823   3.108  14.670  2.0412  2.2183  0.6958
 4560SOL    HW225140   1.784   3.063  14.806  2.0463  0.8245  1.0649
 4561SOL     OW25141   0.525   2.490   9.077  0.2017  0.1927  0.4050
 4561SOL    HW125142   0.567   2.575   9.064  1.0464 -0.2851  0.0541
 4561SOL    HW225143   0.453   2.499   9.015  1.3745 -1.1681 -1.1446
 4562SOL     OW25144   1.450   1.461   7.631 -0.2596 -0.0906 -0.2569
 4562SOL    HW125145   1.465   1.541   7.681  3.7329 -0.7766 -0.3290
 4562SOL    HW225146   1.538   1.426   7.617 -0.9360 -0.9726 -2.3835
 4563SOL     OW25147   1.768   4.376   0.122  0.5446 -0.2374  0.2456
 4563SOL    HW125148   1.686   4.371   0.171  0.5843 -1.7023  0.1832
 4563SOL    HW225149   1.735   4.364   0.033 -1.3954  1.1831  0.7800
 4564SOL     OW25150   2.421   1.632   8.323 -0.4986  0.2345 -0.1032
 4564SOL    HW125151   2.408   1.633   8.418 -1.1556 -0.5884 -0.1833
 4564SOL    HW225152   2.392   1.544   8.298  0.4739 -0.9949  3.0687
 4565SOL     OW25153   0.713   2.722   7.326 -0.2088  0.3910  0.3268
 4565SOL    HW125154   0.688   2.762   7.243 -0.3701 -0.4410 -0.0224
 4565SOL    HW225155   0.634   2.672   7.346 -0.6532 -0.0417 -2.5647
 4566SOL     OW25156   1.612   1.868   8.914 -0.0587 -0.6873 -0.2451
 4566SOL    HW125157   1.568   1.784   8.930 -1.3071 -0.0351 -0.2312
 4566SOL    HW225158   1.692   1.834   8.873  1.6266  3.5858 -0.4857
 4567SOL     OW25159   3.159   4.652   6.749 -0.4323 -0.0422 -0.2143
 4567SOL    HW125160   3.245   4.641   6.707 -0.1620 -2.3681  0.9024
 4567SOL    HW225161   3.098   4.618   6.684 -0.3360 -1.3608  0.3811
 4568SOL     OW25162   3.914   3.575   1.477 -0.4332  0.8802 -0.0378
 4568SOL    HW125163   3.950   3.559   1.389  0.6210 -0.8172  0.6947
 4568SOL    HW225164   3.879   3.489   1.499 -0.0370  0.8558  0.5070
 4569SOL     OW25165   2.149   2.534  14.855 -0.1568 -0.0382  0.4580
 4569SOL    HW125166   2.136   2.583  14.936 -2.4513  0.1340 -0.0301
 4569SOL    HW225167   2.085   2.577  14.798  1.5934 -1.6037 -2.6931
 4570SOL     OW25168   0.895   3.685   2.988 -0.3238 -0.6399  0.6139
 4570SOL    HW125169   0.855   3.622   3.048 -3.5729  1.0041  0.1477
 4570SOL    HW225170   0.863   3.658   2.902  1.3865  1.6779 -0.7686
 4571SOL     OW25171   1.922   0.477   0.994  0.1345  0.3678 -0.2200
 4571SOL    HW125172   1.841   0.503   1.040  0.5816  2.0279 -0.3602
 4571SOL    HW225173   1.889   0.411   0.933  0.3453  0.5579 -0.5375
 4572SOL     OW25174   1.502   0.828   0.670  0.5115  0.0338  0.6352
 4572SOL    HW125175   1.412   0.812   0.698  1.0341 -2.3117  0.8971
 4572SOL    HW225176   1.549   0.774   0.733 -0.4913 -0.1088  1.2638
 4573SOL     OW25177   0.129   3.898  13.264  0.3548 -0.4801 -0.1685
 4573SOL    HW125178   0.148   3.968  13.326  1.1270 -0.9202  0.0978
 4573SOL    HW225179   0.033   3.897  13.258  0.3207 -1.4824  0.5043
 4574SOL     OW25180   2.685   2.941  17.588  0.1545 -0.6631 -0.9737
 4574SOL    HW125181   2.728   2.919  17.505 -2.0542 -0.6389 -2.1121
 4574SOL    HW225182   2.759   2.942  17.649  0.8106  1.3557 -1.8025
 4575SOL     OW25183   1.672   4.089   5.155  0.1020 -0.3809  1.0230
 4575SOL    HW125184   1.699   4.069   5.245 -0.2651  1.8464  1.6247
 4575SOL    HW225185   1.595   4.033   5.143  1.1182 -2.1545  2.6967
 4576SOL     OW25186   3.699   1.496   5.843 -0.0212 -0.7660  0.1488
 4576SOL    HW125187   3.611   1.469   5.868  0.0230  0.0169  1.1447
 4576SOL    HW225188   3.762   1.436   5.882  1.0368  0.1094 -0.2065
 4577SOL     OW25189   4.105   4.390   6.299  0.1242 -0.5341 -0.4397
 4577SOL    HW125190   4.153   4.470   6.323  0.0482 -0.5217 -0.3275
 4577SOL    HW225191   4.078   4.409   6.209 -2.6034  0.0453  0.5162
 4578SOL     OW25192   4.478   0.703  11.116  0.2781  0.1854 -0.0918
 4578SOL    HW125193   4.569   0.685  11.091 -0.5216 -2.4847 -1.0770
 4578SOL    HW225194   4.470   0.768  11.046 -1.3912 -0.7399 -0.7710
 4579SOL     OW25195   4.427   2.390   0.242  0.2576 -0.3463  0.3821
 4579SOL    HW125196   4.426   2.438   0.159 -0.3211 -0.4435  0.3364
 4579SOL    HW225197   4.509   2.340   0.237 -0.3694 -1.2035 -1.5739
 4580SOL     OW25198   1.520   3.889   9.827  0.6024 -0.1201 -0.3121
 4580SOL    HW125199   1.435   3.847   9.838  0.8839 -0.5819  0.1320
 4580SOL    HW225200   1.552   3.843   9.749 -1.0934 -1.6570 -0.0967
 4581SOL     OW25201   3.319   2.892   3.258 -0.1407  0.4605 -0.4543
 4581SOL    HW125202   3.378   2.946   3.206  1.1048 -0.7706 -0.3104
 4581SOL    HW225203   3.335   2.806   3.218  1.5478  0.6684 -0.2340
 4582SOL     OW25204   2.058   3.169   0.515 -0.0534  0.2186 -0.9019
 4582SOL    HW125205   2.087   3.144   0.603 -2.9073  1.5039  0.4208
 4582SOL    HW225206   2.018   3.251   0.546 -0.1301  0.0475 -0.5493
 4583SOL     OW25207   2.133   1.290   6.163  0.5930  0.3239 -0.1740
 4583SOL    HW125208   2.221   1.323   6.179  1.0224 -1.4585  1.0544
 4583SOL    HW225209   2.084   1.371   6.148 -2.5528 -1.3288  1.1325
 4584SOL     OW25210   0.669   2.852   7.029  0.0148 -0.0785 -0.0260
 4584SOL    HW125211   0.618   2.926   6.995  2.1248  1.1256 -0.5846
 4584SOL    HW225212   0.745   2.895   7.067 -0.3895  1.8010 -1.3517
 4585SOL     OW25213   0.383   3.248   5.074  0.4835  0.5335  0.0589
 4585SOL    HW125214   0.362   3.339   5.093 -2.0880 -0.2325  0.8024
 4585SOL    HW225215   0.381   3.241   4.979 -2.7524  1.2705  0.0905
 4586SOL     OW25216   4.263   0.964   3.476  0.5980  0.0810  0.4736
 4586SOL    HW125217   4.343   1.012   3.451  0.3424  0.0841 -0.3429
 4586SOL    HW225218   4.254   0.977   3.571  0.1199 -0.0257  0.4428
 4587SOL     OW25219   2.920   0.972   9.307 -0.6277  0.0188  0.1913
 4587SOL    HW125220   2.852   0.910   9.336  0.6184 -1.2813  0.3313
 4587SOL    HW225221   2.939   1.034   9.377 -0.1398 -0.1915  0.2462
 4588SOL     OW25222   4.134   3.155   6.461  0.3335  0.4077 -0.5959
 4588SOL    HW125223   4.196   3.083   6.472  0.2547  0.3895 -0.2840
 4588SOL    HW225224   4.053   3.106   6.476  0.4375 -0.2375 -2.0729
 4589SOL     OW25225   0.287   3.493   4.401  0.0153 -0.0897  0.5662
 4589SOL    HW125226   0.219   3.558   4.421  0.5466  0.8259 -0.5512
 4589SOL    HW225227   0.365   3.549   4.402 -0.0984  0.0232  2.5796
 4590SOL     OW25228   2.949   1.136   9.531  0.0565  0.1427 -0.1006
 4590SOL    HW125229   2.906   1.211   9.490 -0.6128  0.5329  1.3437
 4590SOL    HW225230   3.010   1.172   9.595 -0.1748 -2.9533  1.8296
 4591SOL     OW25231   4.295   0.191   6.275  0.1929  0.3937  0.2349
 4591SOL    HW125232   4.360   0.161   6.212  0.3251 -1.6662  1.3425
 4591SOL    HW225233   4.246   0.111   6.290 -0.7232  1.1250  1.1595
 4592SOL     OW25234   0.425   1.803   2.750  0.3814  0.3162 -0.3103
 4592SOL    HW125235   0.448   1.869   2.684  3.4594 -1.0968 -0.6615
 4592SOL    HW225236   0.339   1.826   2.786 -0.1184  1.0500 -1.9552
 4593SOL     OW25237   1.611   3.323  11.982  0.1774 -0.4774  0.3656
 4593SOL    HW125238   1.571   3.359  12.061  1.1208  1.6260 -0.1444
 4593SOL    HW225239   1.627   3.229  11.996  1.4530 -0.6266 -2.0634
 4594SOL     OW25240   4.475   0.613  12.302 -0.2177  0.4785  0.4070
 4594SOL    HW125241   4.511   0.607  12.214  3.1764 -4.1569  2.0782
 4594SOL    HW225242   4.384   0.626  12.274 -1.4015  0.8599  4.3749
 4595SOL     OW25243   4.186   4.533   5.355  0.2317  0.0199  0.3360
 4595SOL    HW125244   4.143   4.484   5.425 -0.7787 -0.7037 -0.7831
 4595SOL    HW225245   4.137   4.614   5.368 -0.1944  0.2749 -2.7448
 4596SOL     OW25246   1.554   1.346   2.964 -0.2818 -0.1693  0.1017
 4596SOL    HW125247   1.500   1.302   3.030  0.1463  0.5578  0.9344
 4596SOL    HW225248   1.640   1.359   3.006 -1.4839 -0.2028  2.5790
 4597SOL     OW25249   2.858   2.548   8.632  0.0145 -0.0475  0.0467
 4597SOL    HW125250   2.803   2.494   8.575  2.7553 -3.8395  0.9700
 4597SOL    HW225251   2.797   2.563   8.705  1.3024 -0.5454  1.2340
 4598SOL     OW25252   0.973   3.071   0.453 -0.1210 -0.5268 -0.5655
 4598SOL    HW125253   1.054   3.043   0.411 -0.3533 -1.6287 -0.2762
 4598SOL    HW225254   0.995   3.154   0.495  0.1811 -0.0631 -1.6375
 4599SOL     OW25255   4.470   4.671   1.746 -0.0056 -0.1780 -0.6049
 4599SOL    HW125256   4.551   4.672   1.797  0.5507 -0.9495 -1.4758
 4599SOL    HW225257   4.414   4.715   1.810 -1.7024 -0.9435 -1.5602
 4600SOL     OW25258   1.536   1.291  10.411 -0.3362  0.5629  0.3140
 4600SOL    HW125259   1.553   1.369  10.465  1.5199 -1.1198  2.1640
 4600SOL    HW225260   1.602   1.227  10.437 -0.5982 -0.0254 -0.4613
 4601SOL     OW25261   3.690   2.066  16.666 -0.5087  0.8762 -0.2955
 4601SOL    HW125262   3.688   2.054  16.760  1.2926 -3.5313 -0.8449
 4601SOL    HW225263   3.656   1.984  16.629  1.0530 -0.1067  0.5045
 4602SOL     OW25264   0.886   0.700  10.311  0.3640  0.1646  0.0427
 4602SOL    HW125265   0.921   0.748  10.235  1.4826 -2.4050 -1.0696
 4602SOL    HW225266   0.850   0.619  10.277 -0.4989  0.2766  0.7147
 4603SOL     OW25267   0.163   2.374   3.626 -0.6912 -0.0126  0.0963
 4603SOL    HW125268   0.253   2.403   3.612 -0.3140 -1.0567  0.3259
 4603SOL    HW225269   0.119   2.458   3.619 -0.6144 -0.0151 -0.4550
 4604SOL     OW25270   0.332   0.870   6.518 -0.0405  0.0853  0.0479
 4604SOL    HW125271   0.310   0.837   6.605  1.6015  0.3463  0.5650
 4604SOL    HW225272   0.251   0.892   6.471 -0.6435 -1.1491  0.5000
 4605SOL     OW25273   2.077   4.653   8.445 -0.0105 -0.0949 -0.5575
 4605SOL    HW125274   2.153   4.685   8.493  0.6501 -0.5936 -1.2512
 4605SOL    HW225275   2.013   4.668   8.514 -0.1216  0.7787 -0.8485
 4606SOL     OW25276   2.789   0.444   2.793  0.3530 -0.6027  0.2116
 4606SOL    HW125277   2.864   0.385   2.789  1.2182  0.4401  1.3413
 4606SOL    HW225278   2.756   0.415   2.878 -3.8764 -0.2856 -1.3140
 4607SOL     OW25279   2.251   0.786   5.534 -0.1970  0.5048  0.8813
 4607SOL    HW125280   2.305   0.850   5.488  1.3615 -1.1791  0.3298
 4607SOL    HW225281   2.322   0.762   5.594 -0.5859 -4.0092 -0.4566
 4608SOL     OW25282   1.646   1.150   8.440 -0.3073  0.9166 -0.5388
 4608SOL    HW125283   1.595   1.079   8.478  0.0653  1.3028  0.6713
 4608SOL    HW225284   1.643   1.128   8.347  0.8341  0.0267 -0.3704
 4609SOL     OW25285   3.598   2.547  15.172  0.3695 -0.2462 -0.0022
 4609SOL    HW125286   3.541   2.533  15.247 -0.5644 -2.7352 -1.1917
 4609SOL    HW225287   3.529   2.537  15.107 -1.0353  2.4282  1.0905
 4610SOL     OW25288   0.638   0.637   9.628  0.1785  0.0676  0.2953
 4610SOL    HW125289   0.725   0.634   9.667  0.1698 -3.1666  0.0769
 4610SOL    HW225290   0.592   0.656   9.710  3.0199 -0.6356  2.0629
 4611SOL     OW25291   3.725   3.584  17.103  0.0158 -0.0435  0.7313
 4611SOL    HW125292   3.675   3.560  17.181 -1.2280 -1.8269 -0.5954
 4611SOL    HW225293   3.666   3.647  17.062  0.8179 -0.2752 -0.7775
 4612SOL     OW25294   4.440   0.411  10.409  0.9052  0.0524 -0.1295
 4612SOL    HW125295   4.460   0.343  10.345  3.5574  0.1971  0.5539
 4612SOL    HW225296   4.346   0.400  10.426  0.2627  2.0910 -2.3299
 4613SOL     OW25297   3.235   1.925   4.771  0.3279  0.2475 -0.2637
 4613SOL    HW125298   3.145   1.934   4.802  0.4853 -2.5919  0.9687
 4613SOL    HW225299   3.243   2.009   4.724 -0.5652  1.1041  1.1154
 4614SOL     OW25300   0.224   3.662   4.889  0.2832 -0.1135 -0.0495
 4614SOL    HW125301   0.145   3.608   4.893 -0.4644  0.9345 -0.7790
 4614SOL    HW225302   0.300   3.605   4.901  0.2647 -0.2000 -0.3399
 4615SOL     OW25303   3.902   3.054   2.269  0.2036  0.5634  0.0111
 4615SOL    HW125304   3.812   3.072   2.295  0.8779  0.0116  2.7468
 4615SOL    HW225305   3.893   2.969   2.226 -1.1446  0.8602 -0.2795
 4616SOL     OW25306   1.786   2.832   5.963 -0.3216 -0.2934 -0.2924
 4616SOL    HW125307   1.878   2.810   5.971 -0.2222 -0.4655 -1.9657
 4616SOL    HW225308   1.794   2.876   5.878  1.3323 -1.7746 -0.8851
 4617SOL     OW25309   1.306   3.781   7.304  0.0219  0.4576 -0.4797
 4617SOL    HW125310   1.386   3.733   7.284  0.7215  1.5811 -0.3829
 4617SOL    HW225311   1.248   3.706   7.292 -0.5710  0.8851 -0.3268
 4618SOL     OW25312   4.699   3.418   5.672  0.5162  0.6955 -0.0712
 4618SOL    HW125313   0.012   3.504   5.693 -1.8171  1.8351 -0.6685
 4618SOL    HW225314   0.036   3.383   5.608 -1.6690 -3.1627 -0.0305
 4619SOL     OW25315   1.490   2.262   8.580  0.1707  0.0757 -0.0360
 4619SOL    HW125316   1.474   2.202   8.653  0.6707 -1.7301 -1.4042
 4619SOL    HW225317   1.418   2.323   8.593 -0.5882 -1.2618  2.0452
 4620SOL     OW25318   1.431   1.000   9.010 -0.1471  0.3191  0.2628
 4620SOL    HW125319   1.509   1.024   8.960 -0.3575 -0.1625 -0.2845
 4620SOL    HW225320   1.419   0.906   9.003  1.1927  0.2443 -0.9475
 4621SOL     OW25321   3.998   4.177  11.659 -0.0310 -0.0924 -0.2185
 4621SOL    HW125322   4.085   4.216  11.647 -0.3368  0.5716 -0.2582
 4621SOL    HW225323   3.991   4.128  11.578  0.3283  2.2724 -1.6683
 4622SOL     OW25324   1.469   1.686   5.123 -0.2772 -0.1192  0.5145
 4622SOL    HW125325   1.553   1.726   5.103  0.0452 -1.5000 -0.9268
 4622SOL    HW225326   1.502   1.599   5.146 -0.2721  0.0198  1.0267
 4623SOL     OW25327   3.606   3.163   6.824 -0.5986  0.2316 -0.2577
 4623SOL    HW125328   3.552   3.086   6.807 -0.8312  1.0233 -3.1749
 4623SOL    HW225329   3.562   3.225   6.767 -0.9474  0.1024 -0.1300
 4624SOL     OW25330   0.993   2.731   2.453 -0.0022  0.2912 -0.3419
 4624SOL    HW125331   0.951   2.759   2.372 -0.5792 -1.2158 -0.5573
 4624SOL    HW225332   0.934   2.778   2.513  0.2468  0.2772 -0.0846
 4625SOL     OW25333   3.971   1.005   5.159  0.5269  0.0193  0.1037
 4625SOL    HW125334   3.898   0.948   5.135  1.4776 -1.6874  1.2093
 4625SOL    HW225335   3.928   1.077   5.113 -0.7480 -0.5349  0.4217
 4626SOL     OW25336   2.987   1.434  12.404  0.6991 -0.2864 -0.5005
 4626SOL    HW125337   3.074   1.430  12.444 -0.8842 -0.5291  2.9427
 4626SOL    HW225338   2.938   1.365  12.448 -3.0731  1.6750 -1.6478
 4627SOL     OW25339   2.364   4.028  12.217  0.5666  0.5828  0.2497
 4627SOL    HW125340   2.273   4.047  12.239  0.5122 -0.3133  0.7920
 4627SOL    HW225341   2.378   4.070  12.133  5.0891 -1.2044  0.1074
 4628SOL     OW25342   2.197   2.142   6.407  0.1195  0.2041 -0.3418
 4628SOL    HW125343   2.237   2.223   6.438  0.0129  0.6628 -1.3861
 4628SOL    HW225344   2.238   2.067   6.450  0.7954 -0.7181 -2.5905
 4629SOL     OW25345   1.969   3.348  15.231  0.4100 -0.3193  0.0298
 4629SOL    HW125346   1.901   3.413  15.217  0.4180 -0.3913 -0.3437
 4629SOL    HW225347   1.986   3.351  15.325 -0.2930  0.3180  0.1353
 4630SOL     OW25348   2.291   4.703   1.901 -0.3916 -0.0184  0.5482
 4630SOL    HW125349   2.203   4.665   1.903 -1.6800  2.8979 -1.6004
 4630SOL    HW225350   2.341   4.622   1.913  2.3037  1.6005  0.2681
 4631SOL     OW25351   1.621   3.698   1.753 -0.3863 -0.6207  0.4687
 4631SOL    HW125352   1.591   3.739   1.834 -0.5597  0.8867 -0.3536
 4631SOL    HW225353   1.704   3.741   1.733 -0.7976  0.0908  0.2734
 4632SOL     OW25354   4.156   3.195  16.935  0.0945 -0.0943  0.5771
 4632SOL    HW125355   4.101   3.247  16.875  1.2057  0.3440 -0.0685
 4632SOL    HW225356   4.088   3.185  17.001  0.6044  1.5126  1.3311
 4633SOL     OW25357   1.742   3.236   4.606  0.1448  0.1907 -0.0523
 4633SOL    HW125358   1.774   3.275   4.525  0.0635  1.1795  0.3995
 4633SOL    HW225359   1.764   3.145   4.582 -1.6420  0.4156 -2.5963
 4634SOL     OW25360   1.944   1.358   0.993 -0.7513 -0.2232  0.4285
 4634SOL    HW125361   1.888   1.419   1.040  1.1251 -0.7495  3.3886
 4634SOL    HW225362   1.907   1.271   1.011  1.2305 -1.2018 -0.1936
 4635SOL     OW25363   3.161   0.269   5.909  0.3045  0.1603 -0.5409
 4635SOL    HW125364   3.154   0.354   5.952  2.2928  0.4932 -0.8699
 4635SOL    HW225365   3.251   0.289   5.883  0.3563  0.6591  0.0284
 4636SOL     OW25366   1.038   4.589   5.576 -0.0979  0.0691  0.0770
 4636SOL    HW125367   1.005   4.629   5.656  1.4703 -0.0258  0.7745
 4636SOL    HW225368   1.009   4.643   5.502 -0.0803 -0.0437 -0.0117
 4637SOL     OW25369   0.474   0.769   4.086 -0.3136 -0.0631  0.3232
 4637SOL    HW125370   0.412   0.714   4.133 -0.5765  0.0689  0.1307
 4637SOL    HW225371   0.433   0.783   4.000 -0.1481  0.5285  0.3379
 4638SOL     OW25372   0.881   1.548  12.671 -0.0969  0.5914 -0.3283
 4638SOL    HW125373   0.973   1.525  12.679  0.3628  1.7942 -2.2520
 4638SOL    HW225374   0.850   1.481  12.610 -0.8093  0.7373 -0.1333
 4639SOL     OW25375   1.048   1.957   5.803 -0.4849 -0.1909 -0.1684
 4639SOL    HW125376   1.028   1.868   5.772 -2.0824 -1.0753  3.4989
 4639SOL    HW225377   1.083   1.929   5.888  0.3267 -0.7842 -0.6940
 4640SOL     OW25378   3.805   2.228  16.116 -0.0195  0.1057  0.2668
 4640SOL    HW125379   3.805   2.141  16.156  0.4141 -0.3059 -0.6038
 4640SOL    HW225380   3.861   2.281  16.173  2.1897  1.6106 -3.2853
 4641SOL     OW25381   1.713   2.380   3.558 -0.2455 -0.2020  0.5506
 4641SOL    HW125382   1.662   2.300   3.551  0.6233 -0.7374  0.3980
 4641SOL    HW225383   1.758   2.374   3.473 -0.3685 -2.6570  0.6750
 4642SOL     OW25384   0.570   2.899   4.030  0.7520 -0.3226  0.0376
 4642SOL    HW125385   0.637   2.968   4.029 -0.3756  0.7743 -0.3393
 4642SOL    HW225386   0.546   2.906   4.122  0.1905  0.1967 -0.1464
 4643SOL     OW25387   1.552   0.857  11.305  0.5539  0.4301 -0.3359
 4643SOL    HW125388   1.620   0.813  11.254  1.0358  1.0147 -0.1962
 4643SOL    HW225389   1.585   0.933  11.353  0.5020  1.3334 -1.7327
 4644SOL     OW25390   2.762   2.618   5.401  0.7132  0.1453  0.3226
 4644SOL    HW125391   2.722   2.657   5.323 -0.7603 -2.3062 -0.1576
 4644SOL    HW225392   2.811   2.691   5.439 -2.4992  1.8239  1.2549
 4645SOL     OW25393   1.047   4.440   1.536 -0.4921  0.2421  0.1881
 4645SOL    HW125394   1.055   4.491   1.456  1.4710  2.4547  1.8259
 4645SOL    HW225395   1.007   4.359   1.502  2.1011 -1.4865  1.2394
 4646SOL     OW25396   0.838   0.332   0.448  0.4270  0.5418 -0.4060
 4646SOL    HW125397   0.907   0.326   0.382 -0.4667 -2.5612 -1.0626
 4646SOL    HW225398   0.774   0.267   0.420  0.8243 -0.6587  1.4213
 4647SOL     OW25399   0.489   1.104   7.635  0.0641  0.1429  0.3275
 4647SOL    HW125400   0.548   1.122   7.562  1.6826 -0.8169  1.3849
 4647SOL    HW225401   0.498   1.190   7.678  0.2958  0.9266 -1.3100
 4648SOL     OW25402   2.569   3.182   2.884  0.1093  0.3713 -0.1131
 4648SOL    HW125403   2.525   3.261   2.853  1.8926  1.0274 -0.9135
 4648SOL    HW225404   2.653   3.190   2.840  0.1257  0.2054 -0.1141
 4649SOL     OW25405   3.336   3.977   9.035  0.0301  0.0751 -0.2238
 4649SOL    HW125406   3.248   4.004   9.061 -0.9346 -1.0679 -2.2378
 4649SOL    HW225407   3.335   4.000   8.942 -1.1166 -1.8104 -0.6851
 4650SOL     OW25408   1.660   0.734   2.804 -0.1643  0.0562 -0.3774
 4650SOL    HW125409   1.625   0.675   2.871  0.6730  0.1837  0.1776
 4650SOL    HW225410   1.707   0.803   2.851  1.3193  1.0261 -3.3056
 4651SOL     OW25411   1.126   0.883   7.911  0.2611 -0.6424 -0.0550
 4651SOL    HW125412   1.086   0.890   7.824  0.5387  1.0547 -0.0477
 4651SOL    HW225413   1.198   0.942   7.890  0.1324  0.0515  1.4778
 4652SOL     OW25414   3.393   0.896   0.781 -0.1414  0.0768 -0.3626
 4652SOL    HW125415   3.439   0.866   0.704  1.6114 -0.9548  1.0977
 4652SOL    HW225416   3.309   0.853   0.766  0.3507 -0.6007 -1.1758
 4653SOL     OW25417   0.145   2.036   8.378  0.0174 -1.2293 -0.5278
 4653SOL    HW125418   0.221   2.059   8.326  0.7482 -1.4844  0.4158
 4653SOL    HW225419   0.101   2.121   8.383  1.3500 -0.5599  0.0328
 4654SOL     OW25420   2.227   0.730   4.226 -0.2986 -0.0105 -0.3836
 4654SOL    HW125421   2.291   0.659   4.236  1.2104  1.3712 -0.1859
 4654SOL    HW225422   2.263   0.780   4.153  1.6401  2.1753  2.0748
 4655SOL     OW25423   0.311   3.058   8.505 -0.5781  0.4764  0.0799
 4655SOL    HW125424   0.381   2.996   8.487 -0.9308  0.5671 -1.5651
 4655SOL    HW225425   0.333   3.090   8.593  0.1881 -1.5579  0.6342
 4656SOL     OW25426   1.417   2.186   0.321  0.2433 -0.0033  0.1379
 4656SOL    HW125427   1.493   2.167   0.266 -0.1053  0.1618 -0.4052
 4656SOL    HW225428   1.365   2.246   0.267 -0.1931  0.6763  1.3073
 4657SOL     OW25429   1.146   2.101   4.750  0.0615  0.5931  0.3621
 4657SOL    HW125430   1.223   2.136   4.705 -0.5773  1.5686  0.0373
 4657SOL    HW225431   1.191   2.055   4.821  0.8747  2.0293  0.7629
 4658SOL     OW25432   4.212   3.540   4.163 -0.6011 -0.6106 -0.3253
 4658SOL    HW125433   4.297   3.555   4.204 -1.7697 -0.3290  2.0032
 4658SOL    HW225434   4.208   3.627   4.123 -0.4422  0.1695  1.3358
 4659SOL     OW25435   4.333   4.106  13.347  0.0635 -0.3480  0.4748
 4659SOL    HW125436   4.330   4.160  13.425 -0.6247  1.3065 -0.6886
 4659SOL    HW225437   4.240   4.084  13.343 -0.3170  1.1800  1.1997
 4660SOL     OW25438   4.168   1.309  15.193 -0.6311 -0.0855 -0.4678
 4660SOL    HW125439   4.240   1.323  15.255 -0.3627 -1.9798 -0.3611
 4660SOL    HW225440   4.161   1.393  15.147 -3.3705  0.2867  0.6669
 4661SOL     OW25441   0.053   2.208  11.004  0.1093  0.4940  0.1660
 4661SOL    HW125442   0.049   2.116  10.979  0.6159  1.3631 -3.1878
 4661SOL    HW225443   0.005   2.205  11.086 -1.1521  0.8537 -0.5477
 4662SOL     OW25444   4.184   2.098  13.278  0.0931 -0.6340 -0.0850
 4662SOL    HW125445   4.219   2.062  13.197  1.8403 -1.0733  0.8863
 4662SOL    HW225446   4.128   2.167  13.241  0.9638 -0.2703 -0.7278
 4663SOL     OW25447   3.551   1.927  10.589 -0.5992  0.6648  0.6405
 4663SOL    HW125448   3.479   1.987  10.572 -1.0809  0.0400  0.4746
 4663SOL    HW225449   3.531   1.892  10.676 -1.4558 -1.7173 -0.5217
 4664SOL     OW25450   3.639   1.475  12.610  0.0527  0.1205  0.0164
 4664SOL    HW125451   3.544   1.479  12.622  0.1029  1.1790  0.1211
 4664SOL    HW225452   3.650   1.382  12.628 -0.1030 -0.0565 -0.8313
 4665SOL     OW25453   2.004   2.543   5.391 -0.8714 -0.5621  0.3569
 4665SOL    HW125454   1.940   2.477   5.366 -0.6467 -0.4742 -0.4338
 4665SOL    HW225455   2.026   2.494   5.471 -0.8938 -0.0291  0.6916
 4666SOL     OW25456   1.364   4.685   5.158 -0.1246 -0.5797  0.1011
 4666SOL    HW125457   1.432   4.618   5.162  0.6915  0.3252  1.2970
 4666SOL    HW225458   1.388   0.021   5.229 -1.2754 -1.1233  0.9520
 4667SOL     OW25459   3.068   3.155   0.018  0.1944  0.8347 -1.1005
 4667SOL    HW125460   2.999   3.211  17.677  0.1968  1.5819  0.0479
 4667SOL    HW225461   3.014   3.087   0.059  0.9257  0.0380 -1.4525
 4668SOL     OW25462   4.455   3.978   5.751  0.0810  0.1103 -0.5291
 4668SOL    HW125463   4.397   3.983   5.675  0.3190 -0.4874 -0.7523
 4668SOL    HW225464   4.396   3.947   5.820 -2.2179  0.5287 -2.2885
 4669SOL     OW25465   2.674   1.894   3.775 -0.4688  0.5826  0.2473
 4669SOL    HW125466   2.744   1.942   3.820 -0.3617 -0.0415  0.7557
 4669SOL    HW225467   2.668   1.818   3.833 -0.6172  1.4521  1.3580
 4670SOL     OW25468   4.311   4.347   4.299  0.6651  0.3126 -0.5531
 4670SOL    HW125469   4.274   4.359   4.211  0.1875 -1.9498 -0.6442
 4670SOL    HW225470   4.274   4.417   4.353  0.3236 -0.6212  0.4213
 4671SOL     OW25471   0.899   3.892   6.060 -0.0488 -0.0451 -0.1765
 4671SOL    HW125472   0.870   3.958   5.996 -0.2704 -1.7518 -1.8309
 4671SOL    HW225473   0.901   3.811   6.009  2.6193  1.2254 -2.0692
 4672SOL     OW25474   0.022   3.536  15.714  0.1933 -0.3334  0.5312
 4672SOL    HW125475   4.651   3.540  15.734  0.0926  0.0138 -0.0244
 4672SOL    HW225476   0.053   3.476  15.783  0.9199 -0.8695 -0.2641
 4673SOL     OW25477   1.884   0.571   5.770 -0.3451 -0.9290 -0.6470
 4673SOL    HW125478   1.809   0.618   5.805  0.3680 -1.7680  1.9833
 4673SOL    HW225479   1.937   0.648   5.748 -1.5870  0.0516 -0.2421
 4674SOL     OW25480   0.674   0.082   4.213  0.1375 -0.0012 -0.2170
 4674SOL    HW125481   0.591   0.129   4.220  0.4823  0.9264 -2.3210
 4674SOL    HW225482   0.681   0.056   4.121 -3.7181  0.2259 -0.5793
 4675SOL     OW25483   2.540   1.826   2.283 -0.3151  0.0384  0.2670
 4675SOL    HW125484   2.601   1.787   2.346 -2.0511 -0.1154  1.8445
 4675SOL    HW225485   2.520   1.908   2.328 -0.5957 -0.0507  0.3061
 4676SOL     OW25486   4.566   3.059   4.420 -0.4368 -0.3377 -0.4000
 4676SOL    HW125487   4.585   2.965   4.419 -0.8536 -0.4423  1.9989
 4676SOL    HW225488   4.637   3.090   4.363  0.0354 -1.2067 -0.2820
 4677SOL     OW25489   3.878   1.615   3.981  0.1505 -0.1322  0.5315
 4677SOL    HW125490   3.942   1.612   4.052  0.2474 -2.4592  0.3375
 4677SOL    HW225491   3.940   1.627   3.909 -0.4639 -0.4204 -0.0461
 4678SOL     OW25492   4.631   4.424   6.472  0.1237 -0.1503 -0.0647
 4678SOL    HW125493   4.717   4.462   6.489  0.1249 -0.0896 -0.2110
 4678SOL    HW225494   4.575   4.500   6.489  2.1138  0.8317  2.1226
 4679SOL     OW25495   0.843   3.980   3.985 -0.4489  0.4013 -0.2377
 4679SOL    HW125496   0.779   3.927   3.939 -0.2744 -0.0873  0.0830
 4679SOL    HW225497   0.839   4.064   3.940  0.9119  0.1533 -0.8326
 4680SOL     OW25498   1.763   1.017   7.305 -0.2665 -0.5527  0.1195
 4680SOL    HW125499   1.798   0.950   7.247  1.1807  0.3233 -0.0157
 4680SOL    HW225500   1.672   0.991   7.320 -0.5558  0.5651  0.3292
 4681SOL     OW25501   1.579   2.006   8.176  0.8221 -0.1878 -0.4436
 4681SOL    HW125502   1.613   1.974   8.260  2.2095 -0.2109 -1.0237
 4681SOL    HW225503   1.527   2.074   8.218  1.0568  0.3554 -1.0539
 4682SOL     OW25504   0.857   2.244   6.661 -0.0261 -0.0670 -0.3385
 4682SOL    HW125505   0.858   2.333   6.697 -0.4849  0.6239 -2.0396
 4682SOL    HW225506   0.791   2.250   6.592  0.0946 -1.3935 -0.5748
 4683SOL     OW25507   1.766   0.972  15.254 -0.1472 -0.1255  0.2591
 4683SOL    HW125508   1.748   0.890  15.208  0.1605 -0.2270  0.3219
 4683SOL    HW225509   1.851   1.004  15.224 -0.1093  2.3851  3.0846
 4684SOL     OW25510   1.387   3.305  13.736 -0.6245  0.0591  0.0604
 4684SOL    HW125511   1.354   3.353  13.811  0.5164 -0.5634  0.9611
 4684SOL    HW225512   1.387   3.376  13.671  0.4026 -0.9668 -1.0738
 4685SOL     OW25513   0.903   0.176   2.231 -0.0878 -0.0897  0.0830
 4685SOL    HW125514   0.968   0.223   2.179  0.7302 -1.2715  0.0330
 4685SOL    HW225515   0.821   0.184   2.183 -0.4264  0.1753  0.7077
 4686SOL     OW25516   0.241   3.368   7.644  0.0635  0.2260 -0.4213
 4686SOL    HW125517   0.148   3.392   7.643  0.1347  0.4473 -1.3832
 4686SOL    HW225518   0.290   3.442   7.679 -0.2129 -0.0043  0.4655
 4687SOL     OW25519   4.658   3.327   2.707  0.0117  0.5676 -0.0948
 4687SOL    HW125520   4.589   3.267   2.735 -0.0100  1.3291  1.4480
 4687SOL    HW225521   4.635   3.354   2.618 -1.4169  0.9904  0.4018
 4688SOL     OW25522   0.266   3.881   2.456 -0.0977 -0.1091 -0.1446
 4688SOL    HW125523   0.361   3.867   2.462 -0.3229 -0.7997  1.9839
 4688SOL    HW225524   0.257   3.941   2.383 -0.2044 -2.6502 -2.2187
 4689SOL     OW25525   0.799   3.851  14.038  0.5174  0.2790 -0.1956
 4689SOL    HW125526   0.833   3.816  13.956 -0.9854 -1.3408 -0.1259
 4689SOL    HW225527   0.760   3.775  14.081  1.8103 -1.1259 -1.5356
 4690SOL     OW25528   2.229   2.076  16.876  0.4385  0.2532 -0.1389
 4690SOL    HW125529   2.261   2.098  16.789 -2.2846  0.2704 -1.1315
 4690SOL    HW225530   2.302   2.031  16.919 -0.0303  0.3888  0.8169
 4691SOL     OW25531   3.528   4.102   8.781  0.4419  0.3009  0.0589
 4691SOL    HW125532   3.444   4.146   8.793 -1.1608 -2.3304 -1.8633
 4691SOL    HW225533   3.567   4.162   8.717 -1.4158  0.7331 -0.6447
 4692SOL     OW25534   1.959   2.277   5.802  0.1555 -0.2771 -0.3371
 4692SOL    HW125535   1.942   2.236   5.887  1.3179  0.3873  0.2272
 4692SOL    HW225536   1.967   2.368   5.832 -2.0025 -0.2374  0.1345
 4693SOL     OW25537   1.090   4.122   5.839 -0.5228 -0.6518 -0.0789
 4693SOL    HW125538   1.016   4.148   5.785 -0.5472  0.0422  0.2864
 4693SOL    HW225539   1.071   4.028   5.836  0.6246 -0.9045  0.4263
 4694SOL     OW25540   2.617   0.906  16.207 -0.2589 -0.0928 -0.0926
 4694SOL    HW125541   2.558   0.927  16.135  1.5917  1.0783 -1.2588
 4694SOL    HW225542   2.664   0.837  16.160 -1.5469 -0.1634 -1.2535
 4695SOL     OW25543   3.300   2.951  10.474  0.2703 -0.2352 -0.4245
 4695SOL    HW125544   3.258   2.915  10.552 -0.9305  0.5988 -0.6934
 4695SOL    HW225545   3.267   3.041  10.477  0.1143 -0.3269  0.7175
 4696SOL     OW25546   0.889   2.120   2.940 -0.7521 -0.1097 -0.1705
 4696SOL    HW125547   0.967   2.122   2.883 -1.4231  0.3702 -1.0702
 4696SOL    HW225548   0.837   2.195   2.910  1.1582  0.6333 -1.7186
 4697SOL     OW25549   4.488   3.042  13.072  0.5463  0.5005 -0.2341
 4697SOL    HW125550   4.404   3.016  13.036  1.5568 -0.2342 -2.0501
 4697SOL    HW225551   4.490   3.138  13.067 -1.2275  0.7750  3.7953
 4698SOL     OW25552   0.781   2.025   4.156  0.2345 -0.5001  0.2504
 4698SOL    HW125553   0.823   2.110   4.169  0.0228 -0.3377 -0.1186
 4698SOL    HW225554   0.692   2.051   4.179  0.6456  0.8473  0.3331
 4699SOL     OW25555   1.576   3.740  14.547 -0.1420  0.0034  0.4097
 4699SOL    HW125556   1.537   3.743  14.459  0.3333 -2.4579  0.1209
 4699SOL    HW225557   1.605   3.828  14.569 -0.1129  0.4499 -1.3660
 4700SOL     OW25558   1.861   0.522   7.422  0.6222  0.3894  0.1458
 4700SOL    HW125559   1.799   0.503   7.492  2.4186 -2.5829  0.9370
 4700SOL    HW225560   1.838   0.610   7.394 -0.4772 -0.4277 -1.5641
 4701SOL     OW25561   4.515   2.106   4.094 -0.4567  0.6411  0.5162
 4701SOL    HW125562   4.425   2.077   4.110 -0.4443 -0.2390 -0.9920
 4701SOL    HW225563   4.567   2.028   4.112  0.1483  0.9832  0.2774
 4702SOL     OW25564   3.483   4.168   2.212  0.1349  0.0211 -0.3123
 4702SOL    HW125565   3.498   4.238   2.276  1.2021 -1.3499  0.9470
 4702SOL    HW225566   3.509   4.218   2.135 -0.1626 -0.2320 -0.5796
 4703SOL     OW25567   3.922   3.701  13.809  0.0141 -0.0577  0.0733
 4703SOL    HW125568   3.942   3.750  13.889 -0.6593 -1.1764  0.9418
 4703SOL    HW225569   3.861   3.757  13.762  0.8718 -1.0863 -2.2526
 4704SOL     OW25570   2.000   1.072   4.029  0.4630  0.6245  0.2011
 4704SOL    HW125571   2.019   0.986   3.992  0.2532 -0.5710  2.8389
 4704SOL    HW225572   1.944   1.055   4.104  2.2951  0.8936  1.6537
 4705SOL     OW25573   4.461   3.608   2.354  0.1163 -0.3522  0.6023
 4705SOL    HW125574   4.374   3.602   2.314  0.7487 -0.8060 -0.7437
 4705SOL    HW225575   4.448   3.648   2.439 -0.3701  0.3341  0.2030
 4706SOL     OW25576   3.555   3.771   1.451  0.5777 -0.0830 -0.4363
 4706SOL    HW125577   3.617   3.743   1.518 -0.7855 -2.1254 -0.0323
 4706SOL    HW225578   3.609   3.822   1.391  1.3193 -0.6077 -0.2183
 4707SOL     OW25579   0.458   1.604  14.323  0.1484 -1.0857 -0.4320
 4707SOL    HW125580   0.372   1.633  14.294 -0.4154 -3.0406 -0.7024
 4707SOL    HW225581   0.462   1.510  14.305 -0.3499 -1.2009  0.0756
 4708SOL     OW25582   0.037   0.328   8.923 -0.1012 -0.2229 -0.6927
 4708SOL    HW125583   0.131   0.310   8.926  0.0574  0.8421  0.7327
 4708SOL    HW225584   0.032   0.421   8.943 -0.7667 -0.2555 -0.7235
 4709SOL     OW25585   1.853   0.608   1.362  0.0902 -0.1367 -0.3656
 4709SOL    HW125586   1.792   0.583   1.432 -1.0318 -0.1013 -1.3177
 4709SOL    HW225587   1.823   0.540   1.302  0.1875  1.4166 -2.1836
 4710SOL     OW25588   4.339   2.236   0.448 -0.2919  0.1293  0.1992
 4710SOL    HW125589   4.284   2.175   0.398 -0.8416  0.7615  0.0257
 4710SOL    HW225590   4.372   2.295   0.380  0.2324  0.5724  0.8369
 4711SOL     OW25591   4.437   0.142   1.944 -0.0445 -0.1861  0.0806
 4711SOL    HW125592   4.463   0.074   2.007  1.7479  0.4059 -0.0286
 4711SOL    HW225593   4.516   0.196   1.941  1.5721 -2.7477 -2.4821
 4712SOL     OW25594   1.544   3.042   7.719  0.0271  0.5886 -0.1283
 4712SOL    HW125595   1.625   3.008   7.756  0.0955 -0.7402 -1.5193
 4712SOL    HW225596   1.509   2.961   7.682  1.3462  0.8479 -1.9697
 4713SOL     OW25597   1.780   2.269  10.972 -0.2146 -0.2719 -0.2187
 4713SOL    HW125598   1.842   2.201  10.998  0.7760 -0.2519 -2.5081
 4713SOL    HW225599   1.733   2.220  10.905  0.0543  0.5707 -1.0305
 4714SOL     OW25600   0.756   2.892  13.255  0.3028  0.1542 -0.2969
 4714SOL    HW125601   0.849   2.914  13.263 -0.0219  1.1076  0.8578
 4714SOL    HW225602   0.736   2.862  13.344  2.2264 -0.9201 -0.2250
 4715SOL     OW25603   0.745   0.620   3.766  0.1186  0.0076  0.3303
 4715SOL    HW125604   0.833   0.583   3.760  1.0133  1.8460  1.8603
 4715SOL    HW225605   0.766   0.701   3.814 -0.3694  1.1507 -1.4122
 4716SOL     OW25606   1.946   3.646   6.714  0.1809 -0.2514  0.5142
 4716SOL    HW125607   1.926   3.739   6.727  0.0233 -0.0591 -1.0454
 4716SOL    HW225608   1.858   3.608   6.719 -0.4968  1.4845  1.8538
 4717SOL     OW25609   3.155   3.965   3.790  0.0022 -0.1301 -0.0934
 4717SOL    HW125610   3.116   4.048   3.764  0.3065 -0.4048 -1.4820
 4717SOL    HW225611   3.088   3.931   3.849  0.1969 -0.3284  0.0160
 4718SOL     OW25612   0.852   3.677   8.231  0.1204 -0.1983 -0.1811
 4718SOL    HW125613   0.768   3.689   8.275  1.1345  4.9892  0.3472
 4718SOL    HW225614   0.899   3.756   8.257 -0.8589 -0.3374  1.9297
 4719SOL     OW25615   3.447   0.368  17.645  0.4818  0.1267 -0.4864
 4719SOL    HW125616   3.444   0.303  17.575  0.1917 -1.9044  1.3993
 4719SOL    HW225617   3.539   0.394  17.643  0.2816  0.5774 -2.7143
 4720SOL     OW25618   0.669   0.576   4.606 -0.6723  0.4006 -0.3632
 4720SOL    HW125619   0.715   0.652   4.642  2.2703 -1.1519 -0.8194
 4720SOL    HW225620   0.647   0.519   4.680  2.6772  0.0115  0.3653
 4721SOL     OW25621   0.777   1.566   5.741 -0.4441 -0.4188  0.2331
 4721SOL    HW125622   0.812   1.478   5.757 -1.1804 -0.4808  1.4972
 4721SOL    HW225623   0.858   1.605   5.709  0.2571 -3.6100 -1.8880
 4722SOL     OW25624   0.102   1.954   9.318 -0.2247 -0.5121 -0.1105
 4722SOL    HW125625   0.015   1.962   9.356  0.4251  0.7097  1.1075
 4722SOL    HW225626   0.111   2.031   9.263 -3.3510  1.5922  2.3288
 4723SOL     OW25627   1.090   3.510   6.278  0.0740 -0.1499  0.2244
 4723SOL    HW125628   1.036   3.589   6.271 -1.0092 -0.6411  2.9511
 4723SOL    HW225629   1.033   3.458   6.334  0.6875  0.8968  1.8340
 4724SOL     OW25630   2.317   0.132   4.374  0.5187 -0.1147  0.2996
 4724SOL    HW125631   2.384   0.126   4.442 -0.9108  0.0343  1.7372
 4724SOL    HW225632   2.291   0.043   4.352  0.3265  0.1192 -0.4218
 4725SOL     OW25633   2.217   3.602   2.228 -0.7413  0.2278 -0.1310
 4725SOL    HW125634   2.172   3.684   2.209 -1.5350 -0.2773 -0.4707
 4725SOL    HW225635   2.307   3.629   2.245 -0.2069 -1.1110 -0.7633
 4726SOL     OW25636   1.519   2.115   2.500  0.0287  0.0121 -0.4333
 4726SOL    HW125637   1.557   2.028   2.491 -1.3579 -0.5342 -1.0494
 4726SOL    HW225638   1.591   2.171   2.530 -1.2025  1.6393 -0.5090
 4727SOL     OW25639   3.587   0.650   8.476  0.0465  0.2169  0.1693
 4727SOL    HW125640   3.642   0.707   8.529 -1.2379  0.8294  0.8531
 4727SOL    HW225641   3.635   0.642   8.394 -2.3686  0.1313 -1.2315
 4728SOL     OW25642   0.096   1.399   3.246 -0.3135  0.1906 -0.5825
 4728SOL    HW125643   0.116   1.403   3.339  1.6071 -1.9550 -0.8973
 4728SOL    HW225644   0.172   1.444   3.210  0.1618 -1.4791 -1.6972
 4729SOL     OW25645   1.096   0.379   1.364  0.1685 -0.0277 -0.2081
 4729SOL    HW125646   1.082   0.472   1.346  2.2494  0.2996 -0.1750
 4729SOL    HW225647   1.044   0.366   1.444 -0.5537 -2.2505 -1.0295
 4730SOL     OW25648   3.928   3.277  15.984 -0.5178  0.0660  0.3933
 4730SOL    HW125649   3.975   3.196  15.965  0.3843  1.4829 -3.5155
 4730SOL    HW225650   3.979   3.312  16.056 -2.1998 -1.5243  2.3874
 4731SOL     OW25651   2.588   0.042   7.114  0.8488  0.3012  0.0835
 4731SOL    HW125652   2.649   0.078   7.049 -0.7119  1.5220 -0.7204
 4731SOL    HW225653   2.553   4.689   7.069 -1.3113  0.6287  1.2190
 4732SOL     OW25654   2.159   0.929   7.605 -0.3415 -0.6769  0.0549
 4732SOL    HW125655   2.234   0.970   7.649 -0.3972 -0.2404 -0.2550
 4732SOL    HW225656   2.096   1.001   7.603 -1.0417 -1.2687  0.5655
 4733SOL     OW25657   0.423   0.579   6.880  0.4197 -0.1903  0.4545
 4733SOL    HW125658   0.496   0.597   6.940  1.9904  0.4262 -1.6348
 4733SOL    HW225659   0.394   0.489   6.895  1.5934 -0.5280  0.7140
 4734SOL     OW25660   0.720   1.625   4.829 -0.3024 -0.8172 -0.1561
 4734SOL    HW125661   0.808   1.661   4.819  0.1641 -1.9670 -0.0842
 4734SOL    HW225662   0.716   1.611   4.923 -1.3528 -1.7615 -0.3349
 4735SOL     OW25663   2.517   4.312   9.026  0.1005 -0.5626  0.3338
 4735SOL    HW125664   2.508   4.406   9.009  1.1225 -0.5678 -0.2465
 4735SOL    HW225665   2.486   4.308   9.117 -1.0171  1.3340  0.0334
 4736SOL     OW25666   2.585   0.732  16.416 -0.0180 -0.5890  0.0129
 4736SOL    HW125667   2.609   0.794  16.347 -1.6053  0.3051  0.2560
 4736SOL    HW225668   2.491   0.743  16.427  0.3506  1.4334  1.1314
 4737SOL     OW25669   2.890   1.374   5.791 -0.0303 -0.5987 -0.3423
 4737SOL    HW125670   2.957   1.306   5.792  1.4843  0.8934 -0.3415
 4737SOL    HW225671   2.862   1.390   5.701  0.6236  2.1390 -0.0826
 4738SOL     OW25672   3.393   0.414   9.650 -0.3991 -0.3670  0.3242
 4738SOL    HW125673   3.301   0.390   9.650 -0.2077 -1.1409 -1.9730
 4738SOL    HW225674   3.391   0.502   9.687  0.4490 -0.0638 -0.3378
 4739SOL     OW25675   1.916   4.197  13.846 -0.0173  0.1331 -0.2572
 4739SOL    HW125676   1.866   4.144  13.783  1.8190 -0.5117 -1.1778
 4739SOL    HW225677   1.842   4.224  13.900  0.7526 -1.9167  1.8096
 4740SOL     OW25678   3.730   4.185   6.142 -0.3572 -0.6040 -0.0225
 4740SOL    HW125679   3.651   4.212   6.096  1.4392 -1.3069 -3.5082
 4740SOL    HW225680   3.749   4.259   6.200 -0.4675  1.2384 -2.3350
 4741SOL     OW25681   4.642   3.173   7.468  0.0240  0.0561  0.0788
 4741SOL    HW125682   4.658   3.079   7.461  1.3057  0.2499  0.3229
 4741SOL    HW225683   4.570   3.187   7.530 -0.9826 -0.7800 -0.9149
 4742SOL     OW25684   1.084   0.451  10.638 -0.0649 -0.8195 -0.2670
 4742SOL    HW125685   1.092   0.506  10.717  0.4312 -0.9207 -0.2519
 4742SOL    HW225686   1.171   0.466  10.601  1.5278 -3.4668  2.4264
 4743SOL     OW25687   2.756   1.003   6.914  0.2077 -0.0708  0.1998
 4743SOL    HW125688   2.665   1.027   6.931  0.5952  0.2547  1.7935
 4743SOL    HW225689   2.764   0.939   6.985  0.5631  1.1339  1.2357
 4744SOL     OW25690   0.628   1.453   0.174  0.7188  0.2411 -0.5359
 4744SOL    HW125691   0.721   1.428   0.173  0.6605  0.0270 -1.2361
 4744SOL    HW225692   0.624   1.494   0.260  3.0618  0.5642 -0.5787
 4745SOL     OW25693   2.847   2.225   0.449  0.2711 -0.1373 -0.3095
 4745SOL    HW125694   2.763   2.194   0.484  1.1293 -1.6416  0.4474
 4745SOL    HW225695   2.879   2.281   0.519 -0.1492  0.7255 -0.8090
 4746SOL     OW25696   3.758   2.486   7.368  0.1588 -0.7075 -0.0657
 4746SOL    HW125697   3.747   2.521   7.279  0.7015 -0.8945 -0.2080
 4746SOL    HW225698   3.682   2.522   7.414 -0.9374 -0.3358 -2.1558
 4747SOL     OW25699   3.268   2.766  15.631  0.5092 -0.7594  0.0344
 4747SOL    HW125700   3.229   2.762  15.544 -1.0308 -1.3885  0.7619
 4747SOL    HW225701   3.270   2.862  15.633  0.6903 -0.7890  0.9556
 4748SOL     OW25702   4.034   3.059  13.776  0.0604  0.3205 -0.1908
 4748SOL    HW125703   3.967   3.080  13.842 -1.5488 -2.9929 -0.7666
 4748SOL    HW225704   4.107   3.030  13.831 -0.0596 -0.0446 -0.2278
 4749SOL     OW25705   0.423   1.755   8.503  0.2866 -0.4551  0.3345
 4749SOL    HW125706   0.336   1.768   8.465  0.1905 -1.1903  0.3024
 4749SOL    HW225707   0.448   1.672   8.465  2.2248  0.9023 -1.3414
 4750SOL     OW25708   2.513   3.408   9.913 -0.0072 -0.2495  0.0556
 4750SOL    HW125709   2.552   3.332   9.871 -1.4013 -0.6490 -0.5133
 4750SOL    HW225710   2.472   3.361   9.985  1.9404 -1.6582  0.2555
 4751SOL     OW25711   3.527   3.576  10.672  0.0965 -0.3528  0.0153
 4751SOL    HW125712   3.602   3.634  10.656  0.3372 -1.5029 -3.0286
 4751SOL    HW225713   3.473   3.597  10.595 -1.3501 -0.3133  1.0430
 4752SOL     OW25714   0.944   0.577   4.856 -0.0771  0.2330  0.5214
 4752SOL    HW125715   1.028   0.556   4.817 -0.4370  2.4256 -1.4107
 4752SOL    HW225716   0.912   0.647   4.800 -0.3369 -0.2074  0.1161
 4753SOL     OW25717   1.477   2.583  14.804  0.4251  0.3611 -0.0892
 4753SOL    HW125718   1.528   2.502  14.811 -0.7682 -0.4128 -0.3489
 4753SOL    HW225719   1.435   2.578  14.890 -3.1275 -2.8247 -1.9896
 4754SOL     OW25720   3.027   4.106   4.430  0.6329 -0.7838 -0.6332
 4754SOL    HW125721   2.958   4.061   4.478  1.9003  0.3768  2.2456
 4754SOL    HW225722   2.982   4.113   4.346 -0.4797 -0.2366  0.0161
 4755SOL     OW25723   1.142   2.908  13.757 -0.0090 -0.0206  0.0894
 4755SOL    HW125724   1.083   2.962  13.703 -0.6354  0.9838  1.7895
 4755SOL    HW225725   1.156   2.961  13.835 -0.3971  1.0419 -0.5515
 4756SOL     OW25726   0.170   0.006  16.918 -0.0323  0.2027 -0.5328
 4756SOL    HW125727   0.263   0.025  16.926 -0.6677  3.2469 -0.2021
 4756SOL    HW225728   0.138   0.096  16.918  1.8301  0.8690  0.4190
 4757SOL     OW25729   2.907   1.955   2.882 -0.4846 -0.6781  0.4861
 4757SOL    HW125730   2.984   1.996   2.844  0.5887 -2.6916  0.4670
 4757SOL    HW225731   2.943   1.903   2.955 -0.5633 -1.8341 -0.3044
 4758SOL     OW25732   1.740   3.077   5.338  0.1333 -0.5222 -0.2142
 4758SOL    HW125733   1.816   3.106   5.286 -0.6485  1.4697 -0.2454
 4758SOL    HW225734   1.677   3.134   5.295  0.5737 -0.4233 -0.7345
 4759SOL     OW25735   2.344   0.647   3.018  0.2664 -1.1494 -0.0929
 4759SOL    HW125736   2.327   0.559   2.983  1.4927 -1.0239 -1.0295
 4759SOL    HW225737   2.406   0.676   2.950 -0.0836  1.0935  0.5529
 4760SOL     OW25738   1.897   3.486  13.864 -0.1502 -0.2460  0.0376
 4760SOL    HW125739   1.977   3.446  13.831  0.8889  0.3923  1.7917
 4760SOL    HW225740   1.834   3.418  13.840  1.2552 -1.6726  0.4115
 4761SOL     OW25741   0.639   2.424   9.655 -0.1731  0.3992  0.8551
 4761SOL    HW125742   0.597   2.372   9.724 -1.1198  3.0111  2.2466
 4761SOL    HW225743   0.604   2.373   9.583  1.0738 -0.7214  1.0347
 4762SOL     OW25744   1.680   4.670   5.739 -0.0319  0.0627  0.0033
 4762SOL    HW125745   1.699   0.036   5.768 -0.1112 -0.0415  0.3765
 4762SOL    HW225746   1.713   4.617   5.811 -0.7722 -0.7258 -0.2286
 4763SOL     OW25747   3.404   3.821   5.624  0.4488  0.1279  0.0527
 4763SOL    HW125748   3.334   3.802   5.687  1.4533 -0.4999  0.9671
 4763SOL    HW225749   3.405   3.916   5.618  2.0999  0.1857  1.2947
 4764SOL     OW25750   0.495   2.971  10.520  0.6688 -0.3434  0.5261
 4764SOL    HW125751   0.462   3.040  10.462 -0.6220 -0.4508  1.1408
 4764SOL    HW225752   0.452   2.981  10.604  0.9494  1.3232  0.4757
 4765SOL     OW25753   1.856   2.624  10.448  0.0306 -0.7552  0.2456
 4765SOL    HW125754   1.778   2.570  10.438 -0.4179 -0.3707  1.7821
 4765SOL    HW225755   1.829   2.692  10.509 -0.9606  0.5335 -1.6089
 4766SOL     OW25756   3.712   0.454  10.265  0.4207  0.2844  0.3746
 4766SOL    HW125757   3.699   0.532  10.212  0.2060  0.4848  0.7204
 4766SOL    HW225758   3.640   0.405  10.224 -0.3415  1.1703  0.6449
 4767SOL     OW25759   1.111   1.565   7.833  0.4591 -0.1313  0.4087
 4767SOL    HW125760   1.152   1.621   7.899  1.9848  0.0091 -0.6685
 4767SOL    HW225761   1.139   1.480   7.866  3.1525  1.3866  2.0391
 4768SOL     OW25762   0.677   3.688   3.328 -0.2064 -0.2413  0.0746
 4768SOL    HW125763   0.601   3.747   3.331 -2.0147 -2.5654  0.2705
 4768SOL    HW225764   0.738   3.753   3.293 -0.3433 -1.3656 -2.2671
 4769SOL     OW25765   0.475   2.534   2.655 -0.4860  0.2471 -0.2954
 4769SOL    HW125766   0.401   2.586   2.687 -0.2079  0.2437  0.3614
 4769SOL    HW225767   0.530   2.610   2.636 -0.5938  0.1658 -0.9123
 4770SOL     OW25768   1.006   4.458   3.901  0.5670  0.1403 -0.1123
 4770SOL    HW125769   1.024   4.450   3.808 -1.1702  2.0645 -0.6318
 4770SOL    HW225770   1.011   4.554   3.911  0.2628  0.0489  0.9953
 4771SOL     OW25771   2.634   2.799   5.235 -0.5825  0.4951  0.1554
 4771SOL    HW125772   2.601   2.860   5.302  0.7507 -0.3607  1.5832
 4771SOL    HW225773   2.601   2.847   5.159  1.1569  0.2789 -0.7302
 4772SOL     OW25774   2.603   1.385   7.882  0.0872  0.0832 -0.4575
 4772SOL    HW125775   2.654   1.410   7.960 -0.2252  0.5380 -0.3933
 4772SOL    HW225776   2.661   1.392   7.807 -0.7750 -1.9784 -1.3050
 4773SOL     OW25777   0.712   0.052   0.842  0.1663  0.3907  0.4484
 4773SOL    HW125778   0.622   0.083   0.854 -0.5693 -1.9165  0.7553
 4773SOL    HW225779   0.705   4.687   0.807 -1.2998  0.6381  0.1177
 4774SOL     OW25780   0.857   1.452   9.403  0.2223 -0.0107  0.1257
 4774SOL    HW125781   0.916   1.378   9.421 -1.4966 -1.8473 -1.8106
 4774SOL    HW225782   0.920   1.515   9.367  0.6533 -1.3506 -1.4718
 4775SOL     OW25783   3.002   1.977   4.934 -0.0108  0.3751 -0.1180
 4775SOL    HW125784   2.973   1.998   5.022 -3.1911 -0.1294 -1.0644
 4775SOL    HW225785   2.914   1.976   4.896 -0.5221  0.5678  1.0597
 4776SOL     OW25786   0.774   1.694  14.553  0.5915 -0.3563  0.4204
 4776SOL    HW125787   0.824   1.774  14.539  0.3718 -0.4997 -1.2509
 4776SOL    HW225788   0.759   1.706  14.646 -3.2491 -0.2637 -0.1944
 4777SOL     OW25789   2.182   0.062   5.194 -0.6324 -0.4103  0.0201
 4777SOL    HW125790   2.118   0.028   5.256  0.7108 -0.0224  1.6219
 4777SOL    HW225791   2.257   0.068   5.253 -0.5575  1.6218 -0.2859
 4778SOL     OW25792   3.898   1.824   2.881  0.2389  0.5184  0.0345
 4778SOL    HW125793   3.912   1.914   2.911  1.1398 -0.0814  1.4056
 4778SOL    HW225794   3.867   1.781   2.961 -2.3870  1.9114 -0.2196
 4779SOL     OW25795   1.690   3.794  13.479 -0.1106 -0.4016  0.2975
 4779SOL    HW125796   1.730   3.778  13.565  2.0096  0.0601 -0.5864
 4779SOL    HW225797   1.602   3.813  13.510  0.1191  0.2035  0.5884
 4780SOL     OW25798   4.483   1.913  13.261 -0.4138  0.3621  0.1590
 4780SOL    HW125799   4.545   1.881  13.327 -0.1284 -0.4336 -0.4855
 4780SOL    HW225800   4.440   1.981  13.312 -1.2435  0.5250 -0.7781
 4781SOL     OW25801   1.411   3.112  15.901 -0.9600 -0.0569  0.3196
 4781SOL    HW125802   1.396   3.074  15.988 -1.6715  1.2800  0.7660
 4781SOL    HW225803   1.418   3.206  15.918 -2.8184  0.0428  0.4824
 4782SOL     OW25804   4.391   1.561   9.872  0.4710 -0.3418  0.5641
 4782SOL    HW125805   4.467   1.561   9.813  1.0458 -2.2808  1.3291
 4782SOL    HW225806   4.444   1.591   9.946 -1.0249  0.4270  1.3164
 4783SOL     OW25807   2.839   0.324  10.413 -0.2390  0.1245 -0.0449
 4783SOL    HW125808   2.828   0.404  10.362 -0.6237  0.5723  0.7267
 4783SOL    HW225809   2.792   0.253  10.370 -1.4827  0.0083  1.4975
 4784SOL     OW25810   0.370   0.635   8.045  0.1532  0.0269 -0.1994
 4784SOL    HW125811   0.283   0.641   8.005  0.2120  0.0423 -0.3253
 4784SOL    HW225812   0.367   0.553   8.094 -1.0800  1.2161  1.7281
 4785SOL     OW25813   0.867   3.820  15.894  0.4187  0.2899 -0.0284
 4785SOL    HW125814   0.961   3.837  15.885  0.4847  0.0510  0.2107
 4785SOL    HW225815   0.857   3.849  15.984 -0.3203  1.6406 -0.5370
 4786SOL     OW25816   0.114   2.651   8.557 -0.1624  0.4477 -0.1934
 4786SOL    HW125817   0.187   2.603   8.517 -0.6216  2.3698 -3.3201
 4786SOL    HW225818   0.146   2.676   8.644 -0.0901 -0.7632  0.1273
 4787SOL     OW25819   3.561   2.229  16.964  0.3060  0.2412 -0.1918
 4787SOL    HW125820   3.534   2.153  16.913 -0.1037  0.1682  0.1429
 4787SOL    HW225821   3.570   2.187  17.049 -3.1591 -1.3951 -0.6740
 4788SOL     OW25822   2.640   0.911  15.078 -0.4333 -0.5652  0.5078
 4788SOL    HW125823   2.582   0.856  15.025  0.2454 -0.5024 -0.2988
 4788SOL    HW225824   2.623   0.872  15.164  2.8226  1.4026  2.0317
 4789SOL     OW25825   4.167   4.046   8.073 -0.1305 -0.8587  0.0862
 4789SOL    HW125826   4.141   4.106   8.143 -0.9422 -0.2097 -0.7816
 4789SOL    HW225827   4.260   4.036   8.092 -0.4810 -0.2947  2.1390
 4790SOL     OW25828   3.556   4.161   2.743  0.8324 -0.2632  0.0969
 4790SOL    HW125829   3.639   4.140   2.700  1.4789  2.2104  0.1386
 4790SOL    HW225830   3.488   4.112   2.697  0.0789  0.2674  0.6559
 4791SOL     OW25831   4.331   2.233   2.010  0.2455  0.1359 -0.3692
 4791SOL    HW125832   4.332   2.328   1.994 -1.5405  0.1771 -0.1715
 4791SOL    HW225833   4.258   2.236   2.071 -0.5599 -0.3763 -1.3187
 4792SOL     OW25834   2.822   3.443   7.256 -0.4817 -0.1888  0.3318
 4792SOL    HW125835   2.750   3.394   7.296 -0.4350 -1.0708 -0.6527
 4792SOL    HW225836   2.802   3.533   7.283 -1.8414 -0.4833  0.3187
 4793SOL     OW25837   0.756   3.600  13.332 -0.0633  0.1106  0.0922
 4793SOL    HW125838   0.727   3.676  13.282 -0.9991  0.3150  0.9535
 4793SOL    HW225839   0.677   3.581  13.382 -0.5558  0.7028 -0.4646
 4794SOL     OW25840   0.119   1.240   0.240 -0.2926  0.0621 -0.2639
 4794SOL    HW125841   0.112   1.289   0.321  0.5555  2.5928 -1.7303
 4794SOL    HW225842   0.169   1.305   0.192  1.5168  1.0793  3.0225
 4795SOL     OW25843   4.580   1.916   7.266  0.4477 -0.0043  0.2262
 4795SOL    HW125844   4.578   1.941   7.359  1.6054 -1.0049  0.5097
 4795SOL    HW225845   4.660   1.961   7.238  0.8929 -0.8984  0.0535
 4796SOL     OW25846   4.057   2.091   8.773  0.4717  0.3698 -0.2404
 4796SOL    HW125847   3.973   2.087   8.729 -0.2557 -1.4770  1.3355
 4796SOL    HW225848   4.095   2.015   8.729 -3.4327 -0.1490 -2.6502
 4797SOL     OW25849   1.323   4.237  10.847 -0.6143 -0.1591  0.3993
 4797SOL    HW125850   1.400   4.294  10.856 -0.2364 -0.8321  1.4007
 4797SOL    HW225851   1.353   4.171  10.785  0.3642  1.1816 -0.5439
 4798SOL     OW25852   0.616   1.465   9.567  0.0971  0.0066  0.5349
 4798SOL    HW125853   0.699   1.438   9.527 -0.8125  0.0989 -1.4233
 4798SOL    HW225854   0.595   1.387   9.619 -0.7194 -1.5191 -2.0726
 4799SOL     OW25855   2.786   1.904  13.615 -0.3399  0.3993  0.4428
 4799SOL    HW125856   2.780   1.925  13.708  0.1612  0.9259  0.3540
 4799SOL    HW225857   2.876   1.927  13.594 -0.3896 -1.0942 -1.4408
 4800SOL     OW25858   4.229   1.557  11.910 -0.1393 -0.3752  0.1661
 4800SOL    HW125859   4.211   1.600  11.993  1.1132 -1.8539  1.2230
 4800SOL    HW225860   4.318   1.524  11.926 -0.1976 -0.0617  1.1368
 4801SOL     OW25861   0.471   3.288   4.788 -0.1540 -0.3123 -0.2527
 4801SOL    HW125862   0.560   3.258   4.804  0.2909  0.8014 -0.6591
 4801SOL    HW225863   0.490   3.370   4.742 -2.3192  1.7411  2.4884
 4802SOL     OW25864   3.030   2.038   5.311 -0.1309  0.2124  0.7101
 4802SOL    HW125865   3.069   2.085   5.237 -1.9247  0.8623  0.1747
 4802SOL    HW225866   3.101   2.062   5.371  0.6775  1.8986 -0.9312
 4803SOL     OW25867   2.388   3.526   7.269 -0.0911 -0.0175 -0.9494
 4803SOL    HW125868   2.328   3.578   7.323  1.8319  0.5644  0.6420
 4803SOL    HW225869   2.403   3.600   7.211  0.8662  1.7819  1.5895
 4804SOL     OW25870   0.588   0.072   7.905 -0.4959 -0.2838 -0.1649
 4804SOL    HW125871   0.638   0.143   7.944 -0.9701  0.6065 -1.1933
 4804SOL    HW225872   0.652   0.001   7.901  2.1798  2.1205  0.2130
 4805SOL     OW25873   3.724   0.019  16.302 -0.2642  0.0621 -0.3463
 4805SOL    HW125874   3.670   4.715  16.377  0.9097  0.4034  0.6236
 4805SOL    HW225875   3.695   0.109  16.291  0.0727  0.1503 -0.4984
 4806SOL     OW25876   0.249   3.927   4.859 -0.3272  0.2568  0.2759
 4806SOL    HW125877   0.251   3.835   4.887 -1.7343  0.5450  1.3199
 4806SOL    HW225878   0.335   3.947   4.821 -0.4535 -0.4962 -0.3905
 4807SOL     OW25879   1.555   4.243   8.643  0.1941 -0.1596  0.5831
 4807SOL    HW125880   1.622   4.311   8.648  0.8561 -0.6269 -2.2935
 4807SOL    HW225881   1.613   4.171   8.620 -0.5765 -0.6867  0.2819
 4808SOL     OW25882   2.161   0.604   6.331  0.1873 -0.3492 -0.5259
 4808SOL    HW125883   2.115   0.575   6.252  0.5981 -2.8445  0.1251
 4808SOL    HW225884   2.145   0.529   6.388 -0.0140 -0.4219 -0.6755
 4809SOL     OW25885   0.562   3.738   5.599 -0.0861 -0.0965 -0.1940
 4809SOL    HW125886   0.472   3.756   5.572  0.1141  1.4722  0.1750
 4809SOL    HW225887   0.575   3.669   5.534 -1.1339  1.2575 -1.8403
 4810SOL     OW25888   1.037   0.395  16.089 -0.0301 -0.2732 -0.2790
 4810SOL    HW125889   1.034   0.312  16.138 -1.0356  0.3330  0.7050
 4810SOL    HW225890   0.998   0.381  16.003  0.4516  0.1084 -0.5591
 4811SOL     OW25891   1.494   1.010   0.472 -0.0409 -0.3347  0.6220
 4811SOL    HW125892   1.487   0.955   0.550 -0.1166 -0.1780  0.7264
 4811SOL    HW225893   1.561   0.967   0.418 -0.2649 -2.1614  1.8000
 4812SOL     OW25894   3.922   2.678   9.076 -0.2857 -0.6162  0.5959
 4812SOL    HW125895   3.927   2.758   9.128  2.0975 -1.1033  1.1077
 4812SOL    HW225896   3.992   2.630   9.120  0.0877  0.0678  0.7421
 4813SOL     OW25897   4.488   1.461   5.753  0.7245 -0.2951  0.6192
 4813SOL    HW125898   4.409   1.505   5.783 -0.4054 -2.4692  0.8586
 4813SOL    HW225899   4.510   1.520   5.681  1.1668 -0.1225  0.8997
 4814SOL     OW25900   4.103   4.145   4.667 -0.6508 -0.0337  0.6178
 4814SOL    HW125901   4.141   4.139   4.755 -0.9955  1.9569  0.8931
 4814SOL    HW225902   4.117   4.236   4.641  1.2585 -0.2444  0.8955
 4815SOL     OW25903   0.344   0.808  17.494  0.2655 -0.5286 -0.0188
 4815SOL    HW125904   0.307   0.895  17.505 -1.0287 -1.0607 -0.1676
 4815SOL    HW225905   0.325   0.792  17.402 -0.0105  0.6598 -0.1618
 4816SOL     OW25906   2.839   4.211   2.972 -0.3489 -0.2252  0.3206
 4816SOL    HW125907   2.873   4.270   2.905 -0.0052  0.2183  0.8792
 4816SOL    HW225908   2.798   4.281   3.023 -0.3131 -0.4986  0.7306
 4817SOL     OW25909   0.257   4.066   4.559  0.2015  0.2888 -0.0389
 4817SOL    HW125910   0.285   4.063   4.467  0.6205 -2.8465  0.1971
 4817SOL    HW225911   0.258   3.972   4.575 -0.1406  0.0574 -1.4054
 4818SOL     OW25912   0.847   2.670   2.728 -0.0045  0.6742  0.1609
 4818SOL    HW125913   0.936   2.650   2.700  0.3003 -0.1696  1.7370
 4818SOL    HW225914   0.819   2.749   2.681 -0.3187  0.5322  0.1082
 4819SOL     OW25915   1.401   1.440   8.100  0.0631  0.2027  0.0028
 4819SOL    HW125916   1.381   1.533   8.093  1.1481  0.4181 -0.1518
 4819SOL    HW225917   1.490   1.430   8.066 -0.6100  0.1279 -1.7531
 4820SOL     OW25918   1.159   2.552   1.935  0.0005  0.7650 -0.0975
 4820SOL    HW125919   1.175   2.561   1.841  0.6955 -1.0029 -0.1422
 4820SOL    HW225920   1.121   2.638   1.954 -1.6926 -0.5144  2.3217
 4821SOL     OW25921   2.227   0.442  11.345  0.4381  0.3526 -0.8220
 4821SOL    HW125922   2.156   0.426  11.408  0.3529  1.3875 -0.6552
 4821SOL    HW225923   2.307   0.434  11.397  0.8244  1.7041 -1.2198
 4822SOL     OW25924   4.700   2.292   7.759  0.0125 -0.5178  0.1664
 4822SOL    HW125925   0.019   2.313   7.843 -0.0834  0.1297  0.0555
 4822SOL    HW225926   0.020   2.212   7.728  0.9468  0.0838 -0.0899
 4823SOL     OW25927   2.028   3.710   6.191 -0.3375 -0.5217 -0.3568
 4823SOL    HW125928   2.097   3.736   6.131  0.2358 -2.0444 -0.3663
 4823SOL    HW225929   2.043   3.776   6.259  0.6431 -1.8002  0.6634
 4824SOL     OW25930   2.685   0.944   3.318  0.1742  0.1515 -0.2263
 4824SOL    HW125931   2.607   0.998   3.312  0.5969  0.6407 -1.5229
 4824SOL    HW225932   2.689   0.906   3.230  1.4635  1.1318 -0.5891
 4825SOL     OW25933   4.203   2.895   6.444  0.0885  0.0544  0.2522
 4825SOL    HW125934   4.181   2.811   6.403 -2.7085  1.4290 -1.0367
 4825SOL    HW225935   4.261   2.909   6.369 -0.5167 -1.8834 -0.5912
 4826SOL     OW25936   0.450   2.637   7.829 -0.1243 -0.2376 -0.2258
 4826SOL    HW125937   0.426   2.544   7.825  1.2586 -0.5277 -1.7325
 4826SOL    HW225938   0.384   2.661   7.894  0.1089 -1.1756  0.3607
 4827SOL     OW25939   3.056   4.021   3.139 -0.5145  0.5166 -0.5054
 4827SOL    HW125940   3.107   3.990   3.214 -2.2883 -1.3891 -0.0991
 4827SOL    HW225941   3.060   4.117   3.146  0.4381  0.3628  1.0991
 4828SOL     OW25942   1.032   3.869   2.672 -0.4405  0.3662  0.1267
 4828SOL    HW125943   1.101   3.932   2.650  1.1298 -1.5468 -0.4272
 4828SOL    HW225944   1.057   3.793   2.620 -0.2192 -0.1241  0.9521
 4829SOL     OW25945   2.189   3.733   2.568  0.2135 -0.3889  0.7919
 4829SOL    HW125946   2.260   3.720   2.630  1.2284 -0.1218 -0.3294
 4829SOL    HW225947   2.129   3.665   2.599 -1.1141 -0.1339 -1.1628
 4830SOL     OW25948   1.121   0.379   5.650  0.5029  0.6370 -0.5422
 4830SOL    HW125949   1.196   0.329   5.619  1.0437  0.4591  1.0964
 4830SOL    HW225950   1.136   0.469   5.621 -1.5679  0.6710 -1.5838
 4831SOL     OW25951   0.056   3.177   4.316  0.1128  0.7087 -0.2241
 4831SOL    HW125952   0.138   3.129   4.326  1.6575  3.2202 -0.9097
 4831SOL    HW225953   0.091   3.246   4.261 -1.8474  1.7318 -0.1919
 4832SOL     OW25954   1.040   2.254  13.742  0.2395 -0.1274  0.4924
 4832SOL    HW125955   0.984   2.242  13.665  0.8794 -2.7175  0.4080
 4832SOL    HW225956   1.046   2.349  13.730  2.3118 -0.1810  1.1428
 4833SOL     OW25957   1.710   1.883  12.506 -0.4643 -0.0793 -0.6146
 4833SOL    HW125958   1.660   1.900  12.586 -0.9264 -2.3317 -0.4452
 4833SOL    HW225959   1.729   1.791  12.493  2.2116  0.2529  0.9615
 4834SOL     OW25960   3.936   1.978   7.460 -0.2692 -0.3172 -0.5989
 4834SOL    HW125961   3.977   1.950   7.542 -1.7149 -1.0797 -0.1352
 4834SOL    HW225962   3.862   2.028   7.494  0.3264 -0.9282  1.6332
 4835SOL     OW25963   1.641   2.184   0.103  0.3780  0.0441 -0.7163
 4835SOL    HW125964   1.712   2.175   0.040  0.4919  0.6150 -0.6699
 4835SOL    HW225965   1.680   2.244   0.167 -1.8921  0.3128  0.4216
 4836SOL     OW25966   2.025   1.768  12.225 -0.0049  0.0562  0.3631
 4836SOL    HW125967   2.115   1.741  12.204  0.8100  2.0857  1.2117
 4836SOL    HW225968   2.027   1.864  12.217  2.2442  0.0551  0.8842
 4837SOL     OW25969   4.044   3.024   7.745  0.3400 -0.4912  0.2045
 4837SOL    HW125970   4.043   3.106   7.695  1.3668 -0.0689  0.8726
 4837SOL    HW225971   4.124   2.977   7.723  1.6905  1.3003  1.3660
 4838SOL     OW25972   3.077   3.898  13.097 -0.5534 -0.0744 -0.1706
 4838SOL    HW125973   3.115   3.911  13.184 -1.1527  3.7310 -0.4544
 4838SOL    HW225974   3.124   3.821  13.063 -1.8674 -0.9063 -0.0778
 4839SOL     OW25975   1.206   2.079  16.206  0.1644 -0.0227 -0.0730
 4839SOL    HW125976   1.201   2.002  16.263  0.7496  0.4675  0.6230
 4839SOL    HW225977   1.197   2.032  16.122  0.5710  0.3802 -0.3392
 4840SOL     OW25978   4.180   1.276   0.523  0.0636  0.5595  0.1211
 4840SOL    HW125979   4.184   1.182   0.504  2.0151  0.8963 -1.1077
 4840SOL    HW225980   4.264   1.303   0.486 -1.3203  1.5983 -2.2621
 4841SOL     OW25981   0.399   2.078   0.990  0.0367  0.3868 -0.3812
 4841SOL    HW125982   0.388   1.989   1.022 -2.3431  1.3509  1.4345
 4841SOL    HW225983   0.494   2.082   1.000 -0.1755 -2.1028  2.6684
 4842SOL     OW25984   4.159   4.543  17.394 -0.1850 -0.3009 -0.1288
 4842SOL    HW125985   4.196   4.559  17.480 -0.1354  0.7013 -0.3368
 4842SOL    HW225986   4.194   4.622  17.352 -2.0742  0.7556  0.3094
 4843SOL     OW25987   0.167   1.770   3.498  0.0011  0.0529 -0.9175
 4843SOL    HW125988   0.118   1.818   3.566  1.0523 -1.3211  0.8183
 4843SOL    HW225989   0.213   1.839   3.450 -0.9432 -0.7931 -3.0331
 4844SOL     OW25990   2.602   2.817   8.308  0.2822 -0.4396  0.2608
 4844SOL    HW125991   2.664   2.759   8.264  0.2021 -0.0143 -0.4040
 4844SOL    HW225992   2.643   2.903   8.312 -0.2055 -0.0679 -2.9760
 4845SOL     OW25993   1.814   3.778   3.504  0.5934 -0.0369 -0.6916
 4845SOL    HW125994   1.780   3.778   3.594 -0.7723 -1.5424 -1.2039
 4845SOL    HW225995   1.770   3.854   3.468 -0.7513  1.5074  4.2599
 4846SOL     OW25996   1.193   4.246   6.612 -0.0056  0.0579 -0.5607
 4846SOL    HW125997   1.163   4.177   6.553  1.9871 -0.1202 -1.3276
 4846SOL    HW225998   1.191   4.321   6.553 -1.4612 -0.3459 -1.0429
 4847SOL     OW25999   1.028   0.891   7.652  0.6911  0.7870 -0.3071
 4847SOL    HW126000   1.008   0.946   7.575  0.8044  2.2465  0.6955
 4847SOL    HW226001   0.960   0.824   7.656  1.2509  0.1716 -1.0651
 4848SOL     OW26002   3.758   2.284   6.883  0.6915 -0.2226  0.6946
 4848SOL    HW126003   3.753   2.372   6.844 -2.3648 -0.3282  0.8812
 4848SOL    HW226004   3.733   2.232   6.806 -0.2932  0.9049  0.2513
 4849SOL     OW26005   1.376   4.649   3.884 -0.4686  0.0028 -0.6215
 4849SOL    HW126006   1.331   0.006   3.909 -1.1895 -0.9893  1.2410
 4849SOL    HW226007   1.460   4.649   3.930 -1.6862  0.1866  1.5729
 4850SOL     OW26008   1.867   4.487   5.872 -0.3397  0.2342 -0.5821
 4850SOL    HW126009   1.901   4.531   5.950  1.7608 -2.4555  0.0165
 4850SOL    HW226010   1.894   4.544   5.800 -1.6374  1.1610 -0.3404
 4851SOL     OW26011   4.492   0.219  15.925 -0.0768 -0.3342 -0.0169
 4851SOL    HW126012   4.435   0.172  15.864 -1.2530 -1.2666  1.7903
 4851SOL    HW226013   4.481   0.307  15.890  0.1390 -1.2903 -2.4361
 4852SOL     OW26014   1.558   4.346   3.082  0.2649 -0.8454 -0.4860
 4852SOL    HW126015   1.651   4.359   3.064  0.3981  0.6798  1.3091
 4852SOL    HW226016   1.544   4.254   3.062  0.2762 -1.2601  1.4435
 4853SOL     OW26017   3.351   0.027  13.881 -0.4635  0.2120  0.0750
 4853SOL    HW126018   3.319   0.029  13.971  0.8811  0.5925  0.5548
 4853SOL    HW226019   3.286   0.089  13.847 -2.3064 -0.9552  1.4934
 4854SOL     OW26020   1.663   1.036  10.249  0.6249  0.2794 -0.1647
 4854SOL    HW126021   1.591   0.998  10.298 -0.2741  0.0416 -1.6569
 4854SOL    HW226022   1.741   1.004  10.295 -0.1317  0.6903  1.4052
 4855SOL     OW26023   1.798   4.374   2.450 -0.4748 -0.1718  0.0767
 4855SOL    HW126024   1.838   4.359   2.536 -0.7350 -1.3145  0.0021
 4855SOL    HW226025   1.741   4.449   2.468 -0.3080  0.1261 -0.6550
 4856SOL     OW26026   3.310   0.836   7.364  0.5887 -0.6705 -0.7319
 4856SOL    HW126027   3.344   0.896   7.297  0.9676 -0.8216 -0.6715
 4856SOL    HW226028   3.386   0.793   7.403  1.7267  3.5015  1.6301
 4857SOL     OW26029   3.632   1.945  14.016 -0.3007  0.3131 -0.3565
 4857SOL    HW126030   3.718   1.945  13.976  0.2075 -0.3949  0.7473
 4857SOL    HW226031   3.647   1.891  14.093 -0.5142  1.7441  0.6902
 4858SOL     OW26032   2.373   3.788   7.172  0.0866 -0.5849 -0.1530
 4858SOL    HW126033   2.450   3.845   7.170  1.1308 -1.9858  0.6763
 4858SOL    HW226034   2.345   3.796   7.081  0.6648 -1.4623 -0.4029
 4859SOL     OW26035   0.069   4.133   7.355 -0.3638  0.2232  0.0767
 4859SOL    HW126036   0.099   4.208   7.405 -0.5192  1.1521 -1.2271
 4859SOL    HW226037   4.711   4.106   7.396  0.9664 -1.2550  1.7451
 4860SOL     OW26038   2.554   4.513   4.519 -0.1333 -0.5930 -0.2990
 4860SOL    HW126039   2.634   4.557   4.491 -0.1431 -0.3774  0.0212
 4860SOL    HW226040   2.565   4.424   4.485  2.0060 -0.7415  0.7900
 4861SOL     OW26041   2.378   0.308  15.763 -0.2764  0.0428 -0.1319
 4861SOL    HW126042   2.473   0.310  15.754 -0.3363  2.4165 -0.3299
 4861SOL    HW226043   2.373   0.222  15.804 -1.0983 -1.6307 -3.7949
 4862SOL     OW26044   0.561   3.682   2.047 -0.0980  0.2753 -0.2707
 4862SOL    HW126045   0.635   3.673   1.987 -0.1934  0.6971 -0.4582
 4862SOL    HW226046   0.606   3.695   2.130  0.2140 -0.7549 -0.2779
 4863SOL     OW26047   0.713   0.877   4.199 -0.1964 -0.1627 -0.1315
 4863SOL    HW126048   0.704   0.953   4.141 -0.0848 -1.6239 -2.0502
 4863SOL    HW226049   0.623   0.847   4.194 -0.2837  0.3921 -2.0285
 4864SOL     OW26050   3.684   0.184   1.951 -0.6945  0.2431  0.5125
 4864SOL    HW126051   3.631   0.179   1.871 -0.6317  0.6497  0.4480
 4864SOL    HW226052   3.726   0.268   1.934 -1.5597  0.1957 -1.8958
 4865SOL     OW26053   4.712   1.985   6.637 -0.7944 -0.6005 -0.0435
 4865SOL    HW126054   4.696   2.041   6.561 -2.1029  0.3560  0.9523
 4865SOL    HW226055   4.623   1.987   6.672 -0.7045 -0.9507  0.2070
 4866SOL     OW26056   0.726   3.986   1.165  0.5132  0.3643 -0.4709
 4866SOL    HW126057   0.660   3.967   1.099 -0.9881 -0.0055  1.1242
 4866SOL    HW226058   0.673   4.014   1.240  0.1930  2.1257 -1.3614
 4867SOL     OW26059   3.700   4.277   5.477  0.1531 -0.0647  0.0082
 4867SOL    HW126060   3.752   4.340   5.426 -0.5052  0.1684 -0.3747
 4867SOL    HW226061   3.774   4.248   5.531  0.4084  0.7534  0.1042
 4868SOL     OW26062   2.939   3.321   9.621 -0.7192 -0.4660  0.4346
 4868SOL    HW126063   3.005   3.350   9.558 -2.1001  1.4634 -0.1189
 4868SOL    HW226064   2.994   3.263   9.674 -0.1651 -0.3022  0.0421
 4869SOL     OW26065   4.583   4.351   3.953  0.3221  0.0041 -0.1666
 4869SOL    HW126066   4.608   4.343   4.045  0.8550  2.9585 -0.0561
 4869SOL    HW226067   4.573   4.443   3.928 -4.8930 -0.2495  1.1411
 4870SOL     OW26068   3.906   1.097  15.467  0.2280  0.2629 -0.2859
 4870SOL    HW126069   3.859   1.140  15.538 -2.8246 -2.4534 -0.6525
 4870SOL    HW226070   3.895   1.149  15.387 -2.1099  1.2174  0.6591
 4871SOL     OW26071   4.400   2.138  13.983 -0.0123 -0.3310 -0.4653
 4871SOL    HW126072   4.376   2.107  13.896 -2.0569  2.0753 -0.7653
 4871SOL    HW226073   4.484   2.178  13.962  0.3761 -0.3899  0.9456
 4872SOL     OW26074   3.290   1.209   3.357 -0.5196 -0.6500  0.0903
 4872SOL    HW126075   3.235   1.245   3.288 -0.6916  1.8386  1.5191
 4872SOL    HW226076   3.367   1.264   3.339 -0.1082 -0.9279  0.9902
 4873SOL     OW26077   2.254   2.838   2.669  0.0843 -0.2640  0.1791
 4873SOL    HW126078   2.313   2.914   2.671  1.7115 -1.5045 -0.6930
 4873SOL    HW226079   2.320   2.775   2.701 -2.3452 -2.3586  1.1051
 4874SOL     OW26080   2.981   2.283   6.086  0.5567  0.5149  0.3207
 4874SOL    HW126081   2.979   2.376   6.062 -0.3975  0.5306  0.4454
 4874SOL    HW226082   3.041   2.244   6.021 -0.2630 -2.2346  1.2170
 4875SOL     OW26083   2.284   4.010   7.584 -0.0030  0.3404  0.6703
 4875SOL    HW126084   2.220   4.071   7.619 -0.9545 -0.3889  0.2183
 4875SOL    HW226085   2.304   4.038   7.495 -0.8865  2.5668  1.1751
 4876SOL     OW26086   2.856   3.034   2.933  0.4661 -0.3024  0.5888
 4876SOL    HW126087   2.832   3.075   2.850  0.2102 -0.3963  0.6164
 4876SOL    HW226088   2.846   2.943   2.905  2.3849  0.2881 -2.0630
 4877SOL     OW26089   3.962   4.088   1.515  0.7410 -0.1141  0.0718
 4877SOL    HW126090   3.981   4.083   1.421 -2.7548 -0.5368 -0.6005
 4877SOL    HW226091   3.938   3.997   1.531  0.6189 -0.1775 -0.4574
 4878SOL     OW26092   4.474   3.362  15.380  0.4808 -0.3405  0.1077
 4878SOL    HW126093   4.414   3.437  15.384 -0.0722 -0.7990  0.4865
 4878SOL    HW226094   4.479   3.328  15.470 -3.1023 -1.9202 -0.2967
 4879SOL     OW26095   3.525   1.508  10.929 -0.3001 -0.0321 -0.3011
 4879SOL    HW126096   3.463   1.578  10.907  0.0403  0.6577  0.9384
 4879SOL    HW226097   3.527   1.513  11.024 -0.4234  1.8012 -0.3975
 4880SOL     OW26098   3.974   0.102  11.311  0.2363  0.3398 -0.1132
 4880SOL    HW126099   3.993   0.011  11.335  1.4514  0.8409  0.8331
 4880SOL    HW226100   4.063   0.135  11.309  0.6812 -0.8218  0.1033
 4881SOL     OW26101   2.781   2.568   9.150  0.2151 -0.1681  0.3216
 4881SOL    HW126102   2.696   2.609   9.167 -0.6342 -2.5287  1.7695
 4881SOL    HW226103   2.837   2.631   9.196  0.2994  0.4361 -0.6175
 4882SOL     OW26104   2.439   2.146   4.728 -0.0245  0.2808 -0.0331
 4882SOL    HW126105   2.411   2.188   4.809 -1.9285 -1.1790  0.0606
 4882SOL    HW226106   2.446   2.216   4.662 -1.7834  0.6007  0.1163
 4883SOL     OW26107   3.929   1.592   0.949  0.2946  0.5945  0.2153
 4883SOL    HW126108   3.950   1.607   1.041  0.5350 -1.0130  0.4243
 4883SOL    HW226109   4.000   1.530   0.933  0.2161  0.7612 -0.8104
 4884SOL     OW26110   0.567   2.839   0.992  0.7584  0.2762  0.7704
 4884SOL    HW126111   0.480   2.854   0.953  0.1819  1.3446  2.4682
 4884SOL    HW226112   0.619   2.874   0.920 -1.6380  1.5079 -0.3560
 4885SOL     OW26113   2.888   3.938   0.854 -0.1099  0.0612 -0.6750
 4885SOL    HW126114   2.928   3.990   0.785 -0.4892  1.0735 -0.1397
 4885SOL    HW226115   2.839   3.877   0.800  1.2851 -0.5824 -1.2084
 4886SOL     OW26116   1.280   0.608   7.350 -0.1128 -0.0319 -0.2529
 4886SOL    HW126117   1.229   0.615   7.269  0.5363  1.6549 -0.5176
 4886SOL    HW226118   1.303   0.700   7.364  0.1518  0.0415 -1.1544
 4887SOL     OW26119   2.061   2.845   4.590 -0.2715 -0.8210 -0.1328
 4887SOL    HW126120   2.121   2.916   4.615 -2.5951  1.6198 -1.4267
 4887SOL    HW226121   1.975   2.883   4.611 -0.7952 -0.4224 -3.0039
 4888SOL     OW26122   4.243   3.032   6.000 -0.1355 -0.1889  0.1596
 4888SOL    HW126123   4.293   3.071   5.928  0.9044 -0.8657  0.5090
 4888SOL    HW226124   4.154   3.045   5.966 -0.4544 -0.4382  0.8981
 4889SOL     OW26125   1.880   1.233   8.190  0.2513 -0.1510  0.2971
 4889SOL    HW126126   1.823   1.177   8.242 -1.7944  1.3895 -0.2713
 4889SOL    HW226127   1.908   1.180   8.116 -2.5076 -2.3612  0.8453
 4890SOL     OW26128   1.241   1.759   7.121 -0.4253 -0.1087 -0.1660
 4890SOL    HW126129   1.198   1.842   7.140 -0.5042 -0.0404 -0.6258
 4890SOL    HW226130   1.216   1.712   7.200  1.1623  0.9108  0.9248
 4891SOL     OW26131   0.958   0.140   2.843 -0.3972 -0.1015  0.2994
 4891SOL    HW126132   0.920   0.227   2.852 -0.6612 -0.3649  1.6282
 4891SOL    HW226133   0.883   0.081   2.840  0.0690 -0.5874 -1.7392
 4892SOL     OW26134   2.505   4.229   4.547  0.7329  0.0016 -1.0151
 4892SOL    HW126135   2.478   4.193   4.462  1.6051  0.7663 -1.6266
 4892SOL    HW226136   2.601   4.230   4.542  0.8556 -0.3588  1.3584
 4893SOL     OW26137   4.401   1.525   3.261  0.0352  0.1280 -0.0622
 4893SOL    HW126138   4.351   1.567   3.191  1.1849  2.0647  0.2944
 4893SOL    HW226139   4.485   1.569   3.248 -0.1998  0.4795 -0.3810
 4894SOL     OW26140   4.140   1.619   4.098  0.1658  0.6609 -0.0592
 4894SOL    HW126141   4.182   1.670   4.167  1.1623 -0.7445  0.3812
 4894SOL    HW226142   4.168   1.529   4.114  0.8637  0.7476 -0.7710
 4895SOL     OW26143   0.463   2.459   5.497 -0.1806 -0.1688  0.3575
 4895SOL    HW126144   0.538   2.469   5.439 -1.9805 -3.4650 -2.5202
 4895SOL    HW226145   0.505   2.486   5.579 -1.1551  0.9684  0.4936
 4896SOL     OW26146   2.207   2.616  16.967 -0.7762 -0.3248 -0.0012
 4896SOL    HW126147   2.173   2.645  17.051 -3.6088 -1.8641 -0.6161
 4896SOL    HW226148   2.224   2.528  16.999 -0.6529  0.1299  1.1621
 4897SOL     OW26149   0.424   0.828  17.047 -0.2556  0.3548 -0.7984
 4897SOL    HW126150   0.511   0.822  17.008  0.5347  2.7754  0.5909
 4897SOL    HW226151   0.393   0.905  17.000 -0.4346  0.5818 -0.3079
 4898SOL     OW26152   3.949   3.580   3.566  0.3791  0.1822  0.0282
 4898SOL    HW126153   4.010   3.509   3.543 -0.4597 -1.0338  1.6181
 4898SOL    HW226154   3.919   3.611   3.480  0.7702  1.2096  0.2635
 4899SOL     OW26155   4.481   1.009   3.824 -0.1124 -0.1661 -0.0784
 4899SOL    HW126156   4.446   1.097   3.819  0.0566 -0.1446 -0.8706
 4899SOL    HW226157   4.410   0.957   3.786  0.9355 -1.3046 -0.4984
 4900SOL     OW26158   1.021   2.267   8.826 -0.0486  0.0134 -0.4580
 4900SOL    HW126159   1.084   2.262   8.898  0.6029 -1.3496 -1.1135
 4900SOL    HW226160   1.015   2.360   8.805  1.4977  0.3149  0.3885
 4901SOL     OW26161   0.304   4.598  15.833  0.0612 -0.5437 -0.5976
 4901SOL    HW126162   0.258   4.612  15.916  3.0765  0.7587  0.8526
 4901SOL    HW226163   0.337   4.510  15.848  0.2545 -0.8026 -2.5626
 4902SOL     OW26164   4.548   4.262   2.759 -0.1583 -0.1702 -0.1701
 4902SOL    HW126165   4.508   4.272   2.672 -0.0956 -0.2538 -0.2090
 4902SOL    HW226166   4.479   4.213   2.804 -0.5649  1.5226  1.0261
 4903SOL     OW26167   4.033   1.874   8.620 -0.1743  0.7062  0.7855
 4903SOL    HW126168   3.955   1.844   8.665 -1.2562  0.5312 -1.2021
 4903SOL    HW226169   4.097   1.811   8.654  0.4228  1.4192  1.0076
 4904SOL     OW26170   4.088   1.162   6.696  0.0638 -0.1641 -0.0205
 4904SOL    HW126171   4.035   1.232   6.655  2.3646  1.6032  0.0402
 4904SOL    HW226172   4.065   1.170   6.788 -4.1870 -2.2202 -0.9069
 4905SOL     OW26173   3.841   3.247   6.138  0.3816  0.1089 -0.0611
 4905SOL    HW126174   3.806   3.248   6.227  0.1860 -2.2531 -0.1089
 4905SOL    HW226175   3.778   3.311   6.104  0.6121  0.5123  0.2691
 4906SOL     OW26176   0.638   1.937   8.512 -0.1838  0.5773  0.1197
 4906SOL    HW126177   0.598   2.004   8.567  0.9386  0.9977  0.4181
 4906SOL    HW226178   0.573   1.867   8.516  0.2649  0.2542  1.9787
 4907SOL     OW26179   3.701   2.508   5.281 -0.0640 -0.2718 -0.7558
 4907SOL    HW126180   3.792   2.512   5.254 -0.6211  1.7300 -2.3376
 4907SOL    HW226181   3.666   2.578   5.226  2.8411  0.7794 -1.2198
 4908SOL     OW26182   4.463   0.743   2.285  0.0759 -0.1599  0.3629
 4908SOL    HW126183   4.496   0.705   2.204  1.1036  0.5705  0.4390
 4908SOL    HW226184   4.547   0.744   2.331 -0.4116  1.8790  1.2213
 4909SOL     OW26185   1.710   4.090   0.387 -0.4162  0.2672  1.2908
 4909SOL    HW126186   1.702   4.019   0.323  1.5411  0.1487  1.1899
 4909SOL    HW226187   1.743   4.037   0.460 -1.6441 -1.1070  0.8439
 4910SOL     OW26188   3.103   0.199   2.014  0.4282 -0.5784 -0.2730
 4910SOL    HW126189   3.171   0.193   2.081  0.5364  0.7359 -0.2764
 4910SOL    HW226190   3.083   0.105   2.015  0.5198 -0.6267 -1.9488
 4911SOL     OW26191   0.407   4.455   7.968 -0.5031  0.2705 -0.1486
 4911SOL    HW126192   0.394   4.547   7.988 -0.3040  0.5043 -1.0897
 4911SOL    HW226193   0.347   4.404   8.022 -1.2520  1.4504  0.1270
 4912SOL     OW26194   2.873   0.951  14.869 -0.5282  0.5223  0.3115
 4912SOL    HW126195   2.786   0.961  14.906 -0.2663  1.4499  0.6610
 4912SOL    HW226196   2.926   0.942  14.949  0.7543 -0.9622 -0.7076
 4913SOL     OW26197   2.014   4.420   4.947  0.2296 -0.1721 -0.2957
 4913SOL    HW126198   2.030   4.488   4.882  1.3235  1.1093  1.3192
 4913SOL    HW226199   2.077   4.351   4.924  1.2914  0.8821 -0.5606
 4914SOL     OW26200   3.446   4.091   5.457 -0.6432  0.2522 -0.5125
 4914SOL    HW126201   3.459   4.058   5.368 -3.3141  2.3036 -1.6450
 4914SOL    HW226202   3.379   4.157   5.443  0.6719  1.7710  0.3210
 4915SOL     OW26203   4.711   2.335  13.371 -0.2050 -0.8409  0.4002
 4915SOL    HW126204   4.642   2.290  13.323 -1.5323 -0.3383  1.8533
 4915SOL    HW226205   4.700   2.425  13.339 -0.8385 -0.4335  1.7740
 4916SOL     OW26206   0.962   3.093  10.355 -0.3140 -0.4002  0.5275
 4916SOL    HW126207   0.867   3.091  10.342 -0.3779  0.5914  0.8160
 4916SOL    HW226208   0.994   3.049  10.277 -0.1932 -0.8932  0.8621
 4917SOL     OW26209   3.792   1.816   8.690  0.2560 -0.2457  0.5056
 4917SOL    HW126210   3.718   1.811   8.630  1.8143  1.7936 -1.6141
 4917SOL    HW226211   3.750   1.758   8.753  0.4512  1.0362  1.8422
 4918SOL     OW26212   2.009   3.508   2.631  0.0040 -0.1651 -0.7117
 4918SOL    HW126213   1.943   3.485   2.566 -3.1793 -0.7448  2.7565
 4918SOL    HW226214   2.043   3.425   2.665 -0.7237  0.6655  1.9733
 4919SOL     OW26215   0.410   4.594  10.854  0.0617 -0.4101 -0.2893
 4919SOL    HW126216   0.374   4.556  10.934 -1.7014 -1.8615 -1.7618
 4919SOL    HW226217   0.491   4.630  10.891  1.0169 -1.3427 -1.4967
 4920SOL     OW26218   3.769   3.234  10.478 -0.1016 -0.2840 -0.2613
 4920SOL    HW126219   3.823   3.158  10.453 -1.5847 -0.5055 -2.7544
 4920SOL    HW226220   3.689   3.210  10.431 -0.9501 -0.0023  1.0536
 4921SOL     OW26221   0.192   2.757   3.196 -0.4720 -0.1542  0.1764
 4921SOL    HW126222   0.262   2.718   3.143  1.2251 -1.2435  3.2627
 4921SOL    HW226223   0.213   2.851   3.195 -0.5200 -0.1296  1.5900
 4922SOL     OW26224   4.467   3.477   7.028 -0.6125 -0.1756 -0.0594
 4922SOL    HW126225   4.427   3.392   7.048 -0.9176 -0.4523 -1.8627
 4922SOL    HW226226   4.558   3.455   7.050 -0.6880 -0.1121  0.3102
 4923SOL     OW26227   3.683   0.810   6.509 -0.1304  0.2057 -0.4448
 4923SOL    HW126228   3.599   0.816   6.555  0.4047  1.9929  0.3085
 4923SOL    HW226229   3.661   0.745   6.443 -2.2663  0.3077  0.1743
 4924SOL     OW26230   4.591   1.801  10.815 -0.1826 -0.0464  0.2692
 4924SOL    HW126231   4.538   1.848  10.879  1.0981  1.8423 -0.0640
 4924SOL    HW226232   4.521   1.784  10.751  0.5843 -1.5432 -0.1617
 4925SOL     OW26233   0.578   2.220   9.043 -0.3043 -0.8414  0.9879
 4925SOL    HW126234   0.569   2.313   9.061 -0.5728 -0.6351 -0.1837
 4925SOL    HW226235   0.515   2.179   9.103 -0.0646 -1.2115  0.9872
 4926SOL     OW26236   2.333   3.029  17.542  0.2744 -0.1451 -0.2701
 4926SOL    HW126237   2.390   2.977  17.598 -0.9027  1.0988  2.1275
 4926SOL    HW226238   2.369   3.013  17.455  2.9771  1.5481  0.5380
 4927SOL     OW26239   0.197   3.322   2.747  0.7315 -0.0897  0.2152
 4927SOL    HW126240   0.220   3.244   2.697 -0.6335 -0.1474 -0.3205
 4927SOL    HW226241   0.103   3.327   2.728  0.9036  1.7189 -0.1460
 4928SOL     OW26242   2.463   0.228   6.254  0.3373  0.1605  0.0443
 4928SOL    HW126243   2.468   0.284   6.332  0.3624 -1.4968  1.2421
 4928SOL    HW226244   2.403   0.269   6.192 -1.2107 -1.8017  0.2331
 4929SOL     OW26245   2.802   4.361   2.147  0.2338  0.2865 -0.4204
 4929SOL    HW126246   2.720   4.378   2.192  0.0365 -0.2362 -0.5761
 4929SOL    HW226247   2.855   4.321   2.216  1.1690  1.4406 -0.4829
 4930SOL     OW26248   3.702   3.245   4.878 -0.8591 -0.6490  0.6249
 4930SOL    HW126249   3.789   3.207   4.874  0.1933  1.7455  0.9553
 4930SOL    HW226250   3.672   3.254   4.968 -1.2790  1.4716  0.2749
 4931SOL     OW26251   1.472   4.120  12.443  0.5148  0.1244 -0.3376
 4931SOL    HW126252   1.564   4.145  12.429  1.2304 -2.5624 -0.4440
 4931SOL    HW226253   1.435   4.197  12.486  0.8119  0.7518 -1.2123
 4932SOL     OW26254   4.182   1.672   2.773 -0.1469 -0.3416  0.0615
 4932SOL    HW126255   4.180   1.719   2.690 -1.6734  0.3329  0.4691
 4932SOL    HW226256   4.094   1.695   2.804 -1.3197 -3.1622 -1.2256
 4933SOL     OW26257   1.977   4.049  16.563 -0.3625  0.1871 -0.2088
 4933SOL    HW126258   2.050   3.987  16.569 -0.7433 -0.4863 -2.8324
 4933SOL    HW226259   1.980   4.084  16.652  2.0666 -1.3590  0.3139
 4934SOL     OW26260   3.836   3.060   8.865 -0.2910  0.3863 -0.9992
 4934SOL    HW126261   3.857   3.130   8.927  0.0854 -0.7064  0.1008
 4934SOL    HW226262   3.929   3.048   8.847 -0.1813 -1.3698  0.6650
 4935SOL     OW26263   2.030   0.504   4.427 -0.3308  0.2646 -0.3491
 4935SOL    HW126264   2.094   0.457   4.374 -0.8515 -1.5730  0.6356
 4935SOL    HW226265   1.954   0.474   4.378 -1.5186  2.8126 -0.0409
 4936SOL     OW26266   1.033   1.983   9.135  0.0101  0.5004 -0.0188
 4936SOL    HW126267   0.942   1.952   9.136 -0.5477  2.1546  3.2665
 4936SOL    HW226268   1.072   1.899   9.114 -0.2967  0.4051 -0.2161
 4937SOL     OW26269   0.490   0.637   2.595  0.1236 -0.0554  0.4901
 4937SOL    HW126270   0.488   0.728   2.624  2.5897  0.9932 -2.6756
 4937SOL    HW226271   0.399   0.615   2.615  0.2765 -0.7825  0.4194
 4938SOL     OW26272   1.397   1.028   4.228  0.1653 -0.1893  0.1834
 4938SOL    HW126273   1.456   0.953   4.219  1.9532  1.2810 -0.1549
 4938SOL    HW226274   1.424   1.071   4.147 -2.2131  0.5922 -0.1911
 4939SOL     OW26275   2.117   2.033   5.894  0.0989  0.0242  0.4454
 4939SOL    HW126276   2.050   2.063   5.954 -0.5111 -2.6754  1.1180
 4939SOL    HW226277   2.072   2.023   5.810 -0.4784 -0.4106  0.8041
 4940SOL     OW26278   0.501   3.232   7.561 -0.2307 -0.5876  0.1034
 4940SOL    HW126279   0.588   3.244   7.525 -0.6486  1.9040 -0.0566
 4940SOL    HW226280   0.481   3.143   7.531  2.4996 -1.5166  0.9828
 4941SOL     OW26281   1.101   0.075  11.523 -0.0019 -0.1086 -0.7904
 4941SOL    HW126282   1.116   0.029  11.440  0.8453 -0.5186 -0.3970
 4941SOL    HW226283   1.162   0.028  11.578  0.7442 -0.4443 -1.9102
 4942SOL     OW26284   2.358   4.374   3.863  0.5360 -0.0100  0.1906
 4942SOL    HW126285   2.318   4.362   3.777 -0.0331 -0.3728  0.5029
 4942SOL    HW226286   2.297   4.435   3.904  0.2419 -0.0132 -0.2332
 4943SOL     OW26287   0.572   2.390   8.346 -0.3276 -0.4422  0.5205
 4943SOL    HW126288   0.629   2.432   8.281 -0.3541 -0.0467  0.7517
 4943SOL    HW226289   0.641   2.359   8.404 -0.6030 -0.2187  0.9601
 4944SOL     OW26290   0.705   2.422   5.365 -0.5462  0.4012  0.6581
 4944SOL    HW126291   0.709   2.350   5.302 -0.7127 -1.6257  2.9255
 4944SOL    HW226292   0.783   2.391   5.412  0.2313  0.2526 -0.7370
 4945SOL     OW26293   0.276   3.448  11.121 -0.0903 -0.3885  0.4672
 4945SOL    HW126294   0.367   3.476  11.130  0.5399 -2.3041 -0.0324
 4945SOL    HW226295   0.260   3.433  11.028  0.0202  1.4927  0.1309
 4946SOL     OW26296   2.696   2.833   1.190  0.3905 -0.3475 -0.1473
 4946SOL    HW126297   2.676   2.846   1.283 -0.4033  0.1270 -0.3869
 4946SOL    HW226298   2.646   2.752   1.180 -2.1826  1.2431 -0.1434
 4947SOL     OW26299   4.563   0.486  13.554 -0.1738  0.2454 -0.2914
 4947SOL    HW126300   4.593   0.489  13.463  0.1310  2.2509 -0.1379
 4947SOL    HW226301   4.590   0.400  13.585  0.2280  0.0934 -1.0730
 4948SOL     OW26302   3.874   2.299   8.891  0.0014  0.1046 -0.5050
 4948SOL    HW126303   3.828   2.312   8.974 -0.1277  1.8751 -0.8389
 4948SOL    HW226304   3.852   2.208   8.875  1.1916 -0.2705 -0.0075
 4949SOL     OW26305   0.355   1.270   4.541 -0.0758  0.0639  0.1605
 4949SOL    HW126306   0.427   1.322   4.579 -0.2675 -0.4795  1.2782
 4949SOL    HW226307   0.327   1.315   4.462 -0.8335  0.5939  0.7349
 4950SOL     OW26308   3.927   1.288   9.782 -0.1489  0.0732  0.4811
 4950SOL    HW126309   3.914   1.194   9.771  0.9720 -0.3177  2.4451
 4950SOL    HW226310   4.003   1.310   9.728  1.1272 -1.9335  1.4491
 4951SOL     OW26311   4.068   2.155   6.784 -0.1569  0.3408 -0.3836
 4951SOL    HW126312   4.046   2.072   6.826 -1.0390  0.5643 -0.3985
 4951SOL    HW226313   3.982   2.174   6.747 -0.0146 -0.2091 -1.0099
 4952SOL     OW26314   2.426   0.177  13.351 -0.4520 -0.3139  0.4473
 4952SOL    HW126315   2.461   0.139  13.271 -0.9003 -0.2262  0.2095
 4952SOL    HW226316   2.468   0.263  13.360  1.5203 -1.1833 -0.5347
 4953SOL     OW26317   0.060   2.382   5.437 -0.6320 -1.2254  0.1073
 4953SOL    HW126318   0.093   2.336   5.360 -0.4217 -0.7028 -0.1171
 4953SOL    HW226319   0.073   2.473   5.407  1.1172 -1.2787  0.7432
 4954SOL     OW26320   0.377   0.411   3.765  0.2923 -0.4616  0.3413
 4954SOL    HW126321   0.456   0.402   3.819 -1.0108 -0.8317  2.2130
 4954SOL    HW226322   0.394   0.495   3.723 -0.8307 -0.4544 -0.0725
 4955SOL     OW26323   0.661   1.448  11.455  0.1666  0.5306  0.2685
 4955SOL    HW126324   0.727   1.516  11.471  0.2854  0.7687 -1.2730
 4955SOL    HW226325   0.687   1.413  11.370  0.2022  1.1772  0.0177
 4956SOL     OW26326   1.188   4.222   2.185 -0.4757 -0.3514  0.4863
 4956SOL    HW126327   1.124   4.291   2.200 -2.1322 -1.7335 -0.2861
 4956SOL    HW226328   1.226   4.220   2.273 -2.8234  0.7521  1.5052
 4957SOL     OW26329   0.350   3.122   5.335  0.1921 -0.1918  0.4015
 4957SOL    HW126330   0.323   3.158   5.251 -1.6526 -1.8297  0.3104
 4957SOL    HW226331   0.436   3.161   5.351 -0.1723  0.3410  1.0843
 4958SOL     OW26332   4.039   0.764   3.666 -0.5759 -0.4774 -0.3236
 4958SOL    HW126333   3.972   0.698   3.650 -0.8809 -0.8220  2.5205
 4958SOL    HW226334   3.984   0.843   3.669  0.8747  0.5793 -1.1552
 4959SOL     OW26335   3.792   3.420   5.574 -0.0872  0.3103  0.2505
 4959SOL    HW126336   3.768   3.343   5.625 -1.2803  2.1461  2.4335
 4959SOL    HW226337   3.705   3.444   5.541  0.0852 -0.5478 -0.8293
 4960SOL     OW26338   3.390   1.598   1.488 -0.0350  0.6042 -0.4924
 4960SOL    HW126339   3.430   1.523   1.445 -2.3983 -0.4031 -0.9539
 4960SOL    HW226340   3.349   1.560   1.565 -0.2201  0.4454 -0.6698
 4961SOL     OW26341   3.178   2.237   3.246 -0.6862 -0.0214 -0.1274
 4961SOL    HW126342   3.251   2.296   3.262  0.3055 -1.2626 -0.1431
 4961SOL    HW226343   3.129   2.240   3.329 -0.7777 -1.8976 -0.1047
 4962SOL     OW26344   2.679   4.546  11.295 -0.1059  0.4244  0.3691
 4962SOL    HW126345   2.585   4.527  11.300 -0.1024  0.4855  0.6572
 4962SOL    HW226346   2.705   4.455  11.312  0.1549  0.8879  2.3492
 4963SOL     OW26347   0.827   2.640  15.928 -0.0568  0.6057 -0.2874
 4963SOL    HW126348   0.855   2.571  15.869 -1.1660 -1.3800  1.4642
 4963SOL    HW226349   0.797   2.583  16.000  2.2707 -1.7299 -1.1598
 4964SOL     OW26350   0.272   0.324   7.813 -0.0983  0.4219  0.4856
 4964SOL    HW126351   0.239   0.413   7.827 -0.0811  0.5697 -0.3729
 4964SOL    HW226352   0.296   0.302   7.903 -1.8143  1.7524  1.2849
 4965SOL     OW26353   3.832   1.615  12.754 -0.1819 -0.1855  0.5285
 4965SOL    HW126354   3.783   1.584  12.677 -0.1888  1.2356 -0.0552
 4965SOL    HW226355   3.900   1.669  12.713  1.4969 -0.6124  2.8070
 4966SOL     OW26356   3.514   2.433   6.042  0.4225  0.8195 -0.2818
 4966SOL    HW126357   3.580   2.491   6.003  0.9032 -0.0988 -0.8393
 4966SOL    HW226358   3.440   2.432   5.982 -0.3901  2.0034  0.6805
 4967SOL     OW26359   4.252   3.938   2.120 -0.2210 -0.0767 -0.3185
 4967SOL    HW126360   4.239   3.849   2.087 -1.7347 -0.3550  0.9973
 4967SOL    HW226361   4.161   3.969   2.126 -0.5391 -1.2452  0.9704
 4968SOL     OW26362   4.018   3.557   7.930 -0.5248 -0.0686  0.0448
 4968SOL    HW126363   4.073   3.585   7.857  1.0139 -1.2085  0.7669
 4968SOL    HW226364   4.024   3.627   7.996  1.8354  2.1722 -2.5789
 4969SOL     OW26365   1.932   2.948  15.481  0.8427  0.7250 -0.0816
 4969SOL    HW126366   1.908   2.955  15.389  0.5479 -0.2473 -0.0826
 4969SOL    HW226367   1.856   2.901  15.514  0.4278  1.8481  0.5734
 4970SOL     OW26368   3.325   0.789   8.670  0.2108 -0.2541  0.1956
 4970SOL    HW126369   3.384   0.839   8.614 -2.8707  0.9464 -1.9516
 4970SOL    HW226370   3.257   0.852   8.692  0.1867  0.7460 -2.8243
 4971SOL     OW26371   1.579   1.156  15.420  0.1593 -0.0830 -0.3878
 4971SOL    HW126372   1.568   1.062  15.404 -2.5296  0.3147 -0.9262
 4971SOL    HW226373   1.496   1.195  15.392  0.0296 -0.3774 -0.4172
 4972SOL     OW26374   3.701   0.585   3.593 -0.1233  0.1913  0.3673
 4972SOL    HW126375   3.705   0.639   3.672  0.4864 -0.8711  1.0695
 4972SOL    HW226376   3.630   0.523   3.608  0.5700 -0.5513  0.5918
 4973SOL     OW26377   3.725   1.978   7.645 -0.1205 -0.0919  0.0051
 4973SOL    HW126378   3.719   1.994   7.739 -1.0434 -2.6788  0.3736
 4973SOL    HW226379   3.686   1.892   7.627 -0.5186  0.0009  0.4258
 4974SOL     OW26380   2.474   3.645   7.808  0.2043  0.1236 -0.5090
 4974SOL    HW126381   2.414   3.719   7.799  2.3199  1.7045 -1.6217
 4974SOL    HW226382   2.545   3.697   7.845  0.9141 -0.5470 -0.9326
 4975SOL     OW26383   3.623   1.546  10.658 -0.0251  0.1565 -0.1424
 4975SOL    HW126384   3.700   1.603  10.660 -1.0114  1.4996 -0.1803
 4975SOL    HW226385   3.599   1.548  10.750 -0.1183 -0.0730 -0.1611
 4976SOL     OW26386   1.329   0.127   3.526  0.3940  0.1266  0.0472
 4976SOL    HW126387   1.339   0.153   3.435 -0.4624 -0.0132 -0.0807
 4976SOL    HW226388   1.243   0.087   3.522 -0.0418  0.8304  2.2087
 4977SOL     OW26389   3.537   2.729   6.240  0.0643  0.3392 -0.4769
 4977SOL    HW126390   3.494   2.644   6.249  0.3633  0.0254 -1.9229
 4977SOL    HW226391   3.626   2.703   6.218  0.5859  2.1857 -0.4721
 4978SOL     OW26392   0.350   1.840   4.916 -0.3258  0.1866  0.2143
 4978SOL    HW126393   0.390   1.802   4.994 -1.4363  0.3006  0.8337
 4978SOL    HW226394   0.257   1.836   4.937 -1.0236 -1.3842 -3.1486
 4979SOL     OW26395   3.709   3.209   6.421  0.2232 -0.1241  0.6575
 4979SOL    HW126396   3.688   3.272   6.490 -0.8302 -0.3872  0.5821
 4979SOL    HW226397   3.621   3.179   6.395  0.2917 -0.2090  0.5228
 4980SOL     OW26398   3.712   2.419   2.809 -0.2342  0.2469 -0.5415
 4980SOL    HW126399   3.649   2.380   2.870  1.6733  0.4482  1.5452
 4980SOL    HW226400   3.660   2.464   2.742 -0.3435  1.5097  0.3931
 4981SOL     OW26401   1.994   1.274   6.597  0.7661  0.0008 -0.9128
 4981SOL    HW126402   1.929   1.276   6.527 -2.0256 -0.1849  1.6854
 4981SOL    HW226403   2.012   1.181   6.610  0.7706  0.0366 -0.6644
 4982SOL     OW26404   4.271   2.977   2.144 -0.1254 -0.6108 -0.6023
 4982SOL    HW126405   4.249   3.031   2.220 -0.2476 -1.0439 -0.3278
 4982SOL    HW226406   4.244   2.890   2.174 -0.7212  0.5713  2.2868
 4983SOL     OW26407   3.587   2.281   2.394 -0.5144 -0.5687  0.1582
 4983SOL    HW126408   3.556   2.363   2.355  0.3237  0.3047  1.3114
 4983SOL    HW226409   3.502   2.264   2.434 -0.8334  0.8705  0.1193
 4984SOL     OW26410   0.011   0.716   0.313 -0.8393 -0.8395 -0.0560
 4984SOL    HW126411   0.026   0.800   0.269 -0.0140 -0.1304  1.5525
 4984SOL    HW226412   0.104   0.700   0.329 -0.4839  1.4882  0.2522
 4985SOL     OW26413   4.480   4.495  12.938  0.2184  0.2743 -0.3128
 4985SOL    HW126414   4.391   4.531  12.932  0.4650  1.2762  1.7644
 4985SOL    HW226415   4.477   4.430  13.009  1.8645  0.5554  0.0219
 4986SOL     OW26416   2.484   3.491   3.733  0.4623  0.0464  0.1623
 4986SOL    HW126417   2.482   3.494   3.829  0.6699  2.7518  0.0956
 4986SOL    HW226418   2.461   3.398   3.734  0.3059  0.0857  0.4149
 4987SOL     OW26419   4.531   2.380   3.130 -0.1082  0.6535 -0.5126
 4987SOL    HW126420   4.499   2.390   3.220 -1.9626 -1.6336 -0.9131
 4987SOL    HW226421   4.554   2.288   3.131  0.5023  0.8312  2.2974
 4988SOL     OW26422   2.596   3.266   4.310 -0.0849 -0.1610  0.1891
 4988SOL    HW126423   2.641   3.336   4.263 -0.2009  1.5914  2.6474
 4988SOL    HW226424   2.516   3.318   4.321 -0.6135 -1.2630  1.5304
 4989SOL     OW26425   1.284   1.634   4.002  0.1461  0.2847 -0.0044
 4989SOL    HW126426   1.359   1.644   4.060  0.9141  0.3392 -1.0043
 4989SOL    HW226427   1.232   1.590   4.069  0.1095  1.9585  1.0572
 4990SOL     OW26428   0.064   2.942  10.396  0.3035 -0.8115 -0.3760
 4990SOL    HW126429   0.055   3.027  10.438 -1.2188 -1.6153  0.9342
 4990SOL    HW226430   4.701   2.941  10.355  0.0769 -2.2651  0.1252
 4991SOL     OW26431   1.184   1.455   8.890  0.5161 -0.4259  0.6072
 4991SOL    HW126432   1.165   1.489   8.803  0.5759  0.6451  1.0174
 4991SOL    HW226433   1.256   1.395   8.873  1.7261  1.5098 -1.0436
 4992SOL     OW26434   1.306   2.173  15.552 -0.0376 -1.1361  0.2021
 4992SOL    HW126435   1.264   2.211  15.475  0.7864 -1.6454 -0.4963
 4992SOL    HW226436   1.266   2.087  15.565 -2.5910 -0.1046 -0.7628
 4993SOL     OW26437   1.034   0.389   3.121  0.2157 -0.6861  0.0118
 4993SOL    HW126438   1.031   0.473   3.074  0.6853  0.5463  2.1919
 4993SOL    HW226439   1.129   0.384   3.121  0.2240 -0.4772  0.4425
 4994SOL     OW26440   1.640   1.959   4.109  0.3645 -0.2551  0.3029
 4994SOL    HW126441   1.662   1.907   4.031  1.9541  0.2539  0.4087
 4994SOL    HW226442   1.554   1.992   4.084  0.4912  0.5585  0.9621
 4995SOL     OW26443   0.431   3.714  14.556 -0.1347  0.1568  0.1213
 4995SOL    HW126444   0.345   3.678  14.533  0.1626 -1.2093  1.1301
 4995SOL    HW226445   0.465   3.739  14.470  1.1309  0.6409  0.7678
 4996SOL     OW26446   2.309   3.617   6.897 -0.2989 -0.1142  0.4966
 4996SOL    HW126447   2.237   3.667   6.936  0.5634  0.4816  1.3184
 4996SOL    HW226448   2.272   3.538   6.856  0.2523  0.2012 -0.6064
 4997SOL     OW26449   1.704   0.728  14.716 -0.3745  0.6997 -0.5392
 4997SOL    HW126450   1.627   0.720  14.660 -0.8335  0.6165  0.1104
 4997SOL    HW226451   1.683   0.668  14.788  0.9575  0.5666 -0.2606
 4998SOL     OW26452   3.662   1.244  16.545  0.0947  0.8117 -0.4938
 4998SOL    HW126453   3.665   1.251  16.641 -1.2888 -0.8360 -0.3214
 4998SOL    HW226454   3.609   1.166  16.530  0.6765  0.1823  0.6603
 4999SOL     OW26455   0.008   1.732   2.046 -0.1768  0.2465 -0.2066
 4999SOL    HW126456   0.084   1.756   1.993  0.6115 -1.4662  0.1505
 4999SOL    HW226457   0.031   1.767   2.132 -0.2385 -0.2958  0.0325
 5000SOL     OW26458   3.303   0.112   3.843  0.1862 -0.1826 -0.0300
 5000SOL    HW126459   3.385   0.157   3.859  0.9302 -1.3347 -0.5720
 5000SOL    HW226460   3.309   0.080   3.753 -1.0036 -1.7270  0.4358
 5001SOL     OW26461   1.857   3.137   4.251 -0.2050  0.5159  0.3834
 5001SOL    HW126462   1.862   3.196   4.176 -0.0408  0.3746  0.2848
 5001SOL    HW226463   1.938   3.156   4.298  1.7672 -0.6038 -2.6265
 5002SOL     OW26464   3.547   3.041   8.910  0.5261 -0.0880 -0.0199
 5002SOL    HW126465   3.549   2.960   8.961  0.9393 -0.2363 -0.2751
 5002SOL    HW226466   3.633   3.024   8.871  0.3992 -1.3766  0.2873
 5003SOL     OW26467   2.113   4.208   7.281  0.0328  0.1013  0.3204
 5003SOL    HW126468   2.052   4.225   7.353  1.5055  2.0733  1.1224
 5003SOL    HW226469   2.188   4.158   7.314 -0.1482 -0.5864 -0.3292
 5004SOL     OW26470   0.025   2.259   6.120  0.0979  0.1280  0.3792
 5004SOL    HW126471   0.003   2.276   6.029  0.2933 -0.7271  0.1721
 5004SOL    HW226472   0.043   2.348   6.151  0.7356  0.2385 -0.3350
 5005SOL     OW26473   0.905   1.023   4.893 -0.4352 -0.6554  0.4139
 5005SOL    HW126474   0.909   1.102   4.946  2.0707 -1.3015  1.1925
 5005SOL    HW226475   0.946   0.963   4.956  0.5867  0.7108  1.0496
 5006SOL     OW26476   2.635   1.638   6.102  0.3148 -0.0536  0.6718
 5006SOL    HW126477   2.711   1.602   6.149  2.4306  1.9855 -1.2231
 5006SOL    HW226478   2.577   1.562   6.111  1.2461 -0.4520  3.5439
 5007SOL     OW26479   3.634   0.697   3.844 -0.0251  0.3470 -0.0506
 5007SOL    HW126480   3.623   0.654   3.929  1.7488 -1.1723 -0.5854
 5007SOL    HW226481   3.707   0.754   3.867  0.5149 -0.7568  1.0046
 5008SOL     OW26482   3.916   4.226   9.075 -0.1350  0.0799 -0.1957
 5008SOL    HW126483   3.978   4.154   9.088  1.8559  1.7343 -0.5022
 5008SOL    HW226484   3.848   4.171   9.036  0.9752 -0.8703 -0.7857
 5009SOL     OW26485   1.777   4.525   2.010 -0.0375  0.2811  0.4593
 5009SOL    HW126486   1.715   4.493   2.075 -0.2612 -0.6126 -0.1883
 5009SOL    HW226487   1.863   4.501   2.044 -0.4564  0.1843  1.4379
 5010SOL     OW26488   2.194   1.494   4.259 -0.9503  0.0739 -0.1426
 5010SOL    HW126489   2.127   1.541   4.208 -0.1197  0.7794 -0.5879
 5010SOL    HW226490   2.231   1.562   4.315  0.8091  0.6478 -1.9703
 5011SOL     OW26491   1.222   3.595   6.766  0.2238 -0.0560  0.3285
 5011SOL    HW126492   1.205   3.504   6.741  0.1927 -0.6820  2.5893
 5011SOL    HW226493   1.201   3.632   6.681  2.8104 -0.7182 -0.5977
 5012SOL     OW26494   2.993   0.671  13.876 -0.1411  0.3031  0.0723
 5012SOL    HW126495   3.027   0.610  13.942 -0.3688  1.2281  1.0529
 5012SOL    HW226496   2.899   0.650  13.873  0.2053 -0.9918 -1.5604
 5013SOL     OW26497   3.500   1.625   7.223 -0.1249  0.0368  0.2795
 5013SOL    HW126498   3.460   1.570   7.290  0.7446  1.1227  1.6753
 5013SOL    HW226499   3.424   1.621   7.166  0.6305  1.2143 -0.8153
 5014SOL     OW26500   4.653   1.246   6.832 -0.9822 -0.2446 -0.1916
 5014SOL    HW126501   4.682   1.283   6.748  0.0660 -2.3616 -0.7710
 5014SOL    HW226502   4.677   1.319   6.890  1.1175 -1.4361  0.4367
 5015SOL     OW26503   0.154   1.847   6.263 -0.3023 -0.4345  0.2637
 5015SOL    HW126504   0.073   1.839   6.211 -0.4989  0.3541  0.4583
 5015SOL    HW226505   0.198   1.912   6.209 -2.7891  0.6214 -0.5225
 5016SOL     OW26506   0.329   1.363  15.064  0.0937 -0.4178  0.0834
 5016SOL    HW126507   0.261   1.306  15.102  1.1038  0.5206  3.2948
 5016SOL    HW226508   0.289   1.449  15.077 -0.0528 -0.5472  0.5270
 5017SOL     OW26509   1.625   0.247  15.799 -0.0000 -0.1957  0.3344
 5017SOL    HW126510   1.649   0.212  15.885  0.5029 -2.2509 -0.6443
 5017SOL    HW226511   1.540   0.207  15.782  1.0272 -2.9289  1.6044
 5018SOL     OW26512   3.937   2.328   3.462  0.1649  0.2817  0.0652
 5018SOL    HW126513   3.874   2.376   3.408  0.4384 -0.5771 -1.0286
 5018SOL    HW226514   4.016   2.327   3.408 -0.7165  0.7185 -1.2321
 5019SOL     OW26515   1.403   2.490  16.618 -0.2443 -0.2255 -0.0530
 5019SOL    HW126516   1.461   2.466  16.546 -1.8650  0.5498 -1.6255
 5019SOL    HW226517   1.433   2.572  16.658 -0.8332  0.0058 -0.0845
 5020SOL     OW26518   3.760   1.417   8.870  0.5730  0.1951  0.3304
 5020SOL    HW126519   3.843   1.461   8.889 -0.5762  2.2135  0.7320
 5020SOL    HW226520   3.789   1.334   8.833  2.5547  0.7773  0.5640
 5021SOL     OW26521   3.871   2.251   5.195 -0.3689 -0.4827  0.2089
 5021SOL    HW126522   3.808   2.236   5.124  2.0403 -0.7303 -1.8639
 5021SOL    HW226523   3.928   2.321   5.165 -0.9125 -0.5287 -0.9314
 5022SOL     OW26524   3.571   0.271   0.998 -0.2666 -0.0385  0.1096
 5022SOL    HW126525   3.553   0.306   0.911 -0.0623  0.2108  0.1702
 5022SOL    HW226526   3.529   0.185   0.986 -0.3956  0.4474 -3.0692
 5023SOL     OW26527   2.343   1.594   0.976 -0.2058 -0.4718  0.4245
 5023SOL    HW126528   2.262   1.596   1.027  0.0438  2.8157  0.7260
 5023SOL    HW226529   2.399   1.529   1.018  0.8272 -0.8283 -1.4709
 5024SOL     OW26530   2.736   0.030   9.945  0.2464 -0.0246  0.4036
 5024SOL    HW126531   2.651   0.005   9.981 -0.2983 -0.0399 -0.8748
 5024SOL    HW226532   2.713   0.109   9.896 -0.3078 -1.2124 -1.2391
 5025SOL     OW26533   3.809   1.079   7.152 -0.2940 -0.1663  0.1376
 5025SOL    HW126534   3.837   0.990   7.130  0.0006 -0.2355  0.7928
 5025SOL    HW226535   3.886   1.134   7.141  1.3074 -1.9222  2.4252
 5026SOL     OW26536   3.927   0.507   2.900 -0.6259  0.1631 -0.1209
 5026SOL    HW126537   3.934   0.594   2.939  0.7562 -0.4929  1.0999
 5026SOL    HW226538   3.833   0.492   2.894 -0.3575 -1.9853  0.8774
 5027SOL     OW26539   1.964   3.811   8.112 -0.5184 -0.0799 -0.0352
 5027SOL    HW126540   1.991   3.740   8.054 -2.3118 -0.4376 -0.4466
 5027SOL    HW226541   1.969   3.887   8.055  1.2475  0.7245  1.1936
 5028SOL     OW26542   2.392   0.377   5.493 -0.0133 -0.0034  0.0232
 5028SOL    HW126543   2.379   0.282   5.497 -1.6489  0.2322  0.2136
 5028SOL    HW226544   2.348   0.417   5.568  0.8885  1.7353 -0.3829
 5029SOL     OW26545   0.573   1.230   9.703  0.1186 -0.0948  0.0127
 5029SOL    HW126546   0.562   1.197   9.792  0.6295 -0.9555 -0.2474
 5029SOL    HW226547   0.566   1.149   9.653 -0.2838  1.4026 -2.3905
 5030SOL     OW26548   1.282   3.292   5.502  0.4153 -0.2450  0.2999
 5030SOL    HW126549   1.203   3.342   5.483  0.9053  0.0881 -0.9013
 5030SOL    HW226550   1.257   3.250   5.583 -0.8659 -1.6356 -0.8265
 5031SOL     OW26551   3.744   0.429   2.504 -0.2526  0.9954  0.3132
 5031SOL    HW126552   3.709   0.351   2.547 -0.7111  0.0416 -1.8185
 5031SOL    HW226553   3.834   0.420   2.535  0.1284  1.7573 -0.5753
 5032SOL     OW26554   0.300   2.041   4.736  0.0534  1.0191 -0.2326
 5032SOL    HW126555   0.326   2.131   4.757 -0.6218  1.5944 -1.8329
 5032SOL    HW226556   0.338   1.991   4.808  0.8350  1.2950 -0.4479
 5033SOL     OW26557   2.665   1.174   4.626  0.2752  0.1848 -0.0807
 5033SOL    HW126558   2.605   1.145   4.695 -0.0508 -0.5676 -0.6776
 5033SOL    HW226559   2.686   1.091   4.583 -1.8261  0.1373 -1.0598
 5034SOL     OW26560   0.051   0.882   6.433 -0.1106 -0.2213  0.5548
 5034SOL    HW126561   4.688   0.906   6.467 -0.2370 -2.4634  1.7903
 5034SOL    HW226562   0.027   0.837   6.352 -0.1783  0.0940  0.3994
 5035SOL     OW26563   2.239   4.678   7.513 -0.9144 -0.6782 -0.4177
 5035SOL    HW126564   2.281   0.040   7.497  1.5734 -2.1527 -1.6574
 5035SOL    HW226565   2.237   4.677   7.609 -1.7985  0.5589 -0.4216
 5036SOL     OW26566   3.350   3.847   1.892  0.1768 -0.0117  0.2274
 5036SOL    HW126567   3.299   3.884   1.820  0.3279 -0.0190  0.1153
 5036SOL    HW226568   3.312   3.902   1.959 -0.0465  0.1093  0.0003
 5037SOL     OW26569   4.682   2.538   1.902 -0.3571  0.4066 -0.5653
 5037SOL    HW126570   0.050   2.535   1.931 -0.5367 -3.4628 -0.3785
 5037SOL    HW226571   4.659   2.446   1.910 -0.1655  0.3179 -1.0833
 5038SOL     OW26572   1.030   2.138   5.187  0.2617 -0.4167  0.4324
 5038SOL    HW126573   1.025   2.044   5.170  1.5098 -0.1755 -1.1928
 5038SOL    HW226574   1.116   2.141   5.229  0.9678 -3.7782 -0.7840
 5039SOL     OW26575   4.640   0.487   8.341 -0.2404  0.1695 -0.4894
 5039SOL    HW126576   4.704   0.421   8.369 -0.9622 -0.2009  0.3148
 5039SOL    HW226577   4.606   0.524   8.423 -0.3527 -2.6408  0.7365
 5040SOL     OW26578   4.499   3.147   7.900  0.2316  0.0264 -0.0657
 5040SOL    HW126579   4.457   3.196   7.829 -0.5899 -0.5603  0.0141
 5040SOL    HW226580   4.589   3.137   7.871  0.4783  1.6760  0.1380
 5041SOL     OW26581   4.143   0.826   5.693 -0.2665 -0.2439  0.4915
 5041SOL    HW126582   4.048   0.829   5.705 -0.4051 -0.4093 -0.4965
 5041SOL    HW226583   4.148   0.808   5.599  1.6814 -3.6402  1.2740
 5042SOL     OW26584   4.674   3.942   0.533 -0.0146  0.0762  0.4530
 5042SOL    HW126585   4.648   3.970   0.445  1.2468  0.4924  0.2180
 5042SOL    HW226586   0.003   4.019   0.554 -0.1943  0.4967 -0.6262
 5043SOL     OW26587   1.280   1.219   1.921 -0.5446 -0.2513  0.6723
 5043SOL    HW126588   1.233   1.268   1.854 -0.7758 -0.5737  0.5994
 5043SOL    HW226589   1.360   1.267   1.941 -2.1150  2.3971  0.7066
 5044SOL     OW26590   4.633   1.102   1.561 -0.2424 -0.4141  0.1154
 5044SOL    HW126591   4.606   1.124   1.650 -2.6330 -4.3077  0.3635
 5044SOL    HW226592   4.614   1.183   1.514  0.7468  0.1631  0.7206
 5045SOL     OW26593   1.808   1.891   8.536 -0.2727  0.1274  0.4334
 5045SOL    HW126594   1.812   1.853   8.624  1.4272  0.1638  0.3640
 5045SOL    HW226595   1.713   1.887   8.524 -0.2008 -0.2770 -0.0210
 5046SOL     OW26596   3.565   0.095  10.823  0.0616  0.5788 -0.1380
 5046SOL    HW126597   3.475   0.100  10.856  0.5309  1.4717  1.0166
 5046SOL    HW226598   3.585   0.002  10.835 -0.0558  0.7565  1.5408
 5047SOL     OW26599   1.161   3.769   0.543  0.2714 -0.0321 -0.2389
 5047SOL    HW126600   1.179   3.813   0.459 -1.6656  1.3663  0.0568
 5047SOL    HW226601   1.253   3.755   0.564 -0.1574 -1.5123  0.6031
 5048SOL     OW26602   3.887   4.387  11.459  0.4352  0.6407 -0.4042
 5048SOL    HW126603   3.942   4.311  11.479  0.6791  0.9671  0.1842
 5048SOL    HW226604   3.953   4.442  11.417  2.1556 -1.9717 -1.0952
 5049SOL     OW26605   0.129   4.657   8.722  0.0923 -0.2578 -0.8239
 5049SOL    HW126606   0.153   4.612   8.804 -1.2874  1.2365  0.3989
 5049SOL    HW226607   0.041   4.688   8.744  0.7289  0.3903  0.8501
 5050SOL     OW26608   1.860   1.912  14.412 -0.2808 -0.2966  0.3226
 5050SOL    HW126609   1.804   1.834  14.406 -2.3497  0.9922  3.1128
 5050SOL    HW226610   1.832   1.963  14.335  1.4457 -0.5258 -0.4679
 5051SOL     OW26611   1.800   3.656   0.481  0.5302  0.2342  0.0158
 5051SOL    HW126612   1.818   3.590   0.414 -1.9201  0.3035 -0.7036
 5051SOL    HW226613   1.764   3.603   0.552  0.0363  0.2447 -0.2253
 5052SOL     OW26614   4.428   0.486   5.508  0.3179 -0.3104  0.4171
 5052SOL    HW126615   4.464   0.532   5.432  2.1938 -1.4524  0.6175
 5052SOL    HW226616   4.408   0.561   5.566 -2.9256 -0.0151 -1.0971
 5053SOL     OW26617   1.513   1.824   6.383  0.4615 -0.2106  0.8919
 5053SOL    HW126618   1.548   1.802   6.470 -0.1671  0.2747  1.2668
 5053SOL    HW226619   1.601   1.835   6.347 -0.3718 -1.2984 -1.4400
 5054SOL     OW26620   3.643   0.283   7.604  0.1733  0.7543 -0.0997
 5054SOL    HW126621   3.609   0.247   7.522  0.0576  1.9120 -0.5593
 5054SOL    HW226622   3.689   0.204   7.634  0.3255  0.8534 -0.0761
 5055SOL     OW26623   1.138   0.021   2.648  0.0285  0.1292 -0.6639
 5055SOL    HW126624   1.109   0.076   2.575 -2.3522  0.0400  0.2095
 5055SOL    HW226625   1.097   0.063   2.724 -1.8722  0.4649 -1.8762
 5056SOL     OW26626   4.354   0.284   7.328  0.3818  0.1412 -0.2986
 5056SOL    HW126627   4.364   0.199   7.371 -1.8561  0.4625  0.8390
 5056SOL    HW226628   4.316   0.334   7.400 -1.8566  2.6027 -3.2190
 5057SOL     OW26629   0.121   0.877   7.822  0.0536 -0.0308  0.3954
 5057SOL    HW126630   0.213   0.905   7.815 -0.8361  2.9809  0.4614
 5057SOL    HW226631   0.088   0.946   7.764  0.3929 -0.9878 -0.9192
 5058SOL     OW26632   4.458   0.190  17.646 -0.5899  0.2297  0.1327
 5058SOL    HW126633   4.375   0.187  17.598  0.4095 -1.6608 -1.4919
 5058SOL    HW226634   4.467   0.111   0.005  0.9648 -0.2645 -0.8416
 5059SOL     OW26635   3.047   4.511  11.137 -0.2021  0.5688 -0.3573
 5059SOL    HW126636   3.057   4.526  11.231 -0.8336 -0.1012 -0.1848
 5059SOL    HW226637   3.122   4.565  11.112  1.0081  0.0223  2.0709
 5060SOL     OW26638   3.199   2.384   2.662  0.1569  0.0907 -0.4055
 5060SOL    HW126639   3.136   2.426   2.604 -1.5419  0.1935  1.4958
 5060SOL    HW226640   3.212   2.452   2.728 -0.8003 -0.8202  0.7253
 5061SOL     OW26641   3.050   0.848   5.373  0.3266 -0.0095 -0.1626
 5061SOL    HW126642   3.021   0.917   5.312  0.1240 -1.3073 -1.5242
 5061SOL    HW226643   3.028   0.900   5.450  0.1879 -1.3980  0.7203
 5062SOL     OW26644   1.776   0.672   3.941 -0.1655 -0.5319 -0.1553
 5062SOL    HW126645   1.801   0.634   3.857 -0.9518 -2.5882  0.5547
 5062SOL    HW226646   1.682   0.658   3.944 -0.6255  2.2492 -1.0959
 5063SOL     OW26647   0.227   3.051   6.747  0.3618 -0.6339  0.0964
 5063SOL    HW126648   0.192   3.139   6.761  3.1042  0.4026  0.4692
 5063SOL    HW226649   0.159   3.012   6.692 -0.6548  1.5733 -0.2583
 5064SOL     OW26650   1.562   4.303  12.690 -0.4977 -0.0358  0.2325
 5064SOL    HW126651   1.547   4.371  12.755  0.6134 -0.5115  0.9920
 5064SOL    HW226652   1.488   4.316  12.630 -1.0983  0.7639  1.1587
 5065SOL     OW26653   4.163   2.049   8.129  0.3043  0.2427 -0.7534
 5065SOL    HW126654   4.185   2.123   8.072 -0.2093  0.4322 -0.7084
 5065SOL    HW226655   4.151   2.098   8.210 -0.3485  0.9347 -1.2622
 5066SOL     OW26656   3.906   2.551   4.083  0.3423  0.4037  0.0057
 5066SOL    HW126657   3.852   2.628   4.062  1.4500  0.4228 -2.8147
 5066SOL    HW226658   3.963   2.593   4.147  1.5133  0.3164 -0.9898
 5067SOL     OW26659   0.759   3.014  10.045 -0.6637 -0.7096  0.2466
 5067SOL    HW126660   0.693   2.962   9.998  0.0036  0.5377 -2.0909
 5067SOL    HW226661   0.725   3.021  10.134  1.5356  0.9966  0.9422
 5068SOL     OW26662   2.194   1.753   5.613  0.1939  0.1056  0.2610
 5068SOL    HW126663   2.279   1.774   5.653 -0.5242  2.7424  0.4448
 5068SOL    HW226664   2.209   1.698   5.537 -0.3139 -0.8049  0.8208
 5069SOL     OW26665   2.722   4.086  15.570  0.1773 -0.4706 -0.1226
 5069SOL    HW126666   2.792   4.033  15.531 -1.3836 -2.9806  0.4288
 5069SOL    HW226667   2.658   4.015  15.578 -0.6405  0.3183  0.3645
 5070SOL     OW26668   0.966   2.113  12.347 -0.0376  0.7698  0.2512
 5070SOL    HW126669   1.048   2.104  12.298 -0.9005 -0.3147 -0.9813
 5070SOL    HW226670   0.977   2.204  12.377 -0.5831  1.0802 -0.5013
 5071SOL     OW26671   0.951   0.818  10.927 -0.0149  0.1281 -0.2316
 5071SOL    HW126672   0.866   0.774  10.934 -1.2746  2.3524 -1.3364
 5071SOL    HW226673   0.961   0.831  11.021 -1.2384  1.8263 -0.3397
 5072SOL     OW26674   3.205   1.270  17.221 -0.3994  0.2218 -0.2145
 5072SOL    HW126675   3.220   1.175  17.218  1.3691  0.5357 -0.8958
 5072SOL    HW226676   3.172   1.272  17.311  0.2163 -0.6636  0.0282
 5073SOL     OW26677   4.038   1.810   2.085  0.8212 -0.2619  0.1682
 5073SOL    HW126678   4.122   1.768   2.066  0.9549  0.0038  0.1716
 5073SOL    HW226679   4.049   1.903   2.064 -0.6868 -0.0685  0.2672
 5074SOL     OW26680   4.676   3.605   9.134 -0.2535  0.2685  0.5289
 5074SOL    HW126681   0.017   3.553   9.085 -1.1104  2.3802 -2.8251
 5074SOL    HW226682   0.005   3.599   9.214 -0.4183  1.3149  0.7061
 5075SOL     OW26683   0.344   4.278  13.121 -0.0616  0.2864  0.4645
 5075SOL    HW126684   0.304   4.319  13.198  0.4942  0.5506  0.6134
 5075SOL    HW226685   0.333   4.348  13.056  2.3006 -0.3250 -0.5979
 5076SOL     OW26686   2.332   2.911   4.973 -0.5476 -0.5757  0.2178
 5076SOL    HW126687   2.413   2.958   4.992 -1.5693  1.6471 -0.9968
 5076SOL    HW226688   2.347   2.890   4.881 -1.0581  0.6379 -0.1397
 5077SOL     OW26689   3.420   2.078   5.286  0.1494 -0.1171 -0.3762
 5077SOL    HW126690   3.368   2.046   5.212 -1.3846 -1.8574  1.4416
 5077SOL    HW226691   3.413   2.166   5.249  1.6428  0.1358 -0.0338
 5078SOL     OW26692   0.346   0.304   6.066  0.2514 -0.5186  0.5128
 5078SOL    HW126693   0.418   0.320   6.127 -0.1214  1.6476  0.3932
 5078SOL    HW226694   0.392   0.254   5.998 -0.4537  0.4450 -0.6775
 5079SOL     OW26695   2.332   2.311   3.870 -0.3003  0.0606 -0.2011
 5079SOL    HW126696   2.349   2.357   3.952 -0.6250  0.9388 -0.6299
 5079SOL    HW226697   2.312   2.223   3.902  1.4057  0.8034  2.8402
 5080SOL     OW26698   0.524   2.904   3.540 -0.3054  0.4081 -0.1571
 5080SOL    HW126699   0.487   2.821   3.509  0.8479  0.0850 -0.6654
 5080SOL    HW226700   0.563   2.931   3.457  0.1272 -1.0950 -0.4471
 5081SOL     OW26701   1.647   3.324   3.432 -0.5535 -0.4152 -0.1157
 5081SOL    HW126702   1.693   3.286   3.507  0.4664  1.8463  0.4145
 5081SOL    HW226703   1.713   3.376   3.386 -1.3661  1.0306  0.3618
 5082SOL     OW26704   1.813   3.395   2.478 -0.6582 -0.0471 -0.5441
 5082SOL    HW126705   1.800   3.317   2.533 -1.7372  0.3137 -0.2788
 5082SOL    HW226706   1.873   3.358   2.413  0.5746  0.8429  0.0994
 5083SOL     OW26707   2.232   3.085   4.605 -0.1075  0.2387  0.5190
 5083SOL    HW126708   2.161   3.125   4.556 -0.4861  0.1127  0.9676
 5083SOL    HW226709   2.275   3.161   4.643 -0.8394  0.2788  1.2752
 5084SOL     OW26710   3.078   1.836   9.199  0.3165 -0.3068  0.3200
 5084SOL    HW126711   3.077   1.755   9.251 -2.3495 -0.5287 -0.0968
 5084SOL    HW226712   3.107   1.895   9.269 -4.4120  1.2535  0.9137
 5085SOL     OW26713   1.656   4.032  10.989 -0.6212  0.1508 -0.7244
 5085SOL    HW126714   1.651   3.937  11.002  0.3429  0.4241  1.7202
 5085SOL    HW226715   1.664   4.072  11.076  3.3334  0.5770 -1.2587
 5086SOL     OW26716   4.142   1.377   4.381 -0.1284  0.0128  0.1520
 5086SOL    HW126717   4.049   1.365   4.400  0.2706 -0.9130  1.5484
 5086SOL    HW226718   4.188   1.297   4.408 -0.7751 -1.3146 -2.6833
 5087SOL     OW26719   1.605   1.801  16.913  0.1213 -0.0182 -0.0423
 5087SOL    HW126720   1.595   1.895  16.895  1.8514 -0.1200 -1.5405
 5087SOL    HW226721   1.543   1.767  16.848 -0.9229  1.8598 -0.0342
 5088SOL     OW26722   4.258   0.491  12.488  0.4938 -0.6664  0.3845
 5088SOL    HW126723   4.238   0.558  12.422  1.3107 -1.7802 -1.0018
 5088SOL    HW226724   4.264   0.544  12.567 -0.5231 -0.4928  0.3462
 5089SOL     OW26725   0.485   2.931   0.079 -0.3958  0.0646  0.6088
 5089SOL    HW126726   0.570   2.955   0.043 -0.2083 -1.2328  0.2175
 5089SOL    HW226727   0.470   2.977   0.162  1.0069  2.8952 -0.7116
 5090SOL     OW26728   2.248   1.130   4.546 -0.8856  0.0083  0.1255
 5090SOL    HW126729   2.209   1.045   4.527 -1.5720  0.1592  0.8963
 5090SOL    HW226730   2.187   1.191   4.504  0.1268  0.7842 -0.2256
 5091SOL     OW26731   2.410   3.344   4.070  0.1874 -0.1165  0.3058
 5091SOL    HW126732   2.422   3.432   4.035  0.9904 -0.5959 -0.6281
 5091SOL    HW226733   2.425   3.284   3.997  1.0014  0.1319  0.2799
 5092SOL     OW26734   4.252   0.823   7.887  0.3522 -0.1560 -0.2989
 5092SOL    HW126735   4.278   0.912   7.862 -0.2625 -0.0540 -0.5750
 5092SOL    HW226736   4.332   0.788   7.927  0.3877  0.4694  0.1934
 5093SOL     OW26737   1.487   4.651  11.319 -0.0792  0.8948  0.3776
 5093SOL    HW126738   1.463   0.020  11.312  1.3427  1.2443  0.1688
 5093SOL    HW226739   1.434   4.621  11.393 -1.3629  0.4973 -0.6937
 5094SOL     OW26740   0.836   1.786   1.477  0.4804 -0.4026  0.2299
 5094SOL    HW126741   0.925   1.822   1.481  0.7790 -1.2468  1.1567
 5094SOL    HW226742   0.786   1.867   1.467 -0.6538 -0.9305  1.5959
 5095SOL     OW26743   0.024   3.723  12.741  0.5167  0.2275  0.1573
 5095SOL    HW126744   4.668   3.776  12.745 -0.2295 -0.9009  0.2892
 5095SOL    HW226745   0.089   3.786  12.773  1.3394 -0.1403 -0.7982
 5096SOL     OW26746   1.013   0.616   3.557 -0.1395  0.8813  0.1886
 5096SOL    HW126747   1.099   0.631   3.519  0.1899 -1.1527  0.1250
 5096SOL    HW226748   1.030   0.570   3.639  2.8507  1.4206 -0.1349
 5097SOL     OW26749   2.283   3.263   6.885  0.5160 -0.4849 -0.0658
 5097SOL    HW126750   2.253   3.172   6.893 -1.8433  0.3273  0.2380
 5097SOL    HW226751   2.210   3.321   6.868  1.3280 -0.1003 -2.2036
 5098SOL     OW26752   1.682   4.254  16.579 -0.1787  0.2122 -0.2466
 5098SOL    HW126753   1.755   4.315  16.583 -1.2110  1.4412 -0.1173
 5098SOL    HW226754   1.690   4.214  16.665 -0.5237  2.4426  0.8203
 5099SOL     OW26755   4.721   3.820   7.344 -0.2686 -0.1573  0.3851
 5099SOL    HW126756   0.004   3.789   7.434  0.5776  0.0072  0.3891
 5099SOL    HW226757   4.626   3.809   7.336 -0.2385 -0.3902  0.3465
 5100SOL     OW26758   3.788   0.039   4.885 -0.2156 -0.0486 -0.4578
 5100SOL    HW126759   3.874   4.720   4.880  0.7201  1.5597  1.8292
 5100SOL    HW226760   3.730   4.693   4.853  0.2321  0.7119 -2.9050
 5101SOL     OW26761   1.118   2.949   3.866  0.0521 -0.1502  0.2527
 5101SOL    HW126762   1.035   2.996   3.860 -0.4380 -0.8919  1.0906
 5101SOL    HW226763   1.146   2.942   3.775  0.0949 -0.8178  0.3176
 5102SOL     OW26764   2.293   1.647   7.335 -0.4015 -0.0806  0.3731
 5102SOL    HW126765   2.346   1.639   7.256  0.1581  0.9375  0.6429
 5102SOL    HW226766   2.320   1.734   7.363  0.0952  0.0616 -0.5525
 5103SOL     OW26767   1.901   0.927   5.115 -0.6034  0.2848  0.2368
 5103SOL    HW126768   1.900   0.872   5.037 -0.3263 -0.7439  0.9600
 5103SOL    HW226769   1.937   0.863   5.176  1.3598  0.2479 -0.9813
 5104SOL     OW26770   3.767   3.978   2.236  0.2206 -0.5248 -0.0483
 5104SOL    HW126771   3.784   3.957   2.145  1.4269 -0.1533  0.0901
 5104SOL    HW226772   3.785   4.072   2.241  1.0020 -0.5991 -1.7534
 5105SOL     OW26773   3.056   0.053   8.076  0.1878  0.0090 -0.3735
 5105SOL    HW126774   3.101   0.136   8.090 -1.7263  1.1433 -0.9023
 5105SOL    HW226775   2.995   0.081   8.008 -1.0669  0.4764  0.9657
 5106SOL     OW26776   4.367   3.369   5.446 -0.2428 -0.3541 -0.0940
 5106SOL    HW126777   4.321   3.292   5.479 -1.0743  0.9966  1.8759
 5106SOL    HW226778   4.310   3.390   5.372 -1.6856  1.7757  1.6303
 5107SOL     OW26779   2.656   0.038   9.552  0.4230  0.1064 -0.7466
 5107SOL    HW126780   2.609   0.119   9.533 -0.0359  0.0085 -0.0565
 5107SOL    HW226781   2.575   4.714   9.571  0.5026  0.3784  0.2703
 5108SOL     OW26782   3.646   1.571   2.726 -0.1508 -0.0017 -0.0703
 5108SOL    HW126783   3.729   1.532   2.696  0.2591 -2.2121  3.9745
 5108SOL    HW226784   3.657   1.663   2.700  3.0203 -0.3891 -0.1149
 5109SOL     OW26785   0.460   3.905   6.061  0.6095 -0.1247  0.1605
 5109SOL    HW126786   0.373   3.906   6.099 -0.4135 -1.4347 -2.1433
 5109SOL    HW226787   0.451   3.930   5.969  1.6419  1.3874  0.4522
 5110SOL     OW26788   1.343   1.741   8.312  0.1509 -0.3059  0.2166
 5110SOL    HW126789   1.414   1.693   8.355  0.6422  1.4191  1.3396
 5110SOL    HW226790   1.338   1.814   8.374 -0.7635 -0.8066  0.7269
 5111SOL     OW26791   3.449   1.864  12.078  0.4931  0.2836  0.0170
 5111SOL    HW126792   3.415   1.880  12.166 -1.1620 -0.3885 -0.5106
 5111SOL    HW226793   3.478   1.773  12.078  0.3493  0.2328  0.6417
 5112SOL     OW26794   3.806   2.189   4.738 -0.6390 -0.0907  0.0480
 5112SOL    HW126795   3.736   2.177   4.674 -1.9129  2.5942  0.9533
 5112SOL    HW226796   3.881   2.206   4.680 -0.6464  1.0516  0.3792
 5113SOL     OW26797   1.743   1.720  10.145 -0.2774 -0.5648 -0.1718
 5113SOL    HW126798   1.768   1.645  10.199 -1.4868  0.4200  1.7304
 5113SOL    HW226799   1.651   1.697  10.131 -0.4287 -0.3055  0.4040
 5114SOL     OW26800   1.891   0.436  15.534  0.1473  0.9349 -0.1240
 5114SOL    HW126801   1.952   0.380  15.487 -1.0058 -1.3818  1.1653
 5114SOL    HW226802   1.909   0.430  15.628 -1.4917 -0.5196  0.0995
 5115SOL     OW26803   3.656   1.070   0.298  0.3255  0.1391 -0.0923
 5115SOL    HW126804   3.745   1.039   0.280  1.3322  1.7671  2.0372
 5115SOL    HW226805   3.628   1.007   0.365  1.9874 -1.2410 -0.6992
 5116SOL     OW26806   2.073   0.779  17.498  0.1176 -0.1129  0.1228
 5116SOL    HW126807   2.082   0.696  17.545 -2.5183 -0.8036 -0.5806
 5116SOL    HW226808   1.998   0.763  17.440 -0.1038  0.3166  0.2869
 5117SOL     OW26809   4.421   1.840   2.814  0.1437 -0.1509 -0.8787
 5117SOL    HW126810   4.362   1.794   2.755  2.1289 -0.8434 -2.3032
 5117SOL    HW226811   4.357   1.865   2.881  0.4999  0.5977 -0.8265
 5118SOL     OW26812   1.756   3.829   8.328 -0.3471  0.5558  0.2588
 5118SOL    HW126813   1.819   3.811   8.258 -0.1291  0.7320  0.4109
 5118SOL    HW226814   1.700   3.900   8.296  0.0507 -0.1181 -1.8913
 5119SOL     OW26815   1.349   3.704   2.734 -0.0268  0.0706  0.6433
 5119SOL    HW126816   1.355   3.774   2.669  0.7464  0.0693  0.7153
 5119SOL    HW226817   1.377   3.629   2.681 -0.1530 -0.1918  0.9454
 5120SOL     OW26818   0.381   2.305   6.791 -0.5400  0.5027  0.4316
 5120SOL    HW126819   0.317   2.239   6.765 -0.5380  0.6798 -0.0186
 5120SOL    HW226820   0.419   2.332   6.708  0.4385 -1.3387  0.2914
 5121SOL     OW26821   2.358   3.933  12.472  0.4188 -0.1401  0.0314
 5121SOL    HW126822   2.266   3.916  12.454  0.1181  0.2280  1.1922
 5121SOL    HW226823   2.394   3.971  12.392  0.6559 -1.2734 -0.4021
 5122SOL     OW26824   0.761   4.451   3.109  0.2998 -0.1506 -0.4629
 5122SOL    HW126825   0.836   4.420   3.059  0.7987  0.5735 -0.1694
 5122SOL    HW226826   0.690   4.424   3.052  0.9538  1.7431 -2.1619
 5123SOL     OW26827   2.101   0.843  13.845  0.2612 -0.4205 -0.2234
 5123SOL    HW126828   2.180   0.802  13.810 -0.1411 -1.7889  0.4297
 5123SOL    HW226829   2.136   0.901  13.912 -0.7972 -0.3936  0.3177
 5124SOL     OW26830   0.467   0.359   2.219  0.5150 -0.0865 -0.1304
 5124SOL    HW126831   0.511   0.388   2.299 -0.9604  0.1505  0.5753
 5124SOL    HW226832   0.375   0.356   2.244  0.3623  1.4005 -0.5219
 5125SOL     OW26833   2.965   2.347   6.392  0.0886 -0.4096  0.2477
 5125SOL    HW126834   2.926   2.282   6.332 -1.8212  0.0032  1.0374
 5125SOL    HW226835   2.914   2.425   6.368  1.7234 -0.0967 -2.2270
 5126SOL     OW26836   3.931   4.100   4.296  0.2201  0.0809  0.4468
 5126SOL    HW126837   3.951   4.190   4.321 -0.0598 -0.1021  1.3507
 5126SOL    HW226838   4.005   4.051   4.333  1.1177  0.6461 -0.6025
 5127SOL     OW26839   3.857   2.847   3.771  0.1428  0.0547  0.5783
 5127SOL    HW126840   3.953   2.850   3.769  0.1065 -0.1237 -1.2643
 5127SOL    HW226841   3.847   2.862   3.865  1.9174 -0.2126  0.8218
 5128SOL     OW26842   4.010   3.786   8.097  0.3324 -0.3688 -0.2027
 5128SOL    HW126843   3.989   3.780   8.190 -0.6446  1.2405 -0.3173
 5128SOL    HW226844   4.073   3.858   8.102  0.7360 -0.8068  0.9433
 5129SOL     OW26845   2.187   2.093   7.639 -0.2216 -0.5393  0.6072
 5129SOL    HW126846   2.107   2.064   7.595 -0.2376 -2.2806  1.7906
 5129SOL    HW226847   2.164   2.172   7.689 -2.1517 -0.9970  0.4544
 5130SOL     OW26848   2.634   1.669   8.175 -0.0354  0.5316 -0.1479
 5130SOL    HW126849   2.689   1.592   8.192  1.0206  0.7196 -2.8246
 5130SOL    HW226850   2.550   1.651   8.219  0.7647 -1.5779  0.5067
 5131SOL     OW26851   2.407   4.439   2.698 -0.4197 -0.3731  0.3141
 5131SOL    HW126852   2.478   4.391   2.656 -0.8589 -1.2113  0.5488
 5131SOL    HW226853   2.449   4.474   2.777  0.5544 -0.2655 -0.2560
 5132SOL     OW26854   2.244   0.429   3.447 -0.7171  0.8188  0.2931
 5132SOL    HW126855   2.291   0.495   3.395 -1.5992 -0.5803 -2.2492
 5132SOL    HW226856   2.191   0.488   3.501 -2.2816  1.7558 -2.2664
 5133SOL     OW26857   3.275   4.462   7.003  0.1018  0.1702  0.7210
 5133SOL    HW126858   3.247   4.514   6.927  2.5157  0.6377  0.1543
 5133SOL    HW226859   3.274   4.542   7.056  1.4166  0.9719 -0.4602
 5134SOL     OW26860   1.688   2.038   6.147  0.2685  0.7869  0.2117
 5134SOL    HW126861   1.746   2.086   6.089 -0.1416  1.4453  0.3410
 5134SOL    HW226862   1.628   1.990   6.090  3.0186 -1.4501 -0.7573
 5135SOL     OW26863   4.241   3.836   6.718  0.1066 -0.0753 -0.0825
 5135SOL    HW126864   4.179   3.804   6.652 -2.0504  0.4314  1.7106
 5135SOL    HW226865   4.217   3.784   6.796 -0.0876 -0.0566 -0.1300
 5136SOL     OW26866   2.286   0.336   2.638  0.3360  0.3089  0.0862
 5136SOL    HW126867   2.195   0.363   2.627  0.1795 -0.4032 -0.4174
 5136SOL    HW226868   2.327   0.341   2.552  1.4598  1.3159  0.6708
 5137SOL     OW26869   4.403   0.305   3.337 -0.2589  0.1506 -0.0081
 5137SOL    HW126870   4.470   0.372   3.351  0.2375 -0.7613  1.8964
 5137SOL    HW226871   4.461   0.232   3.357 -0.6429 -0.3074 -0.5593
 5138SOL     OW26872   4.140   0.714   8.578 -0.1289  0.2863  0.6892
 5138SOL    HW126873   4.197   0.712   8.655  1.4866 -0.6686 -0.5559
 5138SOL    HW226874   4.146   0.806   8.553  1.1082  0.0773  0.2347
 5139SOL     OW26875   2.138   2.454  13.050  0.5396  0.4240 -0.1221
 5139SOL    HW126876   2.191   2.502  12.987  1.9550  1.5113  1.9070
 5139SOL    HW226877   2.104   2.380  12.999  0.4821 -0.2882  0.9447
 5140SOL     OW26878   2.991   2.864   2.078 -0.0847  0.5596 -0.6852
 5140SOL    HW126879   2.903   2.901   2.090  0.0724  0.7661 -0.1469
 5140SOL    HW226880   3.031   2.947   2.051 -1.2715  1.6438  0.8570
 5141SOL     OW26881   0.987   0.636   0.269 -0.0861  0.1748  0.9607
 5141SOL    HW126882   0.972   0.542   0.266 -0.9560  0.2927  1.6472
 5141SOL    HW226883   1.054   0.640   0.337 -0.3224 -0.3903  1.2238
 5142SOL     OW26884   3.894   2.695  13.504 -0.1100  0.2118  0.2116
 5142SOL    HW126885   3.839   2.732  13.572  0.6136  1.0890  0.3072
 5142SOL    HW226886   3.934   2.775  13.470 -0.5234  0.2663 -0.1516
 5143SOL     OW26887   4.311   1.306  11.149 -0.0755  0.2088 -0.4739
 5143SOL    HW126888   4.270   1.231  11.194 -0.7368  1.5764  1.2384
 5143SOL    HW226889   4.389   1.319  11.204  0.0539 -0.2440 -0.5505
 5144SOL     OW26890   1.752   4.650   4.865  0.1767  0.1797  0.6726
 5144SOL    HW126891   1.674   4.705   4.877  0.0782 -0.1873  1.7393
 5144SOL    HW226892   1.716   4.575   4.817 -1.2194  0.6558  0.9745
 5145SOL     OW26893   4.005   3.724   6.423  0.6954  0.3136  0.7801
 5145SOL    HW126894   3.958   3.666   6.363  1.3372  0.4527  0.1399
 5145SOL    HW226895   3.949   3.736   6.499 -0.6514  1.2881 -0.3665
 5146SOL     OW26896   0.030   0.937   9.905  0.1698 -0.7099 -0.2346
 5146SOL    HW126897   4.685   0.887   9.949  0.0035 -0.4149 -0.1549
 5146SOL    HW226898   0.030   1.015   9.960 -0.0295  0.1780 -1.5094
 5147SOL     OW26899   3.718   1.276  12.355 -0.0392 -0.3327  0.2217
 5147SOL    HW126900   3.803   1.299  12.392 -0.4110  0.6698  0.4386
 5147SOL    HW226901   3.664   1.269  12.434 -1.8331  1.5052 -0.8623
 5148SOL     OW26902   1.152   2.489   0.629 -0.0623  0.1155 -0.2117
 5148SOL    HW126903   1.242   2.470   0.657 -0.2992 -1.0126 -0.2360
 5148SOL    HW226904   1.121   2.526   0.712 -2.4416 -4.0364  0.7376
 5149SOL     OW26905   0.698   4.044   5.465  0.3462 -0.2835  0.1503
 5149SOL    HW126906   0.723   3.959   5.429  0.4318  0.0382 -0.5525
 5149SOL    HW226907   0.654   4.086   5.391  0.6719  0.2758  0.2770
 5150SOL     OW26908   2.747   0.085   2.874 -0.2719  1.0832  0.0468
 5150SOL    HW126909   2.740   0.105   2.781 -0.0480  0.1207 -0.1802
 5150SOL    HW226910   2.841   0.065   2.872  0.1225  3.0669 -1.1485
 5151SOL     OW26911   1.076   0.426   0.527 -0.0742 -0.4439  0.0327
 5151SOL    HW126912   1.098   0.392   0.441 -2.0889 -0.1405 -0.5980
 5151SOL    HW226913   0.995   0.377   0.542 -1.4178  1.8891  0.4326
 5152SOL     OW26914   0.461   2.635   3.463 -0.5264 -0.7776  0.2727
 5152SOL    HW126915   0.469   2.567   3.529 -0.5852 -0.6242  0.4389
 5152SOL    HW226916   0.389   2.601   3.411  0.1542  0.1592 -1.2784
 5153SOL     OW26917   4.387   4.448   9.012 -0.7840  0.4762  0.2204
 5153SOL    HW126918   4.391   4.415   8.922 -0.6362 -1.9099  1.0918
 5153SOL    HW226919   4.469   4.497   9.018  0.4426 -1.6731  1.0122
 5154SOL     OW26920   2.724   3.743   5.337 -0.0340 -0.3175 -0.3029
 5154SOL    HW126921   2.656   3.761   5.272 -0.2193 -0.9994 -0.3012
 5154SOL    HW226922   2.722   3.821   5.392 -0.8914 -1.1709  0.8658
 5155SOL     OW26923   2.225   0.393   7.125 -0.7072  0.5094  0.0431
 5155SOL    HW126924   2.162   0.329   7.092 -0.7003 -0.4883  1.9333
 5155SOL    HW226925   2.236   0.368   7.217  1.2450  3.3831  0.5950
 5156SOL     OW26926   1.081   0.303   4.349  0.3983 -0.0892  0.0978
 5156SOL    HW126927   1.025   0.227   4.364 -0.5988  0.3744 -1.2769
 5156SOL    HW226928   1.022   0.372   4.377 -0.6460 -1.5389  1.5039
 5157SOL     OW26929   4.243   0.336   0.972 -0.2962 -0.2025 -0.4304
 5157SOL    HW126930   4.250   0.425   0.938 -1.3359 -0.5069 -1.4314
 5157SOL    HW226931   4.308   0.298   0.913 -0.8872  0.9898 -1.8575
 5158SOL     OW26932   1.468   4.153   7.463 -0.3607 -0.2624 -0.2636
 5158SOL    HW126933   1.489   4.090   7.393 -1.9550 -0.0421 -0.9332
 5158SOL    HW226934   1.404   4.210   7.419 -1.2589 -0.0305  1.3682
 5159SOL     OW26935   1.978   3.627   1.334 -0.0690 -0.5426 -0.1499
 5159SOL    HW126936   2.055   3.570   1.342 -0.0771 -0.3628  1.2812
 5159SOL    HW226937   1.971   3.628   1.239  0.0388  0.4058 -0.1496
 5160SOL     OW26938   1.064   2.738   9.025  0.1940 -0.6712  0.0262
 5160SOL    HW126939   1.000   2.736   9.096  1.6969 -1.5701  1.3693
 5160SOL    HW226940   1.146   2.753   9.074 -0.3830  3.3678 -0.2641
 5161SOL     OW26941   3.759   2.883   5.957  0.3838  0.9138 -0.2165
 5161SOL    HW126942   3.792   2.886   6.047  0.2129 -2.2324 -0.0223
 5161SOL    HW226943   3.749   2.789   5.939 -0.9452  1.1163 -0.5684
 5162SOL     OW26944   3.283   4.242   7.148 -0.7761  0.3048  0.4028
 5162SOL    HW126945   3.375   4.219   7.139 -1.2635 -1.2768 -0.7042
 5162SOL    HW226946   3.286   4.315   7.086  0.6300 -1.3878 -1.5508
 5163SOL     OW26947   1.718   2.040   7.183 -0.0434 -0.5624  0.4344
 5163SOL    HW126948   1.730   1.952   7.219  1.3081  0.2882  2.0938
 5163SOL    HW226949   1.627   2.033   7.154  0.3372 -1.1654 -0.6232
 5164SOL     OW26950   2.187   3.816   5.767  0.0697 -0.0816  0.1247
 5164SOL    HW126951   2.106   3.790   5.723 -0.2287 -1.9251  1.7386
 5164SOL    HW226952   2.164   3.901   5.803  0.3555  0.3184 -0.6430
 5165SOL     OW26953   0.334   3.751   3.667  0.2774  0.1646 -0.0898
 5165SOL    HW126954   0.315   3.750   3.761 -0.6441  1.3259 -0.2634
 5165SOL    HW226955   0.406   3.814   3.668 -0.4626  1.0147  0.2953
 5166SOL     OW26956   0.338   2.359   1.964 -0.4154  0.7803 -0.6087
 5166SOL    HW126957   0.304   2.440   1.926  0.1343  0.3898 -1.9207
 5166SOL    HW226958   0.261   2.328   2.012  0.4473  0.7032  0.7422
 5167SOL     OW26959   1.521   0.916   7.070 -0.0636 -0.1327 -0.1274
 5167SOL    HW126960   1.520   0.916   7.165  2.6916 -0.3083 -0.0978
 5167SOL    HW226961   1.487   1.001   7.042  2.6463  1.3077  0.9196
 5168SOL     OW26962   3.242   0.957   4.103  0.0225  0.1275  0.0079
 5168SOL    HW126963   3.170   0.965   4.040 -0.1642  0.0777  0.2162
 5168SOL    HW226964   3.237   1.045   4.142 -2.5011 -0.0549  0.0918
 5169SOL     OW26965   0.334   4.019   4.288  0.5213 -0.5230 -0.0025
 5169SOL    HW126966   0.404   4.066   4.243  0.4807  0.9841  1.4983
 5169SOL    HW226967   0.275   3.999   4.216  0.9526  2.3263 -1.1610
 5170SOL     OW26968   3.596   1.938   5.152  0.0989  0.4441 -0.1745
 5170SOL    HW126969   3.564   2.003   5.090 -0.9254  0.6160  0.5489
 5170SOL    HW226970   3.555   1.968   5.233 -1.8704 -1.2196 -0.5510
 5171SOL     OW26971   1.698   0.799  12.313 -0.0316 -0.4886 -0.0430
 5171SOL    HW126972   1.618   0.754  12.286 -1.3106  0.6174  1.8810
 5171SOL    HW226973   1.667   0.831  12.398 -0.1891 -2.9422  0.8174
 5172SOL     OW26974   3.671   2.505  16.776 -0.2974 -0.1432  0.1290
 5172SOL    HW126975   3.624   2.423  16.761  1.8522 -1.2858 -0.3312
 5172SOL    HW226976   3.663   2.512  16.872 -2.1095  0.6249 -0.0917
 5173SOL     OW26977   0.241   1.970   8.704  0.3711 -0.0442 -0.2775
 5173SOL    HW126978   0.206   2.059   8.716 -0.8936 -0.2035 -2.8630
 5173SOL    HW226979   0.194   1.942   8.626  0.9682  1.2681 -1.1075
 5174SOL     OW26980   1.116   4.251   4.815  0.1953  0.7476  0.3147
 5174SOL    HW126981   1.074   4.297   4.742  0.5767 -1.6818 -1.4202
 5174SOL    HW226982   1.197   4.228   4.770  0.8406  1.1080  1.2749
 5175SOL     OW26983   3.788   2.861   4.800  0.6896 -0.4256  0.4050
 5175SOL    HW126984   3.720   2.891   4.860  1.4952  1.3100  0.4487
 5175SOL    HW226985   3.779   2.921   4.726  0.8863  0.6641  1.2620
 5176SOL     OW26986   0.686   1.615   1.630 -0.0392  0.1859 -0.9033
 5176SOL    HW126987   0.748   1.661   1.574  1.3020  0.5886  0.9197
 5176SOL    HW226988   0.609   1.632   1.576  0.2303  0.2131 -1.2779
 5177SOL     OW26989   1.444   0.037  10.229 -0.5864 -0.4199 -0.1850
 5177SOL    HW126990   1.373   4.720  10.280 -0.3466  0.2650  0.6789
 5177SOL    HW226991   1.420   4.722  10.145  0.5280 -2.2092  0.3074
 5178SOL     OW26992   3.066   1.213   9.771 -0.1547  1.2399  0.1162
 5178SOL    HW126993   3.136   1.192   9.833 -0.0388  2.9428  0.5681
 5178SOL    HW226994   3.030   1.297   9.800 -0.3909  1.0310  0.4314
 5179SOL     OW26995   3.983   4.629   4.662  0.4470  0.4664 -0.3705
 5179SOL    HW126996   4.043   4.556   4.673  0.2501  0.2460 -0.7314
 5179SOL    HW226997   3.902   4.591   4.625  1.6394 -2.9604  0.5216
 5180SOL     OW26998   3.446   3.453   7.209  0.3908  0.2567  0.1046
 5180SOL    HW126999   3.416   3.418   7.125  1.0084  0.0750 -0.0408
 5180SOL    HW227000   3.489   3.530   7.170 -2.1647  0.6615 -1.8941
 5181SOL     OW27001   3.936   2.450  16.653 -0.2898 -0.1834 -0.0095
 5181SOL    HW127002   3.998   2.521  16.668  0.2577 -0.7413  0.4187
 5181SOL    HW227003   3.853   2.479  16.691 -0.5782  0.2274 -0.9575
 5182SOL     OW27004   1.643   1.228   1.327  0.2413 -0.1617 -0.1632
 5182SOL    HW127005   1.560   1.260   1.293 -0.0314  0.8803  1.4974
 5182SOL    HW227006   1.636   1.214   1.421  0.0328  3.6855  0.3899
 5183SOL     OW27007   2.404   2.519   8.964  0.1875 -0.1215 -0.1279
 5183SOL    HW127008   2.435   2.472   9.041  0.2489  2.8443  1.6654
 5183SOL    HW227009   2.376   2.603   9.001  0.7819  0.2908 -0.6157
 5184SOL     OW27010   2.367   2.335   7.033 -0.1653  0.3403  0.7109
 5184SOL    HW127011   2.301   2.403   7.043  0.1005  0.6043  0.6547
 5184SOL    HW227012   2.316   2.254   7.027  0.6296 -0.1370  0.4835
 5185SOL     OW27013   3.115   4.045  15.215 -0.1848 -0.2880 -0.1113
 5185SOL    HW127014   3.094   3.996  15.135 -1.0300  0.6109 -0.4367
 5185SOL    HW227015   3.038   4.033  15.271  1.4132  1.0946  2.4190
 5186SOL     OW27016   1.579   0.114  11.689 -0.2512  0.0354 -0.1430
 5186SOL    HW127017   1.633   0.067  11.625  0.4350  1.3870 -0.5490
 5186SOL    HW227018   1.636   0.185  11.717 -0.9005  0.1583  0.8630
 5187SOL     OW27019   3.858   4.438   5.341 -0.1428 -0.0342 -0.3746
 5187SOL    HW127020   3.898   4.463   5.257  0.3019  0.9363  0.1236
 5187SOL    HW227021   3.930   4.415   5.400 -0.7319  0.6818  0.6235
 5188SOL     OW27022   2.903   0.122   9.577  0.0652 -0.0514  0.1414
 5188SOL    HW127023   2.947   0.037   9.571 -1.0606 -0.6676  0.7174
 5188SOL    HW227024   2.812   0.092   9.581  0.5774 -1.3626  2.1359
 5189SOL     OW27025   3.935   3.824   4.994  0.3743 -0.2819  0.2642
 5189SOL    HW127026   3.920   3.867   4.910 -1.1253 -0.6945  0.3149
 5189SOL    HW227027   3.873   3.751   4.994 -0.1159  0.1158 -2.2989
 5190SOL     OW27028   4.520   1.617   5.531 -0.5217 -0.4125  0.0588
 5190SOL    HW127029   4.495   1.706   5.505  0.1031 -0.6520 -1.3492
 5190SOL    HW227030   4.477   1.578   5.455  1.8119  1.1415 -2.0375
 5191SOL     OW27031   0.696   4.067   7.042 -0.4746 -0.1991  0.6076
 5191SOL    HW127032   0.707   4.098   7.132  1.1465  0.4345  0.1946
 5191SOL    HW227033   0.637   3.993   7.058 -0.3285 -0.5207 -0.3320
 5192SOL     OW27034   4.564   1.245  11.607  0.3470 -0.3243  0.0084
 5192SOL    HW127035   4.623   1.172  11.626  0.6383 -0.5515 -1.8120
 5192SOL    HW227036   4.602   1.323  11.648 -1.2692  0.9582 -0.9266
 5193SOL     OW27037   2.801   2.274   4.390 -0.6387 -0.1838 -0.1285
 5193SOL    HW127038   2.867   2.316   4.335 -0.7001 -1.8000 -1.4288
 5193SOL    HW227039   2.848   2.195   4.417  1.3836  0.9444 -0.3375
 5194SOL     OW27040   4.088   2.127   4.288 -0.2851  0.0982  0.1373
 5194SOL    HW127041   4.148   2.195   4.257 -1.0076  0.2414 -0.9529
 5194SOL    HW227042   4.008   2.168   4.257 -0.2821  1.0200  1.3520
 5195SOL     OW27043   3.284   1.392   2.298  0.0534 -0.4221 -0.0182
 5195SOL    HW127044   3.293   1.487   2.297  0.7799 -0.5327 -2.6501
 5195SOL    HW227045   3.369   1.357   2.273  0.7673 -0.0019  1.8634
 5196SOL     OW27046   2.845   2.985  12.495 -0.1276 -0.1347 -0.1101
 5196SOL    HW127047   2.782   3.042  12.538  0.0697  0.0170 -0.0236
 5196SOL    HW227048   2.912   2.967  12.561 -1.1399 -3.2972  0.0599
 5197SOL     OW27049   1.999   3.136   3.960 -0.6652 -0.2967 -0.8061
 5197SOL    HW127050   1.912   3.119   3.925  0.0319  0.7518 -3.0954
 5197SOL    HW227051   1.981   3.218   4.006  1.3152  0.5479 -1.5265
 5198SOL     OW27052   0.301   4.600   0.610  0.3471 -0.1024 -0.0735
 5198SOL    HW127053   0.289   4.599   0.515 -2.2252 -3.0995  0.2830
 5198SOL    HW227054   0.393   4.573   0.616  0.8975  2.0805  1.4916
 5199SOL     OW27055   3.775   1.610  13.024 -0.2582 -0.1178 -0.5859
 5199SOL    HW127056   3.806   1.618  12.933  1.4184 -0.4929 -0.0410
 5199SOL    HW227057   3.845   1.648  13.076  0.5409 -2.1408 -0.1907
 5200SOL     OW27058   0.563   0.892   8.646 -0.2627  0.1798 -0.3538
 5200SOL    HW127059   0.652   0.918   8.671 -0.2164  0.7927 -1.1533
 5200SOL    HW227060   0.515   0.969   8.677  3.0464  2.0141  0.2453
 5201SOL     OW27061   4.038   2.935   0.546  0.2353  0.3756  0.3006
 5201SOL    HW127062   4.073   2.867   0.488  1.1330  0.0406  1.2298
 5201SOL    HW227063   3.988   2.875   0.601 -2.2632  0.7959 -1.5385
 5202SOL     OW27064   0.824   0.575  17.511 -0.3971 -0.3580 -0.5880
 5202SOL    HW127065   0.789   0.509  17.450  2.7990 -2.5430 -0.0556
 5202SOL    HW227066   0.766   0.647  17.486  0.5583  0.4189 -0.5477
 5203SOL     OW27067   0.898   3.136   8.584 -0.0584  0.2539  0.1315
 5203SOL    HW127068   0.862   3.213   8.629 -1.2819  0.4016 -1.0810
 5203SOL    HW227069   0.920   3.176   8.500  0.5169  0.3113  0.3136
 5204SOL     OW27070   2.751   4.627   6.007  0.1440 -0.1046 -0.3256
 5204SOL    HW127071   2.800   4.708   6.018  0.7556 -0.5546  0.2558
 5204SOL    HW227072   2.660   4.655   5.994  0.5023  1.2867  0.1833
 5205SOL     OW27073   3.215   4.487   3.885 -0.2754 -0.0275  0.0952
 5205SOL    HW127074   3.262   4.529   3.813  0.6430 -1.4642 -0.1396
 5205SOL    HW227075   3.277   4.424   3.920 -0.6891 -0.6381 -0.2669
 5206SOL     OW27076   0.332   2.005   3.407 -0.3071  0.0302 -0.2933
 5206SOL    HW127077   0.420   1.998   3.372  0.0891 -0.2451  0.7630
 5206SOL    HW227078   0.353   2.028   3.497 -0.5341 -0.6823 -0.0551
 5207SOL     OW27079   3.346   1.981  11.073 -0.0963 -0.0055 -0.1331
 5207SOL    HW127080   3.381   1.964  11.160 -0.0713  0.1268 -0.1177
 5207SOL    HW227081   3.371   2.073  11.070  0.1039 -0.1341 -2.3795
 5208SOL     OW27082   4.503   2.127  14.548  0.0450 -0.5425  0.3836
 5208SOL    HW127083   4.533   2.120  14.457  0.6345 -1.3507  0.6380
 5208SOL    HW227084   4.410   2.105  14.542  0.5288 -2.2820 -0.8215
 5209SOL     OW27085   3.236   0.774  14.318  0.3993 -0.0683 -0.1837
 5209SOL    HW127086   3.199   0.696  14.358  0.6732  0.1003  0.4035
 5209SOL    HW227087   3.329   0.781  14.342  0.4055 -0.2318 -0.1594
 5210SOL     OW27088   1.349   3.892  12.377 -0.5704  0.5350 -0.3057
 5210SOL    HW127089   1.387   3.975  12.405 -0.5613  0.5092 -0.2408
 5210SOL    HW227090   1.417   3.854  12.322  0.5794  3.3753 -0.8501
 5211SOL     OW27091   0.146   4.506  17.146 -0.6291  0.0638  0.7614
 5211SOL    HW127092   0.120   4.562  17.073 -0.1283  0.1451  0.6498
 5211SOL    HW227093   0.174   4.572  17.209 -1.4270  0.2225  0.9505
 5212SOL     OW27094   0.083   2.661   5.845 -0.3176 -0.2156 -0.0068
 5212SOL    HW127095   0.058   2.649   5.936 -1.4258 -0.5769 -0.3527
 5212SOL    HW227096   0.154   2.598   5.837 -2.7800 -2.7090 -2.1637
 5213SOL     OW27097   2.770   0.086   3.152  0.0296  0.0108 -0.9071
 5213SOL    HW127098   2.758   0.077   3.058  0.5826  1.9484 -1.1767
 5213SOL    HW227099   2.779   0.181   3.163 -1.7085  0.0367  0.1579
 5214SOL     OW27100   3.429   0.674   8.219 -0.2759  0.1103  0.6940
 5214SOL    HW127101   3.450   0.661   8.311  1.1306 -0.7238  0.2592
 5214SOL    HW227102   3.517   0.670   8.182 -0.9979 -1.1813 -0.9239
 5215SOL     OW27103   2.642   4.569   4.204 -0.0219  0.1604 -0.2141
 5215SOL    HW127104   2.718   4.570   4.262 -0.6894 -1.0287  0.6578
 5215SOL    HW227105   2.602   4.654   4.223 -0.4175 -0.1794  0.4466
 5216SOL     OW27106   3.805   3.775   4.172 -0.0594  0.2469  0.2631
 5216SOL    HW127107   3.874   3.718   4.208  0.3396 -0.1522 -1.1549
 5216SOL    HW227108   3.850   3.806   4.094 -1.5447  1.0730 -0.2682
 5217SOL     OW27109   0.553   1.471   3.378  0.0149 -0.9519  0.2319
 5217SOL    HW127110   0.514   1.488   3.291 -0.7537 -0.9715  0.5675
 5217SOL    HW227111   0.640   1.440   3.355  0.9736  2.1032 -0.2462
 5218SOL     OW27112   3.336   4.164   9.411 -0.0544 -0.0441  0.8843
 5218SOL    HW127113   3.272   4.233   9.423 -0.8176 -1.0338  2.5622
 5218SOL    HW227114   3.279   4.098   9.372 -2.1619  1.3198  1.6950
 5219SOL     OW27115   0.722   2.531   7.876 -0.3461  0.2338  0.2294
 5219SOL    HW127116   0.794   2.594   7.871 -0.1802  0.0735  0.5778
 5219SOL    HW227117   0.750   2.465   7.814 -1.4254  0.3389 -0.3676
 5220SOL     OW27118   1.823   0.557  17.491  0.3151  0.0924 -0.6973
 5220SOL    HW127119   1.836   0.503  17.413 -2.3881 -0.0350 -1.0571
 5220SOL    HW227120   1.911   0.555  17.530 -0.8848  0.4354  2.0525
 5221SOL     OW27121   3.224   0.485   2.675 -0.6743 -0.4315 -0.3334
 5221SOL    HW127122   3.232   0.534   2.757 -0.2537 -1.3980  0.2028
 5221SOL    HW227123   3.306   0.435   2.676 -0.3401  0.1258  0.5722
 5222SOL     OW27124   0.904   4.604   6.251 -0.3683  0.6391  0.0062
 5222SOL    HW127125   0.970   4.538   6.232 -1.2506 -0.7538  1.7637
 5222SOL    HW227126   0.884   4.589   6.343 -3.6559 -3.6993 -1.3843
 5223SOL     OW27127   1.726   4.038   4.476 -0.4555  0.2630  0.3114
 5223SOL    HW127128   1.761   4.126   4.460  1.5983 -0.6582 -0.2455
 5223SOL    HW227129   1.674   4.038   4.396 -1.0772 -1.4055  0.7220
 5224SOL     OW27130   1.466   2.081   9.149 -0.2927  0.5386  0.0955
 5224SOL    HW127131   1.496   2.033   9.226 -1.1108 -0.1654 -0.0230
 5224SOL    HW227132   1.416   2.156   9.180  0.3752  1.3658 -0.8457
 5225SOL     OW27133   0.272   0.098   3.294  0.4028  0.0554  0.5416
 5225SOL    HW127134   0.272   0.039   3.369  2.3491 -0.8835 -0.1957
 5225SOL    HW227135   0.192   0.150   3.299 -1.1850 -2.3306 -0.5641
 5226SOL     OW27136   2.578   0.800   4.194 -0.2538  0.3226  0.0032
 5226SOL    HW127137   2.589   0.895   4.195  0.0274  0.3040 -1.5916
 5226SOL    HW227138   2.563   0.775   4.285 -0.4606  1.1935  0.2094
 5227SOL     OW27139   0.862   1.167   7.217  0.2251 -0.4058  0.1171
 5227SOL    HW127140   0.797   1.147   7.150  1.6272 -1.5681 -0.8929
 5227SOL    HW227141   0.918   1.223   7.164 -1.3847 -0.8364 -2.0423
 5228SOL     OW27142   0.140   2.691   6.764  0.4088  0.4772  0.0955
 5228SOL    HW127143   0.080   2.747   6.813 -0.1773 -1.1155  1.2245
 5228SOL    HW227144   0.134   2.746   6.686  0.4531 -0.2680 -0.4354
 5229SOL     OW27145   3.735   1.805  12.165 -0.5813  0.0063  1.0027
 5229SOL    HW127146   3.677   1.764  12.102 -0.1025 -1.5429  1.5837
 5229SOL    HW227147   3.707   1.766  12.248  2.3415  0.8657  2.4123
 5230SOL     OW27148   2.851   2.175   8.672 -0.3075  0.0747 -0.5525
 5230SOL    HW127149   2.926   2.116   8.684 -0.8713 -0.4792  0.2440
 5230SOL    HW227150   2.889   2.261   8.687  0.7727 -0.6285  0.7746
 5231SOL     OW27151   3.933   4.403   4.368  0.0322 -0.1797 -0.2416
 5231SOL    HW127152   3.915   4.413   4.461  1.2774  0.2360 -0.0529
 5231SOL    HW227153   4.011   4.458   4.364 -3.1064  4.1788 -1.5375
 5232SOL     OW27154   1.597   3.865  11.284 -0.5970 -0.9649  0.4684
 5232SOL    HW127155   1.609   3.791  11.344 -1.5755 -0.9871  0.6271
 5232SOL    HW227156   1.548   3.930  11.333  0.3115  0.1290 -0.0832
 5233SOL     OW27157   0.952   0.189   1.813 -0.0296 -0.0967 -0.6581
 5233SOL    HW127158   1.038   0.147   1.807 -0.4018 -0.6387 -2.0634
 5233SOL    HW227159   0.968   0.242   1.891 -0.3659  1.3261 -1.5750
 5234SOL     OW27160   1.307   2.378  16.022  0.4296  0.0541  0.0913
 5234SOL    HW127161   1.322   2.472  16.014  2.6821 -0.3501 -0.3401
 5234SOL    HW227162   1.392   2.343  15.995  1.6734  1.6512  1.9080
 5235SOL     OW27163   1.697   2.088   1.955  0.1785 -0.6928  0.5130
 5235SOL    HW127164   1.607   2.117   1.975 -0.6521 -2.5396 -0.5452
 5235SOL    HW227165   1.710   2.043   2.038  1.6318 -0.8134  0.2073
 5236SOL     OW27166   3.338   3.968   3.576 -0.2647  0.6881  1.0855
 5236SOL    HW127167   3.275   3.952   3.647 -2.3228 -0.9060 -1.0947
 5236SOL    HW227168   3.415   3.931   3.619  0.3797 -1.9742 -2.3663
 5237SOL     OW27169   3.464   2.602  10.293  0.0256 -0.4083  0.2231
 5237SOL    HW127170   3.427   2.590  10.380 -0.0000  1.2189  0.4383
 5237SOL    HW227171   3.449   2.696  10.284 -2.4563 -0.6584  1.7663
 5238SOL     OW27172   3.389   1.111  10.702 -0.5253 -0.1217  0.1094
 5238SOL    HW127173   3.457   1.178  10.706 -0.8834  0.1014  2.5815
 5238SOL    HW227174   3.434   1.034  10.736  1.9721  0.9692 -0.7300
 5239SOL     OW27175   3.099   2.680   8.553 -0.4115  0.2004 -0.4746
 5239SOL    HW127176   3.098   2.770   8.520  0.1267 -0.2554 -1.6936
 5239SOL    HW227177   3.012   2.660   8.587 -0.0666  0.2637  0.4476
 5240SOL     OW27178   2.390   2.642  16.165  0.3682  0.0912 -0.1406
 5240SOL    HW127179   2.411   2.549  16.153 -0.3945 -0.0376 -0.4391
 5240SOL    HW227180   2.321   2.653  16.100 -0.4775  1.3406  0.9918
 5241SOL     OW27181   3.109   2.719  10.075  0.1157 -0.2139  0.3885
 5241SOL    HW127182   3.190   2.699  10.029 -0.9684 -0.2132 -1.4948
 5241SOL    HW227183   3.090   2.791  10.016 -0.8715 -0.5167  0.3434
 5242SOL     OW27184   1.653   4.587   2.501 -0.5026 -0.4673 -0.1560
 5242SOL    HW127185   1.564   4.602   2.532 -0.5626  4.9149 -2.8654
 5242SOL    HW227186   1.653   4.622   2.412 -0.1819 -1.9238 -0.7224
 5243SOL     OW27187   0.009   1.845   5.854  0.2767  0.1133 -0.3645
 5243SOL    HW127188   0.019   1.779   5.786 -0.8822  0.3538 -0.7625
 5243SOL    HW227189   4.676   1.798   5.914  0.7781  0.2478  0.2092
 5244SOL     OW27190   1.517   0.903   7.377 -0.3218  0.8805  0.2520
 5244SOL    HW127191   1.422   0.915   7.384 -0.4988  0.1670 -1.0029
 5244SOL    HW227192   1.517   0.836   7.445 -2.1577 -0.2816 -0.9042
 5245SOL     OW27193   1.226   2.266   7.099 -0.1242  0.0602  0.5850
 5245SOL    HW127194   1.211   2.280   7.005  1.8808  1.1025  0.4156
 5245SOL    HW227195   1.149   2.213   7.119  0.2896 -1.2262 -1.1374
 5246SOL     OW27196   3.449   0.808   4.072 -0.0411  0.4662  0.3954
 5246SOL    HW127197   3.375   0.866   4.088 -1.9828 -1.4674 -1.5373
 5246SOL    HW227198   3.439   0.777   3.982 -0.8966  2.1571 -0.0902
 5247SOL     OW27199   1.650   3.865   0.240 -0.8675 -0.2601  0.1643
 5247SOL    HW127200   1.634   3.809   0.316  2.2126 -0.5914  0.5570
 5247SOL    HW227201   1.564   3.857   0.198 -0.7523  0.6959 -0.2685
 5248SOL     OW27202   3.796   4.274   3.126  0.3327 -0.6175 -0.2190
 5248SOL    HW127203   3.709   4.262   3.088 -0.1803 -0.7229  0.9737
 5248SOL    HW227204   3.797   4.249   3.219 -1.6322 -1.5183 -0.4354
 5249SOL     OW27205   3.479   4.618  13.137  0.3622  0.1304 -0.0451
 5249SOL    HW127206   3.387   4.639  13.125  0.5617 -0.0263 -1.8727
 5249SOL    HW227207   3.519   4.676  13.202  0.0433 -0.8959  1.0575
 5250SOL     OW27208   4.700   1.674   7.185 -0.0311 -0.3668 -0.1653
 5250SOL    HW127209   4.684   1.634   7.270 -1.1613  0.4931  0.0263
 5250SOL    HW227210   4.652   1.753   7.210  0.4336 -0.1752  0.1073
 5251SOL     OW27211   4.115   2.425   1.981 -0.0636 -0.2048 -0.4776
 5251SOL    HW127212   4.109   2.419   1.885  1.5581  0.9145 -0.6507
 5251SOL    HW227213   4.198   2.470   1.995 -0.7534  1.0791 -0.5613
 5252SOL     OW27214   4.629   1.273  11.132  0.6260  0.0748  0.6483
 5252SOL    HW127215   4.677   1.341  11.180 -0.0379  0.8998  0.1393
 5252SOL    HW227216   4.682   1.197  11.158  0.5533  0.0967  0.8612
 5253SOL     OW27217   2.285   3.300   6.111  0.0407  0.0184  0.0073
 5253SOL    HW127218   2.326   3.294   6.197  0.0547 -0.4805 -0.0350
 5253SOL    HW227219   2.191   3.299   6.131 -0.3862  1.1087 -1.8526
 5254SOL     OW27220   1.007   3.856  13.039 -0.0265  0.2187  0.0497
 5254SOL    HW127221   1.049   3.942  13.035  1.1829 -0.5268 -3.8883
 5254SOL    HW227222   1.063   3.806  13.098  0.1789  0.4257  0.0322
 5255SOL     OW27223   2.886   3.895  15.477 -0.1277  0.4572 -0.3178
 5255SOL    HW127224   2.973   3.856  15.465 -0.2494 -0.3252  1.3236
 5255SOL    HW227225   2.853   3.829  15.539  1.1810  0.0599 -0.0215
 5256SOL     OW27226   1.662   1.891  12.234 -0.8319 -0.0337 -0.0929
 5256SOL    HW127227   1.690   1.902  12.325  0.4173  0.3665 -0.5202
 5256SOL    HW227228   1.730   1.948  12.198  0.3273 -0.8997  0.7308
 5257SOL     OW27229   2.261   4.085   7.924  0.2211  0.6836  0.3500
 5257SOL    HW127230   2.273   4.179   7.916  0.7966  0.5095 -0.8687
 5257SOL    HW227231   2.187   4.082   7.984 -1.7863 -0.4976 -2.1984
 5258SOL     OW27232   2.239   2.646   3.544  0.0177 -0.4506  0.1493
 5258SOL    HW127233   2.147   2.655   3.571 -0.0403  2.7731 -1.0461
 5258SOL    HW227234   2.276   2.644   3.632  1.0004 -0.3061 -0.2664
 5259SOL     OW27235   3.944   4.180   2.763 -0.0958 -0.5719 -0.7234
 5259SOL    HW127236   3.879   4.178   2.693  0.8868 -0.2507 -1.6466
 5259SOL    HW227237   3.907   4.118   2.826 -2.7356  2.5950  0.8530
 5260SOL     OW27238   0.192   4.478   6.489 -0.4442  0.4576  0.3268
 5260SOL    HW127239   0.172   4.567   6.460  0.9905  0.9867  0.9963
 5260SOL    HW227240   0.190   4.433   6.405 -0.2420  3.0031 -1.0236
 5261SOL     OW27241   1.374   1.726   3.395  0.1140 -0.3915 -0.4348
 5261SOL    HW127242   1.415   1.798   3.443  1.7906 -1.6093 -0.0492
 5261SOL    HW227243   1.416   1.741   3.310  2.1298 -2.3384  0.2348
 5262SOL     OW27244   2.150   2.111   3.980  0.1639  0.6897  0.0204
 5262SOL    HW127245   2.109   2.189   4.017 -2.1142  0.0799 -1.2012
 5262SOL    HW227246   2.076   2.078   3.929  1.1621  0.1630 -1.0692
 5263SOL     OW27247   4.703   3.448  14.134 -0.3856 -0.0920 -0.0338
 5263SOL    HW127248   4.687   3.389  14.207  2.3300  0.6446  1.1563
 5263SOL    HW227249   4.624   3.502  14.138 -0.5214 -0.3117  0.2561
 5264SOL     OW27250   2.908   3.801  11.151  0.0244  0.0334 -0.7085
 5264SOL    HW127251   2.972   3.870  11.132 -1.4191  0.8925 -2.4866
 5264SOL    HW227252   2.911   3.799  11.247 -0.3317  0.4057 -0.6874
 5265SOL     OW27253   0.091   0.074  15.744 -0.1554 -0.1879  0.3421
 5265SOL    HW127254   0.165   0.015  15.759 -0.2002 -1.0458 -2.7193
 5265SOL    HW227255   0.111   0.149  15.799  0.8490 -1.0590  1.1452
 5266SOL     OW27256   0.555   1.324  14.893 -0.0482 -0.6395  0.0316
 5266SOL    HW127257   0.490   1.351  14.958  0.1162  1.1309 -0.5374
 5266SOL    HW227258   0.638   1.316  14.940  1.4804 -0.9991 -2.6970
 5267SOL     OW27259   1.987   2.725   6.796 -0.1200 -0.0854  0.5273
 5267SOL    HW127260   2.010   2.632   6.798  1.5009  0.3435  1.1839
 5267SOL    HW227261   1.894   2.725   6.817  0.5572 -0.0233  3.5382
 5268SOL     OW27262   1.144   0.435   6.187  0.0089 -0.0050  0.4574
 5268SOL    HW127263   1.071   0.481   6.145 -0.4479  1.1336  2.4834
 5268SOL    HW227264   1.125   0.442   6.280 -0.9289 -0.7666  0.3221
 5269SOL     OW27265   0.693   3.523  16.657  0.0153 -0.4602  0.5733
 5269SOL    HW127266   0.628   3.587  16.627  1.2042 -0.3956 -1.7943
 5269SOL    HW227267   0.674   3.515  16.751 -2.4669  0.2202  0.1297
 5270SOL     OW27268   2.346   0.929   3.003 -0.0873 -0.6227  0.4806
 5270SOL    HW127269   2.333   0.839   2.973 -1.1930 -0.9763  2.0067
 5270SOL    HW227270   2.269   0.972   2.967  0.7162  0.1951 -0.2518
 5271SOL     OW27271   0.916   3.652   4.058  0.1126  0.2828  0.1215
 5271SOL    HW127272   0.991   3.706   4.082  0.4131  0.2434 -0.7120
 5271SOL    HW227273   0.868   3.699   3.990 -0.1622 -1.2452 -0.7537
 5272SOL     OW27274   1.472   0.711   7.589  0.5321  0.0713  0.2072
 5272SOL    HW127275   1.431   0.645   7.533 -2.0640  1.2331  0.7430
 5272SOL    HW227276   1.530   0.661   7.647 -0.3762  0.4434  1.4484
 5273SOL     OW27277   2.659   1.910   8.680  0.4438 -0.3300  0.2531
 5273SOL    HW127278   2.678   1.909   8.587  0.6897  1.5521  0.2697
 5273SOL    HW227279   2.683   1.998   8.710 -1.7410  0.6533 -0.9334
 5274SOL     OW27280   3.819   0.299   3.822 -0.1616 -0.4685  0.3479
 5274SOL    HW127281   3.908   0.303   3.788 -0.7462 -0.2186 -1.1343
 5274SOL    HW227282   3.786   0.212   3.801  1.1030 -0.7394 -0.4871
 5275SOL     OW27283   0.822   0.800   6.104 -0.0443 -0.3420 -0.0689
 5275SOL    HW127284   0.728   0.797   6.082 -0.2841 -3.6236  1.2864
 5275SOL    HW227285   0.832   0.895   6.098  0.3821 -0.5772 -2.9930
 5276SOL     OW27286   0.988   4.534   6.939 -0.0262 -0.2809  0.1823
 5276SOL    HW127287   1.049   4.594   6.895  1.8022 -0.9238  1.8525
 5276SOL    HW227288   1.028   4.447   6.936 -1.0253 -0.7360  0.2106
 5277SOL     OW27289   0.930   0.288   1.557 -0.0919  0.2076 -0.1984
 5277SOL    HW127290   0.842   0.302   1.522 -1.4454 -0.3214  3.0009
 5277SOL    HW227291   0.907   0.255   1.644  0.1369  1.4333  0.3179
 5278SOL     OW27292   2.434   0.165   9.570  0.5985  0.3211 -0.0003
 5278SOL    HW127293   2.395   0.247   9.599 -0.0888  0.6437 -1.8181
 5278SOL    HW227294   2.362   0.103   9.560  1.5239 -1.0690  1.9904
 5279SOL     OW27295   1.382   0.444   4.101 -0.3798 -0.0551  0.2418
 5279SOL    HW127296   1.306   0.490   4.066 -1.2527 -0.6968  1.2696
 5279SOL    HW227297   1.447   0.504   4.065  0.3303 -1.8844 -1.5165
 5280SOL     OW27298   2.199   4.394   3.603  0.4421  0.0536 -0.3866
 5280SOL    HW127299   2.148   4.344   3.540  0.3339 -2.2636  1.5577
 5280SOL    HW227300   2.170   4.477   3.564  0.6080  0.7934  1.0798
 5281SOL     OW27301   2.303   0.896   1.108  0.4685 -0.1545 -0.2170
 5281SOL    HW127302   2.237   0.830   1.128  0.2500  0.7849  2.1715
 5281SOL    HW227303   2.279   0.966   1.169 -0.7156  1.2363 -2.2602
 5282SOL     OW27304   0.272   2.357  16.086  0.3336 -0.1203 -0.1993
 5282SOL    HW127305   0.304   2.269  16.066 -0.0100 -0.7136  1.8611
 5282SOL    HW227306   0.256   2.339  16.179  0.6844 -0.6300 -0.2404
 5283SOL     OW27307   1.052   1.806   1.939 -0.5516  0.5717 -0.4817
 5283SOL    HW127308   0.997   1.738   1.901 -0.1605  0.2717 -0.5123
 5283SOL    HW227309   1.014   1.889   1.911 -1.3632  0.8967  1.5977
 5284SOL     OW27310   4.650   4.121  16.032 -0.8622 -0.1918  0.3559
 5284SOL    HW127311   4.587   4.103  15.963  0.4312 -2.7084 -0.1671
 5284SOL    HW227312   4.650   4.217  16.027  1.2509 -0.1770  0.6317
 5285SOL     OW27313   1.619   1.370   0.252  0.1626  0.2930  0.2939
 5285SOL    HW127314   1.676   1.294   0.242 -1.6236 -0.9632 -0.2716
 5285SOL    HW227315   1.666   1.422   0.319 -0.6035 -0.0328  1.0790
 5286SOL     OW27316   0.206   1.373   6.649 -0.0227 -0.6143  0.1113
 5286SOL    HW127317   0.199   1.437   6.719  2.3844  0.0592 -0.2403
 5286SOL    HW227318   0.297   1.342   6.652  0.8074  1.8355  0.3910
 5287SOL     OW27319   2.189   3.498  14.707 -0.8501 -0.0100 -0.4524
 5287SOL    HW127320   2.178   3.456  14.621 -5.9593  1.3302 -0.5065
 5287SOL    HW227321   2.213   3.419  14.755  1.1521  1.1205  0.3894
 5288SOL     OW27322   1.758   1.746   4.232  0.0496 -0.6188  0.1231
 5288SOL    HW127323   1.809   1.777   4.307  0.6397  1.5952 -1.2019
 5288SOL    HW227324   1.723   1.832   4.209 -0.3964 -0.9239 -0.3360
 5289SOL     OW27325   4.606   2.037   3.088 -0.0783  0.0439 -0.3517
 5289SOL    HW127326   4.690   2.001   3.117  0.2082  2.0114  1.3510
 5289SOL    HW227327   4.598   2.012   2.997 -1.3765 -0.0248 -0.2148
 5290SOL     OW27328   2.448   0.803   2.166 -0.1949 -0.0386  0.6046
 5290SOL    HW127329   2.379   0.737   2.164 -0.5869  0.4463 -1.9737
 5290SOL    HW227330   2.477   0.799   2.257 -0.4293  3.0315  0.8127
 5291SOL     OW27331   3.156   4.020   5.287 -0.6826 -0.1025  0.2305
 5291SOL    HW127332   3.164   4.080   5.360  1.1212  1.5526 -1.3372
 5291SOL    HW227333   3.165   3.930   5.319 -1.2977  0.1022  0.9831
 5292SOL     OW27334   3.900   3.643   2.967  0.3028 -0.4859  0.8400
 5292SOL    HW127335   3.868   3.559   2.998  0.5470 -0.8643  0.0605
 5292SOL    HW227336   3.942   3.604   2.890 -3.3624  0.6623 -1.7549
 5293SOL     OW27337   2.752   1.054   6.570  0.3028  0.3723  0.0308
 5293SOL    HW127338   2.781   1.143   6.591  0.2231  0.6611 -1.0522
 5293SOL    HW227339   2.659   1.063   6.587 -0.0086 -4.5435  1.0358
 5294SOL     OW27340   3.496   0.971   3.605  0.2409  0.1042  0.1576
 5294SOL    HW127341   3.571   0.978   3.546 -0.1319  1.3722 -0.1764
 5294SOL    HW227342   3.545   0.992   3.685 -0.9455  1.3380  0.5694
 5295SOL     OW27343   1.852   0.987  15.832 -0.3229 -0.1790  0.1215
 5295SOL    HW127344   1.830   0.907  15.785  4.3988  0.6997 -3.5810
 5295SOL    HW227345   1.937   1.014  15.797 -0.4480 -0.2057 -0.2018
 5296SOL     OW27346   1.937   1.892   6.954 -0.1927 -0.1201  0.0055
 5296SOL    HW127347   1.865   1.829   6.951  0.4906 -0.9251  0.6325
 5296SOL    HW227348   1.916   1.958   6.888  2.2369  0.9968  0.3400
 5297SOL     OW27349   3.859   3.370  11.839  0.5504 -0.9099 -0.3952
 5297SOL    HW127350   3.923   3.434  11.871 -1.1014  0.0623  1.0382
 5297SOL    HW227351   3.803   3.358  11.916 -1.1486 -0.6346 -1.5632
 5298SOL     OW27352   2.023   4.670   1.905  0.1776  0.0782 -0.0734
 5298SOL    HW127353   1.985   4.717   1.979 -0.5634  0.8100 -0.9120
 5298SOL    HW227354   1.996   4.715   1.825 -2.0692 -0.1815  0.5434
 5299SOL     OW27355   0.788   4.102   0.872 -0.4673 -0.2710 -0.3466
 5299SOL    HW127356   0.775   4.171   0.938 -0.7699  0.2962 -1.0026
 5299SOL    HW227357   0.868   4.062   0.907 -0.7399 -1.5017 -1.1415
 5300SOL     OW27358   0.476   1.522   1.006 -0.3709 -0.7901  0.7603
 5300SOL    HW127359   0.570   1.534   1.001 -0.6170  1.0168  0.5885
 5300SOL    HW227360   0.465   1.430   1.032 -0.6692 -1.2408 -0.9625
 5301SOL     OW27361   0.135   2.476  16.516  0.1912 -0.1475  0.1868
 5301SOL    HW127362   0.171   2.554  16.475  1.9280 -1.5099 -0.9137
 5301SOL    HW227363   0.052   2.509  16.549  0.2215 -0.5635  0.6857
 5302SOL     OW27364   0.555   3.017   6.135 -0.2063  0.0059 -0.0695
 5302SOL    HW127365   0.591   2.930   6.153 -1.5254 -0.7836 -1.2564
 5302SOL    HW227366   0.487   3.018   6.202  1.3293  0.3118  1.4660
 5303SOL     OW27367   2.874   4.033   1.785 -0.3540 -0.6096  0.2976
 5303SOL    HW127368   2.899   4.108   1.839  2.4975 -0.4621 -1.2724
 5303SOL    HW227369   2.781   4.030   1.809 -0.2060  0.9445  1.0529
 5304SOL     OW27370   0.560   1.259   1.481  0.9031  0.2151  0.0000
 5304SOL    HW127371   0.522   1.313   1.550  0.8237  0.2884 -0.0992
 5304SOL    HW227372   0.652   1.255   1.505  1.8447 -0.4448 -3.6367
 5305SOL     OW27373   0.544   3.924   3.649 -0.0411 -0.1094 -0.4759
 5305SOL    HW127374   0.553   4.019   3.646  0.1244 -0.1265 -0.5066
 5305SOL    HW227375   0.586   3.900   3.567  1.4623 -2.1470  0.8897
 5306SOL     OW27376   3.500   3.872  15.006 -0.4013  0.3137  0.6146
 5306SOL    HW127377   3.560   3.912  14.943 -1.0553 -0.2997 -0.4203
 5306SOL    HW227378   3.462   3.948  15.050 -1.6309 -0.9419  1.7348
 5307SOL     OW27379   1.949   1.667   3.076  0.6941 -0.0041 -0.2782
 5307SOL    HW127380   1.881   1.734   3.082  1.4425  0.7489 -0.2464
 5307SOL    HW227381   2.018   1.710   3.128  1.4616 -1.3857 -0.1559
 5308SOL     OW27382   3.533   0.798   7.924  0.1593  0.1697  0.1429
 5308SOL    HW127383   3.561   0.707   7.935  0.8227  0.5604  1.7237
 5308SOL    HW227384   3.617   0.833   7.895 -0.7354  1.9098 -0.2990
 5309SOL     OW27385   4.201   3.492   5.719 -0.4507 -0.4649  0.3385
 5309SOL    HW127386   4.264   3.562   5.735 -0.3479 -0.8198  1.5114
 5309SOL    HW227387   4.203   3.452   5.806  0.1092  0.3892  0.7120
 5310SOL     OW27388   0.426   2.458   9.910 -0.2109 -0.4791 -0.6738
 5310SOL    HW127389   0.332   2.470   9.917 -0.1852 -0.1936 -0.8301
 5310SOL    HW227390   0.454   2.371   9.883 -0.7406 -0.2320 -1.9713
 5311SOL     OW27391   3.329   2.073  10.568  0.0398 -0.0804 -0.2151
 5311SOL    HW127392   3.252   2.088  10.622 -0.2937 -1.7120 -0.2457
 5311SOL    HW227393   3.376   2.157  10.575  3.0816 -1.7622 -0.3922
 5312SOL     OW27394   1.440   0.562   4.814 -0.1069 -0.1412 -0.2985
 5312SOL    HW127395   1.351   0.581   4.844 -0.4196  1.2553 -2.1586
 5312SOL    HW227396   1.458   0.624   4.744  0.1046 -1.0078 -1.0124
 5313SOL     OW27397   3.831   0.846   4.024  0.4207  0.4354 -0.1366
 5313SOL    HW127398   3.925   0.850   4.008  0.4856 -1.1536 -0.1136
 5313SOL    HW227399   3.820   0.913   4.092 -1.1857  0.8659 -0.8214
 5314SOL     OW27400   1.731   0.457   7.628  0.4118  0.3613  0.2245
 5314SOL    HW127401   1.806   0.426   7.678 -0.3419 -3.2191 -0.8474
 5314SOL    HW227402   1.694   0.515   7.695 -4.2402 -1.3111 -0.8686
 5315SOL     OW27403   3.651   3.772   2.960  0.0355 -0.2792 -0.3306
 5315SOL    HW127404   3.734   3.726   2.973  0.9473  1.1521 -1.1306
 5315SOL    HW227405   3.608   3.728   2.887  2.0456 -0.9597 -1.1033
 5316SOL     OW27406   3.961   1.941   1.002  0.5126 -0.1908  0.0486
 5316SOL    HW127407   3.867   1.949   0.983  0.1673 -0.1507  1.7921
 5316SOL    HW227408   3.986   2.032   0.984  0.5464 -0.4297 -1.1367
 5317SOL     OW27409   4.372   0.011  14.701 -0.5972 -0.0276 -0.1563
 5317SOL    HW127410   4.393   4.679  14.776 -1.9512  1.7822  1.5587
 5317SOL    HW227411   4.450   0.004  14.646 -1.1592 -2.8280 -0.5949
 5318SOL     OW27412   4.494   1.425   5.300  0.1296  0.4413  0.4709
 5318SOL    HW127413   4.508   1.362   5.372 -0.0774 -2.1751 -1.7854
 5318SOL    HW227414   4.530   1.375   5.227 -1.5171  0.1095 -0.1070
 5319SOL     OW27415   2.642   3.361   1.200  0.4458 -0.3438  0.7184
 5319SOL    HW127416   2.691   3.442   1.217 -0.5319  0.7736 -1.7674
 5319SOL    HW227417   2.660   3.311   1.279 -0.9335 -4.5884 -1.6388
 5320SOL     OW27418   4.533   3.451   5.126 -0.6968 -0.1691  0.1146
 5320SOL    HW127419   4.557   3.404   5.206  0.6343 -0.9385 -0.7387
 5320SOL    HW227420   4.538   3.380   5.062  0.9867  0.2603 -0.2397
 5321SOL     OW27421   1.286   1.626   0.960 -0.0928 -0.0954 -0.4798
 5321SOL    HW127422   1.357   1.620   0.896 -0.0026  1.1628 -0.5029
 5321SOL    HW227423   1.267   1.719   0.951 -0.5422 -0.1366  0.0576
 5322SOL     OW27424   2.844   2.969   0.094  0.0352 -0.3458  0.2702
 5322SOL    HW127425   2.811   2.951   0.182 -1.4101  2.3696  0.3027
 5322SOL    HW227426   2.926   2.921   0.099  0.1553 -0.1833 -0.1644
 5323SOL     OW27427   0.640   0.421   0.834  0.4168  0.0566  0.2808
 5323SOL    HW127428   0.573   0.480   0.869  0.6981  1.1184 -0.9694
 5323SOL    HW227429   0.667   0.371   0.912 -0.0982 -1.5700 -0.5963
 5324SOL     OW27430   3.759   0.475  17.000  0.8872 -0.0779  0.0372
 5324SOL    HW127431   3.759   0.402  16.938 -0.7051  1.0023 -1.2123
 5324SOL    HW227432   3.783   0.422  17.076 -2.1357  2.6252  2.8691
 5325SOL     OW27433   2.127   4.437   6.653  0.0185  0.4779 -0.8253
 5325SOL    HW127434   2.095   4.442   6.743  0.5089  1.3166 -0.6950
 5325SOL    HW227435   2.209   4.484   6.667  0.2439 -0.2058  0.1460
 5326SOL     OW27436   0.163   1.897   1.865  0.5849 -0.1857 -0.5173
 5326SOL    HW127437   0.115   1.898   1.782 -0.2415 -0.6790 -0.0517
 5326SOL    HW227438   0.207   1.982   1.860  2.7678 -1.3144 -0.4741
 5327SOL     OW27439   0.521   4.655   2.970 -0.3815 -0.0871 -0.6795
 5327SOL    HW127440   0.440   4.674   3.018  1.3320 -0.4103  2.3692
 5327SOL    HW227441   0.515   4.559   2.976 -0.5558 -0.0668 -0.5108
 5328SOL     OW27442   3.467   3.104   3.167 -0.6906 -0.2027  0.1902
 5328SOL    HW127443   3.505   3.131   3.251 -2.7648 -0.2708  1.1518
 5328SOL    HW227444   3.545   3.110   3.112 -2.7771 -0.4693 -2.7551
 5329SOL     OW27445   2.001   3.651   2.907 -0.5879 -0.0528 -0.2619
 5329SOL    HW127446   1.970   3.640   2.817  1.6462  2.2981 -1.2993
 5329SOL    HW227447   1.914   3.656   2.946 -0.9298 -0.5753 -0.9412
 5330SOL     OW27448   1.695   1.404   8.581 -0.0217  0.1676  0.1419
 5330SOL    HW127449   1.675   1.312   8.567  0.2679  0.0875  0.2630
 5330SOL    HW227450   1.776   1.412   8.531 -0.0174  0.4985  0.2002
 5331SOL     OW27451   1.779   3.276  11.639  0.0566  0.3133  0.5943
 5331SOL    HW127452   1.859   3.258  11.590  1.1140  1.8670  1.7622
 5331SOL    HW227453   1.735   3.192  11.626  1.0727 -0.0682 -0.3883
 5332SOL     OW27454   3.150   1.936   9.560 -0.3126  1.0878  0.7333
 5332SOL    HW127455   3.205   1.897   9.628  0.1008  0.1137 -0.1785
 5332SOL    HW227456   3.060   1.919   9.589 -0.2498  0.3417  0.4682
 5333SOL     OW27457   0.844   0.014   6.033  0.2615 -0.3311 -0.2662
 5333SOL    HW127458   0.844   0.058   6.118 -1.4724 -3.4406  1.3525
 5333SOL    HW227459   0.854   4.648   6.066 -4.1502 -0.1577  1.5371
 5334SOL     OW27460   3.630   4.541  10.884 -0.0146  0.5558  0.4884
 5334SOL    HW127461   3.638   4.447  10.899  1.4303  0.2111 -2.4375
 5334SOL    HW227462   3.606   4.541  10.792  0.2486 -1.1632  0.4293
 5335SOL     OW27463   0.298   4.334   7.208 -0.1841 -0.0011  0.3218
 5335SOL    HW127464   0.226   4.369   7.156  2.5731  0.9513 -2.8582
 5335SOL    HW227465   0.377   4.375   7.172  0.8465 -2.0289  0.2367
 5336SOL     OW27466   1.234   4.721   4.383  0.0452  0.1467 -0.4660
 5336SOL    HW127467   1.209   0.088   4.401 -0.6068 -0.3955  1.3031
 5336SOL    HW227468   1.229   4.681   4.469 -0.2326 -2.6838 -1.7876
 5337SOL     OW27469   0.287   2.543   8.922 -0.1411  0.6866  0.5363
 5337SOL    HW127470   0.265   2.628   8.884  1.0118  1.1709  0.9723
 5337SOL    HW227471   0.202   2.528   8.964  0.1760  0.5184  1.1162
 5338SOL     OW27472   4.061   1.601  17.228 -0.0190 -0.0562  0.2861
 5338SOL    HW127473   4.078   1.654  17.151 -0.6334 -2.2394 -1.3453
 5338SOL    HW227474   4.037   1.671  17.289 -0.5524 -0.7208  0.8373
 5339SOL     OW27475   0.085   2.702   9.479 -0.3353  0.5387  0.1076
 5339SOL    HW127476   0.111   2.788   9.448 -2.8045  1.4545  0.6096
 5339SOL    HW227477   0.006   2.724   9.528  0.0118 -2.9152  2.2305
 5340SOL     OW27478   3.352   3.578  12.750 -0.1122  0.6796 -0.5792
 5340SOL    HW127479   3.440   3.614  12.765 -0.4876  0.6352  1.8616
 5340SOL    HW227480   3.351   3.577  12.655  2.2501 -0.2697 -0.5914
 5341SOL     OW27481   3.226   1.214   8.557 -0.2271 -0.2367 -0.5427
 5341SOL    HW127482   3.280   1.234   8.480 -0.1922 -0.2400 -0.5190
 5341SOL    HW227483   3.157   1.277   8.539  0.6142  1.0389  0.6278
 5342SOL     OW27484   1.088   4.123  12.192 -0.5157 -0.0064 -0.1709
 5342SOL    HW127485   1.177   4.106  12.162  0.1170 -0.0863  1.7507
 5342SOL    HW227486   1.093   4.087  12.280 -3.0483  0.9724  0.3865
 5343SOL     OW27487   2.117   1.057   2.909 -0.0026 -0.0963 -0.1564
 5343SOL    HW127488   2.047   0.992   2.917  1.5333 -1.5830  1.4113
 5343SOL    HW227489   2.102   1.080   2.817 -0.7269 -1.6118 -0.4190
 5344SOL     OW27490   2.094   4.429   8.962  0.4822  0.5660  0.5938
 5344SOL    HW127491   2.081   4.343   9.004 -1.4744 -0.2979 -1.7643
 5344SOL    HW227492   2.151   4.403   8.889  0.0393  1.1492  0.0504
 5345SOL     OW27493   0.791   1.486   8.976  0.8439 -0.3914 -0.0913
 5345SOL    HW127494   0.819   1.416   8.917 -2.6462 -2.9525  1.2066
 5345SOL    HW227495   0.859   1.481   9.043  1.5932 -0.4458 -0.8565
 5346SOL     OW27496   0.144   0.573   7.891 -0.2936 -0.6455 -0.1808
 5346SOL    HW127497   0.070   0.541   7.943  0.5958 -0.7308  1.0138
 5346SOL    HW227498   0.124   0.667   7.899  0.9779 -0.2015 -2.0635
 5347SOL     OW27499   1.398   4.128  17.032 -0.5478 -0.4936 -0.3908
 5347SOL    HW127500   1.462   4.123  16.960  1.2569 -2.5442  1.3595
 5347SOL    HW227501   1.341   4.054  17.013  0.1303 -1.1395  0.0813
 5348SOL     OW27502   0.403   0.926   7.812 -0.0528 -0.3990 -0.2857
 5348SOL    HW127503   0.398   0.987   7.886  0.4891  0.6964 -1.1506
 5348SOL    HW227504   0.466   0.969   7.754 -2.2105  0.7958 -1.7458
 5349SOL     OW27505   1.981   4.321  16.486 -0.4848 -0.3590 -0.4171
 5349SOL    HW127506   1.996   4.231  16.513  0.7838 -0.2161 -0.6392
 5349SOL    HW227507   1.980   4.300  16.393 -0.4354  2.2209 -1.0050
 5350SOL     OW27508   4.721   3.606   2.710 -0.6595  0.5425 -0.8200
 5350SOL    HW127509   4.705   3.515   2.686 -1.8227  0.3637  0.7171
 5350SOL    HW227510   4.632   3.639   2.717 -0.6062  0.2526  1.1814
 5351SOL     OW27511   0.893   3.680   4.702  0.1495  0.3258 -0.0247
 5351SOL    HW127512   0.929   3.604   4.655 -0.7054 -1.5741  2.3646
 5351SOL    HW227513   0.951   3.671   4.777  0.2960 -1.6835 -0.3563
 5352SOL     OW27514   1.565   4.029   8.269  0.7886 -0.1838  0.3012
 5352SOL    HW127515   1.473   4.034   8.296  0.2079 -0.5705 -1.5435
 5352SOL    HW227516   1.585   4.120   8.249 -1.2459 -0.0171 -1.0506
 5353SOL     OW27517   3.758   4.651   4.352 -0.4805 -0.2263  0.5293
 5353SOL    HW127518   3.717   4.569   4.379  0.3457 -1.4353 -1.8418
 5353SOL    HW227519   3.731   4.708   4.424  0.5723  0.4214  0.4185
 5354SOL     OW27520   2.633   1.068   8.688 -0.0717  0.1714  0.4716
 5354SOL    HW127521   2.657   1.022   8.769  0.5159 -0.3199  0.0204
 5354SOL    HW227522   2.539   1.073   8.704 -0.6906 -2.4211 -2.2754
 5355SOL     OW27523   0.271   2.980   7.601  0.4917 -0.0575  0.4479
 5355SOL    HW127524   0.285   3.072   7.622  1.5907  0.4227 -2.3058
 5355SOL    HW227525   0.359   2.963   7.568  0.7195  1.5572  0.2083
 5356SOL     OW27526   2.082   2.803  11.029  0.2855  1.6364 -0.5217
 5356SOL    HW127527   2.151   2.788  11.094 -1.5929  1.5641  1.4543
 5356SOL    HW227528   2.014   2.736  11.032  1.6372  0.1862 -1.6342
 5357SOL     OW27529   2.632   2.496   4.426 -0.5909 -0.1557  0.3010
 5357SOL    HW127530   2.681   2.566   4.383  0.2792 -1.1234 -0.2467
 5357SOL    HW227531   2.697   2.426   4.434  0.0774  0.3129 -1.1843
 5358SOL     OW27532   3.411   3.634   3.935  0.0591 -0.2853  0.2090
 5358SOL    HW127533   3.435   3.582   4.011  2.2352  1.1534  0.4997
 5358SOL    HW227534   3.411   3.568   3.865  1.9171  0.2268 -0.2485
 5359SOL     OW27535   3.202   1.512   6.272 -0.2473 -0.6621 -0.5019
 5359SOL    HW127536   3.183   1.482   6.183  0.0837  1.2826 -1.2345
 5359SOL    HW227537   3.163   1.599   6.275 -2.9216 -1.9609  1.5050
 5360SOL     OW27538   0.636   3.811   3.908 -0.5987 -0.4857 -0.6649
 5360SOL    HW127539   0.618   3.721   3.879  1.1770 -1.5545  1.5312
 5360SOL    HW227540   0.610   3.866   3.834 -0.4672  1.2289  0.5551
 5361SOL     OW27541   3.743   1.554   6.827  0.3194  0.1483  0.0093
 5361SOL    HW127542   3.663   1.603   6.810  0.0016 -0.6783 -0.9200
 5361SOL    HW227543   3.779   1.584   6.910 -0.0061  1.8330 -0.4672
 5362SOL     OW27544   3.160   2.038   2.725 -0.8997 -0.2829 -0.0029
 5362SOL    HW127545   3.256   2.033   2.719 -0.7805 -0.0755  1.7625
 5362SOL    HW227546   3.148   2.103   2.794  0.1527 -0.1400  0.0497
 5363SOL     OW27547   2.312   2.233   5.351  0.3764  0.8471  0.0203
 5363SOL    HW127548   2.277   2.188   5.274  1.1824 -0.9032  0.6783
 5363SOL    HW227549   2.244   2.216   5.415  1.0751 -0.1179  0.5092
 5364SOL     OW27550   4.672   1.219  17.605 -0.5857 -0.2785 -0.0284
 5364SOL    HW127551   4.636   1.307  17.595 -0.5591 -0.0807  1.6027
 5364SOL    HW227552   0.041   1.245  17.598 -0.5752  0.0370  1.2566
 5365SOL     OW27553   2.822   1.289   7.738  0.2130  0.3428  0.1158
 5365SOL    HW127554   2.876   1.313   7.663 -1.8783 -0.5873 -1.6916
 5365SOL    HW227555   2.774   1.211   7.712 -2.6519  1.7008  1.3066
 5366SOL     OW27556   1.562   1.504   4.786 -0.0278 -0.0007  0.6289
 5366SOL    HW127557   1.652   1.473   4.781  0.0050 -0.2904  2.8358
 5366SOL    HW227558   1.566   1.590   4.744  4.7655 -2.2027 -3.3191
 5367SOL     OW27559   0.372   1.112   3.386 -0.0823  0.1300  0.6987
 5367SOL    HW127560   0.466   1.121   3.374 -0.3372  0.4022 -1.0604
 5367SOL    HW227561   0.366   1.164   3.466  2.0249 -0.7233  1.4172
 5368SOL     OW27562   2.749   0.075  11.967 -0.2978 -0.0806 -0.2026
 5368SOL    HW127563   2.731   0.164  11.935  0.5264  0.4337  0.7808
 5368SOL    HW227564   2.660   0.049  11.992 -0.8885  0.9877 -1.1706
 5369SOL     OW27565   3.533   1.156   7.151  0.2949 -0.1172  0.8096
 5369SOL    HW127566   3.614   1.122   7.113  1.6568  2.0730  1.7299
 5369SOL    HW227567   3.536   1.118   7.239 -1.9103 -0.2498  0.8075
 5370SOL     OW27568   2.856   0.825  10.176 -0.6251  0.1012  0.0842
 5370SOL    HW127569   2.919   0.850  10.108  0.3812 -1.5301  0.4109
 5370SOL    HW227570   2.776   0.860  10.137 -2.5132 -1.9758  2.1279
 5371SOL     OW27571   1.817   2.369   5.293  0.4746  0.1347 -0.8064
 5371SOL    HW127572   1.757   2.297   5.315 -1.3787  1.3347 -1.9816
 5371SOL    HW227573   1.752   2.434   5.319  1.0633  0.0729  0.8362
 5372SOL     OW27574   3.563   2.557   2.588 -0.1006  0.0016 -0.1476
 5372SOL    HW127575   3.575   2.543   2.495 -2.6029  0.9181 -0.6124
 5372SOL    HW227576   3.474   2.592   2.588 -0.1285 -0.0639 -1.9653
 5373SOL     OW27577   0.050   2.978   2.831 -0.1462 -0.0308 -0.3022
 5373SOL    HW127578   4.714   3.039   2.786 -1.1229 -1.0342 -0.3747
 5373SOL    HW227579   4.711   2.908   2.847 -0.1751  0.1583  0.4164
 5374SOL     OW27580   0.638   1.619   5.973 -0.3017  0.1533 -0.4231
 5374SOL    HW127581   0.691   1.580   5.903 -0.7619 -2.9134  0.9391
 5374SOL    HW227582   0.629   1.713   5.958  0.5594 -0.0186 -2.0257
 5375SOL     OW27583   1.097   2.456   5.238  0.1951  0.1476 -0.8494
 5375SOL    HW127584   1.037   2.474   5.165 -0.4352  1.4463 -0.0180
 5375SOL    HW227585   1.183   2.483   5.205  1.2067  0.5264  2.1539
 5376SOL     OW27586   4.631   0.677   1.781  0.4963  0.6131  0.5030
 5376SOL    HW127587   4.656   0.739   1.849 -0.7230  0.6893  0.8844
 5376SOL    HW227588   4.687   0.702   1.708  0.7884 -0.5597  0.3177
 5377SOL     OW27589   4.449   0.972  14.828 -0.1279  0.2470  0.4344
 5377SOL    HW127590   4.353   0.972  14.826 -0.0933 -1.0194 -1.0087
 5377SOL    HW227591   4.476   0.940  14.914  0.8257  2.1663  0.8488
 5378SOL     OW27592   2.272   2.339   8.402 -0.0175 -0.5748  0.3207
 5378SOL    HW127593   2.345   2.388   8.365 -0.6822  1.8936  2.2909
 5378SOL    HW227594   2.202   2.404   8.411 -0.0085 -0.4027 -0.8463
 5379SOL     OW27595   3.894   1.633  11.997  0.1052  0.1456 -0.2883
 5379SOL    HW127596   3.933   1.712  12.035 -0.6832 -0.0407  0.9038
 5379SOL    HW227597   3.803   1.661  11.990 -0.2663 -0.2271  3.1689
 5380SOL     OW27598   4.122   3.955   9.944  0.1204  0.3888 -0.5453
 5380SOL    HW127599   4.153   3.921  10.028 -1.1956  1.7388  0.4800
 5380SOL    HW227600   4.175   4.034   9.936  0.6980 -0.0496 -1.0192
 5381SOL     OW27601   1.398   0.252   2.053  0.2625  0.1478  0.1699
 5381SOL    HW127602   1.456   0.324   2.074 -0.9208  1.8720 -2.4995
 5381SOL    HW227603   1.452   0.203   1.991  1.3303  0.6564  0.7010
 5382SOL     OW27604   0.781   1.414   3.222  0.1939  0.1084  0.6748
 5382SOL    HW127605   0.812   1.383   3.137  2.3177 -0.0175  1.4813
 5382SOL    HW227606   0.793   1.508   3.210  1.3554 -0.2156 -0.6559
 5383SOL     OW27607   0.547   1.825   9.040  0.7631 -0.4285 -0.2973
 5383SOL    HW127608   0.625   1.877   9.024  0.6302  0.2463  1.2470
 5383SOL    HW227609   0.504   1.831   8.954  0.7017  1.1775 -0.1460
 5384SOL     OW27610   0.566   2.193   3.046  0.4958 -0.1219 -0.2154
 5384SOL    HW127611   0.480   2.156   3.024  0.5914 -1.6593  2.0661
 5384SOL    HW227612   0.608   2.225   2.966 -1.2635  0.9882 -0.6936
 5385SOL     OW27613   1.739   4.290   4.375  0.2494 -0.3028 -0.2469
 5385SOL    HW127614   1.768   4.358   4.436 -0.9184  1.2099 -1.3764
 5385SOL    HW227615   1.667   4.338   4.336  1.3367  1.7759  0.2808
 5386SOL     OW27616   1.720   1.436  15.365  0.3740 -0.0216 -0.6693
 5386SOL    HW127617   1.717   1.479  15.450 -0.5260  1.5116 -1.4922
 5386SOL    HW227618   1.781   1.503  15.333 -1.7544  1.6342 -1.2039
 5387SOL     OW27619   3.199   3.879   4.463  0.7306  0.6303 -0.0318
 5387SOL    HW127620   3.285   3.875   4.422 -0.1901 -1.3027 -1.7541
 5387SOL    HW227621   3.155   3.956   4.427 -0.9113 -0.0473  0.5329
 5388SOL     OW27622   4.471   1.256   3.194 -0.3155 -0.0993  0.0398
 5388SOL    HW127623   4.469   1.239   3.288  0.5501 -2.3348 -0.3655
 5388SOL    HW227624   4.416   1.335   3.189 -0.2275  0.0244  1.0540
 5389SOL     OW27625   1.188   3.249   3.708 -0.2849  0.1687 -0.1334
 5389SOL    HW127626   1.127   3.217   3.641  0.9208  0.1100 -1.1964
 5389SOL    HW227627   1.260   3.274   3.650  2.3759  2.8158  4.3062
 5390SOL     OW27628   0.444   4.294  17.219  0.0771  0.0227  0.1235
 5390SOL    HW127629   0.425   4.374  17.267 -1.0135  0.0040 -0.2829
 5390SOL    HW227630   0.365   4.279  17.166 -0.2101  0.0375  0.5474
 5391SOL     OW27631   2.703   2.091   3.451 -0.0086  0.0961  0.2855
 5391SOL    HW127632   2.655   2.011   3.470 -2.6893  2.2258  2.4611
 5391SOL    HW227633   2.698   2.131   3.538  0.4765 -0.1275  0.4206
 5392SOL     OW27634   3.171   2.669   4.111  0.4004  0.7908  0.3310
 5392SOL    HW127635   3.076   2.679   4.114  0.2950 -0.2104  0.2622
 5392SOL    HW227636   3.190   2.674   4.017 -0.8404  0.2015  0.0554
 5393SOL     OW27637   2.296   1.316   2.034  0.4418  0.0500 -0.2754
 5393SOL    HW127638   2.342   1.246   2.079  1.1404  0.1714 -0.8090
 5393SOL    HW227639   2.322   1.392   2.086 -0.7674  1.5475 -1.8564
 5394SOL     OW27640   0.637   1.412  14.038  0.4562  0.3179 -0.3183
 5394SOL    HW127641   0.560   1.358  14.056  0.5627  0.1875 -0.2615
 5394SOL    HW227642   0.702   1.344  14.027  0.0329  0.3738 -3.1773
 5395SOL     OW27643   4.048   4.300   7.836  0.0334 -0.7749  0.0536
 5395SOL    HW127644   4.067   4.348   7.916  1.4618 -3.2534  1.1814
 5395SOL    HW227645   4.114   4.344   7.782  0.1606  0.4867  1.2370
 5396SOL     OW27646   0.480   2.260   2.607  0.2038 -0.4573 -0.1723
 5396SOL    HW127647   0.480   2.349   2.643  0.1187  0.3967 -2.2450
 5396SOL    HW227648   0.452   2.273   2.516 -2.0890 -0.5144  0.5137
 5397SOL     OW27649   1.200   0.739  13.736 -0.0315  0.8657 -0.5614
 5397SOL    HW127650   1.210   0.667  13.799  0.1760  1.0279 -0.4087
 5397SOL    HW227651   1.244   0.713  13.656  0.5119  0.4625 -0.1262
 5398SOL     OW27652   4.638   2.289   9.130 -0.4581  0.0939 -0.2535
 5398SOL    HW127653   4.558   2.285   9.183 -0.1395 -2.3030  0.0686
 5398SOL    HW227654   4.621   2.226   9.060  0.9594  0.9221 -1.3369
 5399SOL     OW27655   1.650   4.512  13.979 -0.6140 -0.0275  0.0980
 5399SOL    HW127656   1.607   4.459  13.912 -1.4470 -0.0250  0.6344
 5399SOL    HW227657   1.742   4.513  13.953 -0.1235 -1.6019  1.7004
 5400SOL     OW27658   0.939   4.130   7.866 -0.2619 -0.0124 -0.1069
 5400SOL    HW127659   0.933   4.038   7.841  0.5418  0.4625 -1.9892
 5400SOL    HW227660   0.888   4.176   7.800 -0.4226  1.4211  1.0121
 5401SOL     OW27661   2.986   4.623   5.690 -0.1369  0.3357  0.1548
 5401SOL    HW127662   3.058   4.635   5.752  0.0067 -3.8271  0.8272
 5401SOL    HW227663   2.998   4.697   5.630  2.5174 -0.2103 -0.0135
 5402SOL     OW27664   0.890   1.341   1.136  0.0894 -0.3027  0.2693
 5402SOL    HW127665   0.915   1.390   1.214 -1.0271 -1.8502  1.5897
 5402SOL    HW227666   0.972   1.358   1.089 -0.6075  1.2269 -0.4009
 5403SOL     OW27667   0.147   2.967   9.404  0.1269  0.4458 -0.0206
 5403SOL    HW127668   0.203   2.977   9.481  1.2427 -0.3220 -0.7391
 5403SOL    HW227669   0.077   3.031   9.420  0.0657 -0.0087  1.4985
 5404SOL     OW27670   2.739   3.818   4.882  0.4710  0.1082 -0.4465
 5404SOL    HW127671   2.660   3.784   4.925  0.0748  0.9982 -0.4852
 5404SOL    HW227672   2.732   3.801   4.788 -1.4771 -0.2037 -0.2323
 5405SOL     OW27673   1.610   1.793  14.833 -0.1136 -0.7542 -0.1944
 5405SOL    HW127674   1.567   1.766  14.751 -1.3858 -2.7181  1.1281
 5405SOL    HW227675   1.641   1.875  14.794  0.0486  0.0863  1.6984
 5406SOL     OW27676   3.094   3.339   2.170 -0.0210  0.1175 -0.1783
 5406SOL    HW127677   3.100   3.286   2.091 -0.2391 -0.7881  0.4179
 5406SOL    HW227678   3.048   3.419   2.142  0.5872  0.1808 -0.9613
 5407SOL     OW27679   1.685   0.162  14.995 -0.3838 -0.5248  0.6205
 5407SOL    HW127680   1.701   0.160  14.901 -3.7484  2.4197  0.0008
 5407SOL    HW227681   1.755   0.107  15.031  1.9135  1.9022 -0.1624
 5408SOL     OW27682   2.114   0.561   5.486  0.2113 -0.7636 -0.7724
 5408SOL    HW127683   2.162   0.644   5.482  1.8813 -1.7226 -0.6001
 5408SOL    HW227684   2.174   0.504   5.437  0.9995  0.0779 -0.7838
 5409SOL     OW27685   1.316   1.143   8.226 -0.0925 -0.3155 -0.0493
 5409SOL    HW127686   1.336   1.196   8.302 -1.8249  0.6137 -0.2442
 5409SOL    HW227687   1.225   1.171   8.217  0.4093  1.3977  0.2316
 5410SOL     OW27688   2.857   1.844   6.545  0.1691 -0.2480 -0.3578
 5410SOL    HW127689   2.868   1.832   6.640 -0.2289 -0.8517 -0.3869
 5410SOL    HW227690   2.925   1.905   6.518  0.5630  0.7109  2.8043
 5411SOL     OW27691   3.877   1.946   5.107  0.1622 -0.2317 -0.1154
 5411SOL    HW127692   3.786   1.923   5.124  0.1514 -1.1810 -1.4026
 5411SOL    HW227693   3.886   2.010   5.177  1.0119 -1.6010  1.0291
 5412SOL     OW27694   3.750   3.983   9.768  0.1798  0.4052 -0.1497
 5412SOL    HW127695   3.718   3.981   9.678 -1.9537  1.1657  0.6120
 5412SOL    HW227696   3.673   3.974   9.824  0.0642 -0.6141 -0.4715
 5413SOL     OW27697   0.864   0.547  17.125 -0.0716 -0.6136 -0.0985
 5413SOL    HW127698   0.785   0.494  17.117 -0.7821  0.2223  1.4265
 5413SOL    HW227699   0.931   0.480  17.140 -0.1635 -0.6138  0.3078
 5414SOL     OW27700   0.865   4.289   6.146  0.0826  0.1912 -0.2246
 5414SOL    HW127701   0.886   4.236   6.223  2.5500 -0.0409 -1.0459
 5414SOL    HW227702   0.796   4.346   6.179  1.8851  1.9653  0.4548
 5415SOL     OW27703   1.121   2.304   4.943  0.0798  0.0912 -0.1821
 5415SOL    HW127704   1.152   2.240   4.878 -0.7122 -0.0564 -0.4090
 5415SOL    HW227705   1.118   2.243   5.017 -0.8313 -0.5330 -0.7314
 5416SOL     OW27706   2.713   2.474   4.138 -0.3066 -0.0459 -0.1570
 5416SOL    HW127707   2.632   2.438   4.174  0.5615 -1.5512  0.3123
 5416SOL    HW227708   2.684   2.522   4.060 -0.0900  2.2705  1.1925
 5417SOL     OW27709   3.188   4.226   5.496  0.3437  0.2058 -0.5612
 5417SOL    HW127710   3.117   4.289   5.501  0.2912  0.1428 -0.5139
 5417SOL    HW227711   3.220   4.226   5.586 -0.8326 -1.3835 -0.1373
 5418SOL     OW27712   4.091   0.089   4.821  0.3072 -0.3998  0.8312
 5418SOL    HW127713   4.040   0.037   4.758 -1.2281 -1.1845  2.7269
 5418SOL    HW227714   4.046   0.172   4.811  1.9785  0.2269 -1.7437
 5419SOL     OW27715   3.803   3.412   0.893  0.7629  0.5539  0.1146
 5419SOL    HW127716   3.781   3.457   0.975 -1.6272  0.0491 -0.2459
 5419SOL    HW227717   3.861   3.342   0.923 -0.0517 -0.6796 -1.1715
 5420SOL     OW27718   3.696   0.766   2.248 -0.2487  0.7124  0.0148
 5420SOL    HW127719   3.735   0.785   2.334  0.9208  0.0615 -0.3756
 5420SOL    HW227720   3.755   0.817   2.193 -0.0331  1.0594  0.5732
 5421SOL     OW27721   3.937   0.317   6.119 -0.0579 -0.5086  0.0177
 5421SOL    HW127722   3.859   0.308   6.065 -0.5990  2.1331  0.3360
 5421SOL    HW227723   3.913   0.382   6.185  1.6903  2.8853 -2.6895
 5422SOL     OW27724   2.334   0.637   7.348 -0.3777 -0.0535 -0.0117
 5422SOL    HW127725   2.391   0.592   7.285  0.5659 -1.6706  1.9779
 5422SOL    HW227726   2.323   0.563   7.407  0.2564 -0.0411  0.1234
 5423SOL     OW27727   2.607   1.877  10.438 -0.5244  0.3334 -0.2624
 5423SOL    HW127728   2.700   1.899  10.435 -0.1701 -1.3509 -1.3932
 5423SOL    HW227729   2.576   1.965  10.462 -0.2544  0.3124  0.1681
 5424SOL     OW27730   3.563   1.603  12.074 -0.3165  0.6069 -0.6290
 5424SOL    HW127731   3.493   1.568  12.018 -0.1657 -1.7783  0.6407
 5424SOL    HW227732   3.587   1.518  12.111 -0.6681  1.1700  0.8867
 5425SOL     OW27733   0.120   1.251   0.604 -0.3270 -0.7078  0.0979
 5425SOL    HW127734   0.061   1.297   0.544  1.9307  1.1564 -0.6794
 5425SOL    HW227735   0.103   1.298   0.686  0.4905 -0.6486  0.2295
 5426SOL     OW27736   4.105   3.093   3.899 -0.1584 -0.0613  0.5775
 5426SOL    HW127737   4.174   3.151   3.932  0.1675 -0.8018  1.1680
 5426SOL    HW227738   4.091   3.028   3.968 -1.3818 -0.2913  0.1078
 5427SOL     OW27739   3.619   2.987  10.622  0.2529 -0.2613 -0.4527
 5427SOL    HW127740   3.635   3.055  10.557 -1.2764  0.7136  0.1858
 5427SOL    HW227741   3.530   2.971  10.591  0.0704 -0.8610  0.4022
 5428SOL     OW27742   3.240   2.768   5.840 -1.0968  0.2488  0.0662
 5428SOL    HW127743   3.155   2.742   5.877  0.3539 -1.5157  2.1851
 5428SOL    HW227744   3.279   2.788   5.925 -1.2212  1.1519 -0.0914
 5429SOL     OW27745   3.572   2.132   6.322 -0.0402 -1.6307  0.3867
 5429SOL    HW127746   3.651   2.086   6.353  0.7866  0.0829  0.7956
 5429SOL    HW227747   3.603   2.174   6.242 -1.3233 -0.3518  0.5811
 5430SOL     OW27748   4.217   0.364   6.067 -0.0192 -0.1188  0.3034
 5430SOL    HW127749   4.128   0.331   6.081 -0.1644  0.9210  1.8409
 5430SOL    HW227750   4.264   0.333   6.144 -0.5208  0.5558  0.8747
 5431SOL     OW27751   0.422   1.676   3.519  0.2194  0.0967 -0.4029
 5431SOL    HW127752   0.463   1.607   3.468  0.6668  0.4594 -0.5324
 5431SOL    HW227753   0.328   1.660   3.513  0.4599 -1.3128 -0.3081
 5432SOL     OW27754   3.730   4.497   2.393  0.3491  0.4900  0.2204
 5432SOL    HW127755   3.711   4.565   2.457 -1.5596  0.3842 -0.2519
 5432SOL    HW227756   3.819   4.526   2.373  0.8271 -1.1347 -0.0491
 5433SOL     OW27757   3.927   0.624   6.238  0.1002  0.0053  0.0473
 5433SOL    HW127758   3.851   0.583   6.279  0.7737 -1.0158  0.2775
 5433SOL    HW227759   3.896   0.715   6.234  0.0226 -0.0143  0.2000
 5434SOL     OW27760   1.082   1.832   9.640  0.0026 -0.5862 -0.1401
 5434SOL    HW127761   1.134   1.815   9.561  1.4181  1.5862  0.3238
 5434SOL    HW227762   1.000   1.807   9.597  0.8196 -0.9582 -1.4884
 5435SOL     OW27763   2.199   0.483   4.703 -0.1089 -0.3088 -0.5685
 5435SOL    HW127764   2.182   0.500   4.611 -0.9290  3.4067  0.2816
 5435SOL    HW227765   2.255   0.406   4.712  1.4514  0.6179 -2.7199
 5436SOL     OW27766   2.179   3.931  17.360  0.5684  0.3767 -0.2143
 5436SOL    HW127767   2.222   3.874  17.296 -2.4960 -0.4031 -1.6196
 5436SOL    HW227768   2.154   3.859  17.418  0.0487 -0.8886 -2.0124
 5437SOL     OW27769   4.196   2.677   8.840  0.4904 -0.0959  0.3178
 5437SOL    HW127770   4.278   2.694   8.887  0.8627 -2.7614  0.6558
 5437SOL    HW227771   4.126   2.682   8.906 -1.0769  0.6169 -1.4250
 5438SOL     OW27772   2.601   3.943   7.437  0.0494  0.2766 -0.4871
 5438SOL    HW127773   2.659   4.011   7.471  1.8004 -0.8013 -1.3291
 5438SOL    HW227774   2.526   3.992   7.404  0.7939  1.3481 -0.5929
 5439SOL     OW27775   3.250   0.217  11.278 -0.1750 -0.3095 -0.3732
 5439SOL    HW127776   3.216   0.148  11.222 -1.5679  0.9391 -1.0656
 5439SOL    HW227777   3.234   0.296  11.226 -2.3643 -0.9063 -0.6027
 5440SOL     OW27778   3.999   1.544   4.673  1.1318  0.3641 -0.0883
 5440SOL    HW127779   4.015   1.631   4.709 -0.9852  1.0678 -0.8499
 5440SOL    HW227780   3.908   1.561   4.646  0.3705 -0.2113  2.0566
 5441SOL     OW27781   4.319   3.009   3.638 -0.1787  0.1409 -0.3884
 5441SOL    HW127782   4.237   2.984   3.680 -0.3747  1.6436  0.1170
 5441SOL    HW227783   4.357   2.923   3.620  0.3712  0.2663  0.1323
 5442SOL     OW27784   4.299   3.068   4.209  0.5453  0.0213 -0.7418
 5442SOL    HW127785   4.286   3.156   4.172 -1.7472  0.3654  0.8879
 5442SOL    HW227786   4.215   3.028   4.186  0.9292 -1.1612 -0.0760
 5443SOL     OW27787   0.231   3.133   5.799  0.4861  0.5862  0.9337
 5443SOL    HW127788   0.146   3.099   5.773  0.9705  2.9814 -3.7728
 5443SOL    HW227789   0.297   3.066   5.778 -2.0381 -1.9471  1.1119
 5444SOL     OW27790   3.628   2.236   7.131 -0.1318  0.2053  0.3063
 5444SOL    HW127791   3.693   2.303   7.110 -0.7712  0.1741 -1.7023
 5444SOL    HW227792   3.617   2.187   7.049  2.3571  0.7920 -0.3682
 5445SOL     OW27793   3.571   4.303  17.459  0.0022  0.5241 -0.3651
 5445SOL    HW127794   3.519   4.236  17.502  2.0053  1.5547  3.6267
 5445SOL    HW227795   3.591   4.354  17.538  1.1423 -0.2122 -0.1938
 5446SOL     OW27796   2.091   0.945  10.217 -0.0413 -0.0223 -0.1632
 5446SOL    HW127797   2.128   1.030  10.242  0.9282 -0.2544 -0.8095
 5446SOL    HW227798   2.168   0.890  10.234  0.6258  0.2382 -2.4131
 5447SOL     OW27799   2.641   2.512   8.797  0.1647 -0.3631 -0.0431
 5447SOL    HW127800   2.634   2.430   8.844 -1.8669  0.3569  0.8948
 5447SOL    HW227801   2.547   2.514   8.778 -0.0822 -0.8584  1.1466
 5448SOL     OW27802   4.332   4.203   7.654 -0.0196 -0.3756  0.3336
 5448SOL    HW127803   4.357   4.116   7.682 -1.1896 -0.0248  2.4608
 5448SOL    HW227804   4.350   4.265   7.725  0.9502  1.6381 -1.6636
 5449SOL     OW27805   1.456   0.026   7.363 -0.0636 -0.3355  0.0876
 5449SOL    HW127806   1.539   4.702   7.362 -0.5027 -1.1096 -0.1645
 5449SOL    HW227807   1.428   0.023   7.271  1.6166 -1.9921 -0.3778
 5450SOL     OW27808   1.817   0.352   0.742  0.6139  0.5749 -0.2101
 5450SOL    HW127809   1.866   0.384   0.666  0.5500 -1.9222 -1.2794
 5450SOL    HW227810   1.802   0.259   0.729 -0.6204  0.6015  0.9449
 5451SOL     OW27811   0.988   2.029   7.921  0.3717  0.3470 -0.2407
 5451SOL    HW127812   1.022   2.068   7.840 -0.2227  3.2419  0.8933
 5451SOL    HW227813   0.931   2.104   7.938  0.0608  0.0911 -0.1378
 5452SOL     OW27814   1.788   0.344   0.291 -0.0639 -0.0380 -0.5979
 5452SOL    HW127815   1.750   0.338   0.203 -2.9593  0.5600  0.6289
 5452SOL    HW227816   1.715   0.323   0.349  0.9169  1.0766  1.0531
 5453SOL     OW27817   3.678   4.664  13.345 -0.3354  0.2526 -0.1736
 5453SOL    HW127818   3.759   4.676  13.296 -0.0327 -0.2654  0.2136
 5453SOL    HW227819   3.661   4.570  13.346  2.9102 -0.3307 -0.8328
 5454SOL     OW27820   3.684   0.456  17.327  0.1531  0.6293  0.6685
 5454SOL    HW127821   3.602   0.501  17.345 -0.7404  0.0195 -1.7231
 5454SOL    HW227822   3.746   0.528  17.323 -0.6643  1.2243 -1.4242
 5455SOL     OW27823   0.966   1.646   2.907 -0.5021 -0.3077  0.3877
 5455SOL    HW127824   0.982   1.725   2.958 -1.1477 -0.1560  0.3627
 5455SOL    HW227825   0.971   1.581   2.977 -0.7417 -1.1592 -0.3899
 5456SOL     OW27826   2.373   1.912  13.384 -0.3319 -0.1590 -0.8239
 5456SOL    HW127827   2.343   1.991  13.340 -1.7370  0.3326  1.0532
 5456SOL    HW227828   2.445   1.950  13.434 -2.0738  0.7279  0.9745
 5457SOL     OW27829   0.004   0.581   7.080  0.7958 -0.3005  1.3187
 5457SOL    HW127830   0.029   0.504   7.029  1.7638  0.0938  1.1899
 5457SOL    HW227831   4.657   0.554   7.139  0.8110  0.8355  1.8515
 5458SOL     OW27832   4.595   0.906   5.787 -0.2367 -0.3215  0.0476
 5458SOL    HW127833   4.538   0.978   5.761 -0.2422  0.4865  2.3113
 5458SOL    HW227834   4.619   0.930   5.877 -0.8581  0.2728  0.0496
 5459SOL     OW27835   1.703   3.125   1.742  0.7329  1.0398 -0.3051
 5459SOL    HW127836   1.775   3.186   1.757 -1.0882  2.8118  1.3723
 5459SOL    HW227837   1.640   3.172   1.687 -1.7142  0.4413  1.9986
 5460SOL     OW27838   2.179   4.210   4.120  0.2579  0.4748 -0.8628
 5460SOL    HW127839   2.153   4.225   4.211 -0.7107 -0.9634 -0.8971
 5460SOL    HW227840   2.127   4.285   4.091 -2.4462 -0.3828  1.7637
 5461SOL     OW27841   2.964   4.608   9.279  0.1362 -0.7134 -0.2551
 5461SOL    HW127842   2.973   4.626   9.372 -3.0853 -2.0923  0.3002
 5461SOL    HW227843   3.026   4.666   9.234  0.1505 -0.9309 -0.5125
 5462SOL     OW27844   2.312   0.215  14.966 -0.5853  0.4954 -0.3326
 5462SOL    HW127845   2.321   0.174  14.880 -0.7995 -1.7999  0.7527
 5462SOL    HW227846   2.376   0.162  15.014  0.7090  1.9221 -0.4811
 5463SOL     OW27847   3.820   3.856   3.477 -0.1848 -0.1789  0.0201
 5463SOL    HW127848   3.750   3.911   3.443  0.7136  1.4460  0.8102
 5463SOL    HW227849   3.844   3.797   3.405  0.1102  0.1075 -0.1185
 5464SOL     OW27850   1.637   3.030  11.617  0.1140  0.1573  0.0532
 5464SOL    HW127851   1.584   3.039  11.538  1.8294 -3.9569 -1.5976
 5464SOL    HW227852   1.581   2.968  11.663  0.0603  0.3932  0.3030
 5465SOL     OW27853   4.174   1.168   5.850  0.1645  0.3676  0.5346
 5465SOL    HW127854   4.161   1.262   5.857  0.6210  0.6194 -2.3515
 5465SOL    HW227855   4.087   1.131   5.838  0.5264 -0.8840  1.7294
 5466SOL     OW27856   4.550   3.491   3.086  0.3552 -0.0461 -0.2235
 5466SOL    HW127857   4.610   3.417   3.079 -0.9687 -1.1773  0.2906
 5466SOL    HW227858   4.487   3.447   3.144  0.0006 -0.4855 -0.9348
 5467SOL     OW27859   1.016   0.600  13.414  0.1842  0.1831 -0.2212
 5467SOL    HW127860   1.091   0.554  13.454 -0.4923  0.0920  0.9502
 5467SOL    HW227861   0.977   0.636  13.494 -1.6229  0.1709 -1.1145
 5468SOL     OW27862   1.615   1.416  14.851  0.3971 -0.4301  0.5190
 5468SOL    HW127863   1.623   1.323  14.871  0.7614 -0.5783 -0.3171
 5468SOL    HW227864   1.519   1.414  14.850  0.4165 -1.5303 -0.8270
 5469SOL     OW27865   2.128   2.573   6.144  0.5528  0.7823 -0.4189
 5469SOL    HW127866   2.117   2.528   6.227 -0.3591 -0.7242 -1.3632
 5469SOL    HW227867   2.162   2.504   6.087  1.1753  0.5148  0.2718
 5470SOL     OW27868   4.126   3.703   2.066  0.3541  0.6927  0.0447
 5470SOL    HW127869   4.166   3.642   2.128 -0.8774 -0.3153 -0.1312
 5470SOL    HW227870   4.035   3.697   2.096  0.3707 -0.5478 -0.1517
 5471SOL     OW27871   0.437   1.074   4.891  0.2373 -0.0676 -0.8010
 5471SOL    HW127872   0.376   1.063   4.817 -0.9464 -2.0257  0.4707
 5471SOL    HW227873   0.414   1.018   4.965 -1.4696 -1.1915 -2.1631
 5472SOL     OW27874   2.988   3.820   3.961 -0.2190 -0.4569 -0.3399
 5472SOL    HW127875   3.028   3.753   4.016 -0.4396  0.3266  0.7588
 5472SOL    HW227876   2.907   3.841   4.007 -0.1182 -0.9280  0.0494
 5473SOL     OW27877   0.112   2.286   8.098 -0.1312  0.3999  0.2116
 5473SOL    HW127878   0.199   2.311   8.128  0.2273  0.1596 -0.6551
 5473SOL    HW227879   0.117   2.208   8.044  0.9363 -0.0585  0.9815
 5474SOL     OW27880   0.068   0.693   6.665  0.4759 -0.4001 -0.7037
 5474SOL    HW127881   0.146   0.735   6.701 -1.1244  1.5129  0.5709
 5474SOL    HW227882   0.054   0.752   6.591 -0.4581 -0.5028 -0.6036
 5475SOL     OW27883   3.855   1.036   5.681 -0.0295 -0.1585 -0.5435
 5475SOL    HW127884   3.870   1.052   5.588 -0.6417 -0.9366 -0.7793
 5475SOL    HW227885   3.772   0.988   5.680  0.1332 -0.5049  1.7333
 5476SOL     OW27886   0.962   1.853  11.618 -0.4585 -0.3599 -0.0925
 5476SOL    HW127887   1.028   1.809  11.673 -1.3431 -0.2329  1.0600
 5476SOL    HW227888   1.013   1.919  11.572 -1.6782 -0.2639 -1.2632
 5477SOL     OW27889   3.376   0.603   2.076  0.7080 -0.4768  0.2533
 5477SOL    HW127890   3.416   0.571   2.156 -0.1244 -1.9514  0.0840
 5477SOL    HW227891   3.334   0.682   2.111  1.3971  0.4918 -1.1134
 5478SOL     OW27892   2.507   0.007   0.215  0.2420  0.4289  0.0828
 5478SOL    HW127893   2.557   0.055   0.149  0.0066  0.1233 -0.3174
 5478SOL    HW227894   2.428   0.061   0.207 -0.4436 -0.1487  2.8361
 5479SOL     OW27895   0.409   3.199   8.286  0.0825  0.2231 -0.0066
 5479SOL    HW127896   0.428   3.280   8.333 -0.6269 -1.0131  2.3821
 5479SOL    HW227897   0.359   3.157   8.356 -0.8215  1.4824  0.1003
 5480SOL     OW27898   3.989   0.133  11.007  0.0110 -0.0222 -0.4597
 5480SOL    HW127899   3.922   0.200  11.014  1.1777  1.1502 -0.5512
 5480SOL    HW227900   4.028   0.132  11.094  0.2160  2.3219 -0.5256
 5481SOL     OW27901   0.269   0.070   7.744  0.0732  0.4428 -0.0824
 5481SOL    HW127902   0.279   0.160   7.775  0.4767  0.1038  0.7648
 5481SOL    HW227903   0.177   0.074   7.717  0.2298  0.2268 -0.6528
 5482SOL     OW27904   1.784   1.468   4.312  0.5234  0.4959  0.0883
 5482SOL    HW127905   1.716   1.525   4.348 -0.7216 -0.2564 -1.0712
 5482SOL    HW227906   1.821   1.538   4.258  0.0633 -0.3143 -1.2876
 5483SOL     OW27907   4.066   1.191   8.643  0.0799  0.8496 -0.0074
 5483SOL    HW127908   4.079   1.286   8.642  0.7647  0.7368 -1.6468
 5483SOL    HW227909   3.982   1.197   8.689  0.5375  2.0767  0.6422
 5484SOL     OW27910   1.660   2.309   2.256  0.2255 -0.2669 -0.0483
 5484SOL    HW127911   1.698   2.317   2.344 -0.7021  2.0456  0.1445
 5484SOL    HW227912   1.682   2.219   2.235 -0.0057 -0.9686  2.7052
 5485SOL     OW27913   4.250   1.061   8.179  0.5477  0.5100 -0.4292
 5485SOL    HW127914   4.306   1.139   8.179  1.7709 -0.3706  1.0731
 5485SOL    HW227915   4.309   0.988   8.160 -2.0334 -1.1658 -1.9372
 5486SOL     OW27916   4.161   0.131   1.896 -0.1012  0.4700  0.1296
 5486SOL    HW127917   4.155   0.226   1.889 -2.4917  0.2725 -0.7021
 5486SOL    HW227918   4.255   0.117   1.908  0.2060  1.5770 -1.0145
 5487SOL     OW27919   2.953   1.949  14.648 -0.5402 -0.2743 -0.0676
 5487SOL    HW127920   2.892   1.877  14.632 -1.1564  0.3045 -0.3266
 5487SOL    HW227921   2.902   2.029  14.663  1.3410  0.9471 -0.1971
 5488SOL     OW27922   2.385   0.381  16.877  0.5562  0.4650  0.5593
 5488SOL    HW127923   2.442   0.347  16.946 -0.4970  0.4304  1.4098
 5488SOL    HW227924   2.433   0.395  16.795 -2.2329  1.0644 -0.9688
 5489SOL     OW27925   1.988   1.622   9.561  0.0361  0.0641  0.0555
 5489SOL    HW127926   1.910   1.636   9.615  0.8383  1.5926  0.8204
 5489SOL    HW227927   2.022   1.542   9.601 -0.6345 -0.1171  0.2501
 5490SOL     OW27928   2.863   4.493   5.003 -0.3146  0.1073  0.5525
 5490SOL    HW127929   2.789   4.489   4.942 -0.4649 -0.7707  0.7960
 5490SOL    HW227930   2.890   4.402   4.997  1.9089  0.8483 -0.5192
 5491SOL     OW27931   3.012   2.139   6.954  0.1171  0.6537 -0.4210
 5491SOL    HW127932   3.063   2.103   6.881  2.8684 -0.4372  2.0367
 5491SOL    HW227933   2.976   2.217   6.912  1.5634  1.7579  0.3730
 5492SOL     OW27934   1.694   1.359   7.301  0.1988  0.5965  0.3714
 5492SOL    HW127935   1.644   1.308   7.365  0.6872 -0.1557  0.1448
 5492SOL    HW227936   1.763   1.401   7.351  1.6942 -0.8271 -0.5152
 5493SOL     OW27937   0.692   1.050   7.022  0.5672 -0.3642  0.5474
 5493SOL    HW127938   0.640   0.977   7.056 -0.6785  1.0789  1.7466
 5493SOL    HW227939   0.734   1.008   6.947 -1.8036 -1.3771 -0.2381
 5494SOL     OW27940   1.462   1.497   0.762  0.5951  0.3894 -0.2953
 5494SOL    HW127941   1.452   1.419   0.706  0.5281  0.7287 -0.7574
 5494SOL    HW227942   1.444   1.567   0.700 -0.0092  0.4325 -0.0687
 5495SOL     OW27943   0.508   0.387   6.269 -0.2097  0.2826  0.1027
 5495SOL    HW127944   0.583   0.447   6.266  0.8430 -1.0884 -0.9671
 5495SOL    HW227945   0.445   0.454   6.296 -1.8110 -0.5016 -1.6563
 5496SOL     OW27946   4.513   4.040   2.139  0.0084 -0.3850  0.3466
 5496SOL    HW127947   4.424   4.010   2.119  0.1971 -0.3506 -0.5392
 5496SOL    HW227948   4.559   3.968   2.097 -0.3875 -1.0210  0.9917
 5497SOL     OW27949   2.340   0.534   2.218 -0.0575 -0.7235  0.6345
 5497SOL    HW127950   2.272   0.542   2.150  1.1625 -0.8216 -0.5942
 5497SOL    HW227951   2.300   0.468   2.273 -0.3323 -0.8276  0.3146
 5498SOL     OW27952   2.648   2.237  17.081  0.1941 -0.4652  0.2144
 5498SOL    HW127953   2.601   2.162  17.117  3.3836 -1.8751  1.4372
 5498SOL    HW227954   2.583   2.256  17.013  1.2105  0.1526 -0.5815
 5499SOL     OW27955   0.398   4.162   9.260 -0.5246 -0.0493  0.7087
 5499SOL    HW127956   0.328   4.104   9.291 -1.9453  1.6266  0.6474
 5499SOL    HW227957   0.391   4.136   9.168 -1.7522 -4.0289  1.9210
 5500SOL     OW27958   1.079   2.510   3.072  0.0211  0.2989 -0.1769
 5500SOL    HW127959   1.010   2.450   3.099 -0.7952  0.7349 -1.2892
 5500SOL    HW227960   1.115   2.472   2.992  0.6534  2.3705 -0.8835
 5501SOL     OW27961   3.728   3.125   1.157  0.2145  0.3800 -0.0090
 5501SOL    HW127962   3.715   3.147   1.065 -1.6414 -0.6892  0.0117
 5501SOL    HW227963   3.710   3.032   1.169  0.5958  0.6962  3.0666
 5502SOL     OW27964   3.595   3.688  12.780 -0.0525  0.0551  0.1721
 5502SOL    HW127965   3.651   3.736  12.718 -0.8584 -1.4032 -1.6691
 5502SOL    HW227966   3.641   3.680  12.863 -0.3620 -0.3142  0.3036
 5503SOL     OW27967   3.086   3.715   2.899  0.5084 -0.0231 -0.1270
 5503SOL    HW127968   3.167   3.751   2.861  0.4911  0.1143 -0.0335
 5503SOL    HW227969   3.035   3.795   2.904  2.1161  0.9425  0.9449
 5504SOL     OW27970   0.647   1.303   5.977 -0.3440 -0.3709 -0.2053
 5504SOL    HW127971   0.629   1.391   5.944 -1.5356 -0.4901  0.1155
 5504SOL    HW227972   0.714   1.332   6.039  0.6554 -2.7989 -0.1496
 5505SOL     OW27973   4.361   0.775   4.655 -0.3744  0.9692 -0.0803
 5505SOL    HW127974   4.374   0.868   4.672 -1.9470  1.0274  0.8044
 5505SOL    HW227975   4.439   0.759   4.602 -2.2104 -2.6095 -1.7838
 5506SOL     OW27976   2.788   3.016   7.230 -0.1314 -0.5837  0.3634
 5506SOL    HW127977   2.703   3.059   7.226  0.5188  0.5926 -0.9584
 5506SOL    HW227978   2.816   3.020   7.138 -0.1562  1.0889  0.4194
 5507SOL     OW27979   1.934   0.727   3.671 -0.6694 -0.0721 -0.1049
 5507SOL    HW127980   2.024   0.756   3.662 -0.3676 -1.1699 -0.5947
 5507SOL    HW227981   1.901   0.811   3.703  1.9861  1.1853 -0.7316
 5508SOL     OW27982   0.153   2.996  12.981  0.1200 -0.1771  0.4546
 5508SOL    HW127983   0.155   2.996  12.885 -0.9528  1.5726  0.4286
 5508SOL    HW227984   0.243   3.019  13.002  0.6156 -2.1501  0.4475
 5509SOL     OW27985   2.223   0.432   5.773  0.0485  0.3081  0.5109
 5509SOL    HW127986   2.131   0.456   5.778  0.0169 -0.1481  2.1586
 5509SOL    HW227987   2.265   0.511   5.808 -0.0524 -0.4259  2.2804
 5510SOL     OW27988   2.136   3.999   6.184 -1.0907  0.3752  0.3507
 5510SOL    HW127989   2.167   4.061   6.250  1.7855 -0.6285 -0.0227
 5510SOL    HW227990   2.071   4.056   6.144 -1.2751 -1.3793 -1.8763
 5511SOL     OW27991   1.654   0.185   4.177  0.0128 -0.1101  0.8138
 5511SOL    HW127992   1.710   0.249   4.221  0.5187  0.7159 -1.0350
 5511SOL    HW227993   1.647   0.212   4.085 -3.5179 -2.9416  0.2218
 5512SOL     OW27994   1.325   4.384   3.282 -0.0515  1.2644  0.1146
 5512SOL    HW127995   1.390   4.364   3.215 -1.5729 -2.0565 -0.3916
 5512SOL    HW227996   1.324   4.301   3.330  0.6150  0.8972 -0.5140
 5513SOL     OW27997   3.713   0.729   6.789 -0.0184  0.1158 -0.3419
 5513SOL    HW127998   3.654   0.804   6.790  0.4530  0.4543  1.6843
 5513SOL    HW227999   3.765   0.738   6.709  1.5741 -2.4714  0.4100
 5514SOL     OW28000   0.555   0.435   7.658 -0.4888 -0.2841  0.0395
 5514SOL    HW128001   0.521   0.440   7.568 -0.0710  0.4352 -0.0763
 5514SOL    HW228002   0.488   0.400   7.718 -0.2138 -0.1905  0.3962
 5515SOL     OW28003   0.118   4.537   3.988  0.2995  0.1608 -0.0116
 5515SOL    HW128004   0.077   4.471   4.044 -0.9874 -1.7396 -3.2107
 5515SOL    HW228005   0.137   4.607   4.051  0.1437  0.7721 -0.6467
 5516SOL     OW28006   0.169   0.115   2.244  0.1825 -0.0703  0.4668
 5516SOL    HW128007   0.196   0.198   2.207  0.7444  1.5523  4.5011
 5516SOL    HW228008   0.208   0.129   2.331  3.0368 -0.4079 -0.7554
 5517SOL     OW28009   2.095   3.025   6.811 -0.4797 -0.1816  0.2577
 5517SOL    HW128010   2.087   2.930   6.805  2.3063 -0.4274  0.9100
 5517SOL    HW228011   2.097   3.034   6.906  0.9134  3.5036 -0.1175
 5518SOL     OW28012   0.275   3.367  12.271  0.4929  0.1435 -0.7719
 5518SOL    HW128013   0.278   3.429  12.198  1.0925 -0.2759 -1.0955
 5518SOL    HW228014   0.324   3.415  12.337 -1.7099  0.1364  0.8826
 5519SOL     OW28015   2.784   1.265   8.519  0.3764  0.4081  0.4434
 5519SOL    HW128016   2.839   1.307   8.585  0.6535  0.2200  0.3302
 5519SOL    HW228017   2.739   1.201   8.575 -2.0772  3.1501  1.6315
 5520SOL     OW28018   2.990   0.649  14.993 -0.2362  0.4330  0.1834
 5520SOL    HW128019   3.047   0.575  15.017  0.9337  0.4304 -2.6227
 5520SOL    HW228020   3.008   0.716  15.059  1.3075 -0.3168  0.5369
 5521SOL     OW28021   4.495   3.435   1.096 -0.0517  0.4429  0.2100
 5521SOL    HW128022   4.449   3.356   1.123  1.3059  0.9889  4.0207
 5521SOL    HW228023   4.580   3.397   1.075 -0.5937 -0.2930 -0.6438
 5522SOL     OW28024   1.341   3.339   2.517 -0.4082  0.5856  0.1129
 5522SOL    HW128025   1.350   3.434   2.510  0.4109  0.2673 -2.9321
 5522SOL    HW228026   1.430   3.317   2.488  0.2749  2.5247  0.7078
 5523SOL     OW28027   1.848   4.373   6.979  0.2019  0.0302 -0.4628
 5523SOL    HW128028   1.938   4.339   6.987 -0.4901 -1.3365  1.6169
 5523SOL    HW228029   1.796   4.306   6.935 -0.4602 -1.7013  2.9665
 5524SOL     OW28030   0.828   3.918   8.879 -0.5069 -0.5799 -0.3394
 5524SOL    HW128031   0.906   3.973   8.881 -0.9204  0.0195 -0.6226
 5524SOL    HW228032   0.845   3.864   8.803  3.6234  1.1808 -0.6321
 5525SOL     OW28033   2.469   1.466   1.213  0.4017  0.1544  0.7029
 5525SOL    HW128034   2.533   1.442   1.280 -0.0505 -0.4540  0.9171
 5525SOL    HW228035   2.488   1.560   1.206  0.2318 -0.0154 -2.2828
 5526SOL     OW28036   0.402   1.713   7.432  0.2706  0.6680 -0.4926
 5526SOL    HW128037   0.391   1.668   7.348  1.3806 -1.7763  0.6776
 5526SOL    HW228038   0.435   1.646   7.491 -1.3390  0.2889 -0.0158
 5527SOL     OW28039   0.123   1.078   8.871  0.4318 -0.1734 -0.1150
 5527SOL    HW128040   0.137   0.984   8.860 -2.0890 -0.2198 -2.7733
 5527SOL    HW228041   0.199   1.105   8.923  0.5969 -2.0004  0.5934
 5528SOL     OW28042   1.565   0.334   4.774 -0.1317  0.2112 -0.3844
 5528SOL    HW128043   1.515   0.414   4.793 -0.5190 -0.5113  1.6013
 5528SOL    HW228044   1.584   0.347   4.681  1.1083  0.6702 -0.0720
 5529SOL     OW28045   1.826   2.460   2.454 -0.0722  0.4548  0.1114
 5529SOL    HW128046   1.862   2.426   2.535  1.1272  3.1822  0.7287
 5529SOL    HW228047   1.874   2.542   2.456  0.1635  0.2460  2.7381
 5530SOL     OW28048   0.683   1.481   5.125 -0.1421 -0.4358 -0.4175
 5530SOL    HW128049   0.662   1.476   5.218 -3.0211  2.1176 -0.9416
 5530SOL    HW228050   0.617   1.425   5.086  0.0037 -1.4296  0.7309
 5531SOL     OW28051   2.169   0.225   6.784 -0.2575  0.4527  0.4883
 5531SOL    HW128052   2.213   0.142   6.805  0.3140  1.1218  1.8734
 5531SOL    HW228053   2.077   0.200   6.797 -0.9841  0.7218 -3.9218
 5532SOL     OW28054   3.805   2.373  13.362  0.3899 -0.0996  0.0131
 5532SOL    HW128055   3.838   2.373  13.452 -1.4382  2.9513  0.6852
 5532SOL    HW228056   3.730   2.313  13.363  0.9414 -0.8078 -0.4810
 5533SOL     OW28057   0.363   4.404   3.436  0.5305  0.0233 -0.1503
 5533SOL    HW128058   0.337   4.496   3.447  2.8432  0.5068  1.1844
 5533SOL    HW228059   0.277   4.362   3.441  1.0717 -1.1923 -1.1593
 5534SOL     OW28060   0.162   2.465   6.905 -0.2910  0.2055 -0.5592
 5534SOL    HW128061   0.128   2.548   6.871 -3.7982 -0.1428  2.0168
 5534SOL    HW228062   0.243   2.449   6.857 -0.1557 -0.6757 -0.0396
 5535SOL     OW28063   4.179   2.372   1.719 -0.3113 -0.0733  0.4754
 5535SOL    HW128064   4.274   2.384   1.717 -0.3853  0.6342  1.2007
 5535SOL    HW228065   4.167   2.394   1.627  1.1895 -1.3376 -0.0220
 5536SOL     OW28066   4.221   0.429   7.528 -0.8125 -0.4954  0.1722
 5536SOL    HW128067   4.278   0.498   7.565 -0.4810 -0.6950  0.0345
 5536SOL    HW228068   4.141   0.442   7.578 -0.7839 -0.3394  0.1803
 5537SOL     OW28069   3.013   4.484  17.068  0.3388  0.4148  0.3947
 5537SOL    HW128070   3.105   4.503  17.088  0.9881 -2.9397  0.5257
 5537SOL    HW228071   3.008   4.395  17.102  1.0128  0.5119  0.7613
 5538SOL     OW28072   1.896   3.141   5.943  0.3260 -0.1639  0.1593
 5538SOL    HW128073   1.876   3.095   6.024 -0.4467  1.0862  0.6854
 5538SOL    HW228074   1.980   3.184   5.956 -0.1688  0.8231  0.1122
 5539SOL     OW28075   2.850   3.096   6.972  0.0716 -0.2948  0.0839
 5539SOL    HW128076   2.759   3.126   6.969 -0.4428 -1.6738  1.3620
 5539SOL    HW228077   2.874   3.078   6.881  0.8282  2.2127 -0.2080
 5540SOL     OW28078   1.250   0.157   6.244  0.4061 -0.1704 -0.1091
 5540SOL    HW128079   1.200   0.227   6.200  0.9340 -0.1563 -0.6897
 5540SOL    HW228080   1.251   0.087   6.179  1.8464 -1.1575  0.9956
 5541SOL     OW28081   2.059   2.975   6.174  0.8220  0.0337 -0.5472
 5541SOL    HW128082   2.109   3.047   6.211  0.7510 -1.8614  3.1872
 5541SOL    HW228083   1.973   3.013   6.187  1.0845 -0.0110  1.2079
 5542SOL     OW28084   3.970   3.051   5.397 -0.2707  0.3662 -0.2772
 5542SOL    HW128085   4.030   3.002   5.341  0.3230 -0.0165  0.7013
 5542SOL    HW228086   3.908   2.992   5.441 -0.2127  1.3047  1.0554
 5543SOL     OW28087   1.936   0.964   3.381 -0.0220 -0.3078  0.1451
 5543SOL    HW128088   1.972   1.052   3.396 -1.7808  0.0854  2.1409
 5543SOL    HW228089   2.009   0.911   3.351 -0.9751 -1.9790  0.7423
 5544SOL     OW28090   0.801   1.775  11.429  0.1982  0.8947  0.6228
 5544SOL    HW128091   0.867   1.762  11.361 -0.8283  1.7712 -0.5459
 5544SOL    HW228092   0.852   1.801  11.506  2.1089 -3.5085  0.8411
 5545SOL     OW28093   2.759   4.270   8.898  0.2013  0.3252 -0.0241
 5545SOL    HW128094   2.759   4.174   8.899  0.3182  0.3083 -1.4539
 5545SOL    HW228095   2.680   4.290   8.949  0.0971 -0.8070  0.2665
 5546SOL     OW28096   3.896   1.215   2.699 -0.0325 -0.1334  0.2001
 5546SOL    HW128097   3.803   1.224   2.717 -0.2654 -1.5658 -0.2517
 5546SOL    HW228098   3.926   1.291   2.749  0.1409 -0.1254  0.0854
 5547SOL     OW28099   1.026   2.940  10.160 -0.0312 -0.0218 -0.6118
 5547SOL    HW128100   1.052   2.850  10.141 -0.6414 -0.3204 -0.0154
 5547SOL    HW228101   0.939   2.946  10.119 -0.8737  0.9038  1.3262
 5548SOL     OW28102   4.483   0.937  14.560 -0.1439 -0.4665  0.0378
 5548SOL    HW128103   4.411   0.875  14.567 -1.7054  1.3462  0.1788
 5548SOL    HW228104   4.496   0.957  14.653  0.1568  2.1993 -0.5628
 5549SOL     OW28105   0.990   0.497   6.403 -0.5794  0.0389  0.1980
 5549SOL    HW128106   1.005   0.489   6.497 -2.9415 -1.2799  0.4564
 5549SOL    HW228107   0.935   0.424   6.374 -1.0428  1.2935 -2.1208
 5550SOL     OW28108   1.375   0.633  14.085  0.2855  0.1357  0.0810
 5550SOL    HW128109   1.334   0.664  14.166 -1.6900 -0.2804 -0.7551
 5550SOL    HW228110   1.299   0.605  14.033 -0.3471  0.3182  0.9037
 5551SOL     OW28111   0.519   4.509   4.220 -0.1099 -0.4264  0.4567
 5551SOL    HW128112   0.604   4.541   4.249 -2.2449  1.2453  5.0211
 5551SOL    HW228113   0.540   4.428   4.174  2.8358  1.2500 -1.0869
 5552SOL     OW28114   4.065   3.253   7.258 -0.5380  0.5970 -0.0762
 5552SOL    HW128115   4.073   3.246   7.163  0.5178 -1.0041  0.1389
 5552SOL    HW228116   4.157   3.252   7.285 -0.1713 -1.9670 -1.4729
 5553SOL     OW28117   2.492   3.297   6.284  0.6522 -1.0442 -0.4751
 5553SOL    HW128118   2.578   3.324   6.252 -0.8628  2.6680 -1.4442
 5553SOL    HW228119   2.522   3.229   6.344 -0.9121 -1.1611  0.1849
 5554SOL     OW28120   0.259   4.099   3.106 -0.0618 -0.2704 -0.2343
 5554SOL    HW128121   0.168   4.126   3.109  0.6356  1.8770  1.7106
 5554SOL    HW228122   0.278   4.086   3.199 -3.3811 -3.5664 -0.0139
 5555SOL     OW28123   1.135   3.870   0.862 -0.3190 -0.2963 -0.0689
 5555SOL    HW128124   1.153   3.782   0.897  1.0756 -0.4266 -1.1570
 5555SOL    HW228125   1.066   3.894   0.924  1.4075  1.2390  1.2472
 5556SOL     OW28126   0.661   0.185   2.147 -0.6921  0.3912  0.0938
 5556SOL    HW128127   0.591   0.249   2.159 -3.3471 -2.3546 -0.5010
 5556SOL    HW228128   0.634   0.137   2.226  3.0718 -0.0661  1.0843
 5557SOL     OW28129   0.519   2.944   7.499 -0.2124 -0.5317  0.3144
 5557SOL    HW128130   0.576   2.986   7.435 -0.5560 -0.6390 -0.0653
 5557SOL    HW228131   0.559   2.859   7.519  1.0910  0.3542  1.4750
 5558SOL     OW28132   1.089   2.582   1.643 -0.1271  0.0805  0.2667
 5558SOL    HW128133   1.115   2.674   1.630 -1.2843  0.5397  1.3117
 5558SOL    HW228134   1.118   2.550   1.557 -0.3357 -0.5441  0.4318
 5559SOL     OW28135   2.483   0.382  12.655 -0.4945 -0.3643 -0.3903
 5559SOL    HW128136   2.523   0.349  12.574 -0.0108 -1.3144  0.2308
 5559SOL    HW228137   2.538   0.454  12.685 -2.1313  1.3630 -1.5154
 5560SOL     OW28138   4.599   1.341   2.764 -0.2865  0.1196 -0.1941
 5560SOL    HW128139   4.606   1.351   2.859  1.1468 -0.6396 -0.2216
 5560SOL    HW228140   4.532   1.409   2.755 -0.4477  0.1168  1.0298
 5561SOL     OW28141   0.624   0.989   3.552  0.1972  0.1958  0.4498
 5561SOL    HW128142   0.714   0.956   3.550  0.1333  0.0806 -1.0122
 5561SOL    HW228143   0.629   1.055   3.482  0.6247  1.2054  1.4329
 5562SOL     OW28144   1.649   3.932  14.757  0.1468  0.0591 -1.3603
 5562SOL    HW128145   1.696   3.976  14.686  1.2164 -1.0957 -1.3724
 5562SOL    HW228146   1.650   4.002  14.823 -2.7906 -0.1526 -1.1025
 5563SOL     OW28147   3.547   1.869   8.523 -0.0071 -0.3271  0.2880
 5563SOL    HW128148   3.609   1.910   8.463  0.1244  0.0795  0.6996
 5563SOL    HW228149   3.506   1.943   8.568 -0.3624 -0.1543 -0.3300
 5564SOL     OW28150   4.272   2.623  11.198 -0.1157  0.7345 -0.4017
 5564SOL    HW128151   4.291   2.709  11.234 -0.9504  0.2472  1.1870
 5564SOL    HW228152   4.195   2.594  11.247  0.4623 -0.1580 -0.0256
 5565SOL     OW28153   0.233   3.326   9.311  0.1103 -0.2722 -0.2502
 5565SOL    HW128154   0.234   3.395   9.377 -2.9462  0.1763 -0.6618
 5565SOL    HW228155   0.144   3.297   9.333  0.9239 -3.3812 -1.1328
 5566SOL     OW28156   3.159   1.589  13.193  0.3698 -0.3304  0.2819
 5566SOL    HW128157   3.158   1.679  13.226  0.8995  0.6098 -2.3188
 5566SOL    HW228158   3.157   1.540  13.276  0.7014 -2.7754 -1.1431
 5567SOL     OW28159   2.376   2.001   6.523 -0.2010  0.2011 -0.2714
 5567SOL    HW128160   2.389   1.920   6.474  0.0380  0.2687 -0.3245
 5567SOL    HW228161   2.467   2.029   6.532 -0.3289  0.4243  0.3663
 5568SOL     OW28162   3.406   2.250  11.045 -0.3176 -0.2203  0.2802
 5568SOL    HW128163   3.447   2.280  11.126  1.5170  0.9664 -1.0840
 5568SOL    HW228164   3.482   2.264  10.989 -1.0950  0.4741 -0.6107
 5569SOL     OW28165   3.058   1.986   3.434 -0.1164  0.6280  0.0725
 5569SOL    HW128166   2.976   1.999   3.386  0.0658 -0.4547 -0.5276
 5569SOL    HW228167   3.072   2.080   3.447  1.3533  0.6101 -1.3835
 5570SOL     OW28168   2.007   2.154   2.603  0.8694  0.0642 -0.4049
 5570SOL    HW128169   2.040   2.136   2.691  1.0023 -1.7659 -0.8273
 5570SOL    HW228170   2.046   2.241   2.593  0.7612  0.3910  2.1614
 5571SOL     OW28171   0.044   0.450   3.656 -0.1952  0.0211  0.1383
 5571SOL    HW128172   0.058   0.531   3.705 -0.8468  1.3695 -1.9411
 5571SOL    HW228173   0.006   0.402   3.731  0.6117 -1.0043 -0.1075
 5572SOL     OW28174   3.640   1.097   8.182  0.2039  0.6448  0.1958
 5572SOL    HW128175   3.648   1.163   8.113  0.8356  0.3763  0.0130
 5572SOL    HW228176   3.565   1.046   8.152  0.0262  1.2858 -0.4407
 5573SOL     OW28177   1.794   0.292   8.751 -0.7965 -0.0167  0.2983
 5573SOL    HW128178   1.815   0.297   8.844 -0.8327 -0.4472  0.3332
 5573SOL    HW228179   1.880   0.267   8.719 -1.8530 -1.7827 -1.2002
 5574SOL     OW28180   3.830   2.700  16.167  0.5285  0.0941 -0.2106
 5574SOL    HW128181   3.915   2.728  16.202 -0.6671  1.4516  1.6209
 5574SOL    HW228182   3.802   2.627  16.221  1.3881  0.3466  0.5823
 5575SOL     OW28183   4.352   4.256   8.236 -0.3717  0.1814  0.1865
 5575SOL    HW128184   4.434   4.304   8.220 -0.1927 -0.0245  0.4936
 5575SOL    HW228185   4.381   4.214   8.317 -0.5009  1.9864  1.1618
 5576SOL     OW28186   2.580   4.173   2.196 -0.7642 -0.0944 -0.6352
 5576SOL    HW128187   2.635   4.112   2.245 -1.3110 -0.3364 -0.3184
 5576SOL    HW228188   2.526   4.119   2.138  1.2640 -0.9531 -1.7241
 5577SOL     OW28189   1.740   1.648  17.471 -0.8940  0.1574 -0.0476
 5577SOL    HW128190   1.782   1.564  17.455 -0.3262  0.3431  0.4661
 5577SOL    HW228191   1.711   1.639  17.562 -1.7963  0.3894 -0.3090
 5578SOL     OW28192   4.622   0.477   6.720  0.5906 -0.2920  0.0679
 5578SOL    HW128193   4.535   0.505   6.746  0.4737  1.5006 -2.2919
 5578SOL    HW228194   4.675   0.556   6.710 -1.7733  0.9933 -1.8861
 5579SOL     OW28195   1.702   3.143   6.624  0.6325  0.0623 -0.5370
 5579SOL    HW128196   1.662   3.081   6.563 -0.3582  0.1447  0.0297
 5579SOL    HW228197   1.666   3.226   6.593 -1.6142 -0.7754 -0.1307
 5580SOL     OW28198   4.338   1.232  13.726 -0.0548  0.9456 -0.6374
 5580SOL    HW128199   4.283   1.304  13.756  1.0609  1.2331  0.7264
 5580SOL    HW228200   4.400   1.219  13.798  0.9997 -0.2061 -1.7511
 5581SOL     OW28201   2.589   0.086   7.910 -0.3080 -0.2623 -0.2351
 5581SOL    HW128202   2.518   0.036   7.950 -0.4180 -0.1160 -0.2466
 5581SOL    HW228203   2.639   0.127   7.980  1.6976 -2.3468 -0.4685
 5582SOL     OW28204   1.013   1.514   8.350 -0.0339  0.2621  0.8539
 5582SOL    HW128205   1.051   1.602   8.351  0.0300  0.2433 -0.0253
 5582SOL    HW228206   0.919   1.531   8.344  0.0538 -0.3032 -2.3993
 5583SOL     OW28207   2.021   2.922  14.653  0.3812  0.0940 -0.1189
 5583SOL    HW128208   2.022   3.004  14.603  0.2373  0.1410 -0.0441
 5583SOL    HW228209   2.115   2.902  14.650  0.6379  1.1855  0.7001
 5584SOL     OW28210   2.671   3.026   4.265  0.5508 -0.7317 -0.2428
 5584SOL    HW128211   2.661   3.119   4.286 -1.1500 -0.8490 -0.4785
 5584SOL    HW228212   2.578   3.010   4.246  0.1503  2.8291 -1.2020
 5585SOL     OW28213   1.746   0.496   7.039 -0.1755  0.4007 -0.7607
 5585SOL    HW128214   1.662   0.460   7.068 -1.1233  1.1879 -2.5644
 5585SOL    HW228215   1.717   0.571   6.987  2.2911  2.3315  0.6193
 5586SOL     OW28216   2.902   4.577  11.934  0.5691  0.0404 -0.1240
 5586SOL    HW128217   2.847   4.531  11.998 -1.2892 -0.6637 -2.2127
 5586SOL    HW228218   2.876   4.666  11.954  0.6533  0.3661 -1.4654
 5587SOL     OW28219   0.394   4.143  10.076  0.3635 -0.3842  0.2671
 5587SOL    HW128220   0.471   4.105  10.033 -0.9837 -1.5781 -1.0754
 5587SOL    HW228221   0.430   4.178  10.158 -0.6536  2.3576 -0.4473
 5588SOL     OW28222   1.933   3.367  14.852  0.0845  0.5601  0.0167
 5588SOL    HW128223   1.854   3.314  14.838  2.0891 -2.1055 -1.0887
 5588SOL    HW228224   2.006   3.312  14.825  0.6966  1.5446 -0.3315
 5589SOL     OW28225   1.375   1.507  17.380 -0.1291  0.3206 -0.0342
 5589SOL    HW128226   1.311   1.499  17.310  0.0709 -0.1516 -0.1626
 5589SOL    HW228227   1.433   1.578  17.352  0.4638 -0.2508 -0.2509
 5590SOL     OW28228   0.648   0.706  16.912 -0.2904  0.9896  0.1297
 5590SOL    HW128229   0.722   0.654  16.880 -1.8168  0.0866 -1.9317
 5590SOL    HW228230   0.610   0.631  16.959  1.8120  0.9362  1.7265
 5591SOL     OW28231   4.471   1.496  10.275 -0.1815  0.7202  0.3685
 5591SOL    HW128232   4.495   1.530  10.189 -0.4036  2.2643  0.9211
 5591SOL    HW228233   4.557   1.461  10.296 -0.4206  0.9722  1.7338
 5592SOL     OW28234   2.059   2.953   2.546 -0.1066  0.1417  0.1777
 5592SOL    HW128235   2.118   2.924   2.615  0.4596 -0.3410 -0.5119
 5592SOL    HW228236   2.122   3.001   2.493  0.1978  0.3232  0.7008
 5593SOL     OW28237   4.670   4.142   8.652 -0.6762 -0.3816  0.3466
 5593SOL    HW128238   4.722   4.185   8.720  1.2161  0.6368 -1.7437
 5593SOL    HW228239   0.002   4.066   8.634 -1.8751 -0.8655 -1.3528
 5594SOL     OW28240   1.919   4.279   4.662  0.4472  0.3204  0.5036
 5594SOL    HW128241   1.990   4.218   4.642 -0.3552 -0.2945 -0.4409
 5594SOL    HW228242   1.878   4.239   4.738 -0.7576  2.0395  0.7494
 5595SOL     OW28243   0.922   2.375   7.107  0.0076  0.4026 -0.1013
 5595SOL    HW128244   0.856   2.306   7.113  1.2011 -0.5927  1.5641
 5595SOL    HW228245   0.949   2.363   7.016 -0.8899  0.5732 -0.3969
 5596SOL     OW28246   2.944   0.150  11.132 -0.5758  0.3334  0.5903
 5596SOL    HW128247   2.998   0.224  11.105 -0.3810 -0.4173 -1.0790
 5596SOL    HW228248   2.930   0.106  11.048  0.0811 -0.3682  0.8449
 5597SOL     OW28249   0.395   2.163  15.926 -0.2718  0.0284  0.2436
 5597SOL    HW128250   0.438   2.082  15.953  0.1992  0.8343  1.9282
 5597SOL    HW228251   0.353   2.131  15.846  0.0934 -1.7293  0.7557
 5598SOL     OW28252   0.008   3.330   6.265 -0.0117 -0.0190 -0.3856
 5598SOL    HW128253   0.008   3.425   6.278  0.8082  0.2369 -2.2367
 5598SOL    HW228254   0.004   3.320   6.170 -1.4804  1.5345 -0.4750
 5599SOL     OW28255   2.275   2.337  11.680  0.0053  0.5892  0.3956
 5599SOL    HW128256   2.368   2.313  11.676 -0.4358 -1.1498  0.3428
 5599SOL    HW228257   2.243   2.342  11.590  1.0809 -1.1602 -0.1060
 5600SOL     OW28258   3.365   0.942   3.250  0.1274  1.1923  0.2531
 5600SOL    HW128259   3.411   0.956   3.167  1.1365  0.0920  0.6257
 5600SOL    HW228260   3.334   1.026   3.283 -1.2596 -0.0391  2.0868
 5601SOL     OW28261   2.428   0.281   8.401  0.2005  0.3535 -0.0274
 5601SOL    HW128262   2.358   0.314   8.458  0.5447  2.1140 -0.6164
 5601SOL    HW228263   2.500   0.338   8.428  0.7808  0.3236 -1.5182
 5602SOL     OW28264   0.167   1.770   9.630  0.8988  0.2592  0.3675
 5602SOL    HW128265   0.091   1.827   9.613  0.9013 -0.0726 -0.7363
 5602SOL    HW228266   0.239   1.831   9.618  1.9883 -1.3360 -1.0580
 5603SOL     OW28267   0.460   1.521   5.707  0.3217  0.8321  0.5679
 5603SOL    HW128268   0.495   1.437   5.679 -0.8960 -0.0857  1.8054
 5603SOL    HW228269   0.535   1.579   5.720  0.8552  0.1358  0.5698
 5604SOL     OW28270   0.272   3.539  12.082 -0.4052 -0.4255  0.1272
 5604SOL    HW128271   0.207   3.584  12.028 -0.9686 -1.5926 -0.1781
 5604SOL    HW228272   0.334   3.520  12.011  1.2350  2.5344  0.7731
 5605SOL     OW28273   2.421   2.010   2.470 -0.4563  0.1656 -0.4255
 5605SOL    HW128274   2.422   2.037   2.562 -0.5770  0.4822 -0.5172
 5605SOL    HW228275   2.440   2.092   2.425 -0.9120  0.7649  0.4707
 5606SOL     OW28276   2.991   1.990   7.392 -0.2925  0.3009  0.3357
 5606SOL    HW128277   3.014   1.908   7.436 -1.6497 -0.1407  0.2244
 5606SOL    HW228278   3.070   2.044   7.400 -0.3116  0.6033 -1.4390
 5607SOL     OW28279   2.990   1.801   3.717 -0.5376 -0.4025 -0.4518
 5607SOL    HW128280   3.066   1.806   3.660 -0.1806  1.5771  0.2087
 5607SOL    HW228281   2.975   1.892   3.742 -1.5552 -0.1182 -2.1379
 5608SOL     OW28282   1.506   1.563   6.768  0.1482 -0.0346 -0.4745
 5608SOL    HW128283   1.431   1.549   6.710 -0.6580  1.2512  0.2503
 5608SOL    HW228284   1.463   1.543   6.851  2.0296 -1.5282  0.1300
 5609SOL     OW28285   0.722   3.446  16.930 -0.1816  0.1966 -0.0400
 5609SOL    HW128286   0.754   3.474  17.016 -1.3233 -1.3395  0.8731
 5609SOL    HW228287   0.654   3.384  16.956  0.8478 -1.2900 -0.9002
 5610SOL     OW28288   3.997   4.351   7.043 -0.5613 -0.1025 -1.2504
 5610SOL    HW128289   3.990   4.438   7.082 -1.0432 -0.9137  0.4733
 5610SOL    HW228290   3.907   4.337   7.015 -1.2706  1.1376  0.4303
 5611SOL     OW28291   1.595   3.556  13.918 -0.2560  0.0667 -0.1974
 5611SOL    HW128292   1.641   3.478  13.887 -0.5054 -0.2322  0.1829
 5611SOL    HW228293   1.592   3.532  14.011  0.4457 -1.0403 -0.4577
 5612SOL     OW28294   3.224   2.626   4.624 -0.1160 -0.5387  1.1032
 5612SOL    HW128295   3.169   2.688   4.576 -0.7665 -1.0834  1.1433
 5612SOL    HW228296   3.148   2.582   4.662 -1.3012  2.1580  1.8560
 5613SOL     OW28297   3.149   1.504   3.475  0.3291 -0.0300 -0.7142
 5613SOL    HW128298   3.100   1.422   3.483  2.1260 -1.0215  0.2443
 5613SOL    HW228299   3.206   1.487   3.550 -0.0272  0.8561 -0.2491
 5614SOL     OW28300   1.572   2.632   8.455  0.0253 -0.2978  0.3014
 5614SOL    HW128301   1.599   2.692   8.525  1.7692  0.2481 -0.8331
 5614SOL    HW228302   1.649   2.575   8.460 -0.6664 -1.0908  2.1574
 5615SOL     OW28303   0.400   0.684   8.647 -0.1130 -0.1571  0.7359
 5615SOL    HW128304   0.482   0.644   8.621 -1.1023 -0.6194 -1.6635
 5615SOL    HW228305   0.440   0.770   8.663 -1.0927  0.5864 -0.7528
 5616SOL     OW28306   4.672   3.061   8.472  0.4897 -0.3919 -0.3175
 5616SOL    HW128307   0.025   3.006   8.455 -2.1315 -3.7251 -1.2976
 5616SOL    HW228308   4.708   3.150   8.470 -0.1271 -0.1439 -0.4991
 5617SOL     OW28309   4.598   2.281   1.901 -0.1064  0.2598  0.0570
 5617SOL    HW128310   4.522   2.238   1.939  0.1825 -0.9642 -0.7459
 5617SOL    HW228311   4.607   2.218   1.830  1.8061  0.3549  0.2178
 5618SOL     OW28312   0.446   2.461   3.874  0.6243  0.1952 -0.1058
 5618SOL    HW128313   0.487   2.545   3.852 -0.8176  1.3052  1.3819
 5618SOL    HW228314   0.478   2.406   3.802  1.1186 -0.1389  0.3733
 5619SOL     OW28315   2.409   0.746   6.206  0.0481 -0.1364  0.3892
 5619SOL    HW128316   2.326   0.730   6.250 -0.3502  0.2045 -0.2537
 5619SOL    HW228317   2.383   0.808   6.139 -3.2218 -0.5017  1.3582
 5620SOL     OW28318   3.063   0.782   7.512  0.2510  0.0090 -0.2968
 5620SOL    HW128319   3.037   0.693   7.535  1.5115 -0.5220 -0.9022
 5620SOL    HW228320   3.139   0.758   7.458  0.7905  2.0316 -0.4524
 5621SOL     OW28321   0.113   0.438   0.500 -0.2362 -0.6933  0.2763
 5621SOL    HW128322   0.025   0.416   0.472 -0.7722  1.6877  0.0921
 5621SOL    HW228323   0.099   0.453   0.594  0.0043  2.6935 -0.2367
 5622SOL     OW28324   1.973   3.427  16.543  0.4485  0.2093 -0.2281
 5622SOL    HW128325   2.036   3.439  16.613  0.0189  3.5954 -0.4293
 5622SOL    HW228326   2.032   3.421  16.468 -0.9028 -1.1821 -1.1940
 5623SOL     OW28327   2.821   1.985   5.939 -0.0392 -0.1494  0.2981
 5623SOL    HW128328   2.801   1.892   5.926 -0.1057  0.2883 -2.8413
 5623SOL    HW228329   2.841   2.018   5.851 -0.5625  1.0142  0.6103
 5624SOL     OW28330   1.067   3.313   4.992  0.2123 -0.3130  0.1259
 5624SOL    HW128331   0.983   3.266   4.994 -0.1946  0.4184  0.2302
 5624SOL    HW228332   1.058   3.363   4.911 -1.0306 -1.5314 -0.5020
 5625SOL     OW28333   3.678   0.395   7.277 -0.5400  0.8875 -1.2687
 5625SOL    HW128334   3.679   0.401   7.181 -0.1448 -1.1065 -1.3884
 5625SOL    HW228335   3.594   0.353   7.294 -0.7601  0.9907 -2.0946
 5626SOL     OW28336   1.838   1.607  12.028  0.7250  0.6342 -0.2430
 5626SOL    HW128337   1.909   1.543  12.028  1.1517  1.1023 -0.9682
 5626SOL    HW228338   1.874   1.679  12.078 -0.7447 -0.2484  2.0777
 5627SOL     OW28339   4.646   1.946   3.596  0.3439 -0.1052  0.4574
 5627SOL    HW128340   4.599   1.875   3.553  1.8138 -0.5669 -0.4119
 5627SOL    HW228341   4.639   1.925   3.689 -0.7887 -1.0755  0.1529
 5628SOL     OW28342   2.445   2.157   1.817 -0.4231  0.8616  0.4918
 5628SOL    HW128343   2.414   2.234   1.770  0.3362 -0.2478 -1.8129
 5628SOL    HW228344   2.484   2.104   1.748 -0.5451  0.2664  0.8883
 5629SOL     OW28345   0.284   0.639   1.858  0.4596  0.0961 -0.0299
 5629SOL    HW128346   0.331   0.592   1.927 -0.6913 -3.8455 -1.9122
 5629SOL    HW228347   0.278   0.728   1.892 -0.7853  0.1079 -0.2717
 5630SOL     OW28348   0.700   1.211   8.508 -0.0177  0.0041  0.2038
 5630SOL    HW128349   0.765   1.144   8.488 -0.5045 -0.7085  1.0247
 5630SOL    HW228350   0.666   1.228   8.420 -1.7216  1.8815  1.2134
 5631SOL     OW28351   0.801   3.532   4.281  0.0563 -0.2090  0.2988
 5631SOL    HW128352   0.853   3.560   4.206  0.2957 -0.2677  0.4412
 5631SOL    HW228353   0.717   3.551   4.239  0.0336  0.6830  0.7387
 5632SOL     OW28354   1.785   2.111  16.860 -0.1180 -0.2336 -0.2630
 5632SOL    HW128355   1.858   2.049  16.853 -0.4468 -0.9002  1.9291
 5632SOL    HW228356   1.822   2.175  16.921 -1.0938  0.3161 -0.2541
 5633SOL     OW28357   2.303   1.547   8.797 -0.0648 -0.2839  0.0966
 5633SOL    HW128358   2.385   1.596   8.795 -0.0388 -0.3322 -0.0146
 5633SOL    HW228359   2.265   1.572   8.713 -0.9965  0.0361  0.6147
 5634SOL     OW28360   1.646   1.605   7.962 -0.1755 -0.5238 -0.2201
 5634SOL    HW128361   1.663   1.512   7.975  0.3017 -0.4524 -0.3555
 5634SOL    HW228362   1.708   1.652   8.018  0.1560 -1.9566  0.6084
 5635SOL     OW28363   2.446   1.689   3.206  0.4717  0.5513  0.1257
 5635SOL    HW128364   2.415   1.707   3.295  1.1543 -0.8229  0.6485
 5635SOL    HW228365   2.392   1.611   3.190  2.5363 -0.6823 -0.8484
 5636SOL     OW28366   3.596   4.287   1.085 -0.4533  0.3232 -0.0986
 5636SOL    HW128367   3.676   4.340   1.082  0.1758 -0.5836  0.7859
 5636SOL    HW228368   3.605   4.245   1.170  2.0261  2.5241  0.7248
 5637SOL     OW28369   3.616   2.971   2.338  0.6873 -0.0454 -0.7616
 5637SOL    HW128370   3.522   2.989   2.334  0.3743 -2.0117 -2.0395
 5637SOL    HW228371   3.626   2.898   2.278  0.3175  0.0534 -0.9436
 5638SOL     OW28372   4.285   3.950  13.046  0.5817 -0.2026  0.0083
 5638SOL    HW128373   4.213   4.005  13.014  0.0909 -1.5382 -1.2342
 5638SOL    HW228374   4.249   3.900  13.119 -0.1110  2.2190  1.3031
 5639SOL     OW28375   1.126   1.900   8.784 -0.3817 -0.2214  0.0259
 5639SOL    HW128376   1.070   1.822   8.781 -0.1976 -0.2269 -2.7118
 5639SOL    HW228377   1.176   1.886   8.865 -1.0466  2.0002  0.8010
 5640SOL     OW28378   3.237   4.410   4.882 -0.1858 -0.4878 -0.3775
 5640SOL    HW128379   3.290   4.385   4.807 -1.9923 -3.5996 -0.6202
 5640SOL    HW228380   3.224   4.505   4.872  1.0989 -0.3298 -0.5251
 5641SOL     OW28381   2.199   0.409   6.582 -0.0747 -0.0747 -0.5844
 5641SOL    HW128382   2.145   0.486   6.597  0.7987  0.7562 -1.6375
 5641SOL    HW228383   2.193   0.356   6.661  2.0061  1.6994  0.7741
 5642SOL     OW28384   2.445   1.427   0.080  0.0742 -0.1996 -0.3347
 5642SOL    HW128385   2.366   1.417   0.132  1.2054 -0.1438  1.4053
 5642SOL    HW228386   2.513   1.418   0.148  1.0262  0.6074 -1.1870
 5643SOL     OW28387   3.242   4.280   3.209 -0.7432 -0.1636 -0.1238
 5643SOL    HW128388   3.307   4.210   3.197  0.5072  0.5818  2.2571
 5643SOL    HW228389   3.262   4.267   3.302 -0.5046 -0.9500 -0.2857
 5644SOL     OW28390   0.723   2.802   3.127  0.6661 -0.3442 -0.6817
 5644SOL    HW128391   0.795   2.833   3.072  0.7621 -0.0008 -0.3614
 5644SOL    HW228392   0.757   2.726   3.176  0.1644 -0.1398 -0.0199
 5645SOL     OW28393   1.359   1.409  14.263 -0.6726 -0.3119 -0.1174
 5645SOL    HW128394   1.431   1.467  14.290 -0.0265 -0.9873 -0.3889
 5645SOL    HW228395   1.366   1.424  14.169 -0.8058  2.2353  0.2818
 5646SOL     OW28396   3.731   2.044  10.210 -0.2584 -0.1344 -0.6555
 5646SOL    HW128397   3.769   1.958  10.192  0.3900 -0.0459  0.2929
 5646SOL    HW228398   3.753   2.092  10.130  2.0941 -1.9815 -1.1048
 5647SOL     OW28399   2.247   1.973  10.254 -0.2528 -0.3242 -0.0207
 5647SOL    HW128400   2.160   2.008  10.238 -0.4363  0.6067  3.1427
 5647SOL    HW228401   2.276   2.050  10.303  0.6362 -0.1349 -0.8363
 5648SOL     OW28402   4.302   0.525  10.673 -0.3310 -0.0265 -0.4554
 5648SOL    HW128403   4.367   0.466  10.712 -0.5019  0.2327  0.2205
 5648SOL    HW228404   4.264   0.471  10.604  0.0954 -1.2448  0.2609
 5649SOL     OW28405   1.012   0.488   1.863 -0.9515 -0.2251 -0.8436
 5649SOL    HW128406   1.012   0.511   1.956  0.8218 -3.6631  0.0099
 5649SOL    HW228407   0.922   0.458   1.862 -1.1241  0.2201  2.7355
 5650SOL     OW28408   0.502   0.622   4.377  0.1727 -0.2830  0.6046
 5650SOL    HW128409   0.551   0.606   4.457  1.0824  0.2597  0.1588
 5650SOL    HW228410   0.463   0.708   4.390  0.1467 -0.1843 -0.1122
 5651SOL     OW28411   4.651   0.315   9.530  0.2318 -0.4662 -0.3556
 5651SOL    HW128412   4.673   0.348   9.443  0.0756 -0.6095 -0.4495
 5651SOL    HW228413   4.557   0.301   9.529  0.5262 -2.4592  0.1942
 5652SOL     OW28414   2.731   3.079  17.171 -0.3590 -0.1784 -0.4446
 5652SOL    HW128415   2.720   3.088  17.076  0.9548  0.8224 -0.5008
 5652SOL    HW228416   2.801   3.145  17.176  2.5716 -3.3419  0.2188
 5653SOL     OW28417   1.351   2.850   5.673  0.4514 -0.2882  0.3114
 5653SOL    HW128418   1.302   2.926   5.703  0.6328 -0.8540  2.0578
 5653SOL    HW228419   1.286   2.781   5.685 -2.0046  1.8620 -0.6648
 5654SOL     OW28420   0.724   3.844   4.546 -0.1450  0.3473  0.2368
 5654SOL    HW128421   0.754   3.830   4.456 -2.1569 -0.0678 -0.3760
 5654SOL    HW228422   0.776   3.783   4.597 -1.0957  0.3435  1.1920
 5655SOL     OW28423   0.354   1.402   1.622  0.1391 -0.1818  0.0751
 5655SOL    HW128424   0.295   1.380   1.694  0.0266 -0.8487 -0.2209
 5655SOL    HW228425   0.294   1.427   1.552  1.4645 -0.3663 -1.1245
 5656SOL     OW28426   3.752   2.019  16.949 -0.2611  0.2937  0.3655
 5656SOL    HW128427   3.696   2.080  16.997  1.0659  2.2089 -0.5619
 5656SOL    HW228428   3.788   1.972  17.024  0.2327 -0.2610 -0.2161
 5657SOL     OW28429   0.202   3.763   8.183  0.2617 -0.6889  0.3596
 5657SOL    HW128430   0.179   3.677   8.218 -0.2593 -1.9079 -3.0213
 5657SOL    HW228431   0.117   3.801   8.163  0.0812 -0.7018  1.0920
 5658SOL     OW28432   3.750   1.671   5.383  0.2183  0.1694  0.1190
 5658SOL    HW128433   3.843   1.685   5.369  0.6735 -2.2949  0.7829
 5658SOL    HW228434   3.741   1.741   5.448 -0.2181 -0.3196  0.5903
 5659SOL     OW28435   4.196   3.057   2.409 -0.1569  0.9303 -0.1245
 5659SOL    HW128436   4.130   3.116   2.373 -0.3332 -0.5883 -2.2682
 5659SOL    HW228437   4.167   3.033   2.496  0.4270 -1.2039 -0.5198
 5660SOL     OW28438   3.367   1.940   1.131  0.0311  0.3946  0.2366
 5660SOL    HW128439   3.313   1.971   1.058 -0.6619  1.3750  1.1685
 5660SOL    HW228440   3.327   1.854   1.144  0.5716  0.1115  0.0172
 5661SOL     OW28441   3.874   3.678   3.248  0.2380  0.4037  0.1884
 5661SOL    HW128442   3.779   3.667   3.253 -0.0580  3.3916  0.7256
 5661SOL    HW228443   3.881   3.654   3.156 -0.6828 -3.0319  1.0087
 5662SOL     OW28444   2.973   4.532   5.256 -0.3023 -0.3333  0.2168
 5662SOL    HW128445   2.931   4.515   5.171  1.7543 -0.7719 -0.7109
 5662SOL    HW228446   3.046   4.586   5.228  1.7148 -2.2898  1.6363
 5663SOL     OW28447   3.946   1.667   8.425 -0.1029 -0.1150  0.2160
 5663SOL    HW128448   3.995   1.719   8.488  3.4916 -1.5153 -1.4414
 5663SOL    HW228449   3.996   1.669   8.343  0.1137  0.6022  0.3663
 5664SOL     OW28450   3.394   4.442   8.991 -0.2026  0.1755 -0.4781
 5664SOL    HW128451   3.314   4.419   9.038  0.3651  0.4342  0.6100
 5664SOL    HW228452   3.463   4.466   9.053 -0.9597  0.2079  0.3550
 5665SOL     OW28453   1.382   4.381   2.360  0.0812 -0.1561  0.3985
 5665SOL    HW128454   1.392   4.324   2.436  3.4965  2.4233  1.9051
 5665SOL    HW228455   1.327   4.454   2.386  1.8205  0.3894  2.5632
 5666SOL     OW28456   2.720   1.328   5.986 -0.1979 -0.1798  0.6866
 5666SOL    HW128457   2.789   1.309   6.050  0.0073  0.2276  0.5828
 5666SOL    HW228458   2.770   1.358   5.910  0.4911 -1.1312  0.7577
 5667SOL     OW28459   1.158   3.778  15.517 -0.0369 -0.2381 -0.1208
 5667SOL    HW128460   1.077   3.790  15.467  1.3061  1.1675 -1.9701
 5667SOL    HW228461   1.209   3.724  15.456  0.9599  0.5668  0.0044
 5668SOL     OW28462   2.462   3.222   3.826  0.2421  0.4073 -0.0281
 5668SOL    HW128463   2.519   3.191   3.756 -1.7481 -0.4324 -1.2722
 5668SOL    HW228464   2.381   3.174   3.812  0.8976 -0.8392  0.4364
 5669SOL     OW28465   2.103   2.794   5.377  0.1270 -0.0391 -0.0024
 5669SOL    HW128466   2.190   2.756   5.392  0.6076  0.3612 -1.8241
 5669SOL    HW228467   2.057   2.714   5.404  0.7896 -0.2018  0.6367
 5670SOL     OW28468   4.691   2.827   6.897  0.6132  0.0846  0.3902
 5670SOL    HW128469   0.010   2.853   6.979  0.0996  1.4679  0.2230
 5670SOL    HW228470   4.599   2.846   6.919 -0.3092  0.1663 -3.6038
 5671SOL     OW28471   2.442   4.157  10.002 -0.2503  0.3433  0.0620
 5671SOL    HW128472   2.346   4.161   9.998 -0.3135 -0.2962  1.0463
 5671SOL    HW228473   2.464   4.065  10.016  1.0352  0.5772 -0.4359
 5672SOL     OW28474   4.362   2.233   7.675 -0.3409 -0.5852  0.0030
 5672SOL    HW128475   4.276   2.276   7.679 -0.2011 -0.4392  1.2671
 5672SOL    HW228476   4.374   2.200   7.763 -0.4930 -1.3685 -0.2721
 5673SOL     OW28477   3.361   4.107   7.873 -0.0401  0.1199  0.5064
 5673SOL    HW128478   3.329   4.023   7.905 -0.2116 -0.2140 -0.5358
 5673SOL    HW228479   3.300   4.134   7.803  0.6137  2.4344  0.8098
 5674SOL     OW28480   4.153   3.872   0.313 -0.6288 -0.2738 -0.5115
 5674SOL    HW128481   4.190   3.835   0.232 -3.1818  2.5759 -2.9561
 5674SOL    HW228482   4.136   3.790   0.359  0.9096 -0.5328 -0.3963
 5675SOL     OW28483   1.242   4.570   2.470  0.7968  0.0529 -0.1054
 5675SOL    HW128484   1.192   4.595   2.547 -1.3973  1.4353 -1.9917
 5675SOL    HW228485   1.285   4.645   2.430  1.2558  0.2947  0.8477
 5676SOL     OW28486   0.513   3.821  13.042 -0.2481  0.6516  0.7237
 5676SOL    HW128487   0.480   3.732  13.028 -0.1738  0.6346  0.6582
 5676SOL    HW228488   0.434   3.874  13.055  0.0646  1.3987 -0.4642
 5677SOL     OW28489   4.626   3.999  17.604  0.1942 -0.6802  0.4258
 5677SOL    HW128490   4.560   3.937  17.635 -1.4163  0.5061 -0.5834
 5677SOL    HW228491   4.612   4.006  17.509  0.7157 -1.1882  0.3121
 5678SOL     OW28492   0.527   1.807   0.776 -0.1932  0.4050  0.4902
 5678SOL    HW128493   0.587   1.733   0.770 -0.3461  0.4250 -1.3157
 5678SOL    HW228494   0.488   1.811   0.863 -0.7703 -0.6424  0.2847
 5679SOL     OW28495   0.348   0.497   8.292  0.2858  0.2291  0.1569
 5679SOL    HW128496   0.290   0.560   8.335  0.0308  0.1374 -0.0524
 5679SOL    HW228497   0.370   0.454   8.375  0.3095 -1.0074 -0.5020
 5680SOL     OW28498   0.836   1.633   8.024  0.2609 -0.0150 -0.0227
 5680SOL    HW128499   0.834   1.724   8.055  0.9709 -0.0926  0.2471
 5680SOL    HW228500   0.813   1.582   8.102 -0.1621  1.9327  1.1262
 5681SOL     OW28501   2.317   3.496   7.616  0.2761 -0.6984 -0.1662
 5681SOL    HW128502   2.311   3.579   7.568 -3.1263 -1.8063 -1.6702
 5681SOL    HW228503   2.371   3.523   7.690  0.6963 -1.0773 -0.3363
 5682SOL     OW28504   0.326   4.571   4.698 -0.5754  0.3140 -0.2461
 5682SOL    HW128505   0.379   4.508   4.746 -0.4668  1.7825  1.5448
 5682SOL    HW228506   0.281   4.508   4.641 -1.1725  0.7391 -0.2368
 5683SOL     OW28507   2.376   1.302   8.921 -1.2241 -0.1843 -0.3543
 5683SOL    HW128508   2.393   1.323   9.013  1.6342 -1.0174 -0.6930
 5683SOL    HW228509   2.382   1.382   8.869 -0.6810 -0.7970 -1.2279
 5684SOL     OW28510   4.011   0.646   8.340 -0.3418  0.1259  0.0526
 5684SOL    HW128511   3.947   0.587   8.379 -1.0575  0.9353  0.1038
 5684SOL    HW228512   4.076   0.659   8.409 -0.6682  0.0007  0.3840
 5685SOL     OW28513   4.164   0.801   5.228 -0.2572  0.0832 -0.8112
 5685SOL    HW128514   4.185   0.744   5.154 -0.6039  0.1149 -0.9344
 5685SOL    HW228515   4.094   0.858   5.199  1.3630  2.9601  0.9774
 5686SOL     OW28516   4.718   0.809  12.640 -0.1986 -0.6846  0.0660
 5686SOL    HW128517   0.071   0.867  12.643 -1.9610  1.6642 -0.7205
 5686SOL    HW228518   0.018   0.730  12.690 -0.1630  0.0737  1.2601
 5687SOL     OW28519   3.564   4.540   5.878  0.6246 -0.3991 -0.1439
 5687SOL    HW128520   3.549   4.478   5.949  2.7078  1.0318  1.5659
 5687SOL    HW228521   3.524   4.615   5.923  0.0375 -1.6185  1.3670
 5688SOL     OW28522   3.326   4.545   2.565  0.7761  0.2257  0.5823
 5688SOL    HW128523   3.354   4.631   2.597  0.2639  0.4455  0.4351
 5688SOL    HW228524   3.278   4.509   2.640  2.1931 -0.8541  0.9715
 5689SOL     OW28525   2.145   1.912  15.189  0.0670  0.0410  0.1394
 5689SOL    HW128526   2.111   1.996  15.158 -0.6407 -1.2627 -2.6457
 5689SOL    HW228527   2.062   1.873  15.218  0.3866 -0.2219  0.6952
 5690SOL     OW28528   1.837   0.097   0.658  0.0367 -0.2977 -0.0557
 5690SOL    HW128529   1.850   0.144   0.575  1.3800 -1.7458 -0.6488
 5690SOL    HW228530   1.928   0.085   0.683 -0.4798 -0.9573  1.5281
 5691SOL     OW28531   3.387   3.681   6.746 -0.0390  0.2858 -0.3941
 5691SOL    HW128532   3.351   3.634   6.671  1.3775  2.7909 -2.6259
 5691SOL    HW228533   3.472   3.646   6.772 -0.9140 -0.6325  1.2207
 5692SOL     OW28534   0.718   0.386   6.584  0.0397 -0.1073  0.1204
 5692SOL    HW128535   0.632   0.416   6.555  0.6466  0.1549 -1.4138
 5692SOL    HW228536   0.688   0.348   6.666  2.2010  0.6769  1.2757
 5693SOL     OW28537   1.651   1.127  11.392 -0.1268 -0.7283  0.1342
 5693SOL    HW128538   1.688   1.130  11.303  1.1797  0.0911  0.7083
 5693SOL    HW228539   1.647   1.220  11.414  2.3721 -0.2124 -1.5369
 5694SOL     OW28540   1.427   3.838   0.104  0.2038 -0.1659 -0.0085
 5694SOL    HW128541   1.440   3.769   0.038 -2.2582 -1.2242  0.5857
 5694SOL    HW228542   1.407   3.918   0.054  1.8367 -1.2458 -2.4227
 5695SOL     OW28543   3.793   3.392  14.781 -0.3241  0.7008 -0.9691
 5695SOL    HW128544   3.809   3.367  14.872  1.1932  0.1757 -1.3722
 5695SOL    HW228545   3.741   3.472  14.790 -1.0700  0.2701 -1.4717
 5696SOL     OW28546   1.770   3.500  15.175  0.2567  0.8828  0.4059
 5696SOL    HW128547   1.712   3.572  15.152  0.1477 -0.1160 -2.5136
 5696SOL    HW228548   1.704   3.431  15.184  0.3596  0.8339  0.7629
 5697SOL     OW28549   0.711   2.783   5.877  0.4065 -0.0606 -0.5270
 5697SOL    HW128550   0.776   2.793   5.808  0.3210  1.7411 -0.3599
 5697SOL    HW228551   0.650   2.856   5.864  1.2669  0.9735  1.3110
 5698SOL     OW28552   3.590   3.743   1.854 -0.0192 -0.1539  0.0259
 5698SOL    HW128553   3.512   3.796   1.868 -0.1980 -0.7335  1.2406
 5698SOL    HW228554   3.637   3.790   1.785  0.1770 -1.5583 -0.7930
 5699SOL     OW28555   3.688   3.613   3.612  0.1942 -0.2821 -0.2124
 5699SOL    HW128556   3.670   3.520   3.622 -1.0328 -0.1401 -1.0793
 5699SOL    HW228557   3.783   3.616   3.611  0.2163 -0.3877  1.1497
 5700SOL     OW28558   1.390   1.258   3.571  0.3225  1.0099  0.0143
 5700SOL    HW128559   1.382   1.351   3.552  0.6210  1.0261 -0.0301
 5700SOL    HW228560   1.300   1.236   3.545 -0.3159  4.6379 -0.8541
 5701SOL     OW28561   3.780   1.468   7.248  0.3977  0.1469 -0.4742
 5701SOL    HW128562   3.689   1.487   7.270  1.0220  0.9788  1.3182
 5701SOL    HW228563   3.785   1.508   7.161  1.6464  2.5519  0.7180
 5702SOL     OW28564   1.775   1.972   5.536  0.0910  0.3677 -0.2121
 5702SOL    HW128565   1.706   2.034   5.513  1.5757  2.0308 -0.1885
 5702SOL    HW228566   1.767   1.903   5.471 -1.1291  0.1508  0.1769
 5703SOL     OW28567   4.140   0.548  14.392  0.3061 -0.0526  0.0913
 5703SOL    HW128568   4.207   0.501  14.442 -0.5651 -0.6328  0.7270
 5703SOL    HW228569   4.159   0.541  14.299 -1.5684  1.2106 -0.3693
 5704SOL     OW28570   0.613   1.388   1.773 -0.9304  0.0578 -0.5071
 5704SOL    HW128571   0.523   1.362   1.754 -1.1138  1.8535 -2.1424
 5704SOL    HW228572   0.613   1.475   1.732  1.0552 -0.3171 -1.2850
 5705SOL     OW28573   1.238   1.612   5.537 -0.2155 -0.6243  0.3985
 5705SOL    HW128574   1.321   1.638   5.578  1.1169 -1.7010 -1.6625
 5705SOL    HW228575   1.253   1.519   5.521  1.4519 -0.2807 -0.0282
 5706SOL     OW28576   2.883   1.363   1.935 -0.1700  0.0243  0.5205
 5706SOL    HW128577   2.866   1.270   1.922 -1.3225  0.1179  1.3804
 5706SOL    HW228578   2.966   1.354   1.983 -0.8591  1.4800  1.9856
 5707SOL     OW28579   4.577   0.846  13.907 -0.2401 -0.3438  0.0956
 5707SOL    HW128580   4.625   0.823  13.827  1.9391  0.1628  1.2627
 5707SOL    HW228581   4.643   0.816  13.970 -1.0275 -1.7761  0.2338
 5708SOL     OW28582   2.086   0.974   9.924  0.2143  0.2378 -0.1920
 5708SOL    HW128583   2.074   0.883   9.898  0.7973  0.4476 -1.1937
 5708SOL    HW228584   2.076   0.973  10.019 -1.8326  1.7061 -0.3670
 5709SOL     OW28585   1.885   1.062   2.390 -0.1058 -0.0266  0.2873
 5709SOL    HW128586   1.911   1.104   2.308 -1.0670  1.4514  0.7260
 5709SOL    HW228587   1.876   0.971   2.363 -0.2962 -0.2324  1.0410
 5710SOL     OW28588   3.257   2.676  16.624  0.6554 -0.3684 -0.1631
 5710SOL    HW128589   3.172   2.677  16.580  0.4105  0.3166  0.3245
 5710SOL    HW228590   3.225   2.655  16.712 -1.1173  1.5490 -0.3367
 5711SOL     OW28591   1.023   1.337   7.072 -0.0812 -0.3224  0.1867
 5711SOL    HW128592   1.005   1.319   6.979 -0.3274  2.2983 -0.2644
 5711SOL    HW228593   1.119   1.331   7.074 -0.0272 -0.6149 -2.4910
 5712SOL     OW28594   3.250   1.478   5.558 -0.1844 -0.1294 -0.5691
 5712SOL    HW128595   3.336   1.473   5.517 -1.0217 -0.1910 -2.3069
 5712SOL    HW228596   3.230   1.387   5.581  0.1449  0.0448  0.4151
 5713SOL     OW28597   3.644   1.423   3.535 -0.5060  0.4380  0.0439
 5713SOL    HW128598   3.674   1.332   3.526 -0.8151  0.2723  0.6986
 5713SOL    HW228599   3.617   1.434   3.444 -0.0091 -0.4645 -0.2168
 5714SOL     OW28600   0.478   2.588   7.363  0.4200  0.3814 -0.0262
 5714SOL    HW128601   0.406   2.585   7.426 -0.1285  0.3091 -0.6674
 5714SOL    HW228602   0.429   2.624   7.289  2.8317 -2.4266 -2.9379
 5715SOL     OW28603   2.861   1.662  13.476 -0.5151  0.1219 -0.4995
 5715SOL    HW128604   2.798   1.622  13.416 -0.7661 -0.3067  0.0581
 5715SOL    HW228605   2.809   1.737  13.506  1.0482  1.2746 -0.6534
 5716SOL     OW28606   2.118   4.027  11.686 -0.8846  0.4951  0.0168
 5716SOL    HW128607   2.196   3.971  11.682 -0.1529  1.6316 -1.6775
 5716SOL    HW228608   2.068   3.984  11.756 -0.9214  0.5809  0.0434
 5717SOL     OW28609   2.442   1.518   4.988 -0.9369 -0.3105 -0.0961
 5717SOL    HW128610   2.486   1.573   5.052 -2.5676  0.0748  0.6817
 5717SOL    HW228611   2.399   1.582   4.931 -1.6442 -1.2719 -0.6361
 5718SOL     OW28612   1.274   2.820   3.607 -0.0026 -0.5390  0.5413
 5718SOL    HW128613   1.265   2.786   3.518 -0.7160  0.7852  0.1189
 5718SOL    HW228614   1.346   2.880   3.588 -1.3256  0.8687 -0.0052
 5719SOL     OW28615   0.100   3.808   8.859  0.7034 -0.2221 -0.2459
 5719SOL    HW128616   0.101   3.828   8.953  2.6666  2.1102 -0.7629
 5719SOL    HW228617   0.043   3.731   8.858 -0.5652  0.7237  0.0335
 5720SOL     OW28618   0.968   0.931  16.773 -0.0051  0.0453 -0.1300
 5720SOL    HW128619   0.897   0.942  16.710  0.4210  0.0650 -0.6038
 5720SOL    HW228620   0.977   1.014  16.820  0.6521  0.3829 -0.8484
 5721SOL     OW28621   2.066   4.002  17.684 -0.7712  0.2915 -0.1087
 5721SOL    HW128622   2.020   3.928   0.026 -1.6086  0.2193 -1.2769
 5721SOL    HW228623   2.085   4.057   0.065 -3.3512 -2.6514  2.6154
 5722SOL     OW28624   4.399   3.433   8.170  0.3559  0.4098  0.1151
 5722SOL    HW128625   4.306   3.433   8.195  0.1359  1.6786 -0.6978
 5722SOL    HW228626   4.434   3.357   8.217  1.0733  0.4112 -0.4134
 5723SOL     OW28627   1.185   2.064   9.735 -0.5342  0.0110 -0.6405
 5723SOL    HW128628   1.105   2.114   9.755 -0.5990 -0.6263  0.7156
 5723SOL    HW228629   1.142   1.981   9.714 -1.0857  0.8553 -2.8224
 5724SOL     OW28630   0.126   3.595   6.940 -0.4931  0.1087 -0.5676
 5724SOL    HW128631   0.122   3.642   7.023 -1.7515 -2.4329  0.7939
 5724SOL    HW228632   0.111   3.505   6.971 -0.7726  0.3384 -0.0403
 5725SOL     OW28633   2.426   2.881   5.442  0.2815  0.4586 -0.2782
 5725SOL    HW128634   2.416   2.868   5.536  0.7737  1.5271 -0.0776
 5725SOL    HW228635   2.374   2.962   5.446  1.9316  1.5273 -0.4389
 5726SOL     OW28636   3.889   0.501  12.532 -0.0046 -0.5783 -0.1206
 5726SOL    HW128637   3.904   0.579  12.478 -0.9460 -1.0975 -1.1373
 5726SOL    HW228638   3.895   0.442  12.457  0.5763  1.4777 -1.6751
 5727SOL     OW28639   2.441   0.230   4.690  0.6100 -0.8766 -0.1660
 5727SOL    HW128640   2.528   0.229   4.729  0.8003  0.8303 -0.5630
 5727SOL    HW228641   2.407   0.169   4.756  1.8039 -0.0695  1.1801
 5728SOL     OW28642   3.321   3.936   7.533  0.0380 -0.3292 -0.0632
 5728SOL    HW128643   3.417   3.940   7.541 -0.1056  0.8358  1.2160
 5728SOL    HW228644   3.286   4.022   7.511  0.3723 -0.3412 -0.6417
 5729SOL     OW28645   4.266   2.964   9.278 -0.1644  0.2264  0.5832
 5729SOL    HW128646   4.281   3.027   9.349  1.1136  0.5779 -0.0073
 5729SOL    HW228647   4.346   2.912   9.288 -0.6751 -0.5814  0.4887
 5730SOL     OW28648   1.956   1.715   2.171  0.5287 -0.4574 -0.1668
 5730SOL    HW128649   1.989   1.804   2.181 -1.1056  0.0311  0.8323
 5730SOL    HW228650   1.994   1.686   2.088  2.4527 -1.4225  1.0686
 5731SOL     OW28651   3.321   1.977   8.812  0.0629 -0.4890 -0.2785
 5731SOL    HW128652   3.292   1.972   8.903 -2.4557 -0.2332 -1.0628
 5731SOL    HW228653   3.289   2.067   8.804 -0.1970 -0.5428  0.1452
 5732SOL     OW28654   3.255   0.793   2.576  0.3363  0.1661 -0.4626
 5732SOL    HW128655   3.335   0.743   2.595 -1.1514 -2.2494 -0.5566
 5732SOL    HW228656   3.192   0.737   2.621 -1.0062 -0.1275 -2.6971
 5733SOL     OW28657   2.255   0.695  14.925 -0.1709  0.2094  0.1658
 5733SOL    HW128658   2.204   0.742  14.990 -1.5844 -0.0469 -0.7632
 5733SOL    HW228659   2.330   0.754  14.915  1.6843 -2.1728  0.1716
 5734SOL     OW28660   4.302   1.243   3.800  0.8711 -0.4617  0.2976
 5734SOL    HW128661   4.349   1.285   3.872 -0.3745 -0.9744  1.4225
 5734SOL    HW228662   4.341   1.283   3.722 -0.0818 -2.2493 -1.0929
 5735SOL     OW28663   3.071   4.721   6.160 -0.0023 -0.5734 -0.0861
 5735SOL    HW128664   3.011   4.708   6.233 -1.7598  0.1563 -1.4100
 5735SOL    HW228665   3.042   4.651   6.100  0.7359  0.3111 -1.4808
 5736SOL     OW28666   3.073   3.296   1.888 -0.1972 -0.0708  0.1925
 5736SOL    HW128667   2.990   3.285   1.934 -0.2598 -2.4566 -0.4537
 5736SOL    HW228668   3.034   3.330   1.808 -1.5987 -0.0726  0.8670
 5737SOL     OW28669   4.574   1.399   2.364 -0.4612  0.1029 -1.0134
 5737SOL    HW128670   4.584   1.329   2.429  0.9982  1.8468  0.6335
 5737SOL    HW228671   4.555   1.348   2.285 -0.0615  1.1981 -1.8103
 5738SOL     OW28672   1.940   2.684  14.785 -0.5821 -0.3837  0.7801
 5738SOL    HW128673   1.864   2.676  14.728  0.7201 -1.3855 -0.7931
 5738SOL    HW228674   1.965   2.770  14.751 -0.0063 -0.6362  0.5785
 5739SOL     OW28675   0.099   1.100   1.880  0.2047  0.0143 -0.2709
 5739SOL    HW128676   0.006   1.119   1.865  0.8421  1.5164 -2.4449
 5739SOL    HW228677   0.123   1.166   1.946  1.2548 -1.3509  0.6960
 5740SOL     OW28678   0.652   3.103   1.901  0.1736 -0.5280 -0.3566
 5740SOL    HW128679   0.557   3.087   1.908  0.0245  0.7205  0.4515
 5740SOL    HW228680   0.673   3.083   1.810 -1.1163 -1.4560 -0.4628
 5741SOL     OW28681   2.728   3.247   0.693  0.3284  0.0397  0.3186
 5741SOL    HW128682   2.746   3.261   0.786 -0.0240  0.7018  0.2898
 5741SOL    HW228683   2.696   3.331   0.660  0.4627 -0.4163 -0.9590
 5742SOL     OW28684   1.976   4.421   2.180  0.1998 -0.0129  0.4318
 5742SOL    HW128685   2.071   4.410   2.173  0.0760 -0.2091 -0.9744
 5742SOL    HW228686   1.974   4.412   2.275 -0.3754  0.4193  0.4608
 5743SOL     OW28687   2.256   1.037  13.975  0.0511 -0.2072 -0.3443
 5743SOL    HW128688   2.272   1.080  14.059 -1.4319  0.9450 -0.6486
 5743SOL    HW228689   2.330   0.977  13.967  0.9019  0.8572 -0.3956
 5744SOL     OW28690   2.269   0.818   8.502  0.2777  0.0260  0.2959
 5744SOL    HW128691   2.234   0.901   8.535  0.2370 -0.7598  2.2381
 5744SOL    HW228692   2.202   0.756   8.533 -0.5101  0.4448 -0.5727
 5745SOL     OW28693   0.481   0.546  17.334 -0.0870  0.7629  0.1166
 5745SOL    HW128694   0.396   0.582  17.307 -0.7371 -0.0053  1.1312
 5745SOL    HW228695   0.459   0.529  17.426 -0.7730 -1.4001 -0.4556
 5746SOL     OW28696   2.755   4.501  17.122  0.0223 -0.0009 -0.1024
 5746SOL    HW128697   2.704   4.467  17.049  0.8921  2.6771 -1.9283
 5746SOL    HW228698   2.842   4.490  17.084  1.2624  0.2173  2.6722
 5747SOL     OW28699   3.427   1.510  12.336  0.1841 -0.1739  0.1693
 5747SOL    HW128700   3.339   1.531  12.369 -0.2536  0.8378 -1.6194
 5747SOL    HW228701   3.441   1.423  12.372  2.0663  1.2077  2.7757
 5748SOL     OW28702   0.372   2.081  14.283 -0.2716 -0.5351  0.1199
 5748SOL    HW128703   0.387   2.171  14.311  1.4646 -0.1087 -2.2285
 5748SOL    HW228704   0.385   2.030  14.363  1.6992  0.0353  0.1598
 5749SOL     OW28705   4.490   3.898   5.378  0.1340 -0.4570  0.6433
 5749SOL    HW128706   4.563   3.865   5.430  0.9974  2.7759  1.4737
 5749SOL    HW228707   4.458   3.821   5.332 -1.5414  0.0777  0.9046
 5750SOL     OW28708   0.641   4.069   2.929  0.3461  0.5454  0.1216
 5750SOL    HW128709   0.694   4.099   2.855 -2.1832  0.4709 -1.7161
 5750SOL    HW228710   0.553   4.049   2.898 -0.5175  1.0305  2.2312
 5751SOL     OW28711   4.509   0.840   9.316  0.0374  0.1504  0.2750
 5751SOL    HW128712   4.569   0.779   9.358  1.9669  0.9371 -1.3628
 5751SOL    HW228713   4.573   0.896   9.272  1.7586 -0.8078  1.6122
 5752SOL     OW28714   1.225   2.640   5.806  0.2316  0.3142 -0.1276
 5752SOL    HW128715   1.141   2.641   5.761 -0.8171 -0.4356  1.8355
 5752SOL    HW228716   1.230   2.552   5.843  0.1938  0.5214  0.3739
 5753SOL     OW28717   0.036   0.883   4.731 -0.0070 -0.2268  0.4476
 5753SOL    HW128718   0.127   0.857   4.749 -0.0617 -0.2325  0.7290
 5753SOL    HW228719   0.022   0.818   4.663 -0.6120  0.3929 -0.0192
 5754SOL     OW28720   1.608   3.048   8.338 -0.1813 -0.2698 -0.2145
 5754SOL    HW128721   1.585   3.133   8.300  0.0540 -0.0726  0.0841
 5754SOL    HW228722   1.549   3.044   8.414  2.4356 -0.1360  1.8271
 5755SOL     OW28723   1.474   0.341   7.615  0.0513 -0.3316  0.2147
 5755SOL    HW128724   1.560   0.383   7.608 -0.6025  0.9258 -0.1282
 5755SOL    HW228725   1.499   0.249   7.627  0.7822 -0.2175 -0.4190
 5756SOL     OW28726   1.682   2.507   4.535  0.4598 -0.1699  0.0395
 5756SOL    HW128727   1.701   2.589   4.491 -0.8050  0.2955  0.3643
 5756SOL    HW228728   1.593   2.489   4.503 -0.0363  0.6103  1.0020
 5757SOL     OW28729   2.789   0.356  10.073  0.3158  0.7658 -0.1009
 5757SOL    HW128730   2.700   0.390  10.080  0.1019  0.3588 -0.8086
 5757SOL    HW228731   2.768   0.268  10.104 -0.2771  0.2834 -1.8258
 5758SOL     OW28732   1.024   0.465   3.781  0.2160 -0.4711 -0.2354
 5758SOL    HW128733   0.981   0.416   3.852  0.0849  0.0919  0.0749
 5758SOL    HW228734   1.094   0.508   3.830 -0.5951 -1.4929  1.8621
 5759SOL     OW28735   1.617   0.798   1.817  0.0137 -0.0942 -0.3531
 5759SOL    HW128736   1.668   0.798   1.736  3.0685 -1.6544  1.5912
 5759SOL    HW228737   1.661   0.724   1.859 -0.4585 -0.6179 -0.7690
 5760SOL     OW28738   3.146   4.669   9.027  0.1255 -0.1557 -0.0832
 5760SOL    HW128739   3.164   4.722   8.949  2.3114  2.5615  2.2616
 5760SOL    HW228740   3.054   4.650   9.012  0.2939  0.2230 -1.6110
 5761SOL     OW28741   0.096   1.663   4.082  0.6646  0.7002  0.4706
 5761SOL    HW128742   0.157   1.643   4.011 -0.1415  0.0736 -0.0404
 5761SOL    HW228743   0.080   1.576   4.118  1.8479  1.4654  2.8457
 5762SOL     OW28744   0.298   2.795   5.656 -0.2306 -0.1591 -0.0191
 5762SOL    HW128745   0.335   2.824   5.739  1.8439 -0.7985 -0.7232
 5762SOL    HW228746   0.285   2.700   5.661  1.9979 -0.4535  0.0303
 5763SOL     OW28747   2.946   4.610   3.639 -0.1462  0.2683 -0.5788
 5763SOL    HW128748   2.929   4.520   3.611  2.5216 -0.1268 -0.9368
 5763SOL    HW228749   2.896   4.609   3.720  0.7006  2.0804 -0.0440
 5764SOL     OW28750   1.532   4.685   3.587 -0.6399 -0.1273 -0.2472
 5764SOL    HW128751   1.461   0.015   3.552 -1.3791 -0.5794  0.5703
 5764SOL    HW228752   1.488   4.659   3.668  2.4433 -2.1845  0.7781
 5765SOL     OW28753   3.250   3.997   0.570 -0.9842  0.1262 -0.3503
 5765SOL    HW128754   3.213   4.054   0.637  1.2386  0.4424  0.5797
 5765SOL    HW228755   3.177   3.939   0.548 -0.2113 -1.6565  1.8374
 5766SOL     OW28756   3.909   4.686  13.211 -0.2584  0.4712 -0.6991
 5766SOL    HW128757   3.950   4.607  13.245 -0.8841 -0.9515 -3.2559
 5766SOL    HW228758   3.986   0.001  13.169  0.7767  1.5583  2.2187
 5767SOL     OW28759   3.303   2.782  15.320  0.8568  0.3403 -0.3345
 5767SOL    HW128760   3.337   2.803  15.233  0.1869 -2.4384 -1.2338
 5767SOL    HW228761   3.216   2.821  15.314  1.1476  0.8065 -1.4723
 5768SOL     OW28762   2.940   4.007   7.830 -0.3696 -0.4702 -0.2124
 5768SOL    HW128763   2.980   4.075   7.776 -2.0851  0.7902  0.0990
 5768SOL    HW228764   3.008   3.959   7.879 -1.5080 -1.4662  0.3942
 5769SOL     OW28765   4.470   3.761   3.654 -0.2817 -0.2703 -0.5150
 5769SOL    HW128766   4.504   3.811   3.580  0.4138  2.1144  1.4240
 5769SOL    HW228767   4.435   3.688   3.603 -1.7015  1.3014 -1.8050
 5770SOL     OW28768   0.888   2.048   4.778  0.4305 -0.3437  0.5277
 5770SOL    HW128769   0.980   2.063   4.755  0.5291  0.8161  1.6723
 5770SOL    HW228770   0.882   2.139   4.807  0.4133 -0.7228  1.7249
 5771SOL     OW28771   0.886   3.939   3.475  0.0055  0.0099 -0.5969
 5771SOL    HW128772   0.851   3.898   3.396  1.5538 -0.0851 -1.2336
 5771SOL    HW228773   0.839   4.021   3.463 -1.2476 -0.6813 -0.3657
 5772SOL     OW28774   3.878   4.002   7.134 -0.0800 -0.6695 -0.4214
 5772SOL    HW128775   3.952   4.044   7.177 -0.7233  0.1367 -0.1040
 5772SOL    HW228776   3.818   3.999   7.210 -2.2821  0.6719 -2.1073
 5773SOL     OW28777   0.211   3.727   1.560  0.0944 -0.2460  0.5024
 5773SOL    HW128778   0.301   3.758   1.558  0.5043 -1.5326 -0.9143
 5773SOL    HW228779   0.173   3.778   1.489  2.6253  1.2595  0.2444
 5774SOL     OW28780   2.616   3.942   3.937  0.5013 -0.3288  0.3760
 5774SOL    HW128781   2.639   3.927   3.846 -0.8388  0.0653 -0.0175
 5774SOL    HW228782   2.584   4.031   3.928  0.6928 -0.5430 -2.4440
 5775SOL     OW28783   0.500   4.688   7.677  0.3125 -0.6009  0.2197
 5775SOL    HW128784   0.521   4.711   7.768 -4.2317  1.0357  0.8186
 5775SOL    HW228785   0.435   0.030   7.655 -1.8838 -1.7710  3.1877
 5776SOL     OW28786   4.114   4.117   7.138  0.6970  0.5204  0.2145
 5776SOL    HW128787   4.164   4.132   7.218  0.1955  0.8189  0.4750
 5776SOL    HW228788   4.090   4.207   7.117 -1.6925 -0.0459  0.4519
 5777SOL     OW28789   4.393   4.396   8.705  0.0196 -0.7257 -0.4011
 5777SOL    HW128790   4.462   4.369   8.645  1.5722  0.8215  0.7071
 5777SOL    HW228791   4.363   4.478   8.664  2.7455  0.9046  0.8893
 5778SOL     OW28792   3.577   0.161   4.215  0.3532  0.1226  0.0540
 5778SOL    HW128793   3.586   0.069   4.240  0.3919  0.3519  0.9055
 5778SOL    HW228794   3.616   0.207   4.289 -3.9361  1.1750  1.6919
 5779SOL     OW28795   0.804   2.802   1.926  0.0928  0.0804 -0.2276
 5779SOL    HW128796   0.792   2.738   1.997 -0.8418 -1.6243 -1.9348
 5779SOL    HW228797   0.899   2.796   1.914  0.2435 -0.5222  1.2184
 5780SOL     OW28798   3.567   2.487  17.056 -0.0199  0.0657 -0.6388
 5780SOL    HW128799   3.475   2.494  17.031 -0.8622  1.5652  2.8604
 5780SOL    HW228800   3.583   2.395  17.035 -1.5856 -0.0665 -1.2571
 5781SOL     OW28801   2.288   3.134   8.159 -0.0892 -0.2490  0.4068
 5781SOL    HW128802   2.351   3.204   8.145  0.6275 -0.9132  0.3470
 5781SOL    HW228803   2.333   3.058   8.124  3.1832  1.8158  0.0965
 5782SOL     OW28804   0.614   1.409   3.845  0.0423  0.3732 -0.6142
 5782SOL    HW128805   0.689   1.368   3.888 -0.6489  2.1554  2.3534
 5782SOL    HW228806   0.592   1.481   3.905  3.3394 -0.3916  1.5003
 5783SOL     OW28807   4.587   0.902   7.961 -0.3876  0.1949 -0.6441
 5783SOL    HW128808   4.536   0.830   7.924  1.2969 -1.1206 -0.3959
 5783SOL    HW228809   4.672   0.874   7.926  0.9078  2.9188  0.3835
 5784SOL     OW28810   0.274   3.210   2.315  0.8738  0.0616  0.4059
 5784SOL    HW128811   0.320   3.295   2.316  0.8526  0.0616  0.9813
 5784SOL    HW228812   0.207   3.216   2.247  0.5172 -1.0704  0.6699
 5785SOL     OW28813   0.904   0.225   5.130  0.0971 -0.3874 -0.1250
 5785SOL    HW128814   0.925   0.300   5.186  0.0370 -0.9044  0.5817
 5785SOL    HW228815   0.880   0.270   5.049  1.6864 -0.6626 -0.7582
 5786SOL     OW28816   3.500   2.339   7.586 -0.0231  0.4674 -0.0884
 5786SOL    HW128817   3.555   2.408   7.549  0.7922 -0.3700 -0.4407
 5786SOL    HW228818   3.495   2.283   7.508 -0.4624 -0.0092  0.2777
 5787SOL     OW28819   1.100   1.162  15.565 -0.8259  0.2079 -0.7100
 5787SOL    HW128820   1.104   1.244  15.517  0.1027  0.7989  0.3643
 5787SOL    HW228821   1.105   1.106  15.488 -0.0628  0.4931 -0.8700
 5788SOL     OW28822   2.853   2.896   6.428  0.1644 -0.3623  0.5363
 5788SOL    HW128823   2.914   2.836   6.471  0.4807 -0.5717 -0.1914
 5788SOL    HW228824   2.771   2.849   6.443  0.4526 -1.3693 -0.9136
 5789SOL     OW28825   1.501   2.561  12.455 -0.3158  0.1322 -0.1871
 5789SOL    HW128826   1.406   2.551  12.460 -0.2905  0.8909  2.0352
 5789SOL    HW228827   1.512   2.652  12.428 -1.3087  0.2600 -0.1567
 5790SOL     OW28828   3.876   3.885   2.013 -0.1792  0.3397 -0.4043
 5790SOL    HW128829   3.845   3.799   2.041  0.1057  0.0098 -1.1131
 5790SOL    HW228830   3.939   3.866   1.944  0.1326 -0.3588  0.0817
 5791SOL     OW28831   1.207   1.204   9.608  0.3040  0.2759 -0.2368
 5791SOL    HW128832   1.204   1.278   9.669  0.4476 -0.3000  0.4731
 5791SOL    HW228833   1.188   1.236   9.520 -2.3905  0.6772  0.4883
 5792SOL     OW28834   4.570   3.649   8.820  0.0609 -0.3692 -0.5950
 5792SOL    HW128835   4.598   3.614   8.905  1.1261  0.3152 -0.6649
 5792SOL    HW228836   4.635   3.615   8.758  0.6551  1.2500 -0.8489
 5793SOL     OW28837   4.394   0.972  10.360 -0.2725  0.4313  0.2357
 5793SOL    HW128838   4.464   1.014  10.412  0.0657 -1.2619  1.1433
 5793SOL    HW228839   4.365   0.902  10.418 -2.2306 -0.0815 -1.3855
 5794SOL     OW28840   4.380   0.658   7.345 -0.0110 -0.2541 -0.2533
 5794SOL    HW128841   4.363   0.639   7.438 -1.2481  2.5192  0.1018
 5794SOL    HW228842   4.437   0.585   7.324  0.9432  0.7502 -1.1461
 5795SOL     OW28843   2.205   0.724  10.610 -0.1957 -0.2493  0.0109
 5795SOL    HW128844   2.124   0.774  10.601 -0.9231 -1.6792 -1.4477
 5795SOL    HW228845   2.179   0.650  10.665 -1.7244  0.2484 -0.0528
 5796SOL     OW28846   0.437   4.682  12.419  0.4158  0.1557  0.2559
 5796SOL    HW128847   0.429   4.681  12.323  0.8269  1.3794  0.2118
 5796SOL    HW228848   0.420   0.050  12.442 -0.8162  0.1038 -0.4375
 5797SOL     OW28849   4.460   1.104  14.005  0.5443 -0.5289  0.2747
 5797SOL    HW128850   4.467   1.009  13.997  2.3293 -0.4728  1.2075
 5797SOL    HW228851   4.553   1.125  14.000 -0.4851  3.0412 -3.5267
 5798SOL     OW28852   0.007   3.849   5.137 -0.0210 -0.1801  0.5614
 5798SOL    HW128853   0.033   3.890   5.219  0.4021  1.0689 -0.2046
 5798SOL    HW228854   4.687   3.916   5.083  0.3188 -0.4451 -0.0349
 5799SOL     OW28855   2.760   3.206   3.672  0.0452 -0.1502  0.3160
 5799SOL    HW128856   2.718   3.253   3.599 -0.4452 -1.0687  0.0011
 5799SOL    HW228857   2.848   3.190   3.639  0.8350  0.9149  1.9117
 5800SOL     OW28858   4.342   0.407   0.615  0.1703  0.0928  0.1268
 5800SOL    HW128859   4.360   0.388   0.523 -1.4434  0.3865 -0.2574
 5800SOL    HW228860   4.380   0.494   0.618 -0.5848  0.4152  0.2352
 5801SOL     OW28861   1.138   1.983   1.167 -0.1942 -0.0990 -0.6001
 5801SOL    HW128862   1.134   2.031   1.250  1.1179 -1.3358  0.1894
 5801SOL    HW228863   1.162   1.893   1.189  0.6093  0.7918  2.1268
 5802SOL     OW28864   0.176   3.133   2.553 -0.3041  0.4025 -0.7492
 5802SOL    HW128865   0.204   3.141   2.462 -0.6274  1.6933 -0.7334
 5802SOL    HW228866   0.082   3.143   2.539 -0.5085  0.7852  0.9588
 5803SOL     OW28867   1.824   1.003   3.808 -0.2203  0.5428 -0.3551
 5803SOL    HW128868   1.871   1.038   3.884 -1.5612 -1.0874  1.2346
 5803SOL    HW228869   1.822   1.079   3.750 -1.9518  0.1754 -0.7620
 5804SOL     OW28870   1.497   0.573   1.282 -0.2714 -0.3182 -0.1004
 5804SOL    HW128871   1.558   0.499   1.291 -3.3779 -3.1851 -2.5586
 5804SOL    HW228872   1.434   0.544   1.348 -1.1591 -1.6881 -1.5355
 5805SOL     OW28873   1.940   0.200   3.731 -1.0955 -0.3761 -0.3849
 5805SOL    HW128874   1.861   0.146   3.728  0.4618 -2.6604 -0.6335
 5805SOL    HW228875   1.945   0.216   3.636  0.0642  0.5623 -0.1704
 5806SOL     OW28876   3.276   2.328   4.925 -0.1840 -0.1670  0.0041
 5806SOL    HW128877   3.210   2.385   4.964 -1.4683 -2.1975  0.7593
 5806SOL    HW228878   3.341   2.397   4.909  1.1783 -1.3722  0.2705
 5807SOL     OW28879   0.406   0.896   4.468  0.4297  0.4096 -0.0783
 5807SOL    HW128880   0.318   0.903   4.431  0.4503 -3.4071 -0.8827
 5807SOL    HW228881   0.368   0.905   4.555 -0.5938 -3.5957 -0.0808
 5808SOL     OW28882   2.784   1.374  12.575 -0.2807 -0.0210 -0.3396
 5808SOL    HW128883   2.853   1.368  12.641 -0.9521 -0.4767  0.3207
 5808SOL    HW228884   2.724   1.305  12.604 -4.9502  3.8060 -0.7344
 5809SOL     OW28885   2.400   1.672   7.653 -0.3232 -0.6258  0.1389
 5809SOL    HW128886   2.459   1.740   7.686 -1.6449 -0.2855  1.8237
 5809SOL    HW228887   2.462   1.618   7.604  0.5755 -0.2407  0.8433
 5810SOL     OW28888   2.801   3.210   4.545  0.4693 -0.5154 -0.3704
 5810SOL    HW128889   2.727   3.203   4.485 -1.5164  0.0842  2.0034
 5810SOL    HW228890   2.752   3.214   4.627  1.0003  0.2786 -0.0944
 5811SOL     OW28891   2.020   0.739   1.695  0.0515 -0.3019 -0.9032
 5811SOL    HW128892   1.947   0.678   1.679  0.4094 -0.5137 -1.7443
 5811SOL    HW228893   2.053   0.761   1.608  2.3083  0.0390  0.0398
 5812SOL     OW28894   3.394   0.766  14.668 -0.3176  0.4745  1.1904
 5812SOL    HW128895   3.378   0.824  14.742 -0.4438  0.4388  1.1914
 5812SOL    HW228896   3.464   0.711  14.704 -1.1113  0.5135  2.7930
 5813SOL     OW28897   3.361   2.422   3.328 -0.1787  0.4507 -0.5670
 5813SOL    HW128898   3.399   2.500   3.289 -0.4494  1.2243  0.7103
 5813SOL    HW228899   3.342   2.446   3.419 -0.2090 -2.5468  0.2175
 5814SOL     OW28900   1.666   1.756  15.087 -0.0374  0.1976  0.1344
 5814SOL    HW128901   1.633   1.765  14.997  0.2722 -0.7937 -0.0763
 5814SOL    HW228902   1.641   1.665  15.103 -0.0641  0.1546 -0.1475
 5815SOL     OW28903   3.623   2.518   4.286  0.1584  0.3236  0.0022
 5815SOL    HW128904   3.663   2.566   4.214 -1.3488  1.6520  0.0513
 5815SOL    HW228905   3.628   2.582   4.357  0.7276  0.4020 -0.1097
 5816SOL     OW28906   1.830   1.801   5.327  0.2113 -0.2662  0.4869
 5816SOL    HW128907   1.872   1.719   5.301  0.5030 -0.1903  0.7250
 5816SOL    HW228908   1.879   1.866   5.277 -2.8323  0.5202 -1.4471
 5817SOL     OW28909   0.098   0.186   7.993 -0.4972 -0.2975 -0.3589
 5817SOL    HW128910   0.037   0.244   8.038  0.8151  1.2363 -0.5396
 5817SOL    HW228911   0.177   0.218   8.038 -1.4492  0.1329  1.0033
 5818SOL     OW28912   1.213   4.583  15.760 -0.2996 -0.2376 -0.2539
 5818SOL    HW128913   1.275   4.655  15.775  1.7240 -2.0718  0.2132
 5818SOL    HW228914   1.231   4.551  15.672  1.4121 -0.7886  0.2839
 5819SOL     OW28915   3.807   2.521   0.827  0.7034 -0.0819  0.2243
 5819SOL    HW128916   3.733   2.502   0.769  0.1047  1.2399  0.5751
 5819SOL    HW228917   3.772   2.476   0.903 -2.3922  2.8328  0.5283
 5820SOL     OW28918   2.898   4.607   8.482  0.1245 -0.2650 -0.0724
 5820SOL    HW128919   2.848   4.675   8.526 -1.7365 -1.3847 -0.4620
 5820SOL    HW228920   2.929   4.545   8.549  1.8013  0.2334 -0.4004
 5821SOL     OW28921   3.046   3.422   0.151  0.2492 -0.0399 -0.0794
 5821SOL    HW128922   3.132   3.462   0.149  0.6026 -0.9246 -2.6423
 5821SOL    HW228923   3.065   3.331   0.172 -1.0836  0.4542  3.3077
 5822SOL     OW28924   2.778   4.646   4.443 -0.1588  0.1154 -0.6836
 5822SOL    HW128925   2.786   0.014   4.470  2.9015 -0.2729 -0.2528
 5822SOL    HW228926   2.871   4.624   4.440 -0.2644 -0.5161  1.3953
 5823SOL     OW28927   0.200   2.128  13.442 -0.0260 -0.1161  0.3517
 5823SOL    HW128928   0.292   2.126  13.415 -0.5243 -0.6265 -1.3018
 5823SOL    HW228929   0.177   2.052  13.388  1.5163 -0.1636 -0.2131
 5824SOL     OW28930   3.494   2.223   9.093  0.0085 -0.1286 -0.1126
 5824SOL    HW128931   3.411   2.247   9.134  0.6254 -0.3422  1.2694
 5824SOL    HW228932   3.477   2.198   9.002 -1.9098 -1.1746  0.5257
 5825SOL     OW28933   2.580   3.309  11.063  0.1418 -0.3247  0.1097
 5825SOL    HW128934   2.591   3.214  11.066  2.7421  0.0107  1.3375
 5825SOL    HW228935   2.579   3.337  11.154  0.5460 -0.0720  0.0356
 5826SOL     OW28936   0.251   2.391  10.929 -0.5965  0.3043  0.1943
 5826SOL    HW128937   0.189   2.331  10.969  1.7898 -1.1823  1.7014
 5826SOL    HW228938   0.270   2.332  10.856 -0.1295 -0.1337  0.6651
 5827SOL     OW28939   4.504   2.706   8.904 -0.1114 -0.0181 -0.3307
 5827SOL    HW128940   4.499   2.710   8.808 -0.1753 -0.2208 -0.3359
 5827SOL    HW228941   4.567   2.773   8.932 -1.6025  1.1475  0.2094
 5828SOL     OW28942   2.305   0.865  17.648 -0.2841 -0.4368  0.6418
 5828SOL    HW128943   2.230   0.856  17.589  1.1092  0.7108 -1.3200
 5828SOL    HW228944   2.295   0.958  17.669 -0.4686 -0.6418  1.4722
 5829SOL     OW28945   0.247   0.944  13.548  0.0773 -0.0026 -0.4727
 5829SOL    HW128946   0.246   0.853  13.517  1.5519  0.1899 -1.0739
 5829SOL    HW228947   0.319   0.977  13.495  0.1208 -0.0209 -0.4255
 5830SOL     OW28948   3.518   2.584   7.481  0.1563  0.5610 -0.5763
 5830SOL    HW128949   3.423   2.572   7.485  0.2594 -0.3437 -0.8300
 5830SOL    HW228950   3.538   2.652   7.545  2.2081 -0.2925 -0.3198
 5831SOL     OW28951   3.576   0.184   3.327 -0.4206  0.2420 -0.1355
 5831SOL    HW128952   3.617   0.183   3.241 -1.0383 -0.5397 -0.4290
 5831SOL    HW228953   3.654   0.206   3.377  0.1485  0.2615 -1.0422
 5832SOL     OW28954   1.122   0.020   6.502 -0.0833 -0.5112 -0.1427
 5832SOL    HW128955   1.045   0.077   6.513  1.8204  1.6932  1.8279
 5832SOL    HW228956   1.172   0.071   6.439  0.4910 -1.5750 -0.5442
 5833SOL     OW28957   2.584   3.632   2.984  0.3332 -0.2720  0.9823
 5833SOL    HW128958   2.651   3.676   3.037  0.9533 -0.4333  0.3379
 5833SOL    HW228959   2.517   3.612   3.049 -1.0241 -0.0964 -0.3785
 5834SOL     OW28960   4.109   3.499   0.059  0.2783 -0.1863 -0.4268
 5834SOL    HW128961   4.021   3.483   0.027  1.5886  1.0765 -4.6283
 5834SOL    HW228962   4.101   3.594   0.055  1.6606 -0.1794 -2.9524
 5835SOL     OW28963   3.624   1.701   3.988  0.7297  0.5291  0.0242
 5835SOL    HW128964   3.593   1.705   3.897 -0.4455  0.5793  0.4296
 5835SOL    HW228965   3.708   1.656   3.977 -0.7262 -2.0065 -0.7019
 5836SOL     OW28966   3.147   2.196   5.778  0.1810  0.4677  0.0128
 5836SOL    HW128967   3.069   2.139   5.776 -0.2516  1.0590  0.2748
 5836SOL    HW228968   3.128   2.224   5.689 -1.2834  1.0195  0.5040
 5837SOL     OW28969   1.780   3.682   2.188 -0.1563  0.3118 -0.1136
 5837SOL    HW128970   1.855   3.642   2.232  0.3327  0.9354 -0.3774
 5837SOL    HW228971   1.794   3.645   2.101 -1.3133  0.1216 -0.2178
 5838SOL     OW28972   1.796   0.823   2.285  0.3195 -0.4163  0.9797
 5838SOL    HW128973   1.754   0.776   2.357 -1.1388  0.8167  0.9091
 5838SOL    HW228974   1.838   0.752   2.237  2.1685  0.9292  0.6012
 5839SOL     OW28975   3.752   0.421   7.999 -0.0673 -0.0865  0.1227
 5839SOL    HW128976   3.669   0.404   7.954  0.1176 -2.6379  0.7302
 5839SOL    HW228977   3.813   0.405   7.927 -2.4731  0.8744 -2.1443
 5840SOL     OW28978   3.083   2.038   2.268  0.0210  0.4494 -0.2617
 5840SOL    HW128979   3.060   1.979   2.197  0.7038  2.4448 -2.1194
 5840SOL    HW228980   3.020   2.011   2.336  1.0287  0.1108  0.5304
 5841SOL     OW28981   0.885   3.044   5.679 -0.0550 -0.0053 -0.1263
 5841SOL    HW128982   0.874   3.139   5.688 -1.1554 -0.3190  1.7184
 5841SOL    HW228983   0.834   3.022   5.601 -0.1407  0.4395 -0.1994
 5842SOL     OW28984   4.483   1.098   9.695 -0.9520  0.1510  0.0302
 5842SOL    HW128985   4.413   1.145   9.741  0.2886  1.3972  0.6403
 5842SOL    HW228986   4.460   1.012   9.730 -0.2675 -0.8264 -1.8910
 5843SOL     OW28987   1.525   1.010   5.470  0.3828  0.2456 -0.3339
 5843SOL    HW128988   1.524   0.915   5.460  1.4124  0.3121 -1.1197
 5843SOL    HW228989   1.444   1.024   5.519  0.8096  1.8899 -0.0852
 5844SOL     OW28990   0.041   2.025   4.663 -0.5362 -0.2333  0.6346
 5844SOL    HW128991   0.119   2.064   4.703  0.2291 -1.1452  0.0300
 5844SOL    HW228992   0.062   1.996   4.574 -1.1036 -0.1465  0.4711
 5845SOL     OW28993   3.333   0.171   1.779  0.2503 -0.3389 -0.8155
 5845SOL    HW128994   3.404   0.151   1.718 -0.2559 -0.5527 -1.3372
 5845SOL    HW228995   3.344   0.094   1.834  0.6761 -0.2971 -0.8389
 5846SOL     OW28996   0.261   1.146   9.423 -0.2461 -0.0755  0.2853
 5846SOL    HW128997   0.212   1.225   9.447 -0.0264  0.1648 -0.0433
 5846SOL    HW228998   0.351   1.178   9.423  0.2445 -1.4719  2.6623
 5847SOL     OW28999   4.069   0.151   0.940 -0.1418 -0.0144  0.4584
 5847SOL    HW129000   3.990   0.179   0.895  0.0426  1.0017  0.7620
 5847SOL    HW229001   4.115   0.233   0.958 -1.7184  1.0216 -0.3062
 5848SOL     OW29002   3.131   4.659   2.043 -0.3662  0.4460  0.3154
 5848SOL    HW129003   3.103   4.612   2.121 -0.4853  0.0026  0.0048
 5848SOL    HW229004   3.201   4.710   2.083  0.6131 -0.0391 -0.7846
 5849SOL     OW29005   3.144   3.869  16.602 -0.0663  0.3218  0.1264
 5849SOL    HW129006   3.213   3.929  16.574 -0.7244  1.2536  0.5080
 5849SOL    HW229007   3.093   3.911  16.671 -0.0823  0.0446  0.2848
 5850SOL     OW29008   3.757   3.732   5.947 -0.1132  0.5758  0.4241
 5850SOL    HW129009   3.831   3.676   5.969 -1.9757 -1.8634  0.4946
 5850SOL    HW229010   3.748   3.796   6.018 -1.1643  1.4716 -0.5323
 5851SOL     OW29011   1.971   3.941  11.294  0.1440 -0.0934  0.5035
 5851SOL    HW129012   1.894   3.922  11.349 -0.4678 -0.2356 -0.4070
 5851SOL    HW229013   2.036   3.989  11.345  0.6873 -0.0675 -0.2216
 5852SOL     OW29014   2.730   1.660   9.417 -0.1559 -0.4506  1.5322
 5852SOL    HW129015   2.663   1.677   9.484  0.1461 -1.0197  1.9732
 5852SOL    HW229016   2.795   1.611   9.467 -2.0062 -1.5163  2.8898
 5853SOL     OW29017   3.060   1.072   8.056  0.1388 -0.3573  0.0276
 5853SOL    HW129018   3.062   1.120   8.139 -2.0344 -1.6530  0.8305
 5853SOL    HW229019   3.066   1.138   7.988 -0.5373 -1.2923 -0.9467
 5854SOL     OW29020   4.075   2.921   4.111 -0.7038 -0.0199  0.2050
 5854SOL    HW129021   4.101   2.832   4.135 -0.0664  0.4085  1.0824
 5854SOL    HW229022   3.980   2.915   4.099 -0.7464 -1.0225  1.0042
 5855SOL     OW29023   0.672   3.670   7.531  0.1054  0.1465  0.0043
 5855SOL    HW129024   0.621   3.749   7.549  1.5701  0.9066  0.8787
 5855SOL    HW229025   0.673   3.670   7.435  0.7904  0.7440  0.0074
 5856SOL     OW29026   2.673   1.971   8.996  0.4314 -0.0967  0.6490
 5856SOL    HW129027   2.661   1.994   9.088 -1.4430 -0.4594  0.4993
 5856SOL    HW229028   2.768   1.967   8.992  0.3939  0.0064 -0.2878
 5857SOL     OW29029   3.424   3.906   2.970 -0.9405 -0.6361 -0.1053
 5857SOL    HW129030   3.510   3.863   2.971 -1.3551 -1.4777 -0.3281
 5857SOL    HW229031   3.379   3.860   2.900 -2.2751 -0.8400  0.8791
 5858SOL     OW29032   2.178   3.680   6.560 -0.2003  0.3111  0.2818
 5858SOL    HW129033   2.155   3.608   6.502  0.4824 -0.0496  0.4574
 5858SOL    HW229034   2.118   3.672   6.634 -1.8826 -2.1132 -1.3477
 5859SOL     OW29035   2.301   1.762   8.576  0.1134 -0.1810  0.0259
 5859SOL    HW129036   2.316   1.798   8.664 -0.9626  1.4641 -0.4514
 5859SOL    HW229037   2.229   1.812   8.537 -1.3532 -0.7424  1.9928
 5860SOL     OW29038   0.394   2.435   6.495  0.3038  0.3457  0.2636
 5860SOL    HW129039   0.300   2.419   6.497  0.1716  0.8376 -1.6247
 5860SOL    HW229040   0.409   2.479   6.411 -1.6249 -0.8467 -0.6952
 5861SOL     OW29041   3.930   4.630   2.319  0.3770 -0.1210 -0.9472
 5861SOL    HW129042   3.938   4.598   2.229 -0.5450 -4.3846  0.5296
 5861SOL    HW229043   3.962   4.720   2.307  1.0324 -0.0818  1.1322
 5862SOL     OW29044   2.892   4.052  12.465 -0.0248 -0.4638 -0.2447
 5862SOL    HW129045   2.907   3.973  12.516 -0.1973  0.0163  0.5464
 5862SOL    HW229046   2.824   4.094  12.518  1.7431  1.0276  0.8274
 5863SOL     OW29047   0.211   3.629   2.533 -0.3467 -0.5512 -0.3426
 5863SOL    HW129048   0.148   3.612   2.602 -0.8262 -0.1485 -0.6829
 5863SOL    HW229049   0.226   3.723   2.544  1.3929 -0.9547  0.8480
 5864SOL     OW29050   4.546   2.626   0.150 -0.1634  0.5946 -0.0287
 5864SOL    HW129051   4.574   2.559   0.087 -1.4190  1.1818 -1.2203
 5864SOL    HW229052   4.607   2.618   0.223 -0.4537 -0.8069  0.0678
 5865SOL     OW29053   2.051   2.442  10.329  0.1548 -0.2085 -0.5852
 5865SOL    HW129054   2.121   2.414  10.270  1.2066  0.6346  0.2781
 5865SOL    HW229055   1.987   2.496  10.282 -0.6440 -1.1858 -0.6139
 5866SOL     OW29056   2.237   1.321   1.516  0.7037 -0.7700  0.6699
 5866SOL    HW129057   2.243   1.303   1.422 -0.8451  2.4015 -0.0498
 5866SOL    HW229058   2.163   1.381   1.519 -0.4913 -2.2371  0.6463
 5867SOL     OW29059   3.045   0.799   9.151 -0.2879  0.3358  0.1453
 5867SOL    HW129060   3.005   0.865   9.207 -0.0129  1.1412 -0.5973
 5867SOL    HW229061   3.064   0.726   9.209  1.1471 -1.1217 -2.1105
 5868SOL     OW29062   2.266   3.634   5.955  0.3244 -0.0224 -0.3220
 5868SOL    HW129063   2.247   3.701   5.889 -0.7807 -0.1953 -0.1769
 5868SOL    HW229064   2.221   3.556   5.922  0.2456  0.0645 -0.4209
 5869SOL     OW29065   2.299   1.278   8.558  0.3805 -0.7034 -0.0678
 5869SOL    HW129066   2.380   1.289   8.508  0.0137 -0.9801 -0.7288
 5869SOL    HW229067   2.268   1.369   8.550 -1.3148 -1.2787  0.0281
 5870SOL     OW29068   0.450   1.131   8.752 -0.2146 -0.3542 -0.9290
 5870SOL    HW129069   0.458   1.204   8.813  2.7074 -1.4753  0.0287
 5870SOL    HW229070   0.518   1.147   8.687 -0.0358  1.9091 -0.1663
 5871SOL     OW29071   4.377   0.599   7.629 -0.1724  0.0967 -0.2135
 5871SOL    HW129072   4.420   0.601   7.714  0.9085  0.9023 -0.7853
 5871SOL    HW229073   4.315   0.671   7.629 -0.7920 -0.4368 -2.0782
 5872SOL     OW29074   4.556   1.980   9.406 -0.6690  0.0770 -0.1739
 5872SOL    HW129075   4.497   1.920   9.361 -1.2455  1.4628 -1.2362
 5872SOL    HW229076   4.508   2.063   9.409 -2.4554 -0.9272 -1.8281
 5873SOL     OW29077   2.789   4.518  11.674 -0.2782  0.0772 -0.1701
 5873SOL    HW129078   2.854   4.558  11.616  0.5103  1.1127  1.4516
 5873SOL    HW229079   2.848   4.500  11.747 -1.7036  0.5963  1.1212
 5874SOL     OW29080   1.414   3.616   2.467  0.0426 -0.4378 -0.1734
 5874SOL    HW129081   1.509   3.613   2.468  0.0972  0.4616 -3.7888
 5874SOL    HW229082   1.398   3.669   2.389 -2.4828 -3.0836 -1.4901
 5875SOL     OW29083   2.358   2.735   9.115 -0.0382  0.1152 -0.0961
 5875SOL    HW129084   2.445   2.770   9.135  0.9683 -1.4391 -1.7843
 5875SOL    HW229085   2.304   2.806   9.082  0.8523  0.2584 -1.2367
 5876SOL     OW29086   4.694   0.105  16.074 -0.6076 -0.3249 -0.4365
 5876SOL    HW129087   0.023   0.171  16.027  0.9265 -0.8315  0.5748
 5876SOL    HW229088   4.606   0.137  16.053 -0.8286 -1.2530 -0.8978
 5877SOL     OW29089   2.429   3.331  15.857 -0.5639 -0.1392 -0.6214
 5877SOL    HW129090   2.467   3.253  15.818  0.2528  0.8254 -1.7559
 5877SOL    HW229091   2.490   3.365  15.923 -0.2847  0.3573 -1.1280
 5878SOL     OW29092   0.582   4.142  12.517  0.4453  0.0992  0.1778
 5878SOL    HW129093   0.607   4.178  12.432 -1.5666 -0.8897 -0.8439
 5878SOL    HW229094   0.618   4.053  12.516  0.8342  0.2647 -0.3818
 5879SOL     OW29095   4.665   3.697  15.287 -0.6549  0.4556  0.0210
 5879SOL    HW129096   4.663   3.742  15.371  2.2201 -2.3396  1.5954
 5879SOL    HW229097   4.574   3.667  15.277  0.5053 -2.7071 -1.0403
 5880SOL     OW29098   3.256   2.175   4.701  0.3872 -0.4119 -0.0652
 5880SOL    HW129099   3.237   2.233   4.774  0.0381 -0.5080 -0.0807
 5880SOL    HW229100   3.298   2.240   4.644  1.4486 -1.6257 -0.7104
 5881SOL     OW29101   2.512   0.323   2.149  0.3317  0.4097  0.1315
 5881SOL    HW129102   2.452   0.395   2.132  1.1689  1.0550 -0.0808
 5881SOL    HW229103   2.454   0.247   2.147  0.5550  0.2389  0.1651
 5882SOL     OW29104   0.462   3.013   6.884  0.2375 -0.1973 -0.1592
 5882SOL    HW129105   0.513   3.005   6.804 -1.8406 -3.7828 -1.1328
 5882SOL    HW229106   0.378   3.031   6.842  0.2562 -0.8509 -0.4794
 5883SOL     OW29107   1.854   0.532   2.773  0.3051  0.1474  0.4144
 5883SOL    HW129108   1.931   0.584   2.797  0.1107  0.9295 -0.6395
 5883SOL    HW229109   1.791   0.604   2.761 -1.2095 -1.7031 -2.7266
 5884SOL     OW29110   1.938   3.318   1.881 -0.1870 -0.1818 -0.3882
 5884SOL    HW129111   1.872   3.367   1.831 -0.6945  0.1654  0.6205
 5884SOL    HW229112   1.947   3.368   1.962 -2.2206  0.0736 -0.3348
 5885SOL     OW29113   2.304   2.778  12.513  0.3202 -0.3413  0.6780
 5885SOL    HW129114   2.393   2.756  12.541  0.2603 -0.4762  0.7612
 5885SOL    HW229115   2.250   2.770  12.591 -2.5490  2.9950 -0.9380
 5886SOL     OW29116   4.162   3.903   6.973 -0.1248 -0.1961  0.2040
 5886SOL    HW129117   4.257   3.913   6.979  0.1466 -1.5176 -1.8623
 5886SOL    HW229118   4.126   3.968   7.033  0.4004  0.4083 -0.1338
 5887SOL     OW29119   3.723   1.222   3.022  0.1265 -0.0935  0.3698
 5887SOL    HW129120   3.686   1.306   3.052  0.5320  1.0238 -2.2467
 5887SOL    HW229121   3.807   1.240   3.063  0.6998  0.8602 -1.2007
 5888SOL     OW29122   4.513   4.653  12.060  0.0392 -0.0180  0.5166
 5888SOL    HW129123   4.565   4.614  12.130 -0.3356  0.8235  1.2581
 5888SOL    HW229124   4.556   0.015  12.054 -0.8953  0.4489  0.5013
 5889SOL     OW29125   1.060   1.138   0.029 -0.1562  0.8448 -0.6485
 5889SOL    HW129126   1.136   1.196   0.018 -0.5896  1.6444  0.5506
 5889SOL    HW229127   0.991   1.202   0.049 -1.9798 -1.4786  0.4503
 5890SOL     OW29128   4.342   0.190   7.738 -0.0010  0.1197 -0.0555
 5890SOL    HW129129   4.253   0.166   7.712 -0.2163  0.5583  0.2829
 5890SOL    HW229130   4.324   0.206   7.831 -1.0157  2.3166 -0.6255
 5891SOL     OW29131   1.569   1.495  15.154 -0.3802  0.4813  0.1402
 5891SOL    HW129132   1.614   1.460  15.231 -0.3252  0.0321 -0.0947
 5891SOL    HW229133   1.591   1.422  15.096 -0.8163  0.2365  0.2841
 5892SOL     OW29134   1.764   0.010   3.710 -0.3175 -0.2394 -0.5824
 5892SOL    HW129135   1.745   4.650   3.754  2.1940 -0.6135 -0.2069
 5892SOL    HW229136   1.695   0.011   3.644 -0.5034  0.6257 -0.3825
 5893SOL     OW29137   1.479   0.567   5.132  0.7192  0.4978  0.8120
 5893SOL    HW129138   1.504   0.476   5.148 -2.3954 -0.1171  2.2296
 5893SOL    HW229139   1.405   0.551   5.073  1.2294 -0.8382  0.5350
 5894SOL     OW29140   0.377   1.651   8.120 -0.3002 -0.5394  0.0237
 5894SOL    HW129141   0.370   1.586   8.050 -1.7030  0.5150 -0.8483
 5894SOL    HW229142   0.442   1.702   8.073  0.0255 -0.5111  0.5071
 5895SOL     OW29143   1.473   3.814   6.660  0.0951 -0.0186 -0.3509
 5895SOL    HW129144   1.426   3.872   6.720 -1.2759 -1.2716 -0.2113
 5895SOL    HW229145   1.505   3.877   6.596  3.6905  1.3593  2.7752
 5896SOL     OW29146   0.849   3.142   7.678  0.4144  0.0868 -0.1134
 5896SOL    HW129147   0.863   3.100   7.763  5.2745  2.0532  0.0161
 5896SOL    HW229148   0.892   3.078   7.621 -1.9859 -1.3988 -0.2741
 5897SOL     OW29149   3.745   2.447  12.673  0.1599  0.1957 -0.3439
 5897SOL    HW129150   3.743   2.442  12.577  1.3880  0.6375 -0.3884
 5897SOL    HW229151   3.812   2.515  12.681  0.4121 -0.1520  0.4435
 5898SOL     OW29152   0.281   0.613   5.010  0.0863 -0.1443 -0.0772
 5898SOL    HW129153   0.260   0.685   5.069 -2.1216 -1.1116  0.2881
 5898SOL    HW229154   0.363   0.589   5.053 -0.0517  0.5924  0.6042
 5899SOL     OW29155   3.976   2.471   8.036  0.0815  0.1439  0.1480
 5899SOL    HW129156   3.964   2.408   7.965 -2.1229  0.3408  0.3523
 5899SOL    HW229157   3.938   2.413   8.102  0.9198 -0.0817  0.4354
 5900SOL     OW29158   3.055   0.262   6.253  0.3955  0.3564  0.0935
 5900SOL    HW129159   2.959   0.266   6.249  0.3985 -0.5702 -0.8581
 5900SOL    HW229160   3.083   0.182   6.209  1.5877  0.3372  0.9021
 5901SOL     OW29161   1.047   0.754   6.266 -0.0691 -0.1578  0.4509
 5901SOL    HW129162   1.054   0.671   6.314  0.0841 -0.7952 -0.6779
 5901SOL    HW229163   0.960   0.739   6.229  0.4888 -1.1221 -0.4698
 5902SOL     OW29164   1.267   1.859   1.760  0.0841  0.9566  0.1577
 5902SOL    HW129165   1.203   1.830   1.826  1.3071 -0.3109  0.7682
 5902SOL    HW229166   1.256   1.954   1.765  0.0937  0.9047  1.2272
 5903SOL     OW29167   2.522   0.961  15.609 -0.2723  0.4001  0.1607
 5903SOL    HW129168   2.431   0.991  15.612 -0.0236  1.2385 -0.4370
 5903SOL    HW229169   2.516   0.869  15.634 -0.4358 -0.4511 -2.9600
 5904SOL     OW29170   0.279   1.044   4.680 -0.0940 -0.0596 -0.9471
 5904SOL    HW129171   0.309   1.116   4.624 -0.6423  0.0076 -1.1474
 5904SOL    HW229172   0.189   1.051   4.650 -0.2289 -1.4081 -0.8236
 5905SOL     OW29173   2.674   4.514   6.716 -0.5771  0.3579 -0.3862
 5905SOL    HW129174   2.618   4.469   6.779 -0.8701  0.0286 -0.8873
 5905SOL    HW229175   2.703   4.585   6.773  1.3307 -0.4611 -0.3478
 5906SOL     OW29176   2.931   1.113  10.135  0.7318 -0.3896  0.3082
 5906SOL    HW129177   2.975   1.159  10.206  1.9578  0.8747 -1.2698
 5906SOL    HW229178   2.846   1.156  10.149  0.5017 -0.2049 -1.6200
 5907SOL     OW29179   4.037   3.512   7.336  0.3203 -0.4200 -0.0661
 5907SOL    HW129180   4.064   3.570   7.265 -2.2469  0.8103 -0.0280
 5907SOL    HW229181   4.051   3.423   7.305 -0.4071 -1.2989  2.0860
 5908SOL     OW29182   1.665   0.927  17.491 -0.4688  0.2322 -0.9803
 5908SOL    HW129183   1.742   0.950  17.544  0.3285 -0.5583 -1.8093
 5908SOL    HW229184   1.594   0.956  17.548  0.4979  0.8169 -0.0768
 5909SOL     OW29185   3.603   2.852   0.627 -0.1922 -0.0406 -0.1191
 5909SOL    HW129186   3.526   2.820   0.673 -0.7493 -0.4210 -1.3140
 5909SOL    HW229187   3.577   2.861   0.535  1.2123  2.7936 -0.2395
 5910SOL     OW29188   0.854   1.877   6.963 -0.1230  0.0767 -0.1500
 5910SOL    HW129189   0.817   1.864   7.050 -0.4430 -3.4360 -0.8077
 5910SOL    HW229190   0.792   1.932   6.915 -1.6151 -1.3313  0.1725
 5911SOL     OW29191   3.399   1.884   6.302 -0.6548 -0.2673 -0.2713
 5911SOL    HW129192   3.310   1.865   6.273 -1.0627 -1.0603  1.5246
 5911SOL    HW229193   3.401   1.979   6.315 -0.4235 -0.3509  0.3010
 5912SOL     OW29194   3.830   1.198  16.317  0.4517  0.5334  0.4366
 5912SOL    HW129195   3.753   1.141  16.313  0.8288  0.3033 -3.5518
 5912SOL    HW229196   3.811   1.243  16.399  1.3590 -2.2206  2.1705
 5913SOL     OW29197   3.289   4.176  10.306 -0.0490  0.2360  0.5428
 5913SOL    HW129198   3.276   4.136  10.392 -0.4305 -2.3210 -0.6974
 5913SOL    HW229199   3.250   4.262  10.321 -0.9118 -0.4695  2.2898
 5914SOL     OW29200   4.533   3.018   9.074  0.2769  0.0742 -0.6784
 5914SOL    HW129201   4.530   2.946   9.137  1.9258  1.5732  1.1153
 5914SOL    HW229202   4.607   2.992   9.019  0.7109  0.3844 -0.2459
 5915SOL     OW29203   2.242   2.827   9.991 -0.3822  0.2142 -0.1256
 5915SOL    HW129204   2.168   2.766   9.983  0.8273 -0.9501 -2.6817
 5915SOL    HW229205   2.214   2.877  10.067  0.7162  0.3494  0.1853
 5916SOL     OW29206   1.763   4.711  13.737 -0.0266 -0.3870 -0.1091
 5916SOL    HW129207   1.817   0.010  13.661  0.1745  0.2857  0.2260
 5916SOL    HW229208   1.691   4.684  13.680 -1.3312 -0.4519  1.5832
 5917SOL     OW29209   2.686   1.076   8.329  0.6194 -0.0043  0.1146
 5917SOL    HW129210   2.724   1.157   8.364 -0.9864  0.2235  1.3542
 5917SOL    HW229211   2.714   1.012   8.395  0.4508 -0.5728 -0.3651
 5918SOL     OW29212   1.566   3.004   6.410  0.5957 -0.2678  0.5335
 5918SOL    HW129213   1.571   2.919   6.368  0.5904  0.2777 -0.5693
 5918SOL    HW229214   1.542   3.062   6.338 -0.1226  1.6270  2.2900
 5919SOL     OW29215   1.630   0.748   9.368  0.0487  0.4959 -0.6087
 5919SOL    HW129216   1.613   0.659   9.400  0.7521  1.0243  1.2225
 5919SOL    HW229217   1.555   0.799   9.395 -1.8342 -2.3568 -0.4306
 5920SOL     OW29218   2.953   1.648   2.626  0.0264 -0.1860 -0.0289
 5920SOL    HW129219   2.922   1.557   2.629 -1.1474  0.2910  1.5084
 5920SOL    HW229220   3.011   1.643   2.702  0.4754 -1.3885 -0.4404
 5921SOL     OW29221   0.349   0.105   7.045 -0.0323  0.3415  0.0066
 5921SOL    HW129222   0.321   0.036   7.105  0.1872  0.7261  0.5533
 5921SOL    HW229223   0.429   0.126   7.094  3.5654 -2.3519 -4.7319
 5922SOL     OW29224   2.607   3.692   4.360 -0.6588  0.5296  0.1944
 5922SOL    HW129225   2.517   3.707   4.332 -0.1059  3.4208 -0.0880
 5922SOL    HW229226   2.640   3.618   4.309 -1.0127  0.3044  0.2932
 5923SOL     OW29227   0.120   4.518   2.698  0.0931 -0.3074 -0.0671
 5923SOL    HW129228   0.165   4.436   2.679 -0.2805 -0.1965 -1.4121
 5923SOL    HW229229   0.185   4.587   2.711  2.2091 -2.3358  0.0686
 5924SOL     OW29230   2.382   0.528  14.612  0.0010  0.0006 -0.1606
 5924SOL    HW129231   2.476   0.543  14.617  0.0340 -0.1021 -0.4541
 5924SOL    HW229232   2.343   0.615  14.597 -0.3175 -0.5378 -2.5269
 5925SOL     OW29233   2.318   0.113   0.767  0.3433 -0.1342 -0.0278
 5925SOL    HW129234   2.399   0.070   0.795 -0.6923 -1.1031  1.3958
 5925SOL    HW229235   2.281   0.056   0.699 -0.9727  0.2314  0.3837
 5926SOL     OW29236   0.283   1.660   8.750 -0.1643  0.1016 -0.2967
 5926SOL    HW129237   0.337   1.685   8.675 -0.4820  0.5109 -0.3893
 5926SOL    HW229238   0.201   1.647   8.702 -1.4639 -0.2201  1.9907
 5927SOL     OW29239   2.603   4.684   3.702  0.2903  0.2236  0.0338
 5927SOL    HW129240   2.623   4.624   3.775  2.9527  1.6184  0.4745
 5927SOL    HW229241   2.579   0.038   3.752 -0.7737 -0.6244  0.8356
 5928SOL     OW29242   1.063   3.106   3.523  0.1808  0.2064 -0.4815
 5928SOL    HW129243   1.104   3.051   3.455 -2.5972 -1.4615 -0.8276
 5928SOL    HW229244   0.970   3.093   3.504 -0.1188 -0.7628  1.6630
 5929SOL     OW29245   3.029   4.030  15.678 -0.3365  0.5383 -0.2612
 5929SOL    HW129246   3.098   3.965  15.689 -0.3526  0.3280 -1.4242
 5929SOL    HW229247   2.994   4.006  15.592  1.0584  1.1510 -1.0069
 5930SOL     OW29248   3.303   3.328   8.105 -0.0120  0.5730 -0.1347
 5930SOL    HW129249   3.364   3.401   8.117  1.3666 -0.3812 -1.3390
 5930SOL    HW229250   3.289   3.332   8.010  0.1277  0.9703 -0.1396
 5931SOL     OW29251   0.247   2.619   1.907 -0.1909  0.1551  0.1290
 5931SOL    HW129252   0.240   2.687   1.840  0.4406 -1.6336 -1.7619
 5931SOL    HW229253   0.290   2.659   1.982  2.5072 -2.1794 -0.1743
 5932SOL     OW29254   2.396   4.511   6.633 -0.4666  0.2896  0.4021
 5932SOL    HW129255   2.391   4.433   6.578  1.9266 -0.6241  1.4910
 5932SOL    HW229256   2.486   4.538   6.618  0.0119 -0.0642  2.6762
 5933SOL     OW29257   1.132   1.868  16.396  0.0047  0.1212 -0.0106
 5933SOL    HW129258   1.040   1.876  16.419 -0.1870 -1.1929 -0.3406
 5933SOL    HW229259   1.145   1.776  16.373  1.2186  0.6099 -1.3071
 5934SOL     OW29260   4.373   2.851   2.424  0.5552  0.3558 -0.1351
 5934SOL    HW129261   4.331   2.771   2.454  0.2663  0.6944  0.3522
 5934SOL    HW229262   4.301   2.914   2.429 -1.2986 -1.8429  0.9713
 5935SOL     OW29263   2.411   4.227   9.718 -0.6532  0.3954 -0.0111
 5935SOL    HW129264   2.416   4.165   9.791 -1.4032  0.3289 -0.0186
 5935SOL    HW229265   2.350   4.176   9.666 -0.6784 -1.3795  1.7689
 5936SOL     OW29266   4.398   4.284   3.792 -0.0349  0.0615 -0.2861
 5936SOL    HW129267   4.479   4.312   3.835 -0.0789 -0.0878 -0.1075
 5936SOL    HW229268   4.404   4.188   3.793 -0.6635  0.0264 -0.1445
 5937SOL     OW29269   4.201   1.328   6.165 -0.0634 -0.6707 -0.2392
 5937SOL    HW129270   4.149   1.248   6.177 -1.7846  0.1292 -2.5334
 5937SOL    HW229271   4.226   1.320   6.073  1.7973 -0.5971  0.2554
 5938SOL     OW29272   3.601   2.183   5.497 -0.0758 -0.0862  0.1625
 5938SOL    HW129273   3.536   2.126   5.454 -0.2328  1.0265 -1.0726
 5938SOL    HW229274   3.536   2.245   5.529 -0.4647 -0.0210 -0.7389
 5939SOL     OW29275   0.258   4.330   2.922 -0.1402 -0.8962 -0.2640
 5939SOL    HW129276   0.236   4.352   2.831 -0.1603 -2.4308 -0.6288
 5939SOL    HW229277   0.219   4.244   2.935  0.1480 -0.9442  0.2706
 5940SOL     OW29278   4.607   2.952  17.218 -0.3742 -0.2018 -1.0350
 5940SOL    HW129279   4.641   3.019  17.279 -0.3098  1.4672 -2.8985
 5940SOL    HW229280   4.515   2.959  17.245 -0.3419  0.7053 -1.1486
 5941SOL     OW29281   0.844   1.611   4.138 -0.1217  0.3692  0.3559
 5941SOL    HW129282   0.849   1.693   4.088  0.7670  0.3795  0.4668
 5941SOL    HW229283   0.870   1.635   4.226  1.5584  1.3384 -0.4019
 5942SOL     OW29284   4.363   2.036   3.228 -0.3444  0.2303  0.1890
 5942SOL    HW129285   4.453   2.021   3.199  1.0785  3.1348  3.0910
 5942SOL    HW229286   4.385   2.089   3.304  0.6680  0.2584 -0.1107
 5943SOL     OW29287   2.274   1.479  17.373 -0.3484 -0.7131 -0.6692
 5943SOL    HW129288   2.242   1.501  17.286  1.4611  1.7145 -0.7012
 5943SOL    HW229289   2.204   1.419  17.397 -0.8545  0.7220  1.3981
 5944SOL     OW29290   4.160   4.330   1.338  0.0500  0.3024 -0.2886
 5944SOL    HW129291   4.226   4.262   1.352 -1.2097 -0.9545 -0.3707
 5944SOL    HW229292   4.117   4.346   1.422 -0.5034 -0.3866 -0.4366
 5945SOL     OW29293   2.696   3.608   1.550  0.0259 -0.0186  0.3495
 5945SOL    HW129294   2.693   3.609   1.455  0.7754 -1.5147  0.2978
 5945SOL    HW229295   2.789   3.597   1.573  0.4689  1.0495 -0.9778
 5946SOL     OW29296   2.885   0.730   4.445 -0.4071 -0.2098  0.2507
 5946SOL    HW129297   2.958   0.773   4.401 -0.3062 -0.3434  0.2907
 5946SOL    HW229298   2.908   0.640   4.423 -0.6063 -0.0315 -0.7150
 5947SOL     OW29299   1.422   1.728   0.420  0.1193 -0.0365  0.1500
 5947SOL    HW129300   1.414   1.742   0.514 -0.3756 -0.1891  0.1284
 5947SOL    HW229301   1.384   1.807   0.382  1.5043  1.9883  2.9621
 5948SOL     OW29302   3.554   2.536   2.285 -0.2332 -0.3220  0.1360
 5948SOL    HW129303   3.571   2.630   2.283 -1.0385 -0.1316  2.2185
 5948SOL    HW229304   3.475   2.529   2.231 -1.6592  1.9988  1.8878
 5949SOL     OW29305   3.286   1.175  12.670  0.0073  0.3673 -0.1350
 5949SOL    HW129306   3.264   1.083  12.655  0.3847  0.0968  0.9429
 5949SOL    HW229307   3.375   1.167  12.703 -0.8027 -2.2597  1.3977
 5950SOL     OW29308   3.528   0.885  15.787  0.5154  0.1707  0.0025
 5950SOL    HW129309   3.520   0.789  15.792 -1.9887  0.4573  1.4621
 5950SOL    HW229310   3.439   0.920  15.787  1.3177  2.1563 -1.0573
 5951SOL     OW29311   1.232   1.011   5.308  0.4453 -0.2877 -0.0637
 5951SOL    HW129312   1.311   0.958   5.304  2.2074  2.2532  0.9512
 5951SOL    HW229313   1.264   1.098   5.284 -1.8044  0.5574 -0.0553
 5952SOL     OW29314   4.621   4.075   8.998 -0.0787  0.1370 -0.3308
 5952SOL    HW129315   4.662   4.017   9.062  1.3256  0.4120 -0.9836
 5952SOL    HW229316   4.636   4.026   8.918 -0.2342 -1.7395  0.7960
 5953SOL     OW29317   1.403   0.154   5.375 -0.0163 -0.5476 -0.3016
 5953SOL    HW129318   1.367   0.214   5.441  1.5233 -0.6158  0.6076
 5953SOL    HW229319   1.425   0.079   5.431  0.8843 -1.3535 -1.7377
 5954SOL     OW29320   2.980   1.013   5.577  0.3430 -0.2451 -0.2012
 5954SOL    HW129321   3.049   1.048   5.633  0.8849 -0.0667 -0.9795
 5954SOL    HW229322   2.923   0.975   5.643 -1.9123  2.5852 -0.5623
 5955SOL     OW29323   1.551   2.967   4.656 -0.2373 -0.1645  0.1831
 5955SOL    HW129324   1.628   2.991   4.605  0.2447 -3.5498 -0.6343
 5955SOL    HW229325   1.583   2.899   4.715 -0.5560 -0.2477  0.2614
 5956SOL     OW29326   2.346   2.990  14.840 -0.3683 -0.7658  0.0862
 5956SOL    HW129327   2.430   3.032  14.856 -0.0513 -1.8017  1.1601
 5956SOL    HW229328   2.384   2.904  14.859 -2.5398 -1.5324  0.9332
 5957SOL     OW29329   1.825   3.294  17.650  0.5392  0.3859  0.2312
 5957SOL    HW129330   1.882   3.227  17.687 -2.0693 -1.4247  0.9446
 5957SOL    HW229331   1.764   3.231  17.612 -1.0375 -0.2347  3.8029
 5958SOL     OW29332   4.549   1.137   8.363  0.4438 -0.2614 -0.6070
 5958SOL    HW129333   4.519   1.223   8.335  0.5983 -0.3897 -1.1734
 5958SOL    HW229334   4.502   1.128   8.445 -0.2910 -0.5382 -1.0579
 5959SOL     OW29335   1.260   3.773   9.883 -0.0339  0.4438  0.0777
 5959SOL    HW129336   1.225   3.684   9.883  0.3134  0.3043 -3.4077
 5959SOL    HW229337   1.181   3.814   9.917 -1.7302 -1.6732 -1.3529
 5960SOL     OW29338   3.087   1.829   4.512 -0.0738  0.0677 -0.0963
 5960SOL    HW129339   3.082   1.768   4.438  1.8390  0.2283 -0.3455
 5960SOL    HW229340   3.023   1.788   4.570  0.1007 -1.9833 -1.3695
 5961SOL     OW29341   2.598   3.749   1.752  0.4910 -0.1830  0.0082
 5961SOL    HW129342   2.535   3.787   1.691  0.5869 -0.0877 -0.0313
 5961SOL    HW229343   2.646   3.695   1.690 -1.3003 -2.0943  0.2433
 5962SOL     OW29344   4.475   0.335   3.720  0.3087 -0.3661 -0.4212
 5962SOL    HW129345   4.454   0.259   3.666 -1.1204  0.0794 -0.4985
 5962SOL    HW229346   4.542   0.296   3.776 -0.4313 -0.3907  0.4658
 5963SOL     OW29347   1.147   2.696  10.074  0.3036 -0.3896 -0.1628
 5963SOL    HW129348   1.165   2.698   9.980  1.6299  0.1238  0.1126
 5963SOL    HW229349   1.116   2.609  10.101 -1.4904 -0.1474 -1.3834
 5964SOL     OW29350   4.096   2.556   9.251 -0.3696 -0.0869 -0.2757
 5964SOL    HW129351   4.085   2.480   9.194 -0.2306  1.0145 -1.7694
 5964SOL    HW229352   4.061   2.536   9.338  0.1446 -1.3513 -0.3586
 5965SOL     OW29353   4.309   4.646   2.630  0.8823  0.2418  0.2953
 5965SOL    HW129354   4.346   4.596   2.558  1.2305  0.3591  0.3889
 5965SOL    HW229355   4.278   4.722   2.581 -0.3888 -0.6343 -0.2506
 5966SOL     OW29356   2.134   1.564  17.145 -0.0030  0.1693 -0.2909
 5966SOL    HW129357   2.066   1.505  17.112  0.6063 -0.9285  0.4137
 5966SOL    HW229358   2.084   1.625  17.199 -1.3659 -0.4752 -0.8251
 5967SOL     OW29359   2.483   1.232   7.259  0.0099  0.2347 -0.0273
 5967SOL    HW129360   2.435   1.224   7.177 -0.8759  2.9952  0.2203
 5967SOL    HW229361   2.410   1.210   7.318 -0.4623 -0.8653 -1.0202
 5968SOL     OW29362   2.053   4.509  16.817  0.2692 -0.2594  0.0704
 5968SOL    HW129363   2.029   4.568  16.746  1.4964 -1.2519 -1.1506
 5968SOL    HW229364   2.138   4.473  16.793 -1.4604 -2.7945 -2.0927
 5969SOL     OW29365   2.839   0.516   0.718  0.2072 -0.7316 -0.5123
 5969SOL    HW129366   2.915   0.569   0.742 -0.5025  0.0131  0.0545
 5969SOL    HW229367   2.774   0.576   0.682  0.0185  0.7771  2.3453
 5970SOL     OW29368   1.377   4.499   9.070 -0.0320  0.6936 -0.1747
 5970SOL    HW129369   1.435   4.430   9.037 -0.0222 -0.4112  2.1679
 5970SOL    HW229370   1.413   4.583   9.039  1.2282 -0.0455 -0.7291
 5971SOL     OW29371   1.752   3.435   1.705  0.2040 -0.3072 -0.3000
 5971SOL    HW129372   1.701   3.505   1.746  2.3027 -0.5155  2.6907
 5971SOL    HW229373   1.739   3.453   1.612 -2.7922 -0.2131  0.1557
 5972SOL     OW29374   3.574   4.199   7.114  0.6292 -0.6961  0.6611
 5972SOL    HW129375   3.620   4.230   7.037 -0.8578  4.2976  1.8208
 5972SOL    HW229376   3.650   4.170   7.165  0.4574 -2.7516 -0.2398
 5973SOL     OW29377   1.464   2.787   8.261 -0.2035  0.7809 -0.8642
 5973SOL    HW129378   1.544   2.792   8.210  2.5051 -1.7149  3.0988
 5973SOL    HW229379   1.503   2.753   8.342 -0.5026  2.2691 -0.1027
 5974SOL     OW29380   2.338   1.110   8.294  0.7028 -0.3222  0.6976
 5974SOL    HW129381   2.404   1.180   8.292 -0.2623  0.5754  0.6863
 5974SOL    HW229382   2.312   1.096   8.203  2.6463  1.2637 -0.1082
 5975SOL     OW29383   3.072   3.596   4.438 -1.5734 -0.2532  0.1649
 5975SOL    HW129384   3.055   3.606   4.531 -0.4452  0.0348  0.3319
 5975SOL    HW229385   3.101   3.685   4.418 -0.8035 -0.6473 -0.5124
 5976SOL     OW29386   0.051   3.060   7.832 -0.1989 -0.5224  0.4310
 5976SOL    HW129387   0.103   3.081   7.754 -1.6774  1.6833  0.0246
 5976SOL    HW229388   0.119   3.064   7.899  0.0111 -2.4093  0.3329
 5977SOL     OW29389   3.460   0.799  17.328  0.1821 -0.2996  0.1801
 5977SOL    HW129390   3.452   0.705  17.316 -3.6556  0.1680 -1.0949
 5977SOL    HW229391   3.465   0.812  17.423  2.6173 -0.2486  0.0609
 5978SOL     OW29392   3.560   4.520  10.609 -0.0447  0.1583 -0.6663
 5978SOL    HW129393   3.620   4.522  10.535 -1.1670 -1.4437 -1.6259
 5978SOL    HW229394   3.474   4.552  10.582  0.3103  0.6675 -1.1834
 5979SOL     OW29395   0.813   0.550   7.706  0.2993 -0.4983 -0.5738
 5979SOL    HW129396   0.731   0.501   7.696 -0.5052  0.9220 -0.9490
 5979SOL    HW229397   0.776   0.630   7.744  0.6456  0.4286 -2.1954
 5980SOL     OW29398   1.783   2.355  11.712  0.0136  0.9526 -0.3481
 5980SOL    HW129399   1.860   2.346  11.768 -0.2141 -1.4686 -0.4215
 5980SOL    HW229400   1.717   2.347  11.781  0.5898 -0.0566  0.0739
 5981SOL     OW29401   3.060   0.557  14.159 -0.1900 -0.0470 -0.2289
 5981SOL    HW129402   2.981   0.609  14.173 -0.9639 -1.6605  1.3851
 5981SOL    HW229403   3.120   0.621  14.196 -0.2755  1.0148 -1.9271
 5982SOL     OW29404   3.240   1.854   1.838 -0.2043  0.0648  0.3229
 5982SOL    HW129405   3.205   1.908   1.909  2.3172  1.0309  0.8421
 5982SOL    HW229406   3.158   1.838   1.791 -0.5352 -1.2666  1.3693
 5983SOL     OW29407   2.778   0.224   6.305 -0.2629 -0.1805 -0.3519
 5983SOL    HW129408   2.694   0.204   6.262  0.0144 -1.7258 -0.1724
 5983SOL    HW229409   2.786   0.172   6.385 -0.3808  0.5442  0.1341
 5984SOL     OW29410   3.893   4.364  17.044 -0.3762  0.2488  0.0152
 5984SOL    HW129411   3.923   4.278  17.014 -2.3960 -0.5122  0.2202
 5984SOL    HW229412   3.870   4.358  17.137  2.1739  1.2199  0.7069
 5985SOL     OW29413   1.208   3.054   1.865  0.0131 -0.0479 -0.1550
 5985SOL    HW129414   1.255   3.127   1.825 -1.4363  1.1355  0.2964
 5985SOL    HW229415   1.219   3.068   1.959  0.8850  0.0655 -0.2712
 5986SOL     OW29416   2.353   2.632   5.320 -0.7774  0.2242 -0.2054
 5986SOL    HW129417   2.384   2.710   5.366  2.1789 -1.4713  0.6725
 5986SOL    HW229418   2.330   2.580   5.397  0.3088  2.1169  1.4048
 5987SOL     OW29419   1.529   4.154  11.372  0.2096 -0.6777  0.1587
 5987SOL    HW129420   1.512   4.225  11.310 -2.0217 -0.5135  0.9343
 5987SOL    HW229421   1.452   4.105  11.343  0.9412 -1.1926 -0.9160
 5988SOL     OW29422   3.015   3.163   3.581  0.4274  0.2727  0.0598
 5988SOL    HW129423   3.032   3.256   3.563  1.9446  0.1339  0.7586
 5988SOL    HW229424   3.060   3.114   3.513  1.0111  0.0901  0.5829
 5989SOL     OW29425   2.558   0.844  15.359  0.2300  0.1926  0.5627
 5989SOL    HW129426   2.642   0.808  15.388 -0.5306 -0.6187  1.7893
 5989SOL    HW229427   2.545   0.914  15.423 -1.3089  0.7545 -0.3657
 5990SOL     OW29428   0.892   1.258   9.618 -0.2129  0.0832 -0.2922
 5990SOL    HW129429   0.817   1.199   9.616  1.0393 -1.5514  1.0569
 5990SOL    HW229430   0.965   1.196   9.625 -1.0264 -0.7883  0.5051
 5991SOL     OW29431   0.008   1.450   4.217 -0.2156 -0.8689  0.2942
 5991SOL    HW129432   0.039   1.402   4.294  1.2886  1.1952  0.9698
 5991SOL    HW229433   0.000   1.385   4.147 -1.1334 -1.3659  0.8642
 5992SOL     OW29434   3.142   1.440   3.200 -0.6165 -0.2629  0.6027
 5992SOL    HW129435   3.149   1.479   3.287 -0.0847 -2.6529  1.6390
 5992SOL    HW229436   3.158   1.521   3.151  0.0978 -0.3515  0.6978
 5993SOL     OW29437   2.019   2.556  12.118  0.4760  0.0217 -0.1055
 5993SOL    HW129438   2.082   2.572  12.188  0.6068 -1.9221  0.2323
 5993SOL    HW229439   2.074   2.575  12.043  0.6053  0.4771  0.1051
 5994SOL     OW29440   0.821   2.094   6.216  0.0532 -0.0866  0.0249
 5994SOL    HW129441   0.783   2.016   6.175 -1.5313 -0.3109  1.8810
 5994SOL    HW229442   0.741   2.146   6.219  1.0802  1.4017  1.2346
 5995SOL     OW29443   3.194   3.212   5.261 -0.6993 -0.1188 -0.5771
 5995SOL    HW129444   3.265   3.273   5.244 -0.0301  0.0776  2.8516
 5995SOL    HW229445   3.219   3.133   5.214  0.9044 -0.7087  1.2768
 5996SOL     OW29446   2.001   3.546  16.806 -0.3210  0.0593  0.2355
 5996SOL    HW129447   2.052   3.562  16.886 -0.2695 -1.4605  0.4973
 5996SOL    HW229448   1.972   3.459  16.835  1.8732 -0.0883  2.0070
 5997SOL     OW29449   2.289   4.609   4.521 -0.0580  0.0908  0.2596
 5997SOL    HW129450   2.372   4.563   4.529 -1.3592 -2.0758  1.1784
 5997SOL    HW229451   2.227   4.539   4.501  1.2721 -0.5304 -1.6389
 5998SOL     OW29452   0.574   2.089  11.100  0.2513 -0.4890 -0.4117
 5998SOL    HW129453   0.518   2.014  11.119  0.5830 -0.7051 -0.2819
 5998SOL    HW229454   0.654   2.056  11.141  1.3045  1.9967 -0.4682
 5999SOL     OW29455   1.187   4.619   4.660 -0.9170  0.1580  0.1206
 5999SOL    HW129456   1.259   4.589   4.715  0.4360 -1.4880 -2.5747
 5999SOL    HW229457   1.157   4.696   4.708  2.2252  1.7026 -0.4118
 6000SOL     OW29458   0.689   2.351   5.938  0.0125  0.5930  0.0869
 6000SOL    HW129459   0.620   2.285   5.948  1.5654 -1.0036  0.2402
 6000SOL    HW229460   0.747   2.315   5.871 -1.1433  1.5457 -1.4443
 6001SOL     OW29461   3.714   0.808   0.349 -0.4465  0.2102 -0.5323
 6001SOL    HW129462   3.808   0.794   0.365 -0.4007  3.0430  1.6546
 6001SOL    HW229463   3.687   0.735   0.405  0.8552  1.1745  1.3502
 6002SOL     OW29464   2.716   3.288   3.933 -0.0166  0.3306  0.2919
 6002SOL    HW129465   2.633   3.243   3.914  0.0737  0.2581  0.0697
 6002SOL    HW229466   2.737   3.294   3.840 -2.4010  2.3884 -0.1086
 6003SOL     OW29467   1.398   2.391   2.289  0.4930  0.6849 -0.2670
 6003SOL    HW129468   1.488   2.375   2.259  0.4462  0.7813 -0.4569
 6003SOL    HW229469   1.366   2.301   2.288 -0.5022  1.0234  1.0378
 6004SOL     OW29470   1.752   0.622  15.155  0.0823 -0.2808 -0.7049
 6004SOL    HW129471   1.740   0.528  15.170  0.7489 -0.2497  0.0332
 6004SOL    HW229472   1.719   0.624  15.065 -0.3836  0.0074 -0.5264
 6005SOL     OW29473   2.539   3.153   7.116 -0.4211 -0.2845 -0.1463
 6005SOL    HW129474   2.513   3.113   7.034 -0.0142 -1.4576  0.2920
 6005SOL    HW229475   2.460   3.139   7.168 -0.1235 -1.9454 -0.1605
 6006SOL     OW29476   2.669   0.205   4.785  0.0530 -0.0426  0.0649
 6006SOL    HW129477   2.742   0.144   4.797 -0.1329 -0.4471 -0.9269
 6006SOL    HW229478   2.691   0.275   4.847  0.3076  0.2403 -0.3417
 6007SOL     OW29479   0.450   2.590  16.006  0.0750 -0.2580 -0.1493
 6007SOL    HW129480   0.393   2.530  16.054  1.2530 -0.1141  1.4321
 6007SOL    HW229481   0.506   2.629  16.073  0.8948 -0.1499 -0.8905
 6008SOL     OW29482   3.755   2.589   7.041  0.0447 -0.2882  0.3188
 6008SOL    HW129483   3.714   2.547   6.965  0.7256 -0.6128  0.1313
 6008SOL    HW229484   3.738   2.681   7.024  0.4555  0.0893  2.0134
 6009SOL     OW29485   1.098   0.264   2.065  0.1169  0.3885  0.0324
 6009SOL    HW129486   1.169   0.249   2.003  1.4316 -0.9906  1.8787
 6009SOL    HW229487   1.134   0.348   2.091  1.8881 -0.0686 -0.9610
 6010SOL     OW29488   0.097   2.874   6.542 -0.0047  0.2478 -0.4141
 6010SOL    HW129489   0.022   2.849   6.488 -2.9551  2.5582  2.6744
 6010SOL    HW229490   0.118   2.958   6.503 -1.0588  0.0937 -1.3245
 6011SOL     OW29491   4.428   0.662  10.288 -0.8943 -0.1047 -0.4173
 6011SOL    HW129492   4.459   0.579  10.324 -1.6578  0.6941  2.0275
 6011SOL    HW229493   4.405   0.701  10.372  0.6433 -1.0019  0.4159
 6012SOL     OW29494   1.448   2.772   7.699  0.3006  0.1252  0.1616
 6012SOL    HW129495   1.511   2.783   7.627  0.2176 -1.4220 -0.1503
 6012SOL    HW229496   1.467   2.680   7.715  0.1036 -0.2287 -1.6393
 6013SOL     OW29497   1.224   1.898   2.524 -0.2582  0.1401  0.4909
 6013SOL    HW129498   1.172   1.963   2.476  0.7033  1.4104  1.1519
 6013SOL    HW229499   1.310   1.935   2.506 -0.4025  1.1943  1.8899
 6014SOL     OW29500   0.357   2.308  17.571 -0.4357 -0.1347  0.4594
 6014SOL    HW129501   0.401   2.305  17.656  1.1961 -0.8858 -0.4194
 6014SOL    HW229502   0.414   2.361  17.516 -1.1093  0.6982  0.5613
 6015SOL     OW29503   0.561   2.755   4.498 -0.4525  0.9095  0.6119
 6015SOL    HW129504   0.613   2.831   4.523 -0.2763  1.8259 -2.5382
 6015SOL    HW229505   0.630   2.690   4.482  0.4829  2.1226 -0.2095
 6016SOL     OW29506   0.793   0.380   8.269  0.4501 -0.3267  0.0602
 6016SOL    HW129507   0.741   0.379   8.189  3.5429  1.4948 -1.9629
 6016SOL    HW229508   0.822   0.471   8.269  0.6810 -0.4004 -0.0039
 6017SOL     OW29509   4.556   1.197  10.474  0.4328 -0.1588  0.2906
 6017SOL    HW129510   4.626   1.140  10.505  0.7935 -0.1736 -0.5708
 6017SOL    HW229511   4.600   1.247  10.406  2.3455  0.2579  1.8352
 6018SOL     OW29512   1.932   4.498   8.083 -0.3541  0.2514 -0.4420
 6018SOL    HW129513   1.941   4.581   8.130 -0.8721 -0.6901  1.2926
 6018SOL    HW229514   1.897   4.441   8.151 -0.9956 -1.0544 -1.8559
 6019SOL     OW29515   0.162   3.118   8.844  0.3721 -0.0971  0.0835
 6019SOL    HW129516   0.221   3.176   8.798  2.1570  0.1559  2.6722
 6019SOL    HW229517   0.187   3.142   8.934 -0.1810 -3.3594  1.1074
 6020SOL     OW29518   0.797   3.101   3.118 -0.1486  0.6267 -0.1968
 6020SOL    HW129519   0.887   3.075   3.135 -0.4431 -1.2457 -1.4724
 6020SOL    HW229520   0.780   3.055   3.035 -0.3609 -2.9111  1.8309
 6021SOL     OW29521   0.950   0.559   6.039 -0.4259  0.0405  0.2740
 6021SOL    HW129522   0.915   0.566   5.950 -2.9280 -1.7619  1.1120
 6021SOL    HW229523   0.880   0.608   6.082 -0.9389 -1.3576  1.0431
 6022SOL     OW29524   2.490   4.397  10.161  0.2406  0.3210 -0.2519
 6022SOL    HW129525   2.582   4.373  10.166 -0.1886 -1.5463 -1.4936
 6022SOL    HW229526   2.447   4.331  10.107 -1.1512  1.5149 -0.5973
 6023SOL     OW29527   0.955   2.285   3.173 -0.2227 -0.0035  0.4136
 6023SOL    HW129528   0.872   2.281   3.221  0.6846 -1.5233  1.8252
 6023SOL    HW229529   0.938   2.220   3.104  1.4064  1.6311 -1.5207
 6024SOL     OW29530   1.367   0.849   9.671 -0.9024  0.6079  0.0977
 6024SOL    HW129531   1.341   0.830   9.761 -1.5881 -2.4184 -0.7174
 6024SOL    HW229532   1.461   0.863   9.680 -0.2684 -2.2797 -1.7529
 6025SOL     OW29533   1.588   2.190   6.367  0.2411 -0.3762  0.0376
 6025SOL    HW129534   1.509   2.217   6.322 -0.0174 -0.6337  0.3373
 6025SOL    HW229535   1.637   2.136   6.305  1.4194 -1.1639  1.6327
 6026SOL     OW29536   0.430   4.025   5.812 -0.3139 -0.2624 -0.5432
 6026SOL    HW129537   0.461   4.096   5.755  0.4853 -0.9147 -0.9167
 6026SOL    HW229538   0.343   4.003   5.778 -1.9850  2.5942  1.9071
 6027SOL     OW29539   0.718   2.580   3.313 -0.2055 -0.5366 -0.1931
 6027SOL    HW129540   0.781   2.586   3.385  0.0038  1.2574 -0.5051
 6027SOL    HW229541   0.640   2.616   3.356 -0.3482 -0.2697 -0.6709
 6028SOL     OW29542   1.669   0.903  12.558  0.6878  0.0468 -0.0615
 6028SOL    HW129543   1.632   0.991  12.566  1.3358  0.3301 -0.1668
 6028SOL    HW229544   1.621   0.850  12.622  0.0583 -0.7029 -1.1400
 6029SOL     OW29545   2.895   2.053  12.612  0.5876 -0.6501 -0.4197
 6029SOL    HW129546   2.876   1.982  12.673  3.4273 -1.3137 -0.2931
 6029SOL    HW229547   2.930   2.119  12.671 -1.6999 -1.3672  1.7295
 6030SOL     OW29548   2.253   0.888   7.320 -0.0334 -0.8279  0.7661
 6030SOL    HW129549   2.264   0.794   7.329  1.3583 -0.7647 -0.2752
 6030SOL    HW229550   2.214   0.899   7.407 -2.8298  0.3315 -0.6127
 6031SOL     OW29551   1.555   0.465   2.097  0.6631  0.4279  0.1294
 6031SOL    HW129552   1.644   0.430   2.092 -0.1953 -1.4241 -2.0582
 6031SOL    HW229553   1.566   0.548   2.051 -0.3784  0.2395 -0.4699
 6032SOL     OW29554   0.025   3.713   7.668 -0.2328 -0.1741 -0.2434
 6032SOL    HW129555   0.029   3.618   7.675  0.2050 -0.1248  0.1396
 6032SOL    HW229556   0.105   3.739   7.713  0.4796 -0.6300 -1.2426
 6033SOL     OW29557   1.665   1.131  14.814  0.3682 -0.9634 -0.5797
 6033SOL    HW129558   1.725   1.187  14.765 -1.9367 -0.3243 -2.7022
 6033SOL    HW229559   1.632   1.072  14.745  3.2152 -0.9735 -1.9141
 6034SOL     OW29560   3.269   4.289   4.473  0.2695  0.4555 -0.2956
 6034SOL    HW129561   3.237   4.324   4.390  1.3187  1.8996 -0.0822
 6034SOL    HW229562   3.222   4.208   4.496  0.4737  0.7463  1.1651
 6035SOL     OW29563   3.858   0.601  12.124 -0.2561 -0.4923  0.1310
 6035SOL    HW129564   3.875   0.512  12.095 -1.6553 -1.3422  1.9427
 6035SOL    HW229565   3.769   0.595  12.159 -0.1591  1.2581  0.6836
 6036SOL     OW29566   3.619   3.457   6.053  0.0290 -0.5528  0.2499
 6036SOL    HW129567   3.678   3.527   6.024  0.2596 -2.2139 -3.2782
 6036SOL    HW229568   3.543   3.508   6.082 -0.4716 -1.6859  0.9123
 6037SOL     OW29569   0.729   2.567  11.282 -0.6753  0.4370 -0.0871
 6037SOL    HW129570   0.727   2.621  11.362  0.7042 -1.9612  1.5730
 6037SOL    HW229571   0.638   2.545  11.266 -0.2421 -0.9334 -0.6017
 6038SOL     OW29572   1.524   2.042  16.779 -0.8002  0.1113  0.5204
 6038SOL    HW129573   1.611   2.070  16.809 -1.5010  1.8982  0.8814
 6038SOL    HW229574   1.520   2.109  16.710  1.3508  0.1804  0.4745
 6039SOL     OW29575   0.781   1.897   8.075  0.4072  0.1618  0.4895
 6039SOL    HW129576   0.726   1.962   8.117  0.0717  1.4047 -1.8570
 6039SOL    HW229577   0.823   1.944   8.002 -1.8774 -0.6882 -1.3604
 6040SOL     OW29578   4.459   2.672   2.188 -0.5058  0.1946 -0.1553
 6040SOL    HW129579   4.414   2.754   2.208 -1.5621 -0.1018 -1.2652
 6040SOL    HW229580   4.412   2.615   2.249  1.9678 -0.7332  0.8666
 6041SOL     OW29581   2.256   1.805   9.008 -0.0071  0.0849  0.8324
 6041SOL    HW129582   2.306   1.844   8.937 -0.8094  0.8700  0.7021
 6041SOL    HW229583   2.311   1.832   9.081  0.3031  1.3882  0.1132
 6042SOL     OW29584   1.495   0.745  14.541 -0.6481 -0.5152 -0.0025
 6042SOL    HW129585   1.481   0.660  14.499 -0.9867  0.3935 -1.7442
 6042SOL    HW229586   1.424   0.803  14.514 -0.9807 -1.4403 -1.1265
 6043SOL     OW29587   2.635   1.594   3.444 -0.8077  0.4033  0.1210
 6043SOL    HW129588   2.549   1.636   3.442 -1.6363 -1.4031 -1.8882
 6043SOL    HW229589   2.670   1.604   3.533  0.7948 -1.1050 -0.3348
 6044SOL     OW29590   3.693   3.536   6.790  0.1877  0.4034 -0.1871
 6044SOL    HW129591   3.731   3.473   6.853  0.1247 -1.5211 -2.0703
 6044SOL    HW229592   3.681   3.608   6.852 -0.3088 -0.8191  1.1339
 6045SOL     OW29593   1.102   1.418  14.787  0.1965 -0.2188 -0.5588
 6045SOL    HW129594   1.031   1.428  14.850 -0.7904 -2.7802 -1.2405
 6045SOL    HW229595   1.048   1.457  14.718  2.4939  2.2332 -0.9716
 6046SOL     OW29596   2.856   2.739   4.584 -0.0082 -0.0397  0.1743
 6046SOL    HW129597   2.803   2.816   4.568 -0.8056 -0.4309  0.9368
 6046SOL    HW229598   2.898   2.770   4.664  2.3747 -1.0828 -0.6709
 6047SOL     OW29599   4.207   2.352   8.218  0.6065 -0.4215  0.0584
 6047SOL    HW129600   4.279   2.340   8.281  1.8142  0.4075 -1.1759
 6047SOL    HW229601   4.184   2.443   8.230 -0.8310 -0.9382  1.1849
 6048SOL     OW29602   0.611   1.741   5.367  0.5201  0.2320  0.9089
 6048SOL    HW129603   0.687   1.763   5.423  0.2026  0.5402  1.2217
 6048SOL    HW229604   0.578   1.666   5.416  0.4381 -0.2502  0.1043
 6049SOL     OW29605   4.194   4.196   5.166 -0.1517 -0.6636 -0.6058
 6049SOL    HW129606   4.124   4.168   5.226  1.8493  2.2340  3.0865
 6049SOL    HW229607   4.273   4.202   5.219 -0.4927  0.4537 -0.2351
 6050SOL     OW29608   1.729   2.709  17.384 -0.0518 -0.0355  0.1954
 6050SOL    HW129609   1.708   2.789  17.432 -1.5961  1.5763 -3.2090
 6050SOL    HW229610   1.705   2.644  17.450 -0.0995  1.1168  1.3217
 6051SOL     OW29611   0.456   0.290   5.653 -0.6142 -0.4235  0.7810
 6051SOL    HW129612   0.490   0.298   5.742  0.2737 -0.1857  0.4103
 6051SOL    HW229613   0.375   0.239   5.662 -0.8456 -0.2468 -0.3805
 6052SOL     OW29614   3.622   4.195  13.176 -0.2277 -0.1137 -0.1631
 6052SOL    HW129615   3.671   4.119  13.209 -0.1087  0.8077  1.7791
 6052SOL    HW229616   3.551   4.149  13.131 -0.3784 -0.9087  0.8930
 6053SOL     OW29617   3.844   0.523  17.592 -0.2441 -0.1139  0.0873
 6053SOL    HW129618   3.895   0.526  17.511 -2.0584 -0.9600 -1.0798
 6053SOL    HW229619   3.781   0.594  17.580 -0.3722 -0.2687 -0.1425
 6054SOL     OW29620   4.234   3.152   5.519 -0.0757  0.6691 -0.1397
 6054SOL    HW129621   4.161   3.180   5.575 -0.2525 -0.4108  0.1796
 6054SOL    HW229622   4.193   3.072   5.486 -1.0743  1.2075 -0.2172
 6055SOL     OW29623   0.829   2.420   5.682 -0.1108 -0.1711 -0.3265
 6055SOL    HW129624   0.879   2.427   5.601 -0.5591 -2.1324 -0.7593
 6055SOL    HW229625   0.864   2.334   5.705 -1.2542 -0.2944  0.9587
 6056SOL     OW29626   4.049   1.159  17.224 -0.4812 -0.1593 -0.0517
 6056SOL    HW129627   4.143   1.179  17.234 -0.5711  0.8755 -1.3825
 6056SOL    HW229628   4.015   1.233  17.274  1.8524  0.2714  0.9213
 6057SOL     OW29629   3.991   2.790   9.492  0.7214 -0.5075 -0.3012
 6057SOL    HW129630   3.998   2.799   9.397  0.6116 -3.1091 -0.5707
 6057SOL    HW229631   3.986   2.695   9.504 -2.6753 -0.4894 -1.5767
 6058SOL     OW29632   4.659   2.587   4.678  0.5975 -0.1063  0.2684
 6058SOL    HW129633   4.655   2.516   4.742  2.4368  0.5454  1.1212
 6058SOL    HW229634   4.619   2.659   4.727  3.2606  2.6561 -1.6381
 6059SOL     OW29635   2.909   3.960   2.111 -0.0294 -0.0009 -0.1614
 6059SOL    HW129636   2.935   3.930   2.024 -1.6995 -1.2784 -0.2343
 6059SOL    HW229637   2.931   4.053   2.101  0.6129 -0.1347  0.0504
 6060SOL     OW29638   1.295   2.209  16.489 -0.5106 -0.9890  0.0456
 6060SOL    HW129639   1.389   2.211  16.502 -0.5357 -3.2169  0.6757
 6060SOL    HW229640   1.260   2.298  16.482 -2.2254 -1.6249  0.4134
 6061SOL     OW29641   4.114   3.308   6.712  0.0674 -0.0276  0.1165
 6061SOL    HW129642   4.041   3.359   6.678  1.1012  2.4324  1.5802
 6061SOL    HW229643   4.113   3.246   6.639  0.5126 -1.0742  1.0000
 6062SOL     OW29644   2.810   3.687  14.706  0.7195 -0.2729  0.2153
 6062SOL    HW129645   2.868   3.677  14.781  0.3955  1.1873  0.6530
 6062SOL    HW229646   2.733   3.651  14.750  1.3091  0.8629  2.1925
 6063SOL     OW29647   4.585   3.816   8.387  0.1851 -0.2242 -0.1736
 6063SOL    HW129648   4.555   3.817   8.478 -1.5038 -0.8393 -0.7282
 6063SOL    HW229649   4.669   3.863   8.386  1.4907 -2.5726  1.1082
 6064SOL     OW29650   4.411   0.640  13.834  0.1441  0.3000  0.5062
 6064SOL    HW129651   4.474   0.707  13.861 -0.1053 -0.0746  2.0260
 6064SOL    HW229652   4.340   0.663  13.894 -1.1822 -1.3022 -0.4585
 6065SOL     OW29653   1.895   0.943  10.399 -0.2344 -0.4792 -0.1743
 6065SOL    HW129654   1.894   0.865  10.455 -2.1683 -0.2538  0.1119
 6065SOL    HW229655   1.985   0.944  10.366  0.3828 -1.4377  1.4533
 6066SOL     OW29656   4.295   2.349   7.953  0.2121 -0.0997 -0.0983
 6066SOL    HW129657   4.269   2.349   8.045 -1.2328 -2.5444 -0.5057
 6066SOL    HW229658   4.355   2.274   7.951 -0.0829 -0.3545  1.0826
 6067SOL     OW29659   1.935   3.939   7.692  0.4607 -0.1244  0.2525
 6067SOL    HW129660   1.979   4.015   7.654  0.9834  0.6807  2.4787
 6067SOL    HW229661   1.936   3.877   7.620 -2.4356 -1.7273  1.6189
 6068SOL     OW29662   2.177   4.179  16.190  0.4834  0.2959  0.5632
 6068SOL    HW129663   2.178   4.250  16.125  0.4534  0.9053  1.2290
 6068SOL    HW229664   2.224   4.208  16.269  1.5785 -0.5214  0.2150
 6069SOL     OW29665   4.688   3.661   9.701 -0.5051 -0.3420  0.3864
 6069SOL    HW129666   0.001   3.575   9.723 -0.1590 -0.8351 -2.1537
 6069SOL    HW229667   4.668   3.691   9.790 -1.0099 -3.4891  1.3360
 6070SOL     OW29668   3.246   4.705  11.113  0.2398 -0.1074 -0.5953
 6070SOL    HW129669   3.271   0.014  11.026 -0.4046  2.0086  0.0069
 6070SOL    HW229670   3.328   4.658  11.130 -0.1542 -0.4856  0.2568
 6071SOL     OW29671   1.377   2.545   5.093 -0.3880  0.1536 -0.8513
 6071SOL    HW129672   1.302   2.589   5.053  0.2972  2.0231 -0.0544
 6071SOL    HW229673   1.389   2.609   5.162  1.3845  0.1435 -1.1659
 6072SOL     OW29674   2.341   3.369   2.778  0.1614 -0.2244  0.7691
 6072SOL    HW129675   2.309   3.310   2.710 -0.9405  1.1044  0.1329
 6072SOL    HW229676   2.339   3.300   2.844 -0.6979 -1.6601 -0.7752
 6073SOL     OW29677   0.068   4.370   4.191  0.2884  0.3308  0.7220
 6073SOL    HW129678   0.148   4.392   4.239  0.9601  0.8166 -0.6032
 6073SOL    HW229679   0.057   4.277   4.212 -0.9084 -0.2400 -2.4093
 6074SOL     OW29680   2.467   3.268   5.569  0.1681  0.1816  0.1556
 6074SOL    HW129681   2.475   3.362   5.554 -1.2023  0.2855  0.0330
 6074SOL    HW229682   2.461   3.249   5.662 -0.6778  1.0957  0.2821
 6075SOL     OW29683   4.087   3.704   8.374 -0.1694  0.0277  0.9368
 6075SOL    HW129684   4.059   3.718   8.464  2.2364  0.8210  1.5683
 6075SOL    HW229685   4.148   3.777   8.364 -0.2769  0.0096  0.1074
 6076SOL     OW29686   2.130   3.718  10.405 -0.7250 -0.4214  0.0011
 6076SOL    HW129687   2.085   3.672  10.476  0.3669  0.8145  1.5157
 6076SOL    HW229688   2.074   3.795  10.404  1.0920  0.9059  0.0060
 6077SOL     OW29689   1.847   2.803  11.954  0.1821  0.0179  0.1979
 6077SOL    HW129690   1.801   2.879  11.989  2.4445  1.8327 -0.7469
 6077SOL    HW229691   1.901   2.838  11.883  0.4380  1.2663  1.0088
 6078SOL     OW29692   0.237   0.075  13.125 -0.1659 -0.5130  0.1308
 6078SOL    HW129693   0.313   0.031  13.087 -0.1035 -1.0949  0.9352
 6078SOL    HW229694   0.280   0.138  13.183  1.2830 -2.9555  1.7297
 6079SOL     OW29695   0.197   4.353   4.618 -0.3896  0.4634 -0.3587
 6079SOL    HW129696   0.217   4.259   4.625 -2.0516  0.2303  1.0487
 6079SOL    HW229697   0.253   4.369   4.541 -1.0767 -0.9068 -1.1408
 6080SOL     OW29698   0.362   4.519   0.910  0.2548 -0.4519  0.2427
 6080SOL    HW129699   0.392   4.465   0.983 -2.7524 -1.6720  0.6155
 6080SOL    HW229700   0.408   4.480   0.836 -0.1887 -0.7425  0.1152
 6081SOL     OW29701   1.986   0.545  17.048  0.5945 -0.0518  0.5337
 6081SOL    HW129702   1.953   0.494  17.121  0.6567  0.9299  1.2439
 6081SOL    HW229703   2.046   0.495  16.993 -0.8037  0.2915 -1.2975
 6082SOL     OW29704   2.482   0.176  14.516 -0.3922 -0.5066 -0.0608
 6082SOL    HW129705   2.508   0.189  14.425 -0.6437  0.9724  0.0732
 6082SOL    HW229706   2.541   0.237  14.560 -1.8488  0.0182  1.1945
 6083SOL     OW29707   3.248   4.034   6.715 -0.0591  0.2371  0.1395
 6083SOL    HW129708   3.229   4.111   6.768 -1.5974 -1.4702  2.0641
 6083SOL    HW229709   3.237   3.964   6.779  0.3219 -0.6538 -0.7617
 6084SOL     OW29710   1.454   0.016   0.840 -0.7158 -0.7159 -0.1096
 6084SOL    HW129711   1.547   0.013   0.862 -0.3946  2.4668 -1.0692
 6084SOL    HW229712   1.407   4.712   0.919  0.4386 -2.7462 -0.1380
 6085SOL     OW29713   4.379   4.605   3.250  0.5312 -0.2262  0.5560
 6085SOL    HW129714   4.350   4.587   3.161  2.2739  1.5623 -0.3541
 6085SOL    HW229715   4.350   4.524   3.294  0.9090 -1.0407 -0.7077
 6086SOL     OW29716   2.693   0.533   4.680 -0.4437 -0.4469 -0.2478
 6086SOL    HW129717   2.704   0.486   4.763 -2.3989 -0.4473  0.0187
 6086SOL    HW229718   2.762   0.497   4.625  0.5405  0.0066  0.6887
 6087SOL     OW29719   2.713   2.131   8.151  0.6314 -0.4049  0.5250
 6087SOL    HW129720   2.772   2.191   8.196  0.4875 -0.3934  0.7009
 6087SOL    HW229721   2.746   2.048   8.184 -1.7593 -0.5699  2.5175
 6088SOL     OW29722   4.540   1.168  11.918 -0.0744  0.1570  0.0975
 6088SOL    HW129723   4.505   1.227  11.851  1.1622 -1.0619 -1.6230
 6088SOL    HW229724   4.509   1.082  11.889 -1.3529  0.8520 -0.5903
 6089SOL     OW29725   2.520   2.975   6.693 -0.0413 -1.0828  0.7918
 6089SOL    HW129726   2.543   3.064   6.666 -3.0944 -0.6396 -0.2742
 6089SOL    HW229727   2.471   2.983   6.775  1.0396 -0.5495  1.3926
 6090SOL     OW29728   1.585   2.512  16.313 -0.2820  0.7429 -0.4162
 6090SOL    HW129729   1.621   2.591  16.353 -0.9205  0.6588  0.3142
 6090SOL    HW229730   1.662   2.455  16.317 -1.0504 -0.3575 -1.2028
 6091SOL     OW29731   0.274   4.568   0.264 -0.0897  0.2089  0.0715
 6091SOL    HW129732   0.309   4.656   0.249 -1.3437  0.4721 -1.3310
 6091SOL    HW229733   0.348   4.512   0.239  1.5481  1.6735  1.6036
 6092SOL     OW29734   1.634   2.626  12.697 -0.0932  0.2092 -0.5295
 6092SOL    HW129735   1.633   2.548  12.641  1.7025 -1.7176  2.1465
 6092SOL    HW229736   1.700   2.678  12.651  2.2180 -0.3740  2.1609
 6093SOL     OW29737   0.900   1.749   6.116 -0.8309  0.0462 -0.3068
 6093SOL    HW129738   0.814   1.792   6.110 -0.0383  1.2797 -2.9899
 6093SOL    HW229739   0.943   1.801   6.184 -1.5292  2.4431 -1.6894
 6094SOL     OW29740   2.084   3.038  13.371  0.3266 -0.5802  0.1794
 6094SOL    HW129741   2.111   2.946  13.373 -2.8862 -1.5446 -1.0102
 6094SOL    HW229742   2.127   3.065  13.290 -0.4212  2.8603  0.9489
 6095SOL     OW29743   4.343   1.582   2.403  0.2750 -0.1164 -0.6828
 6095SOL    HW129744   4.419   1.536   2.366 -0.2573 -0.4455 -1.3709
 6095SOL    HW229745   4.313   1.513   2.461 -1.7037 -0.8503 -2.6009
 6096SOL     OW29746   2.785   1.905  11.774  0.1447  0.0714  0.3230
 6096SOL    HW129747   2.724   1.934  11.842 -0.7018 -4.1691  1.3462
 6096SOL    HW229748   2.760   1.813  11.767  0.0846  0.2220 -1.3695
 6097SOL     OW29749   2.639   0.124  10.689  0.8131  0.7187  0.1872
 6097SOL    HW129750   2.621   0.216  10.708 -1.6521 -0.3025  2.7630
 6097SOL    HW229751   2.554   0.082  10.699  0.5837  1.5713  1.8276
 6098SOL     OW29752   1.927   3.863   4.536 -0.7176  0.0523 -0.3120
 6098SOL    HW129753   1.841   3.900   4.517 -1.3555 -1.6799 -0.8028
 6098SOL    HW229754   1.903   3.800   4.604 -0.3567 -1.2891 -1.4282
 6099SOL     OW29755   4.502   1.651   4.801  0.1751  0.2403 -0.1757
 6099SOL    HW129756   4.506   1.696   4.717  2.7035  2.3602  1.0904
 6099SOL    HW229757   4.427   1.595   4.782  0.0605  1.1513 -2.3836
 6100SOL     OW29758   0.781   4.681   2.862 -0.5118 -0.5628 -0.4368
 6100SOL    HW129759   0.705   4.691   2.919  0.8867 -0.7956  1.4736
 6100SOL    HW229760   0.819   4.599   2.894  0.7256 -0.3054 -1.2268
 6101SOL     OW29761   1.637   4.072   7.935 -0.1307  0.7329  0.2841
 6101SOL    HW129762   1.568   4.032   7.883 -0.6303  1.3741  0.4584
 6101SOL    HW229763   1.598   4.152   7.970  0.5524  1.1669  0.0689
 6102SOL     OW29764   4.015   2.615   8.441 -0.1629  0.1225 -0.6156
 6102SOL    HW129765   4.025   2.697   8.489  0.6205  0.4765 -1.3771
 6102SOL    HW229766   4.097   2.610   8.391 -1.2055  0.4701 -2.3316
 6103SOL     OW29767   1.648   3.558   8.185  0.1679 -0.3141  0.2666
 6103SOL    HW129768   1.615   3.647   8.193  1.6109  0.0764  1.9166
 6103SOL    HW229769   1.728   3.575   8.135 -0.5646  0.4804 -0.6510
 6104SOL     OW29770   3.306   0.982  12.353  0.8702 -0.5527 -0.4083
 6104SOL    HW129771   3.387   0.939  12.379  0.5564 -1.3654 -0.7553
 6104SOL    HW229772   3.250   0.976  12.431 -1.5340  0.4100 -2.0484
 6105SOL     OW29773   4.287   0.067  11.373 -0.4336  0.3052  0.3748
 6105SOL    HW129774   4.280   0.136  11.307  2.7485  2.8287  2.7191
 6105SOL    HW229775   4.292   4.709  11.322  0.9844 -0.1600  1.2508
 6106SOL     OW29776   1.955   1.081  17.234 -0.2419 -0.6948  0.7042
 6106SOL    HW129777   1.954   0.989  17.207  3.3108 -1.1827  2.2133
 6106SOL    HW229778   1.861   1.096  17.224 -0.1726  0.9356  2.5217
 6107SOL     OW29779   3.601   4.547   4.035 -0.1672  0.6503  0.2736
 6107SOL    HW129780   3.582   4.565   4.127 -1.4912 -0.3133  0.1849
 6107SOL    HW229781   3.695   4.561   4.020  0.0643  0.2884  1.4203
 6108SOL     OW29782   2.749   0.845   7.829  0.1969 -0.1858  0.2004
 6108SOL    HW129783   2.730   0.896   7.907 -0.0606  2.2001 -1.4434
 6108SOL    HW229784   2.717   0.758   7.854  0.4140 -0.5063 -0.6217
 6109SOL     OW29785   2.170   3.107  15.536 -0.4646  0.3615  0.1232
 6109SOL    HW129786   2.199   3.074  15.620 -0.6356  0.2313  0.1314
 6109SOL    HW229787   2.102   3.045  15.510  0.2682  0.1102 -1.1716
 6110SOL     OW29788   3.488   0.825   5.131  0.3953  0.2876 -0.4442
 6110SOL    HW129789   3.463   0.914   5.153  1.3942  0.7117 -1.0253
 6110SOL    HW229790   3.570   0.838   5.083  0.4078 -0.5103 -0.6414
 6111SOL     OW29791   1.768   4.381   7.239  0.9348 -0.9760 -0.1815
 6111SOL    HW129792   1.829   4.328   7.290  4.0720  1.8861 -0.9374
 6111SOL    HW229793   1.802   4.369   7.150  1.4152  2.1123 -0.4205
 6112SOL     OW29794   2.959   0.049   2.700  0.1161 -0.2497  0.0622
 6112SOL    HW129795   2.999   0.091   2.624  1.8304 -1.4402  0.3110
 6112SOL    HW229796   2.938   4.684   2.670 -0.3724  0.3999 -1.5301
 6113SOL     OW29797   2.522   3.542  12.051 -0.3001  0.1176 -0.1622
 6113SOL    HW129798   2.464   3.478  12.092  1.3176 -0.5589  1.0606
 6113SOL    HW229799   2.507   3.615  12.111 -2.2292 -0.4199 -0.0047
 6114SOL     OW29800   3.069   1.306  12.677 -0.0541 -0.3497 -0.7072
 6114SOL    HW129801   3.151   1.260  12.661 -0.4950 -1.5835  0.6451
 6114SOL    HW229802   3.054   1.292  12.770  2.5190 -0.3816 -0.3042
 6115SOL     OW29803   2.872   1.871  12.836  0.0239  0.1224 -0.3768
 6115SOL    HW129804   2.798   1.814  12.857  0.4609 -0.4530 -0.3948
 6115SOL    HW229805   2.940   1.830  12.890 -1.3609 -1.0567  0.4557
 6116SOL     OW29806   3.424   1.642   1.834 -0.3093 -0.1917 -0.0490
 6116SOL    HW129807   3.354   1.610   1.777  1.0214 -0.7103 -1.3744
 6116SOL    HW229808   3.383   1.725   1.856  0.2718 -0.0537  0.5273
 6117SOL     OW29809   2.116   2.594   3.073 -0.1183 -0.4342 -0.1126
 6117SOL    HW129810   2.171   2.664   3.108  1.0622 -0.7299 -1.3973
 6117SOL    HW229811   2.105   2.625   2.983 -0.0796  1.0609  0.3978
 6118SOL     OW29812   2.064   1.501   2.309 -0.1731 -0.1315 -0.3648
 6118SOL    HW129813   2.144   1.530   2.267 -0.7740 -1.0492 -2.1245
 6118SOL    HW229814   2.005   1.572   2.281 -1.8246 -0.3408  2.5598
 6119SOL     OW29815   2.714   1.578   2.238 -0.6599 -0.3471  0.8026
 6119SOL    HW129816   2.702   1.665   2.276  0.9846  1.2755 -2.4292
 6119SOL    HW229817   2.796   1.549   2.277 -0.3073  0.5658  0.7307
 6120SOL     OW29818   1.395   1.807   0.676  0.1766 -0.2269  0.1991
 6120SOL    HW129819   1.447   1.882   0.646 -1.1328  0.9633  0.9086
 6120SOL    HW229820   1.315   1.843   0.714 -0.0728 -2.1903  1.5176
 6121SOL     OW29821   2.585   0.530  10.118 -0.3908  0.4755  0.0445
 6121SOL    HW129822   2.540   0.571  10.044  1.2964  0.6347 -0.8812
 6121SOL    HW229823   2.655   0.592  10.140  0.4125 -0.6296  0.5687
 6122SOL     OW29824   4.231   3.447   3.835 -0.2594 -0.0937  0.8034
 6122SOL    HW129825   4.206   3.539   3.848 -2.6901 -0.7488  0.7585
 6122SOL    HW229826   4.204   3.442   3.744  2.5061 -2.1806  0.0918
 6123SOL     OW29827   3.519   4.621  16.045 -0.8023 -0.6941  0.0270
 6123SOL    HW129828   3.541   4.693  16.103 -1.0436 -0.8410  0.3010
 6123SOL    HW229829   3.426   4.635  16.029 -0.8981 -1.3895 -0.0204
 6124SOL     OW29830   3.240   2.838   7.382 -0.6790  0.1172  0.1718
 6124SOL    HW129831   3.207   2.756   7.347  3.2315 -0.0552 -3.0545
 6124SOL    HW229832   3.204   2.828   7.471  0.0059 -3.3303  0.0416
 6125SOL     OW29833   2.217   2.792  15.497  0.5751 -0.2812  0.6523
 6125SOL    HW129834   2.205   2.814  15.589  0.1030 -0.6231  0.6727
 6125SOL    HW229835   2.129   2.783  15.460  0.8897 -0.6565 -0.0156
 6126SOL     OW29836   2.472   0.690   9.816  0.8199 -0.4426  0.1977
 6126SOL    HW129837   2.494   0.649   9.732  0.2684 -0.5275  0.0912
 6126SOL    HW229838   2.558   0.720   9.844  1.1842 -0.3313 -1.0070
 6127SOL     OW29839   4.526   1.559   1.994  0.2573 -0.0770  0.0226
 6127SOL    HW129840   4.578   1.553   1.914 -0.6484  0.6839 -0.6252
 6127SOL    HW229841   4.583   1.624   2.035 -0.5336  1.6599 -1.6641
 6128SOL     OW29842   4.482   3.723   8.153 -0.0534  0.8748 -0.1645
 6128SOL    HW129843   4.462   3.630   8.165  0.7469  0.6813 -0.3546
 6128SOL    HW229844   4.516   3.741   8.241 -0.6660  0.2932  0.1908
 6129SOL     OW29845   1.695   3.278   7.528 -0.2719  0.4055 -0.7189
 6129SOL    HW129846   1.632   3.226   7.477  1.0150 -1.0859 -0.7983
 6129SOL    HW229847   1.663   3.257   7.615 -1.5862 -1.5909 -1.6735
 6130SOL     OW29848   0.028   0.660  11.078 -0.6097 -0.3163 -0.1375
 6130SOL    HW129849   0.089   0.620  11.016  0.1368  1.2611 -0.4224
 6130SOL    HW229850   0.063   0.746  11.101  1.0232 -0.6182 -1.4968
 6131SOL     OW29851   4.059   3.200   4.479  0.3189 -0.4022  0.3064
 6131SOL    HW129852   4.119   3.274   4.485  0.3725 -0.3845 -0.5798
 6131SOL    HW229853   4.118   3.129   4.454 -0.7920  0.3256 -4.2326
 6132SOL     OW29854   2.968   0.108  10.045  0.1377  0.2816  0.3575
 6132SOL    HW129855   2.884   0.068  10.022  0.1849  0.8609 -0.7939
 6132SOL    HW229856   3.007   0.125   9.959 -1.3716  1.0575 -0.1708
 6133SOL     OW29857   1.124   2.378   9.633  0.0415 -0.0090 -0.6799
 6133SOL    HW129858   1.041   2.337   9.659 -0.6840  1.9499  0.1068
 6133SOL    HW229859   1.170   2.312   9.581 -2.0920 -0.4784 -2.0022
 6134SOL     OW29860   3.403   4.610   4.743 -0.2149  0.0372 -0.2915
 6134SOL    HW129861   3.332   4.588   4.683 -0.8418  0.5251  0.2736
 6134SOL    HW229862   3.439   4.522   4.752 -2.2098 -0.7305  0.1165
 6135SOL     OW29863   3.417   2.260   8.836 -0.1758 -0.4512  0.2951
 6135SOL    HW129864   3.448   2.351   8.838 -0.2063 -0.4415  0.3178
 6135SOL    HW229865   3.477   2.226   8.769 -1.7770  1.6688 -2.2552
 6136SOL     OW29866   2.608   3.160   4.738 -0.9060 -0.3111  0.0096
 6136SOL    HW129867   2.640   3.179   4.826 -2.2392  3.2886 -0.2850
 6136SOL    HW229868   2.521   3.200   4.745  0.0557  1.7347  0.1201
 6137SOL     OW29869   2.020   3.872   0.349 -0.2106 -0.2035 -0.0618
 6137SOL    HW129870   2.030   3.798   0.409  1.7177 -0.0847 -0.2439
 6137SOL    HW229871   1.956   3.918   0.403 -1.3694  0.3989 -1.9505
 6138SOL     OW29872   3.538   0.089   8.273  0.0719  0.1749  0.1729
 6138SOL    HW129873   3.528   0.003   8.314  3.0685 -0.0046  0.5051
 6138SOL    HW229874   3.625   0.111   8.305  1.3704 -2.5046 -1.4869
 6139SOL     OW29875   0.766   3.061   1.628  0.1730 -0.4482  0.3942
 6139SOL    HW129876   0.769   2.969   1.605  0.0531  0.3329 -2.7275
 6139SOL    HW229877   0.856   3.088   1.609 -0.2190  0.2478 -0.4478
 6140SOL     OW29878   4.574   2.345   7.491 -0.4523 -0.5095  0.0141
 6140SOL    HW129879   4.650   2.336   7.547 -0.0416  3.2205  0.0686
 6140SOL    HW229880   4.507   2.326   7.557 -1.0803 -1.5765 -0.9289
 6141SOL     OW29881   3.332   2.089   7.695 -0.2702  0.7944 -0.2428
 6141SOL    HW129882   3.241   2.109   7.716 -1.0254 -1.8724 -0.9360
 6141SOL    HW229883   3.381   2.156   7.742  0.1440  0.1654  0.2299
 6142SOL     OW29884   0.697   1.748   5.120  0.0882 -0.1403 -0.5987
 6142SOL    HW129885   0.704   1.653   5.116 -0.5175 -0.2131 -0.0162
 6142SOL    HW229886   0.641   1.758   5.198  0.7241  0.2661 -0.1887
 6143SOL     OW29887   0.752   1.017  11.204 -0.0380  0.4947 -0.5732
 6143SOL    HW129888   0.714   0.998  11.118 -0.6193  2.4508 -0.7602
 6143SOL    HW229889   0.794   0.932  11.215  0.4723  0.6200 -1.5083
 6144SOL     OW29890   2.632   1.411   3.235  0.4689 -0.1973  1.0097
 6144SOL    HW129891   2.722   1.389   3.208 -0.3323 -1.5184 -0.6471
 6144SOL    HW229892   2.645   1.454   3.319  2.0102 -0.0581  0.7035
 6145SOL     OW29893   0.781   2.888   2.601  0.2245 -0.2616  0.5078
 6145SOL    HW129894   0.763   2.971   2.556 -1.7535 -0.1011  1.6155
 6145SOL    HW229895   0.687   2.871   2.606 -0.2097  1.7635 -0.5316
 6146SOL     OW29896   4.258   2.575  16.862  0.2707 -1.0226  0.0468
 6146SOL    HW129897   4.290   2.658  16.897  1.1970 -2.1067  1.7802
 6146SOL    HW229898   4.243   2.595  16.769  0.6760  1.1185  0.4323
 6147SOL     OW29899   2.170   1.967  16.404 -0.1883  0.0982  0.1119
 6147SOL    HW129900   2.187   1.971  16.310 -2.9012  1.9469 -0.3209
 6147SOL    HW229901   2.203   1.881  16.427 -0.2698 -0.1233 -0.5977
 6148SOL     OW29902   2.496   2.712   3.702  0.1172 -0.0976  0.0336
 6148SOL    HW129903   2.508   2.700   3.607  2.8253  2.4603  0.0195
 6148SOL    HW229904   2.431   2.781   3.716  0.6561 -0.0133  2.0755
 6149SOL     OW29905   1.479   1.141   0.205  0.2816 -0.3740  0.7688
 6149SOL    HW129906   1.489   1.236   0.206 -2.1965 -0.0629 -3.1808
 6149SOL    HW229907   1.527   1.096   0.275 -1.4542  1.7981  3.3728
 6150SOL     OW29908   1.297   0.114   1.257 -0.4102 -0.3834  0.5142
 6150SOL    HW129909   1.299   0.183   1.190 -0.9051  0.2851  1.1786
 6150SOL    HW229910   1.216   0.140   1.302 -0.0851 -0.4224  1.1252
 6151SOL     OW29911   1.379   0.278   8.226  0.1234 -0.4474 -0.0047
 6151SOL    HW129912   1.353   0.206   8.169 -1.6062 -0.1009  0.3453
 6151SOL    HW229913   1.294   0.317   8.241  0.2873  0.3063 -1.0163
 6152SOL     OW29914   0.200   0.430   6.607  0.3196 -0.4990 -0.0838
 6152SOL    HW129915   0.142   0.479   6.664  1.6351  0.6370  0.2641
 6152SOL    HW229916   0.151   0.412   6.527  1.3169  0.1947 -0.8517
 6153SOL     OW29917   1.899   0.756   0.814  0.1955 -0.2067 -0.8869
 6153SOL    HW129918   1.978   0.705   0.799  0.6075  0.4236 -0.8821
 6153SOL    HW229919   1.924   0.801   0.894  0.0436  2.4972 -2.3304
 6154SOL     OW29920   1.840   1.906   2.622  0.2627 -0.3535 -0.0235
 6154SOL    HW129921   1.892   1.957   2.685  0.9940  0.2916 -1.1652
 6154SOL    HW229922   1.862   1.950   2.540  2.5515  1.3192  1.4910
 6155SOL     OW29923   2.224   1.329   6.748 -0.3951 -0.0601  0.5916
 6155SOL    HW129924   2.133   1.319   6.719 -0.4642  1.5539  0.2085
 6155SOL    HW229925   2.220   1.328   6.843  2.9149 -0.5077  0.7178
 6156SOL     OW29926   3.768   3.502   8.319  0.8338  0.1310 -0.0524
 6156SOL    HW129927   3.829   3.435   8.350 -1.2038 -1.9040 -0.3625
 6156SOL    HW229928   3.764   3.562   8.393  2.6527  0.0510  0.1153
 6157SOL     OW29929   2.404   1.792   3.945  0.2702 -0.0226 -0.2415
 6157SOL    HW129930   2.353   1.826   4.019 -0.2908  1.8387 -1.4905
 6157SOL    HW229931   2.436   1.871   3.901  1.5601  1.5305  3.4783
 6158SOL     OW29932   3.584   0.621  15.813  0.5668 -0.4781 -0.1196
 6158SOL    HW129933   3.621   0.644  15.727 -0.3864 -0.0234 -0.4072
 6158SOL    HW229934   3.532   0.543  15.795 -0.0861 -0.4059  1.4649
 6159SOL     OW29935   0.040   4.596   3.338  0.6852 -0.0463 -0.5497
 6159SOL    HW129936   0.120   4.555   3.306  2.4200  1.6776  1.5819
 6159SOL    HW229937   4.719   4.589   3.253  2.1561 -1.1581 -1.2278
 6160SOL     OW29938   3.024   0.978   6.029  0.2935 -0.3067 -0.0989
 6160SOL    HW129939   2.942   0.970   6.078 -0.6217 -0.7163 -1.6748
 6160SOL    HW229940   3.076   1.019   6.098  1.3191 -0.3747 -0.8313
 6161SOL     OW29941   2.644   1.113  15.818  0.2596 -0.1411 -0.0526
 6161SOL    HW129942   2.714   1.052  15.799 -1.3570 -1.9837 -0.0491
 6161SOL    HW229943   2.573   1.067  15.772  0.6007  0.0564 -0.7745
 6162SOL     OW29944   2.065   4.221   3.133  0.6565 -0.4019 -0.2618
 6162SOL    HW129945   2.129   4.292   3.146 -2.6757  2.3910  0.6838
 6162SOL    HW229946   2.127   4.151   3.112  0.7401  0.2320 -2.0703
 6163SOL     OW29947   0.779   2.256  16.489 -0.1943 -0.0066 -0.4020
 6163SOL    HW129948   0.775   2.332  16.547 -0.5253 -0.0699 -0.3412
 6163SOL    HW229949   0.742   2.302  16.413 -0.3351  1.6568  0.6852
 6164SOL     OW29950   0.484   3.964   1.318 -0.7718  0.3542  0.0377
 6164SOL    HW129951   0.433   3.931   1.244  0.1526 -3.2424  1.0467
 6164SOL    HW229952   0.472   3.892   1.379 -0.4655  0.2905  0.0184
 6165SOL     OW29953   1.085   3.869   3.984  0.0870  0.0705 -0.0213
 6165SOL    HW129954   0.999   3.910   3.976 -0.7920 -1.9979 -1.1182
 6165SOL    HW229955   1.103   3.850   3.892  0.2324 -0.4734  0.1179
 6166SOL     OW29956   2.946   3.402  14.501 -0.1892  0.1394 -0.3447
 6166SOL    HW129957   2.874   3.365  14.451 -0.4292  2.0058 -1.3733
 6166SOL    HW229958   2.976   3.467  14.438 -0.3650  0.6172  0.0605
 6167SOL     OW29959   2.658   0.607  12.664 -0.6170 -0.2066  0.3010
 6167SOL    HW129960   2.705   0.626  12.583  1.6401 -1.7089  1.2658
 6167SOL    HW229961   2.627   0.694  12.690 -0.7978  0.2706 -1.4986
 6168SOL     OW29962   2.165   3.021   7.071 -0.3144 -0.2975 -0.4329
 6168SOL    HW129963   2.135   2.958   7.136 -2.5838  1.9041  0.6193
 6168SOL    HW229964   2.198   3.093   7.125 -0.7840  0.0254 -0.5814
 6169SOL     OW29965   0.088   0.212   2.866 -0.0569 -0.5526  0.0227
 6169SOL    HW129966   0.014   0.193   2.808  0.7096  0.0964 -1.1540
 6169SOL    HW229967   0.150   0.161   2.815 -1.2121  1.1725 -3.1007
 6170SOL     OW29968   0.293   0.823   6.797 -0.3514  0.2199 -0.3657
 6170SOL    HW129969   0.332   0.736   6.807 -2.2930 -0.4837  0.9755
 6170SOL    HW229970   0.272   0.831   6.889  1.0105  0.0992 -0.0362
 6171SOL     OW29971   2.422   2.352   4.536  0.1368 -0.2054 -0.5251
 6171SOL    HW129972   2.498   2.388   4.490  1.8942 -1.8825  1.1029
 6171SOL    HW229973   2.390   2.427   4.587  0.0919  0.2896 -1.2730
 6172SOL     OW29974   3.258   0.394   4.360 -0.5049  0.4837  0.1189
 6172SOL    HW129975   3.339   0.430   4.324 -0.3247 -2.8031 -2.8270
 6172SOL    HW229976   3.274   0.385   4.454  0.6956  0.1652 -0.1089
 6173SOL     OW29977   4.384   3.690   5.798 -0.4192  0.1641  0.4930
 6173SOL    HW129978   4.443   3.672   5.725  1.8028  0.9492  2.1104
 6173SOL    HW229979   4.422   3.642   5.872  0.3484  2.1538  1.3883
 6174SOL     OW29980   0.905   2.523   6.698 -0.7451  0.2425 -0.0078
 6174SOL    HW129981   0.992   2.556   6.718 -0.0479  0.5577 -3.4635
 6174SOL    HW229982   0.856   2.563   6.770 -1.2271 -0.6131  0.1376
 6175SOL     OW29983   0.926   1.359   4.078  0.0976  0.6542  0.5044
 6175SOL    HW129984   0.877   1.441   4.086  2.4752  2.0107  1.0321
 6175SOL    HW229985   1.012   1.389   4.106  0.2107  0.4781  0.3462
 6176SOL     OW29986   0.844   2.433   9.416 -0.1174 -0.3815  0.0790
 6176SOL    HW129987   0.843   2.516   9.463 -2.4360 -0.1103 -0.4776
 6176SOL    HW229988   0.893   2.452   9.337  0.2090  1.3379  0.6978
 6177SOL     OW29989   0.459   1.655   4.409  0.3027 -0.4257 -0.2691
 6177SOL    HW129990   0.457   1.722   4.477  1.3205 -1.1678  0.4901
 6177SOL    HW229991   0.547   1.627   4.434  1.3710  3.5605  0.4022
 6178SOL     OW29992   3.117   2.475   0.374  0.0396  0.4619 -0.0795
 6178SOL    HW129993   3.047   2.521   0.420  0.7626 -0.0733  1.5414
 6178SOL    HW229994   3.182   2.476   0.444  0.1755  0.0047 -0.2023
 6179SOL     OW29995   2.979   4.321  15.623  0.1763  0.7010 -0.2554
 6179SOL    HW129996   3.061   4.329  15.574 -1.3285  0.4052 -2.8171
 6179SOL    HW229997   2.991   4.246  15.682  0.5817  0.4081 -0.7115
 6180SOL     OW29998   2.173   1.615  15.296 -0.4665  0.0503 -0.4456
 6180SOL    HW129999   2.137   1.592  15.382 -0.4882 -2.0295 -1.0279
 6180SOL    HW230000   2.092   1.606  15.246 -1.1660  0.8039  0.5323
 6181SOL     OW30001   0.382   0.387   7.180  0.3350  0.1839  0.3961
 6181SOL    HW130002   0.341   0.366   7.095  0.4156  1.8617 -0.0475
 6181SOL    HW230003   0.471   0.368   7.150  0.8475 -0.2097  2.1870
 6182SOL     OW30004   0.831   0.503   1.250 -0.1096 -0.2935 -0.3214
 6182SOL    HW130005   0.761   0.469   1.194 -0.0874 -0.5451 -0.1945
 6182SOL    HW230006   0.785   0.511   1.333 -2.5936 -1.8523 -1.5390
 6183SOL     OW30007   4.126   2.315   7.772 -0.7090 -0.0965 -0.7725
 6183SOL    HW130008   4.040   2.282   7.798 -0.7937  1.6362  1.0917
 6183SOL    HW230009   4.166   2.324   7.858 -0.3204 -0.6759 -0.8933
 6184SOL     OW30010   1.387   4.437  15.880 -0.0724 -0.4120 -0.3882
 6184SOL    HW130011   1.371   4.454  15.973  0.1250  1.4591 -0.7067
 6184SOL    HW230012   1.313   4.478  15.836  0.3734  1.3188  0.5093
 6185SOL     OW30013   0.029   0.964   3.819  0.8079 -0.1411  0.1588
 6185SOL    HW130014   0.040   0.942   3.912  0.9561 -0.3072  0.1027
 6185SOL    HW230015   4.657   0.969   3.830  0.6325 -1.5535 -0.7479
 6186SOL     OW30016   3.559   0.378   3.806  0.3482 -0.2831  0.0469
 6186SOL    HW130017   3.534   0.404   3.894  0.6526  0.9938 -0.2386
 6186SOL    HW230018   3.652   0.357   3.812 -0.3243 -2.4734  2.8641
 6187SOL     OW30019   4.193   1.996   1.915 -0.0724  0.3519 -0.7080
 6187SOL    HW130020   4.234   2.078   1.943  1.5835 -1.6833  2.8821
 6187SOL    HW230021   4.266   1.948   1.875 -1.1549  0.0689 -2.3576
 6188SOL     OW30022   0.568   1.250  10.298 -0.0297  0.0156  0.4036
 6188SOL    HW130023   0.559   1.344  10.312  0.9636  0.3814 -1.4074
 6188SOL    HW230024   0.616   1.227  10.377 -0.6682  1.2413  1.1483
 6189SOL     OW30025   1.758   1.134  16.282  0.2138  0.0529 -0.4330
 6189SOL    HW130026   1.830   1.178  16.236  1.3551 -1.6139 -0.2571
 6189SOL    HW230027   1.681   1.160  16.231 -0.7084  0.0279  0.9480
 6190SOL     OW30028   1.692   2.896   8.084 -0.0721 -0.2070 -0.0460
 6190SOL    HW130029   1.746   2.897   8.006 -0.5497  1.9503 -0.3524
 6190SOL    HW230030   1.633   2.969   8.065  0.3986 -1.0623 -4.6684
 6191SOL     OW30031   2.667   0.008  15.408  0.4806 -0.0995  0.3789
 6191SOL    HW130032   2.658   0.095  15.369  1.9202 -0.7696 -1.4447
 6191SOL    HW230033   2.603   4.666  15.379  0.9139 -0.6978  0.7918
 6192SOL     OW30034   4.142   0.662   2.642  0.3245  0.1679  0.0158
 6192SOL    HW130035   4.085   0.704   2.707 -0.1680 -0.0179 -0.2914
 6192SOL    HW230036   4.114   0.700   2.559 -2.1339 -3.1351 -0.7027
 6193SOL     OW30037   2.522   4.416   0.687 -0.4576  0.5019 -0.3776
 6193SOL    HW130038   2.579   4.341   0.674 -0.3144  0.4543  0.4821
 6193SOL    HW230039   2.437   4.383   0.658  0.2779 -1.2037 -0.5609
 6194SOL     OW30040   1.645   3.805   0.950  0.1001 -0.8230 -0.0095
 6194SOL    HW130041   1.729   3.773   0.918 -0.1570 -2.8491  1.3207
 6194SOL    HW230042   1.592   3.726   0.936  1.4079 -2.0863  2.0302
 6195SOL     OW30043   4.489   0.155  14.443 -0.0686  0.1612  0.0359
 6195SOL    HW130044   4.534   0.174  14.360 -1.6223  0.4511 -0.7456
 6195SOL    HW230045   4.404   0.194  14.423 -0.0152  0.9537  1.4044
 6196SOL     OW30046   1.628   3.971   6.065 -0.3290  0.6036  0.1034
 6196SOL    HW130047   1.557   3.986   6.129  0.5597 -1.4520  1.5867
 6196SOL    HW230048   1.605   4.043   6.006  2.2793  0.4728 -1.0478
 6197SOL     OW30049   3.783   3.282   7.720 -0.6071 -0.0893  0.6704
 6197SOL    HW130050   3.793   3.341   7.795  1.1568 -0.1122  0.4574
 6197SOL    HW230051   3.861   3.309   7.672 -0.9543  0.5303  0.4544
 6198SOL     OW30052   0.908   0.421   0.026 -0.4679 -0.4027 -0.2135
 6198SOL    HW130053   0.823   0.380   0.043 -0.3787 -0.9141 -0.9959
 6198SOL    HW230054   0.892   0.502  17.673  0.7878  0.2963  0.5479
 6199SOL     OW30055   1.624   1.820   6.692  0.0690 -0.2131 -0.1589
 6199SOL    HW130056   1.539   1.854   6.666 -0.2985 -0.0558  1.2275
 6199SOL    HW230057   1.598   1.733   6.722  1.2462 -0.6596 -0.4360
 6200SOL     OW30058   1.757   1.877  16.580 -0.8630 -0.5385 -0.2420
 6200SOL    HW130059   1.806   1.831  16.647 -0.3923 -1.2929 -1.1046
 6200SOL    HW230060   1.670   1.855  16.613 -1.2689  0.6347 -0.5111
 6201SOL     OW30061   1.032   3.696   3.604 -0.1801 -0.5682 -0.2594
 6201SOL    HW130062   1.069   3.782   3.584 -2.9541  1.0426  1.5841
 6201SOL    HW230063   1.057   3.683   3.696 -0.1523  0.2797 -0.1496
 6202SOL     OW30064   1.721   0.504   1.604  0.0078  0.3362  0.3595
 6202SOL    HW130065   1.641   0.475   1.646 -1.6650 -1.1325 -3.8496
 6202SOL    HW230066   1.786   0.459   1.658 -1.9528 -0.2304  2.2170
 6203SOL     OW30067   1.235   4.196   5.462  0.3624 -0.1156  0.4349
 6203SOL    HW130068   1.295   4.269   5.447  1.5052 -1.3210 -0.8253
 6203SOL    HW230069   1.151   4.241   5.476  1.5301  1.8876  0.9032
 6204SOL     OW30070   4.288   0.418   4.901 -0.1744  0.1378 -0.2706
 6204SOL    HW130071   4.241   0.492   4.939 -0.3853  0.4977 -1.2444
 6204SOL    HW230072   4.280   0.346   4.963  2.2060 -0.2387 -0.3680
 6205SOL     OW30073   4.212   0.992   8.506 -0.8767  0.2324 -0.4756
 6205SOL    HW130074   4.160   1.055   8.558  1.2265  2.6209 -1.2427
 6205SOL    HW230075   4.220   1.030   8.419  0.1099  0.6539 -0.2031
 6206SOL     OW30076   0.908   2.775   6.857  0.2826  0.0306  0.8047
 6206SOL    HW130077   0.963   2.752   6.932 -1.8466 -1.2473  1.9807
 6206SOL    HW230078   0.838   2.825   6.899 -1.3843 -1.8310  0.2359
 6207SOL     OW30079   4.703   3.859  13.596  0.0731  0.0082 -0.2963
 6207SOL    HW130080   4.689   3.951  13.617  1.0914 -0.3499  1.8591
 6207SOL    HW230081   4.657   3.871  13.512  1.3269  0.1230 -0.9588
 6208SOL     OW30082   0.230   1.278   3.564 -0.0198 -0.5354  0.1564
 6208SOL    HW130083   0.296   1.305   3.628  2.2996 -2.2513 -1.5342
 6208SOL    HW230084   0.211   1.364   3.526  1.6175 -0.3661 -0.2867
 6209SOL     OW30085   1.610   3.559   8.838  0.4799  0.0627 -0.3747
 6209SOL    HW130086   1.583   3.470   8.859 -2.7918  0.6600 -2.0054
 6209SOL    HW230087   1.534   3.594   8.791 -0.2766  1.2209  1.7404
 6210SOL     OW30088   0.935   2.955   7.094 -0.7589 -0.3947  0.4802
 6210SOL    HW130089   1.009   2.897   7.114 -0.0480  0.2427 -0.2734
 6210SOL    HW230090   0.981   3.038   7.083  0.6386 -1.2988 -0.5724
 6211SOL     OW30091   4.322   1.986   5.224  0.1772 -0.1745 -0.5988
 6211SOL    HW130092   4.247   2.037   5.254  0.3290 -1.0487  1.2267
 6211SOL    HW230093   4.320   2.015   5.133  0.6417  0.8609 -0.2780
 6212SOL     OW30094   3.943   2.514   4.472 -0.0741  0.3059  0.0824
 6212SOL    HW130095   3.937   2.577   4.400 -1.5770 -0.4748 -0.4793
 6212SOL    HW230096   3.866   2.539   4.522 -2.5659  0.6420 -3.9440
 6213SOL     OW30097   0.843   0.438  10.411 -0.2646 -0.0658 -0.0686
 6213SOL    HW130098   0.844   0.377  10.336  1.8790  0.7879 -0.7501
 6213SOL    HW230099   0.751   0.462  10.409 -0.1625  0.3663  0.6245
 6214SOL     OW30100   4.048   1.161   3.835 -0.2539 -0.6775  0.1617
 6214SOL    HW130101   4.021   1.240   3.789  1.6529 -0.4526 -0.5727
 6214SOL    HW230102   4.141   1.171   3.816 -0.2131 -0.0612  0.6678
 6215SOL     OW30103   1.366   1.703   8.687 -0.1351 -0.9017  0.0727
 6215SOL    HW130104   1.386   1.794   8.709  1.6584 -1.2594 -0.1591
 6215SOL    HW230105   1.274   1.694   8.713 -0.6611  0.7912 -1.1707
 6216SOL     OW30106   0.904   1.030   8.371  0.3193 -0.3334  0.0743
 6216SOL    HW130107   0.877   0.976   8.297 -1.5366 -1.3278  1.4989
 6216SOL    HW230108   0.982   0.985   8.404  0.9112 -0.0697 -0.9620
 6217SOL     OW30109   1.762   2.974  13.793  0.3462  0.2182 -0.7730
 6217SOL    HW130110   1.798   2.885  13.790 -1.0316 -0.3705  0.6000
 6217SOL    HW230111   1.682   2.966  13.740  1.7539  4.1246 -3.4646
 6218SOL     OW30112   0.905   2.858  11.047  0.3597  0.2593  0.4865
 6218SOL    HW130113   0.979   2.874  11.106  1.5357  2.2543 -1.4955
 6218SOL    HW230114   0.841   2.927  11.062  0.8615  1.6676 -3.8920
 6219SOL     OW30115   1.965   4.594   3.318 -0.0255  0.0237 -0.2570
 6219SOL    HW130116   2.009   4.529   3.263  0.7349  0.3509 -0.0347
 6219SOL    HW230117   1.943   4.543   3.396  0.4833 -0.8877 -0.7030
 6220SOL     OW30118   2.647   0.733   3.942 -0.0237 -0.2420  0.4177
 6220SOL    HW130119   2.647   0.639   3.924 -1.2473 -0.1374 -0.1649
 6220SOL    HW230120   2.639   0.738   4.037 -3.3749  0.0076  0.1084
 6221SOL     OW30121   3.516   3.372   3.128 -0.4529 -0.0781 -0.5811
 6221SOL    HW130122   3.487   3.281   3.123 -0.8842  0.2477 -3.9487
 6221SOL    HW230123   3.450   3.410   3.070 -0.9424 -0.3000 -0.1627
 6222SOL     OW30124   2.006   1.368   1.329 -0.4257  0.7163  0.3941
 6222SOL    HW130125   1.937   1.324   1.279 -0.3349 -0.1160  1.0009
 6222SOL    HW230126   1.974   1.368   1.420  1.5933  2.0319  1.1032
 6223SOL     OW30127   1.538   3.121   2.615 -0.9897 -0.7639 -0.6848
 6223SOL    HW130128   1.561   3.033   2.585  0.3008 -0.3943 -0.7393
 6223SOL    HW230129   1.443   3.117   2.629 -0.7400  0.8163  1.3292
 6224SOL     OW30130   0.141   3.682  11.585 -0.4546 -0.4363 -0.5254
 6224SOL    HW130131   0.102   3.738  11.652  0.9595 -1.6488  1.3272
 6224SOL    HW230132   0.124   3.729  11.504 -1.3919 -2.3791 -1.4550
 6225SOL     OW30133   3.451   3.058   7.842 -0.2428 -0.0417  0.1275
 6225SOL    HW130134   3.459   3.141   7.797  1.0871  0.4308  1.2310
 6225SOL    HW230135   3.543   3.032   7.846 -0.3657 -0.5868 -0.6264
 6226SOL     OW30136   1.571   3.376   6.517  0.0875 -0.3658  0.1835
 6226SOL    HW130137   1.542   3.419   6.598 -1.6725  0.7073 -1.0196
 6226SOL    HW230138   1.492   3.378   6.463  0.2226  0.4063  0.0133
 6227SOL     OW30139   2.761   2.129  12.227 -0.2241  0.2529 -0.2906
 6227SOL    HW130140   2.665   2.131  12.236 -0.0324  0.5506  1.6371
 6227SOL    HW230141   2.777   2.056  12.286  0.5859  0.4255 -0.2992
 6228SOL     OW30142   3.624   1.938   1.225  0.0820  0.2337 -0.0169
 6228SOL    HW130143   3.534   1.946   1.193 -0.0783  0.8469  0.5860
 6228SOL    HW230144   3.613   1.918   1.318  0.9349 -0.6483 -0.1056
 6229SOL     OW30145   0.896   4.473   7.400  0.2054  0.2271 -0.1405
 6229SOL    HW130146   0.858   4.547   7.448 -0.1960 -0.0551 -0.0291
 6229SOL    HW230147   0.964   4.521   7.353 -0.6468 -0.0596 -1.6561
 6230SOL     OW30148   3.327   2.023   3.718 -0.2016  0.2120 -0.2629
 6230SOL    HW130149   3.291   1.940   3.685 -1.5175  1.9875 -3.2204
 6230SOL    HW230150   3.265   2.057   3.783 -1.2188  1.3478 -1.8397
 6231SOL     OW30151   1.980   4.107   9.788 -0.2036 -0.1991 -0.2462
 6231SOL    HW130152   1.942   4.177   9.840  1.2509  0.5983 -0.2464
 6231SOL    HW230153   1.926   4.036   9.824  0.0458  0.2370  0.9625
 6232SOL     OW30154   4.599   0.331   0.424  0.2639  0.3023  0.0954
 6232SOL    HW130155   4.608   0.264   0.491  1.8299 -1.0948 -1.5127
 6232SOL    HW230156   4.519   0.314   0.374  0.3664 -0.8890  0.3356
 6233SOL     OW30157   0.477   3.837   7.587  0.2004  0.7936  0.0328
 6233SOL    HW130158   0.400   3.892   7.605 -0.5136  0.0189 -0.6534
 6233SOL    HW230159   0.547   3.875   7.639 -0.1690 -0.4061  1.3810
 6234SOL     OW30160   3.229   0.803  17.585  0.4963 -0.2108  0.4355
 6234SOL    HW130161   3.262   0.714  17.596 -1.2881 -0.7536  1.4477
 6234SOL    HW230162   3.140   0.779  17.557  0.3402  0.0426  0.7200
 6235SOL     OW30163   1.995   0.003   9.964 -0.0210  0.0384 -0.9339
 6235SOL    HW130164   1.961   0.002   9.874  0.5228  2.6243 -1.1536
 6235SOL    HW230165   2.059   4.655   9.961  0.2426  0.3573 -3.3481
 6236SOL     OW30166   4.470   3.475  16.562 -0.5363 -0.4463  0.1319
 6236SOL    HW130167   4.518   3.454  16.642  0.1948 -2.2809 -0.7938
 6236SOL    HW230168   4.508   3.417  16.495 -2.2240 -2.1446  0.6751
 6237SOL     OW30169   1.926   1.567   0.650  0.0863  0.0264 -0.2845
 6237SOL    HW130170   2.010   1.531   0.678  0.3206  0.1909 -0.7746
 6237SOL    HW230171   1.862   1.504   0.683  1.4067  0.2441  2.6436
 6238SOL     OW30172   0.243   2.130  15.303 -0.6170 -0.2820  0.1239
 6238SOL    HW130173   0.162   2.080  15.301 -1.2888  0.7367  2.0620
 6238SOL    HW230174   0.282   2.091  15.381 -0.1543 -2.6441 -1.3050
 6239SOL     OW30175   4.354   1.397  10.894  0.0117 -0.4391 -0.2791
 6239SOL    HW130176   4.329   1.340  10.967 -0.4946 -0.2502 -0.3054
 6239SOL    HW230177   4.440   1.421  10.929  0.2796 -1.7454 -0.0646
 6240SOL     OW30178   0.784   0.187   2.554  0.6184 -0.1259 -0.1075
 6240SOL    HW130179   0.786   0.209   2.461 -2.6550  1.9412  0.2880
 6240SOL    HW230180   0.805   0.094   2.550 -1.7590 -0.7338  1.0546
 6241SOL     OW30181   0.445   2.140  13.338  0.8809 -0.2108  0.3120
 6241SOL    HW130182   0.528   2.135  13.386 -0.0206  0.7457  1.9918
 6241SOL    HW230183   0.441   2.234  13.322  1.1460 -0.4440 -1.1082
 6242SOL     OW30184   1.043   2.291   1.786  0.6019  0.1267 -0.0160
 6242SOL    HW130185   1.038   2.359   1.719 -0.5918  0.0105 -0.0458
 6242SOL    HW230186   1.055   2.352   1.858  0.4965  0.2866 -0.1324
 6243SOL     OW30187   3.814   2.068  12.138  0.2150 -0.3103 -0.3317
 6243SOL    HW130188   3.765   1.988  12.157 -1.3094  0.2495 -1.8838
 6243SOL    HW230189   3.854   2.052  12.053  0.6092 -1.4068  0.0682
 6244SOL     OW30190   0.390   0.471  17.566  0.0228  0.3059  0.3558
 6244SOL    HW130191   0.309   0.426  17.538  1.9237 -2.9853  0.1225
 6244SOL    HW230192   0.345   0.536  17.620 -2.1184 -2.7437  2.2578
 6245SOL     OW30193   2.325   4.658  13.471 -0.2685 -0.3970  0.1667
 6245SOL    HW130194   2.355   0.023  13.450  0.5420 -0.3556  1.5240
 6245SOL    HW230195   2.233   4.664  13.444 -0.4425  0.3830  0.9686
 6246SOL     OW30196   0.716   3.313   5.994  0.2573  0.1724  0.1457
 6246SOL    HW130197   0.721   3.387   6.055  0.0336  0.3831 -0.0943
 6246SOL    HW230198   0.715   3.363   5.912  2.0758  0.8499  0.5304
 6247SOL     OW30199   3.822   1.331   6.025 -0.1308 -0.4269 -0.0720
 6247SOL    HW130200   3.776   1.396   6.078  1.4664  1.7750 -1.3648
 6247SOL    HW230201   3.862   1.283   6.097  0.7954  2.4749  1.3289
 6248SOL     OW30202   1.235   1.037   7.137 -0.2325 -0.1412  0.4237
 6248SOL    HW130203   1.271   1.092   7.068  0.5277 -1.9651 -0.6513
 6248SOL    HW230204   1.175   0.984   7.084  1.9420 -2.8203  0.5969
 6249SOL     OW30205   0.322   4.696   4.965  0.1306 -0.0541  0.2591
 6249SOL    HW130206   0.335   4.718   4.873 -1.8685  0.9813  0.2277
 6249SOL    HW230207   0.229   4.716   4.971  0.6559  2.4557 -0.0281
 6250SOL     OW30208   4.339   0.308   0.358 -0.3686 -0.0960  0.3176
 6250SOL    HW130209   4.269   0.245   0.374 -1.0250  0.7305  0.6511
 6250SOL    HW230210   4.299   0.347   0.280 -0.8494  0.1931  0.7144
 6251SOL     OW30211   1.308   4.003   4.468 -0.0521 -0.2731 -0.2538
 6251SOL    HW130212   1.358   3.930   4.432 -0.2762 -0.2999 -0.5145
 6251SOL    HW230213   1.307   4.058   4.390 -0.1633 -1.2316 -0.9386
 6252SOL     OW30214   1.890   0.763  15.369 -0.4321  0.0644 -0.0546
 6252SOL    HW130215   1.840   0.841  15.390 -1.0963 -0.4442  0.2728
 6252SOL    HW230216   1.835   0.707  15.314 -1.8367  0.1178  1.2957
 6253SOL     OW30217   2.425   3.421  16.938  0.4148 -0.6528  0.3042
 6253SOL    HW130218   2.375   3.362  16.881 -0.5788  0.5731 -0.0913
 6253SOL    HW230219   2.384   3.507  16.934  1.5652 -0.1231 -0.0120
 6254SOL     OW30220   3.974   2.487   6.460 -0.4466  0.0766  0.2714
 6254SOL    HW130221   4.003   2.440   6.538 -0.0018 -0.9424 -0.5122
 6254SOL    HW230222   3.885   2.454   6.447 -1.3309  2.2621  0.6728
 6255SOL     OW30223   3.951   4.531   2.728 -0.2761  0.1466  0.0901
 6255SOL    HW130224   3.868   4.486   2.717  0.2294 -1.1485  1.5203
 6255SOL    HW230225   3.927   4.624   2.726  1.2826  0.4968 -2.7501
 6256SOL     OW30226   0.773   3.878   0.479 -0.1011  0.2757  0.5202
 6256SOL    HW130227   0.754   3.826   0.402  2.4558 -1.9704  1.4074
 6256SOL    HW230228   0.865   3.860   0.499  0.0407  3.1045  2.3846
 6257SOL     OW30229   1.480   1.177   1.542 -0.3824 -0.4900  0.0475
 6257SOL    HW130230   1.486   1.083   1.561 -0.9183 -0.1452  1.9822
 6257SOL    HW230231   1.418   1.174   1.469 -0.6369  2.4843  0.1553
 6258SOL     OW30232   3.852   2.010   3.156 -0.1355  0.1823  0.6081
 6258SOL    HW130233   3.817   2.097   3.140  0.6511  0.1276 -1.4114
 6258SOL    HW230234   3.939   2.035   3.190 -0.1276 -0.0838  0.7835
 6259SOL     OW30235   1.168   3.231   2.326  0.3611  0.0385 -0.1299
 6259SOL    HW130236   1.156   3.174   2.402 -0.7262  0.5462  0.0815
 6259SOL    HW230237   1.235   3.288   2.363 -1.1471  1.5821  0.2291
 6260SOL     OW30238   0.052   1.257   4.008  0.1888 -0.1016 -0.2404
 6260SOL    HW130239   0.040   1.163   3.997 -3.3118  0.3575 -0.3991
 6260SOL    HW230240   0.138   1.268   3.969 -0.1997 -0.6377 -1.2382
 6261SOL     OW30241   1.691   1.899   0.510 -0.0016  0.3032 -0.0585
 6261SOL    HW130242   1.731   1.814   0.531  0.1573 -0.0319 -1.7333
 6261SOL    HW230243   1.774   1.945   0.518 -0.5772  1.2365  0.4406
 6262SOL     OW30244   4.705   4.341   2.409 -0.1777 -0.1115 -0.0940
 6262SOL    HW130245   0.061   4.320   2.458  0.2655 -0.5545 -1.0080
 6262SOL    HW230246   0.008   4.361   2.319 -1.8560 -0.8861 -0.7612
 6263SOL     OW30247   0.028   0.561   8.606 -0.0666 -0.0361 -0.6794
 6263SOL    HW130248   4.705   0.578   8.688 -0.4215 -1.4330 -0.5826
 6263SOL    HW230249   0.035   0.465   8.613 -1.2611  0.1857  3.3855
 6264SOL     OW30250   1.951   0.974   1.007 -0.2088 -0.4479 -0.6168
 6264SOL    HW130251   2.014   1.036   0.971  1.4925 -2.1816 -0.6347
 6264SOL    HW230252   2.008   0.944   1.078 -1.7919 -0.8313  0.4924
 6265SOL     OW30253   0.758   2.290   8.518  0.1581 -0.0331 -0.5357
 6265SOL    HW130254   0.833   2.343   8.489  0.5286  0.8504  2.0734
 6265SOL    HW230255   0.751   2.285   8.613 -1.9727  0.3273 -0.6804
 6266SOL     OW30256   3.357   0.011   3.299 -0.0790  0.0536 -0.4397
 6266SOL    HW130257   3.285   0.037   3.356 -1.0577 -2.2056 -0.6227
 6266SOL    HW230258   3.413   0.089   3.297  1.7038 -1.1805  0.7112
 6267SOL     OW30259   0.992   2.927   8.343  0.4571  0.4187 -0.0234
 6267SOL    HW130260   1.022   3.012   8.311 -0.0693 -0.6146 -3.2739
 6267SOL    HW230261   1.052   2.903   8.413  1.1419 -2.4671 -1.5981
 6268SOL     OW30262   3.464   1.435   8.163  0.6282 -0.3155 -0.2206
 6268SOL    HW130263   3.468   1.530   8.174  0.0850 -0.1545 -1.4741
 6268SOL    HW230264   3.544   1.415   8.114  1.2572  0.8561  0.3252
 6269SOL     OW30265   3.558   0.606   0.893 -0.4182  0.4556  0.1977
 6269SOL    HW130266   3.532   0.634   0.980  0.2115  0.5678  0.3481
 6269SOL    HW230267   3.642   0.566   0.915 -0.3692  1.0446  1.0667
 6270SOL     OW30268   0.441   1.973   1.654  0.6008 -0.4778 -0.2582
 6270SOL    HW130269   0.397   1.974   1.569  2.2887 -0.7975 -1.1413
 6270SOL    HW230270   0.380   2.034   1.695  2.2037  0.2754  1.0343
 6271SOL     OW30271   1.812   3.005   4.511 -0.6179 -0.2063  0.3493
 6271SOL    HW130272   1.781   2.917   4.487 -0.5947  0.1518 -0.9918
 6271SOL    HW230273   1.844   3.029   4.424 -0.5192  0.4178  0.5591
 6272SOL     OW30274   0.312   1.590   1.276  0.1088  0.0757  0.2917
 6272SOL    HW130275   0.248   1.538   1.325  0.4462 -3.7221 -3.3950
 6272SOL    HW230276   0.314   1.543   1.193  0.0621  0.7813 -0.1074
 6273SOL     OW30277   4.661   0.287   1.953  0.2402 -0.0912 -0.3494
 6273SOL    HW130278   4.715   0.363   1.929  0.8028 -0.3863 -0.0259
 6273SOL    HW230279   4.708   0.208   1.928 -0.2944 -0.1288 -1.2219
 6274SOL     OW30280   4.356   2.085  13.479 -0.1827  0.5032  0.2561
 6274SOL    HW130281   4.349   2.176  13.507 -0.9264  0.0386  1.5864
 6274SOL    HW230282   4.288   2.082  13.411  0.1900 -1.3232 -0.0473
 6275SOL     OW30283   1.517   3.468   9.887 -0.6700  0.1149 -0.1628
 6275SOL    HW130284   1.603   3.426   9.877 -1.3039 -0.9266 -1.2055
 6275SOL    HW230285   1.458   3.411   9.935  1.9968 -1.1426  1.6494
 6276SOL     OW30286   0.753   4.153   4.781  0.7880  0.3680  0.1814
 6276SOL    HW130287   0.758   4.136   4.687  0.6037 -0.7878  0.3857
 6276SOL    HW230288   0.756   4.249   4.782 -1.5107  0.4275  1.0461
 6277SOL     OW30289   0.611   3.782   0.695  0.2381  0.0533  0.1630
 6277SOL    HW130290   0.539   3.801   0.634  2.4050  1.1554 -2.0598
 6277SOL    HW230291   0.675   3.822   0.637 -0.2359  0.7880  0.1472
 6278SOL     OW30292   1.052   2.234   9.285  0.2540  0.0045  0.5702
 6278SOL    HW130293   1.028   2.154   9.239 -1.8821  1.4917 -0.9308
 6278SOL    HW230294   1.043   2.306   9.222 -0.8712  0.8249  1.6532
 6279SOL     OW30295   4.415   0.667  11.763 -0.0266 -0.0983 -0.2558
 6279SOL    HW130296   4.443   0.637  11.850  1.2914 -0.2400 -0.7237
 6279SOL    HW230297   4.458   0.598  11.713 -1.8317 -0.1443 -1.7200
 6280SOL     OW30298   3.456   4.485   7.815  0.1571  0.1746  0.4222
 6280SOL    HW130299   3.493   4.399   7.836 -2.8356 -1.9605 -2.7747
 6280SOL    HW230300   3.524   4.542   7.848  2.5974 -2.3262 -0.2897
 6281SOL     OW30301   3.886   2.316   1.674 -0.3927  0.2505 -0.1221
 6281SOL    HW130302   3.889   2.235   1.727 -0.6639  1.2278  1.3958
 6281SOL    HW230303   3.972   2.352   1.695 -0.8451  1.1994  0.0939
 6282SOL     OW30304   1.735   2.663   5.097 -0.2892  0.6628  1.0088
 6282SOL    HW130305   1.750   2.671   5.191 -0.2087  1.6160  0.9128
 6282SOL    HW230306   1.826   2.650   5.073 -0.7664 -2.8615  1.0837
 6283SOL     OW30307   0.860   1.425  14.643  0.0709 -0.0576 -0.4215
 6283SOL    HW130308   0.901   1.485  14.581  2.2892 -1.7522 -0.6087
 6283SOL    HW230309   0.766   1.433  14.622 -0.4892  1.1823  2.6057
 6284SOL     OW30310   4.373   0.532   8.594 -0.1933 -0.3432  0.0860
 6284SOL    HW130311   4.289   0.511   8.552  0.8655  1.3309 -2.8911
 6284SOL    HW230312   4.384   0.619   8.556  0.1594 -0.3158  0.2576
 6285SOL     OW30313   4.527   0.529  11.976  0.0273  0.2246 -0.1034
 6285SOL    HW130314   4.451   0.493  12.021 -0.7568 -0.8030 -2.2425
 6285SOL    HW230315   4.602   0.498  12.027 -0.5162  1.7891  1.6392
 6286SOL     OW30316   0.904   1.772   3.418 -0.0358 -0.7615 -0.2999
 6286SOL    HW130317   0.930   1.864   3.423 -2.2625 -0.2961  2.3957
 6286SOL    HW230318   0.954   1.742   3.494  0.6743  0.9485 -0.0866
 6287SOL     OW30319   1.294   0.324   1.077 -0.1450  0.1848  1.0162
 6287SOL    HW130320   1.278   0.287   0.990  0.4210  1.1448  0.5117
 6287SOL    HW230321   1.247   0.407   1.084 -1.2541 -0.3090 -0.5348
 6288SOL     OW30322   3.288   1.655   5.136 -0.5604  0.5220  0.6410
 6288SOL    HW130323   3.256   1.741   5.108 -0.6305  0.6340  1.0683
 6288SOL    HW230324   3.382   1.664   5.123 -0.4196  0.9929  1.9318
 6289SOL     OW30325   2.496   1.040   6.959 -0.5829 -0.2128  0.1699
 6289SOL    HW130326   2.433   1.109   6.981 -0.5772 -0.7475  1.9024
 6289SOL    HW230327   2.482   0.983   7.034 -1.8191 -2.1758 -1.5854
 6290SOL     OW30328   2.145   4.098   0.256 -0.0139  0.6726 -0.2804
 6290SOL    HW130329   2.113   4.174   0.305 -0.2034  0.6780 -0.4164
 6290SOL    HW230330   2.095   4.032   0.303  1.7982  1.5578  2.9313
 6291SOL     OW30331   4.293   1.944   5.687 -0.0612 -0.2964 -0.0631
 6291SOL    HW130332   4.325   2.030   5.661 -0.0072  0.0813  1.2585
 6291SOL    HW230333   4.288   1.898   5.603  1.4100  3.7723 -2.3276
 6292SOL     OW30334   3.150   0.102  16.005  0.2264  0.1004 -0.0699
 6292SOL    HW130335   3.231   0.073  15.965 -1.0856 -1.5676 -1.5259
 6292SOL    HW230336   3.118   0.016  16.032 -0.9427  0.5574  0.0180
 6293SOL     OW30337   4.665   1.883   4.145  0.1943  0.2116 -0.7643
 6293SOL    HW130338   0.006   1.818   4.118  1.3290  1.7887 -1.8624
 6293SOL    HW230339   4.614   1.815   4.190  1.7385 -0.1672  0.4372
 6294SOL     OW30340   1.113   1.476   4.444  0.2953  0.5232  0.2172
 6294SOL    HW130341   1.064   1.546   4.487 -1.8204 -1.7563  1.5406
 6294SOL    HW230342   1.182   1.442   4.501  0.3171  0.3391  0.0803
 6295SOL     OW30343   3.148   2.578   2.856  0.1575 -0.9499  0.0314
 6295SOL    HW130344   3.234   2.586   2.898 -0.4926  1.4398  0.9356
 6295SOL    HW230345   3.131   2.664   2.818 -0.9437 -1.4952 -0.7114
 6296SOL     OW30346   0.821   2.553   6.439 -0.5103 -0.4067  0.0710
 6296SOL    HW130347   0.876   2.534   6.516 -0.3109 -2.1602 -0.5024
 6296SOL    HW230348   0.752   2.489   6.454  0.2406 -1.5098 -1.1541
 6297SOL     OW30349   1.497   3.630   3.209 -0.7711 -0.1177 -0.1666
 6297SOL    HW130350   1.568   3.682   3.171  0.1031 -0.5826  0.8121
 6297SOL    HW230351   1.491   3.565   3.139 -0.5842 -0.2645 -0.0475
 6298SOL     OW30352   0.353   3.916   8.482 -0.1775 -0.3088  0.8361
 6298SOL    HW130353   0.363   3.937   8.390 -3.6578 -1.1728  0.2735
 6298SOL    HW230354   0.406   3.837   8.491  0.6685  0.5394  3.3503
 6299SOL     OW30355   2.314   2.945   3.524 -0.0061  0.0772 -0.0472
 6299SOL    HW130356   2.275   2.860   3.546  0.7556 -0.3555 -0.3642
 6299SOL    HW230357   2.270   2.970   3.443  1.4416 -0.0943 -0.8893
 6300SOL     OW30358   2.566   2.874   2.936 -0.4299  0.5237  0.2028
 6300SOL    HW130359   2.594   2.964   2.916  0.7486  0.2932  0.8311
 6300SOL    HW230360   2.630   2.846   3.002 -1.5042 -0.3567  0.8585
 6301SOL     OW30361   2.280   2.253   5.746  0.2976 -0.1679 -0.0064
 6301SOL    HW130362   2.361   2.202   5.749 -0.0098 -0.7154 -0.9264
 6301SOL    HW230363   2.222   2.186   5.779  0.7050 -0.4697  0.1003
 6302SOL     OW30364   2.354   0.841   3.970 -0.7869 -0.8323  0.2043
 6302SOL    HW130365   2.440   0.809   3.997 -0.4237  1.4155  1.7647
 6302SOL    HW230366   2.381   0.932   3.956 -0.2393 -1.2355 -1.3011
 6303SOL     OW30367   4.031   1.722  13.104 -0.2891 -0.0982  0.3393
 6303SOL    HW130368   4.052   1.744  13.013  2.4110 -0.8808  0.7866
 6303SOL    HW230369   4.123   1.715  13.130 -0.6142  0.6109  1.6876
 6304SOL     OW30370   0.250   1.504   4.799 -0.1339 -0.4251  0.3095
 6304SOL    HW130371   0.312   1.508   4.726  0.7898 -1.1864  1.0710
 6304SOL    HW230372   0.262   1.597   4.820  2.0199 -0.5809 -0.2092
 6305SOL     OW30373   3.428   2.603   2.869  0.2728  0.1061 -0.6123
 6305SOL    HW130374   3.478   2.682   2.891  0.3371 -0.3049  0.6915
 6305SOL    HW230375   3.453   2.592   2.777 -0.6168 -2.2596 -0.5578
 6306SOL     OW30376   0.090   3.619   5.843  0.6897 -0.3787  0.0255
 6306SOL    HW130377   0.147   3.695   5.833 -1.2085  1.1226  0.5709
 6306SOL    HW230378   0.142   3.548   5.880  1.1936  0.9046  1.7396
 6307SOL     OW30379   4.416   0.015  11.598 -0.6006 -0.2749  0.1328
 6307SOL    HW130380   4.344   0.027  11.536 -0.4298  0.0729  0.0059
 6307SOL    HW230381   4.388   0.074  11.668  2.3010  1.8856 -0.5636
 6308SOL     OW30382   4.456   2.115  14.248 -0.6727 -0.0774 -0.4446
 6308SOL    HW130383   4.501   2.030  14.250 -2.5131 -1.0780 -1.1709
 6308SOL    HW230384   4.450   2.121  14.152  1.0797 -0.1639 -0.5617
 6309SOL     OW30385   0.148   4.098  13.442  0.3766  0.3150  0.0179
 6309SOL    HW130386   0.097   4.091  13.522  1.9377  1.4448  1.1007
 6309SOL    HW230387   0.205   4.174  13.450  1.9171 -0.8083 -0.3299
 6310SOL     OW30388   2.585   0.433   3.284 -0.4947  0.3601  0.3600
 6310SOL    HW130389   2.548   0.378   3.353  1.0592 -0.3671  0.6283
 6310SOL    HW230390   2.668   0.459   3.325 -0.5642 -1.9449  1.9502
 6311SOL     OW30391   3.118   0.502   1.980  0.3492 -0.3325  0.3274
 6311SOL    HW130392   3.188   0.567   1.972 -1.6290  1.7018 -0.5083
 6311SOL    HW230393   3.135   0.455   2.062  0.8041 -0.5563  0.1055
 6312SOL     OW30394   2.940   3.056   6.684  0.3122  0.5104 -0.5011
 6312SOL    HW130395   3.020   3.109   6.681  0.9888 -0.4582  0.3737
 6312SOL    HW230396   2.971   2.985   6.628  1.3685  2.0962 -1.9249
 6313SOL     OW30397   0.681   4.677   5.401  0.2774 -0.0029 -0.0387
 6313SOL    HW130398   0.623   0.026   5.379  0.5746  0.0675 -0.5874
 6313SOL    HW230399   0.767   4.718   5.400  0.0137  0.5423 -0.2510
 6314SOL     OW30400   1.456   2.289   6.610  0.5098 -0.4677 -0.6488
 6314SOL    HW130401   1.381   2.245   6.570 -0.8267  0.7992  0.4101
 6314SOL    HW230402   1.522   2.248   6.554 -1.0652 -1.8673 -1.4802
 6315SOL     OW30403   1.138   0.698   9.929  0.0291  0.4899 -0.4652
 6315SOL    HW130404   1.205   0.646   9.886 -0.1960 -0.7318  0.6563
 6315SOL    HW230405   1.059   0.667   9.886  0.4018  0.9224 -1.4502
 6316SOL     OW30406   3.211   4.210   7.414  0.2209 -0.2182 -0.9884
 6316SOL    HW130407   3.281   4.269   7.440 -1.7155  1.2818  0.8108
 6316SOL    HW230408   3.209   4.219   7.319  0.2965  1.6461 -0.8085
 6317SOL     OW30409   4.055   0.640  10.075  0.0597 -0.3987 -0.4317
 6317SOL    HW130410   4.077   0.730  10.100  1.4663 -0.9920  0.4066
 6317SOL    HW230411   4.029   0.653   9.983  1.2694 -0.5184 -0.7821
 6318SOL     OW30412   1.932   1.326   4.693  0.0524  0.4927 -0.4786
 6318SOL    HW130413   1.973   1.270   4.759  0.4725  1.6768  0.2646
 6318SOL    HW230414   1.969   1.303   4.608 -0.1322  1.5254 -0.8415
 6319SOL     OW30415   2.702   1.457   5.340  0.3071 -0.2426  0.0244
 6319SOL    HW130416   2.723   1.477   5.431  0.6354  1.9290 -0.5366
 6319SOL    HW230417   2.775   1.500   5.296 -0.5440  2.8691  1.7190
 6320SOL     OW30418   0.074   0.340   6.322 -0.1928 -0.1328 -0.4991
 6320SOL    HW130419   0.005   0.287   6.283  0.6854 -2.0653  0.5532
 6320SOL    HW230420   0.080   0.413   6.262 -0.8755 -0.4054 -0.9014
 6321SOL     OW30421   0.297   1.011  10.036 -0.3486 -0.3469 -0.2805
 6321SOL    HW130422   0.234   0.976   9.973  2.1674 -0.3748 -2.7890
 6321SOL    HW230423   0.326   0.926  10.069 -3.2282 -1.0707  0.4411
 6322SOL     OW30424   1.256   4.515   0.165  0.4436 -0.6086  0.0679
 6322SOL    HW130425   1.201   4.593   0.175 -1.1928 -1.4910 -2.0316
 6322SOL    HW230426   1.186   4.451   0.150 -0.4075  0.5645 -0.9783
 6323SOL     OW30427   1.667   0.949   1.509  0.2161  0.2668 -0.6521
 6323SOL    HW130428   1.718   0.966   1.588  0.4431  0.7826 -0.9077
 6323SOL    HW230429   1.585   0.912   1.540  0.4642 -1.1508 -1.6663
 6324SOL     OW30430   3.298   0.518   8.694 -0.5379  0.3531  0.3173
 6324SOL    HW130431   3.300   0.613   8.697  1.9880  0.3469 -1.7946
 6324SOL    HW230432   3.388   0.501   8.722 -1.2161  0.2205  2.4599
 6325SOL     OW30433   3.902   2.733   0.676 -0.6908  0.0953 -0.0031
 6325SOL    HW130434   3.893   2.650   0.723  0.2614 -0.8953 -1.5780
 6325SOL    HW230435   3.816   2.742   0.634 -1.5450 -0.7093  1.5626
 6326SOL     OW30436   1.604   2.312  12.759  0.1079 -0.8689 -0.4495
 6326SOL    HW130437   1.536   2.251  12.731  0.3631 -1.0525 -0.6727
 6326SOL    HW230438   1.664   2.321  12.685 -2.3295  3.0629 -1.9327
 6327SOL     OW30439   2.942   4.290   6.826  0.2476  0.2500 -0.2854
 6327SOL    HW130440   2.901   4.327   6.905  0.4336 -1.1204  0.4525
 6327SOL    HW230441   3.000   4.360   6.796  2.5238 -1.4693  0.1675
 6328SOL     OW30442   0.958   4.608   9.029  0.3141  0.4545  0.1024
 6328SOL    HW130443   1.008   4.605   8.947  2.9897 -0.1811  1.7996
 6328SOL    HW230444   0.882   4.661   9.003 -0.6882 -0.9512  0.1985
 6329SOL     OW30445   3.270   3.771  15.291  0.1351  0.1254 -0.1713
 6329SOL    HW130446   3.270   3.843  15.228 -0.7147 -0.5742 -0.9711
 6329SOL    HW230447   3.330   3.712  15.245  0.0138 -0.9018  0.9833
 6330SOL     OW30448   3.015   4.661   4.207  0.0235  0.5767 -0.0396
 6330SOL    HW130449   3.085   4.691   4.149  1.0146 -1.4582  0.1124
 6330SOL    HW230450   2.940   4.712   4.176  0.1744  1.1178  0.4624
 6331SOL     OW30451   1.375   3.887   3.214  0.3798 -0.0851  0.5113
 6331SOL    HW130452   1.341   3.812   3.262 -1.0626 -0.5217 -1.1806
 6331SOL    HW230453   1.469   3.872   3.223  0.0941 -1.1743  1.6719
 6332SOL     OW30454   1.923   1.433   8.400 -0.4452  0.2100  0.2294
 6332SOL    HW130455   1.928   1.358   8.341 -4.0039  0.0069  0.1479
 6332SOL    HW230456   1.850   1.475   8.355 -0.0860 -0.6680 -1.1607
 6333SOL     OW30457   3.054   0.768   3.010 -0.7155 -0.2407 -0.4248
 6333SOL    HW130458   3.003   0.724   3.079  0.3870 -0.5245  0.2100
 6333SOL    HW230459   3.017   0.727   2.932  1.8381 -0.8929 -1.3049
 6334SOL     OW30460   0.159   4.486   6.977  0.3298  0.5381 -0.2183
 6334SOL    HW130461   0.081   4.527   7.015  0.1881 -0.4516  0.5676
 6334SOL    HW230462   0.196   4.561   6.931 -0.5004  0.7077 -0.6140
 6335SOL     OW30463   2.415   4.087   8.936  0.7389  0.3123 -0.0518
 6335SOL    HW130464   2.444   4.169   8.976  2.1572 -1.8800  3.5626
 6335SOL    HW230465   2.322   4.086   8.959  0.6052 -0.4892 -0.6217
 6336SOL     OW30466   4.586   0.042  16.732 -0.2878 -0.0865 -0.2720
 6336SOL    HW130467   4.605   4.673  16.718 -2.8606 -0.6556 -0.0523
 6336SOL    HW230468   4.651   0.084  16.676  0.4830 -0.5414  0.2941
 6337SOL     OW30469   1.612   0.484  15.919  0.9450 -0.3394 -0.2795
 6337SOL    HW130470   1.646   0.415  15.862  2.1784  0.3230 -0.3396
 6337SOL    HW230471   1.593   0.433  15.998  2.1804  0.1509  0.3259
 6338SOL     OW30472   1.073   1.781  11.213  0.2715 -0.0329 -0.5483
 6338SOL    HW130473   1.053   1.873  11.194  0.9485  0.4082  0.8428
 6338SOL    HW230474   1.140   1.789  11.281 -0.5777  0.1947  0.2594
 6339SOL     OW30475   1.191   1.641   2.429 -0.8283 -0.1310  0.1951
 6339SOL    HW130476   1.210   1.732   2.453  0.1205 -0.2208 -0.2226
 6339SOL    HW230477   1.125   1.664   2.363  2.1124  0.7755 -2.4322
 6340SOL     OW30478   0.139   2.152  17.607  0.6792 -0.3941  0.2112
 6340SOL    HW130479   0.191   2.094  17.663  1.6041  0.3330  0.1046
 6340SOL    HW230480   0.199   2.226  17.595  1.1951 -0.5745  1.6845
 6341SOL     OW30481   1.655   4.347   7.527  0.7051 -0.2229 -0.0425
 6341SOL    HW130482   1.575   4.339   7.476  1.1018  0.2064 -0.7361
 6341SOL    HW230483   1.628   4.318   7.613 -1.0935  0.4291 -0.3834
 6342SOL     OW30484   0.494   3.341   1.963 -0.1102  0.2914  0.0569
 6342SOL    HW130485   0.531   3.258   1.996 -1.5783 -0.1747  0.5199
 6342SOL    HW230486   0.429   3.326   1.895  0.8568  1.7727 -1.1730
 6343SOL     OW30487   3.956   0.124   3.242 -0.1261  0.5255 -0.5855
 6343SOL    HW130488   4.008   0.045   3.232  2.2669  2.1030 -0.6026
 6343SOL    HW230489   3.983   0.148   3.331  0.0352  1.5495 -0.9024
 6344SOL     OW30490   1.953   3.376   9.141  0.4778  0.0361 -0.2061
 6344SOL    HW130491   1.985   3.374   9.231 -0.6382  3.4400  0.2739
 6344SOL    HW230492   1.924   3.285   9.137  2.3433 -0.6229  1.4544
 6345SOL     OW30493   0.094   0.874   2.720  0.4088 -0.0872  0.5926
 6345SOL    HW130494   0.039   0.806   2.758 -0.5111 -0.5678 -1.5832
 6345SOL    HW230495   0.023   0.938   2.722  1.5585  1.1498  1.8707
 6346SOL     OW30496   2.516   1.358   9.223 -0.0351  0.7139  0.2456
 6346SOL    HW130497   2.513   1.283   9.282 -0.9385  0.0919 -0.5874
 6346SOL    HW230498   2.605   1.350   9.186  1.1223  2.9607  2.6313
 6347SOL     OW30499   3.849   1.242   2.085 -0.6438  0.2198  0.1914
 6347SOL    HW130500   3.945   1.236   2.094 -0.7526 -0.4249  0.9279
 6347SOL    HW230501   3.859   1.330   2.048  0.3568  0.0894  0.1335
 6348SOL     OW30502   4.333   0.672   3.986 -0.0455 -0.1249 -0.3534
 6348SOL    HW130503   4.288   0.606   3.933 -0.1733  0.1495 -0.5879
 6348SOL    HW230504   4.391   0.697   3.913 -0.0496 -0.3826 -0.4456
 6349SOL     OW30505   1.153   4.414  10.959  0.0600 -0.4928  0.4465
 6349SOL    HW130506   1.201   4.346  10.910 -1.5654  0.2149 -2.1190
 6349SOL    HW230507   1.223   4.473  10.986  1.3381 -1.7047 -0.1377
 6350SOL     OW30508   1.563   3.924   6.975  0.5209  0.4566 -0.3119
 6350SOL    HW130509   1.479   3.883   6.957  0.2490  0.8991 -0.0483
 6350SOL    HW230510   1.606   3.844   6.944  1.1474  0.9639 -0.7549
 6351SOL     OW30511   2.956   0.672   2.287  0.0074 -0.1612 -0.2617
 6351SOL    HW130512   2.878   0.617   2.279 -0.6391  0.7079  0.1640
 6351SOL    HW230513   2.968   0.654   2.381  0.2346 -0.8783 -0.4215
 6352SOL     OW30514   0.942   2.155   9.788 -0.3224  0.0346 -0.1108
 6352SOL    HW130515   0.920   2.160   9.695 -0.9982 -0.2993  0.0347
 6352SOL    HW230516   0.862   2.130   9.834 -0.7202  1.5366  0.0124
 6353SOL     OW30517   3.471   3.070   7.147  0.8131  0.7241 -0.6073
 6353SOL    HW130518   3.404   3.130   7.179 -0.2043 -0.2049 -0.9925
 6353SOL    HW230519   3.483   3.021   7.228  1.0820 -1.4921 -1.9675
 6354SOL     OW30520   3.507   1.350   5.972 -0.4010 -0.1298  0.3553
 6354SOL    HW130521   3.478   1.261   5.993 -0.8421 -0.1016 -0.1360
 6354SOL    HW230522   3.550   1.376   6.054 -0.7427 -0.9115  0.7850
 6355SOL     OW30523   1.995   3.439   8.336 -0.5312 -0.0736 -0.0314
 6355SOL    HW130524   1.910   3.408   8.366 -1.5516  0.7950 -2.0820
 6355SOL    HW230525   2.051   3.370   8.373 -1.1031  0.0809  1.1302
 6356SOL     OW30526   0.322   4.611   2.160 -0.0953 -0.4537  0.2199
 6356SOL    HW130527   0.257   4.674   2.190  0.4002  0.6110 -0.9702
 6356SOL    HW230528   0.339   4.652   2.076 -2.4661 -2.1159 -1.0601
 6357SOL     OW30529   2.815   0.418  11.685  0.3538 -0.3870 -0.0928
 6357SOL    HW130530   2.850   0.329  11.678 -1.3478 -0.9009 -2.0624
 6357SOL    HW230531   2.826   0.445  11.594  1.2476 -2.2331 -0.5349
 6358SOL     OW30532   3.550   4.269   2.992  0.1154  0.0636  0.5336
 6358SOL    HW130533   3.573   4.224   2.910  0.2151 -0.1647  0.6885
 6358SOL    HW230534   3.457   4.289   2.980  0.7722  2.0658 -1.2837
 6359SOL     OW30535   2.753   3.945   8.275  0.3560  0.0577 -0.7098
 6359SOL    HW130536   2.784   4.017   8.330  1.1436 -2.0741  1.6191
 6359SOL    HW230537   2.691   3.898   8.331  1.4191 -0.0024  0.4118
 6360SOL     OW30538   4.451   1.427   6.197 -0.1650  0.2154 -1.0774
 6360SOL    HW130539   4.367   1.382   6.190  1.0651 -2.3633  0.4938
 6360SOL    HW230540   4.429   1.501   6.254 -0.3501 -0.1191 -0.7169
 6361SOL     OW30541   3.989   4.022  16.139 -0.6631 -0.1719  0.4114
 6361SOL    HW130542   3.965   4.092  16.078  1.7335  0.3572  0.0581
 6361SOL    HW230543   4.077   4.051  16.163 -0.9415  0.1390  1.0435
 6362SOL     OW30544   1.480   4.125   4.268 -0.1468 -0.0429 -0.5216
 6362SOL    HW130545   1.521   4.211   4.276  1.3088 -0.7534 -0.2832
 6362SOL    HW230546   1.408   4.145   4.209 -2.4780 -2.8280  1.3892
 6363SOL     OW30547   2.135   2.389   2.589  0.2732  0.0437  1.0034
 6363SOL    HW130548   2.225   2.357   2.584  0.4974  1.0459 -1.4397
 6363SOL    HW230549   2.142   2.479   2.556  0.9752 -0.1057  0.7622
 6364SOL     OW30550   3.848   4.699   6.313 -1.1131  0.2697 -0.1432
 6364SOL    HW130551   3.887   0.029   6.382 -0.8680  0.9057 -0.7768
 6364SOL    HW230552   3.907   4.715   6.240 -0.0000 -2.3658  0.1733
 6365SOL     OW30553   1.315   2.312   0.920  0.2936  0.1595  0.2389
 6365SOL    HW130554   1.263   2.383   0.957  0.5246  0.1893  0.5092
 6365SOL    HW230555   1.356   2.364   0.851 -1.6980 -0.6188 -1.5502
 6366SOL     OW30556   2.039   2.636   1.050  0.0229 -0.3373 -0.5801
 6366SOL    HW130557   2.085   2.709   1.090 -0.9533  1.1746 -2.2003
 6366SOL    HW230558   2.060   2.563   1.108  1.8020 -0.5195 -1.4234
 6367SOL     OW30559   0.589   1.877   1.885  0.7135  0.2401  0.3451
 6367SOL    HW130560   0.515   1.912   1.837  0.2709 -0.3780  0.5690
 6367SOL    HW230561   0.630   1.821   1.818  0.2107  0.9199 -0.5252
 6368SOL     OW30562   1.189   2.911   7.772 -0.2026 -0.2012 -0.0249
 6368SOL    HW130563   1.277   2.881   7.750 -0.6263 -0.3365 -1.5178
 6368SOL    HW230564   1.166   2.858   7.848 -1.7795 -1.1501 -1.1700
 6369SOL     OW30565   0.367   4.421  12.279 -0.0674 -0.1200  0.1492
 6369SOL    HW130566   0.361   4.329  12.307  1.2551 -0.2228  0.1177
 6369SOL    HW230567   0.462   4.430  12.274  0.2208 -4.2818 -1.9583
 6370SOL     OW30568   1.257   4.452   6.421  0.7664  0.2657 -0.4465
 6370SOL    HW130569   1.200   4.520   6.458 -0.6077 -0.7367 -0.7332
 6370SOL    HW230570   1.231   4.456   6.329 -1.8672  0.0050  0.2812
 6371SOL     OW30571   3.993   1.992   4.876 -0.2780 -0.1631  0.2840
 6371SOL    HW130572   3.962   1.958   4.961  2.0505  0.2427  1.3041
 6371SOL    HW230573   3.922   2.051   4.853  0.0048  0.7800  1.8506
 6372SOL     OW30574   0.003   2.573  12.378  0.7189  0.6106 -0.2649
 6372SOL    HW130575   0.075   2.587  12.439  3.2222 -0.7081 -2.9668
 6372SOL    HW230576   4.646   2.594  12.427  1.0524  0.7018  0.2385
 6373SOL     OW30577   0.045   1.933   1.625 -0.3584 -0.2671 -0.0432
 6373SOL    HW130578   0.051   1.857   1.567 -3.0231 -1.5393  1.3726
 6373SOL    HW230579   0.039   2.007   1.563  0.7425  0.5716  0.8365
 6374SOL     OW30580   1.274   3.048  10.131 -0.3810  0.2680  0.6579
 6374SOL    HW130581   1.194   3.006  10.162  0.1316 -0.9420  0.3464
 6374SOL    HW230582   1.305   2.983  10.067  1.0717  1.9075 -0.3017
 6375SOL     OW30583   2.741   0.363   3.072  0.5658 -1.0703  0.2934
 6375SOL    HW130584   2.809   0.421   3.108  1.1238 -1.3118 -0.3702
 6375SOL    HW230585   2.679   0.373   3.144  0.0237  1.3890 -0.5169
 6376SOL     OW30586   0.696   1.566   4.449  0.1209 -0.3659 -0.7305
 6376SOL    HW130587   0.704   1.487   4.395 -0.1079 -0.3739 -0.7556
 6376SOL    HW230588   0.755   1.630   4.409  1.6902 -1.4604 -0.1469
 6377SOL     OW30589   3.431   2.043   2.754 -0.0045 -0.1511  0.4067
 6377SOL    HW130590   3.478   2.066   2.834  1.6984  0.8197 -0.8762
 6377SOL    HW230591   3.448   1.949   2.759  0.3608 -0.0372  1.1544
 6378SOL     OW30592   0.715   0.929  13.341  0.2112  0.0409  0.1652
 6378SOL    HW130593   0.697   0.932  13.247  0.7663 -1.2724  0.0227
 6378SOL    HW230594   0.644   0.869  13.364  1.8780 -2.7611 -2.0286
 6379SOL     OW30595   3.468   2.290   4.245 -0.0321  0.1252  0.3645
 6379SOL    HW130596   3.531   2.362   4.243 -0.4621  0.5267  1.4917
 6379SOL    HW230597   3.405   2.324   4.309  1.7864  0.6823  1.8502
 6380SOL     OW30598   0.407   4.056   6.647 -0.2790  0.0662  0.1272
 6380SOL    HW130599   0.354   4.109   6.587  0.6427  1.6279  0.6949
 6380SOL    HW230600   0.359   4.076   6.728 -0.1875 -0.3168  0.2755
 6381SOL     OW30601   3.649   3.097  17.312 -0.3977 -0.1602  0.0390
 6381SOL    HW130602   3.710   3.068  17.245  0.5349  0.2401  0.7144
 6381SOL    HW230603   3.581   3.145  17.266  0.2883 -0.0964 -0.8922
 6382SOL     OW30604   3.620   3.461   2.862 -0.1555  0.3019 -0.1722
 6382SOL    HW130605   3.536   3.429   2.894  1.3367 -0.8909  2.5174
 6382SOL    HW230606   3.589   3.547   2.835 -1.7777 -0.3081 -0.2785
 6383SOL     OW30607   1.807   4.583  11.006 -0.2259  0.2241 -0.2663
 6383SOL    HW130608   1.712   4.579  10.995 -0.0570  1.4612 -2.1513
 6383SOL    HW230609   1.837   4.498  10.973  0.3603  1.0881 -1.9418
 6384SOL     OW30610   0.320   4.345   2.253  0.4514 -0.1759 -0.3533
 6384SOL    HW130611   0.236   4.325   2.211  1.4379  0.3349 -2.5625
 6384SOL    HW230612   0.320   4.435   2.221  1.2183 -0.4412 -1.1025
 6385SOL     OW30613   0.003   2.581   6.076  0.2101  0.0306  0.1997
 6385SOL    HW130614   4.630   2.576   6.074  0.2672 -1.1253  0.3391
 6385SOL    HW230615   0.028   2.588   6.168 -0.8758  0.2174  0.4793
 6386SOL     OW30616   2.837   2.088   3.212  0.1374 -0.6697 -0.2207
 6386SOL    HW130617   2.779   2.064   3.284 -1.2144 -2.9257 -2.0521
 6386SOL    HW230618   2.831   2.183   3.212 -1.6429 -0.7885  0.5574
 6387SOL     OW30619   4.210   1.169  10.696  0.1249 -0.1428 -0.0256
 6387SOL    HW130620   4.174   1.081  10.709 -0.9132 -0.0782 -2.4444
 6387SOL    HW230621   4.128   1.214  10.672 -0.1397  1.1144  3.1797
 6388SOL     OW30622   0.895   3.232  13.250  0.0613  0.0715  0.5263
 6388SOL    HW130623   0.858   3.269  13.330 -2.5236 -0.8871 -0.2242
 6388SOL    HW230624   0.963   3.174  13.284 -2.1711 -2.0039  1.4385
 6389SOL     OW30625   1.635   4.475   6.013 -0.4308  0.2319  0.1295
 6389SOL    HW130626   1.639   4.535   6.087 -0.9413 -0.5586  0.7948
 6389SOL    HW230627   1.722   4.492   5.976  0.2676  0.5627  1.9497
 6390SOL     OW30628   3.558   0.953   6.866  0.4439  0.0351  0.2158
 6390SOL    HW130629   3.523   0.882   6.920  0.4314  0.7591  1.1727
 6390SOL    HW230630   3.480   0.995   6.830  0.4917 -0.0153  0.0534
 6391SOL     OW30631   1.391   2.520   3.193  0.4463 -0.5104 -0.0808
 6391SOL    HW130632   1.394   2.519   3.098 -0.1520 -1.2436 -0.0846
 6391SOL    HW230633   1.471   2.468   3.202  0.5166 -0.2835  0.6771
 6392SOL     OW30634   1.776   4.273  13.191  0.2221  0.1066 -0.1239
 6392SOL    HW130635   1.721   4.206  13.150  0.0265 -0.5229  1.1747
 6392SOL    HW230636   1.756   4.252  13.282  3.1589  0.2500  0.5769
 6393SOL     OW30637   0.779   4.106  15.465 -0.5909 -0.0176 -0.3212
 6393SOL    HW130638   0.842   4.052  15.416  1.4893  2.3486 -0.1893
 6393SOL    HW230639   0.773   4.050  15.542  3.6921  1.1427  0.8347
 6394SOL     OW30640   1.325   1.684   6.097  0.2480  0.2201 -0.0104
 6394SOL    HW130641   1.269   1.747   6.052  0.7980 -0.8338 -2.1345
 6394SOL    HW230642   1.408   1.689   6.049  0.3193  2.8212  0.3516
 6395SOL     OW30643   2.481   2.100  12.246  0.3411  0.1809 -0.1472
 6395SOL    HW130644   2.475   2.010  12.214 -0.7672  0.6793 -1.3124
 6395SOL    HW230645   2.424   2.156  12.194  0.1367 -0.6138 -0.7771
 6396SOL     OW30646   1.533   2.244  15.937  0.1453  0.6832 -0.1420
 6396SOL    HW130647   1.606   2.288  15.981 -0.7451  1.2468  0.7720
 6396SOL    HW230648   1.550   2.258  15.844  1.7143  1.0884  0.1986
 6397SOL     OW30649   1.857   0.130   5.546 -0.0181 -0.1961 -0.3356
 6397SOL    HW130650   1.816   0.121   5.632  0.4214 -0.3929 -0.1513
 6397SOL    HW230651   1.893   0.219   5.551 -3.3917  1.1757  0.0982
 6398SOL     OW30652   2.726   1.977   2.670 -0.4884 -0.0534 -0.2581
 6398SOL    HW130653   2.761   1.898   2.629 -0.1921 -0.2373  0.3487
 6398SOL    HW230654   2.788   1.967   2.743 -1.0254 -1.5137 -0.0072
 6399SOL     OW30655   3.750   4.570  14.495  0.2357  0.4414 -0.5396
 6399SOL    HW130656   3.681   4.634  14.483  0.8047  0.9195 -1.2024
 6399SOL    HW230657   3.820   4.634  14.503  0.5703  0.0676 -0.4629
 6400SOL     OW30658   1.034   1.619   5.920  0.2091  0.4407 -0.3080
 6400SOL    HW130659   0.967   1.651   5.981  0.6053 -0.5351  0.6609
 6400SOL    HW230660   1.032   1.526   5.942  1.8254  1.1414  2.9092
 6401SOL     OW30661   1.407   3.980   6.213 -0.2390  0.2228  0.4056
 6401SOL    HW130662   1.352   3.908   6.242  0.1033 -0.2444 -0.1180
 6401SOL    HW230663   1.345   4.047   6.184 -1.7010 -2.0072 -1.5268
 6402SOL     OW30664   1.410   3.089   4.333 -0.2460  0.3880  0.1013
 6402SOL    HW130665   1.342   3.127   4.278 -1.7544 -3.1844 -0.5312
 6402SOL    HW230666   1.381   3.010   4.380  1.2430  0.2681  0.8598
 6403SOL     OW30667   3.493   0.611   2.546  0.1387  0.0359 -0.2855
 6403SOL    HW130668   3.440   0.538   2.513 -0.2510  0.2413 -0.1162
 6403SOL    HW230669   3.579   0.586   2.514 -0.2181  0.4915 -1.6045
 6404SOL     OW30670   2.543   1.741   6.775  0.8416  0.3674 -0.1630
 6404SOL    HW130671   2.505   1.653   6.765 -1.3541  1.1220  1.5357
 6404SOL    HW230672   2.473   1.779   6.827  0.8948  1.0786 -0.6119
 6405SOL     OW30673   0.966   1.022   5.342  0.4961  0.2317 -0.0277
 6405SOL    HW130674   1.053   1.020   5.302  0.2808 -0.5427 -0.4524
 6405SOL    HW230675   0.979   1.103   5.392  1.0571 -0.0242  0.2546
 6406SOL     OW30676   2.704   4.454   1.329 -0.4778  0.5051  0.0046
 6406SOL    HW130677   2.618   4.481   1.297 -0.8488 -0.4697  0.1623
 6406SOL    HW230678   2.676   4.438   1.419  0.4558 -0.5824  0.1065
 6407SOL     OW30679   3.873   0.062   7.525 -0.4308 -0.1839  0.2844
 6407SOL    HW130680   3.897   0.122   7.454  0.7728 -2.1648 -0.9828
 6407SOL    HW230681   3.902   4.704   7.483 -0.9460 -0.1369 -0.1710
 6408SOL     OW30682   4.285   2.569   0.453  0.3881  0.0355  0.2829
 6408SOL    HW130683   4.354   2.520   0.408  1.3406  0.2319  1.5562
 6408SOL    HW230684   4.311   2.588   0.543  0.1121  1.3194  0.0848
 6409SOL     OW30685   3.827   2.006   5.379 -0.0974  0.3564  0.2221
 6409SOL    HW130686   3.781   2.089   5.376 -0.6863  0.0255  0.0867
 6409SOL    HW230687   3.788   1.975   5.461 -0.9909 -1.4696 -0.8902
 6410SOL     OW30688   4.657   3.841   2.022  0.5118  0.7141  0.6014
 6410SOL    HW130689   4.575   3.792   2.017  0.1702  1.4870 -1.4110
 6410SOL    HW230690   4.700   3.807   1.944  2.5072 -0.4110  2.1927
 6411SOL     OW30691   2.119   0.940  16.029 -0.0175 -0.1458  0.2651
 6411SOL    HW130692   2.083   1.029  16.031  2.9858  1.0833 -0.4402
 6411SOL    HW230693   2.148   0.928  16.120  0.9726 -2.2395 -0.3227
 6412SOL     OW30694   0.527   2.114   4.265 -0.2759  0.5731  0.5054
 6412SOL    HW130695   0.439   2.083   4.283 -0.6881  1.9006  0.7541
 6412SOL    HW230696   0.509   2.174   4.193  2.4328  1.0834  0.2478
 6413SOL     OW30697   2.768   3.543  11.159  0.1108  0.6879 -0.4695
 6413SOL    HW130698   2.841   3.485  11.139  0.9968  0.9325  2.0767
 6413SOL    HW230699   2.820   3.624  11.163  1.5521 -0.2055 -1.1571
 6414SOL     OW30700   0.779   2.395  15.011 -0.1711 -0.1411  0.2357
 6414SOL    HW130701   0.758   2.478  14.967 -0.9168 -0.2411  0.3983
 6414SOL    HW230702   0.690   2.363  15.026 -0.3238  0.2120  0.0845
 6415SOL     OW30703   0.554   1.046   5.888 -0.0282 -0.6545  0.3315
 6415SOL    HW130704   0.460   1.062   5.898  0.2343  1.4286 -0.6641
 6415SOL    HW230705   0.587   1.127   5.926  0.5886 -0.0983 -1.4056
 6416SOL     OW30706   0.970   0.535   6.688 -0.4353  0.3054  0.7451
 6416SOL    HW130707   0.882   0.498   6.676 -0.5349  0.0617  2.1893
 6416SOL    HW230708   0.944   0.612   6.738  0.4264  1.1584 -0.1324
 6417SOL     OW30709   3.073   2.765   8.204  0.2545 -0.0343  0.3232
 6417SOL    HW130710   3.057   2.830   8.136  1.5573  2.4925  2.4138
 6417SOL    HW230711   3.076   2.814   8.287 -0.5395 -2.0800  1.5598
 6418SOL     OW30712   3.104   4.245  13.605  0.0047 -0.5181 -0.5677
 6418SOL    HW130713   3.068   4.243  13.694 -1.4759  0.4810 -1.1498
 6418SOL    HW230714   3.199   4.242  13.621  0.3499  0.2772 -2.5295
 6419SOL     OW30715   2.614   3.929   8.013 -0.1477 -0.4464 -0.2800
 6419SOL    HW130716   2.655   3.918   8.098 -1.6898 -5.2562 -0.1782
 6419SOL    HW230717   2.528   3.913   8.053  0.3510 -1.0050  0.5517
 6420SOL     OW30718   1.961   0.223  15.302  0.2948 -0.0159  0.0648
 6420SOL    HW130719   2.002   0.225  15.215  1.5605  1.5789  0.7160
 6420SOL    HW230720   2.001   0.153  15.353 -0.1840 -0.1590  0.2423
 6421SOL     OW30721   3.357   1.787   2.781  0.0090  0.0610  0.2570
 6421SOL    HW130722   3.312   1.732   2.717  2.0555 -0.0874 -1.0506
 6421SOL    HW230723   3.286   1.797   2.844 -1.2613  0.1075 -1.1812
 6422SOL     OW30724   3.679   4.482   4.875  0.6367 -0.0526 -0.4987
 6422SOL    HW130725   3.615   4.495   4.945 -2.9761 -0.2427 -3.8239
 6422SOL    HW230726   3.697   4.389   4.886 -2.5857 -0.3716  2.1075
 6423SOL     OW30727   3.765   1.827  11.794 -0.3160  0.1339 -0.6743
 6423SOL    HW130728   3.827   1.779  11.739  0.6155  1.2292 -0.5678
 6423SOL    HW230729   3.824   1.884  11.843  0.2802  0.6736 -2.0376
 6424SOL     OW30730   3.820   3.133  10.924 -0.1273 -0.4243  0.1643
 6424SOL    HW130731   3.834   3.049  10.880 -3.5709 -0.3462 -1.0170
 6424SOL    HW230732   3.727   3.128  10.947 -0.6130 -1.0364 -1.9298
 6425SOL     OW30733   1.031   3.235  13.672 -0.2771  0.0946  0.8638
 6425SOL    HW130734   1.008   3.207  13.760 -2.1023 -2.2992 -0.3786
 6425SOL    HW230735   1.080   3.158  13.641 -1.3422  0.7229 -2.3575
 6426SOL     OW30736   3.906   1.579   5.092 -0.3134 -0.0776 -0.3508
 6426SOL    HW130737   3.978   1.628   5.133 -1.0144 -0.2589  1.1132
 6426SOL    HW230738   3.843   1.648   5.110  0.1964  0.0566  0.9156
 6427SOL     OW30739   0.935   1.236   4.398  0.2946 -0.2152 -0.6802
 6427SOL    HW130740   0.980   1.236   4.482 -0.2341  0.3994 -0.3980
 6427SOL    HW230741   0.991   1.292   4.344  0.0900  0.4256 -0.2205
 6428SOL     OW30742   0.029   4.419  10.790  0.3307 -0.6682  0.1941
 6428SOL    HW130743   0.004   4.357  10.722 -0.8202  0.0635 -0.0415
 6428SOL    HW230744   4.698   4.397  10.866 -0.3536  0.4572  0.0246
 6429SOL     OW30745   1.844   3.656  14.084 -0.0333  0.0483  0.2259
 6429SOL    HW130746   1.935   3.684  14.090  0.4346 -0.5552 -4.2463
 6429SOL    HW230747   1.851   3.594  14.011  1.9699  0.4443  0.0793
 6430SOL     OW30748   0.087   2.201   2.695 -0.0359  0.0017 -0.3925
 6430SOL    HW130749   0.109   2.185   2.604  3.1271  1.3985  0.1343
 6430SOL    HW230750   0.048   2.119   2.725  0.4340 -0.4282 -0.9797
 6431SOL     OW30751   0.743   4.675   7.516  0.4033 -0.1936  0.0555
 6431SOL    HW130752   0.659   4.718   7.532  0.4432  0.1894 -0.7626
 6431SOL    HW230753   0.800   0.017   7.557  1.6040 -1.5848  0.5925
 6432SOL     OW30754   3.288   3.673  11.076 -0.1918 -0.9100  0.6070
 6432SOL    HW130755   3.314   3.620  11.000  0.3096  0.4555 -0.1782
 6432SOL    HW230756   3.211   3.724  11.050  1.2511  0.0150 -1.9259
 6433SOL     OW30757   1.911   1.186  15.492  0.5072 -0.5432  1.0749
 6433SOL    HW130758   1.976   1.251  15.518  0.8326 -1.0040  1.4342
 6433SOL    HW230759   1.935   1.115  15.553 -0.3436  1.3187  3.5713
 6434SOL     OW30760   1.255   1.818   9.429  0.2972  0.0713  0.6949
 6434SOL    HW130761   1.168   1.811   9.391 -0.2823  0.0783  2.0361
 6434SOL    HW230762   1.306   1.783   9.356  1.7508  1.9595  0.8033
 6435SOL     OW30763   3.374   3.751  10.481 -0.0036 -0.3390 -0.1700
 6435SOL    HW130764   3.341   3.787  10.399 -1.1546  1.7190  1.2050
 6435SOL    HW230765   3.300   3.704  10.518  1.6472 -1.0847  2.1807
 6436SOL     OW30766   0.389   1.917  10.760 -0.4865  0.3913 -0.3447
 6436SOL    HW130767   0.344   1.854  10.816 -1.9356  1.4264 -0.3645
 6436SOL    HW230768   0.478   1.890  10.782 -0.5601  1.2415  1.0072
 6437SOL     OW30769   1.056   4.040   4.953  0.5821  0.1124  0.5095
 6437SOL    HW130770   1.114   4.064   5.025  0.6601 -0.5469  0.6714
 6437SOL    HW230771   1.060   4.115   4.894  0.9509  1.6556  2.4928
 6438SOL     OW30772   4.390   1.861   1.770  0.9391  0.1381  0.1934
 6438SOL    HW130773   4.428   1.779   1.739  0.0178 -0.6211  1.0702
 6438SOL    HW230774   4.314   1.871   1.713  1.8415 -1.3444 -1.2562
 6439SOL     OW30775   2.961   3.022   7.458 -0.5252  0.0247 -0.5578
 6439SOL    HW130776   2.891   3.072   7.499 -0.5482 -0.1151 -0.4289
 6439SOL    HW230777   2.912   3.002   7.378  0.4042 -0.0763 -1.1084
 6440SOL     OW30778   2.098   4.362  13.090 -0.3161 -0.0279  0.4952
 6440SOL    HW130779   2.114   4.380  13.183  0.2961  0.6432  0.2654
 6440SOL    HW230780   2.008   4.334  13.100 -0.1966 -1.4130 -2.4555
 6441SOL     OW30781   3.961   0.884   6.765 -0.8345 -0.3409  0.6322
 6441SOL    HW130782   4.033   0.947   6.768  0.4796 -1.6730 -3.3280
 6441SOL    HW230783   3.883   0.936   6.747  0.1026  0.5082 -0.9739
 6442SOL     OW30784   2.034   1.057  16.643 -0.1652  0.1450  0.7186
 6442SOL    HW130785   2.061   1.125  16.581 -0.3649  0.3388  0.8408
 6442SOL    HW230786   1.943   1.039  16.620  0.5616  0.4679 -2.3651
 6443SOL     OW30787   2.774   3.414  15.152  0.8551  0.2336  0.0538
 6443SOL    HW130788   2.814   3.442  15.234  2.3334 -1.4812 -0.0931
 6443SOL    HW230789   2.730   3.331  15.171  2.6332 -1.0777 -1.5431
 6444SOL     OW30790   1.617   1.490   3.924 -0.5512 -0.4844  0.1174
 6444SOL    HW130791   1.588   1.440   4.000  0.1914  1.9866  1.9859
 6444SOL    HW230792   1.672   1.427   3.877  0.3945  1.2737 -1.1452
 6445SOL     OW30793   1.320   4.695   9.991 -0.1453  0.4388 -0.2220
 6445SOL    HW130794   1.299   0.038   9.925  1.2345  1.0194 -0.0702
 6445SOL    HW230795   1.233   4.658  10.004  0.4272 -0.6162  0.5955
 6446SOL     OW30796   2.077   3.465   5.841  0.2632 -0.3814  0.5813
 6446SOL    HW130797   1.998   3.425   5.879 -0.4825 -0.8820 -1.4597
 6446SOL    HW230798   2.037   3.540   5.797  1.9201 -1.7329 -3.2430
 6447SOL     OW30799   4.286   0.587   0.874  0.0315 -0.0198  0.1119
 6447SOL    HW130800   4.289   0.634   0.791  1.1123  0.9743  0.7138
 6447SOL    HW230801   4.361   0.623   0.921  1.1307  1.7714 -3.0570
 6448SOL     OW30802   0.101   2.807   9.179 -0.1771 -0.2694 -0.4647
 6448SOL    HW130803   0.101   2.868   9.252 -1.0488  0.9940 -1.5110
 6448SOL    HW230804   0.092   2.862   9.101  3.0126 -2.0790 -2.0925
 6449SOL     OW30805   2.351   2.278  14.989  0.0947  0.0996  1.0611
 6449SOL    HW130806   2.439   2.267  14.951  0.5000  2.7752  1.2349
 6449SOL    HW230807   2.355   2.355  15.045  0.6328  0.8101  0.0614
 6450SOL     OW30808   2.219   1.279   4.059 -0.2078 -0.5443 -0.0953
 6450SOL    HW130809   2.236   1.322   4.143  0.5902  0.5043 -0.7913
 6450SOL    HW230810   2.192   1.189   4.074  0.6883 -0.6826  0.7026
 6451SOL     OW30811   2.272   4.317  16.406 -0.6241 -0.2947 -0.6936
 6451SOL    HW130812   2.244   4.298  16.495  0.7277  0.6566 -0.0560
 6451SOL    HW230813   2.292   4.410  16.420 -0.1202  0.1450 -4.2033
 6452SOL     OW30814   3.711   0.199   3.103 -0.1153  0.2292 -0.2859
 6452SOL    HW130815   3.729   0.122   3.049 -0.0751 -0.6062  0.9364
 6452SOL    HW230816   3.799   0.212   3.139  0.4647 -1.3234 -1.1344
 6453SOL     OW30817   1.018   0.306   3.391 -0.3258  0.0941  0.5650
 6453SOL    HW130818   1.010   0.377   3.327 -0.7563 -2.1642 -1.8935
 6453SOL    HW230819   1.056   0.239   3.333 -2.0932  0.1436 -0.6336
 6454SOL     OW30820   4.538   3.449  15.029 -0.2738 -0.2379 -0.1834
 6454SOL    HW130821   4.504   3.534  15.059  2.0431  0.1700  1.2713
 6454SOL    HW230822   4.539   3.446  14.933 -0.7970  1.1079 -0.2329
 6455SOL     OW30823   4.030   0.993   2.579  0.8652  0.8064  0.3283
 6455SOL    HW130824   4.033   0.936   2.656  1.6145 -2.3894 -2.0451
 6455SOL    HW230825   3.992   1.073   2.616  2.7837  1.9364 -0.1438
 6456SOL     OW30826   2.020   4.444   1.726  0.3516 -0.0117  0.1480
 6456SOL    HW130827   2.020   4.528   1.774 -3.3585 -0.6676  1.3291
 6456SOL    HW230828   2.080   4.397   1.784  1.4802  0.7334 -0.4052
 6457SOL     OW30829   4.114   3.032   3.267 -0.4353  0.2550  0.4155
 6457SOL    HW130830   4.164   3.008   3.189  1.2401  1.4608  1.1144
 6457SOL    HW230831   4.180   3.088   3.307 -1.4951  1.5328  0.3843
 6458SOL     OW30832   1.197   2.274   7.449  0.4279  0.0697 -0.8422
 6458SOL    HW130833   1.272   2.259   7.506 -1.2735 -1.9272  0.8823
 6458SOL    HW230834   1.190   2.369   7.445  0.9452  0.1031 -0.9762
 6459SOL     OW30835   4.008   3.293   2.203  0.5332  0.4579 -0.3631
 6459SOL    HW130836   3.997   3.199   2.212 -0.3860  0.5645 -0.4386
 6459SOL    HW230837   3.942   3.326   2.264 -0.8232 -1.6397 -0.7165
 6460SOL     OW30838   4.065   2.804  16.294 -0.2159 -0.0708  0.3354
 6460SOL    HW130839   4.124   2.879  16.305  0.8012 -0.6118 -1.4186
 6460SOL    HW230840   4.037   2.788  16.384  0.9560  0.4737  0.7986
 6461SOL     OW30841   0.180   2.551   3.372 -0.6072  0.2773  0.0794
 6461SOL    HW130842   0.173   2.621   3.308  0.5837  0.7162  0.4218
 6461SOL    HW230843   0.141   2.592   3.450  1.1496  0.9710  0.5980
 6462SOL     OW30844   0.504   1.913   8.768  0.1442 -0.3162 -0.2635
 6462SOL    HW130845   0.531   1.997   8.731 -0.9341  0.8349  1.5432
 6462SOL    HW230846   0.411   1.927   8.749  0.3765  2.4373  0.5165
 6463SOL     OW30847   1.134   3.769   5.494  0.3655  0.0629  0.1422
 6463SOL    HW130848   1.120   3.700   5.558  0.2496 -0.5395 -0.5341
 6463SOL    HW230849   1.118   3.848   5.545 -0.1708 -0.4089  0.7107
 6464SOL     OW30850   4.016   2.485   6.784  0.4640 -0.1308 -0.2318
 6464SOL    HW130851   3.944   2.543   6.761  0.9202  0.1608 -0.9168
 6464SOL    HW230852   4.089   2.547   6.780 -1.9318  2.6127 -0.7142
 6465SOL     OW30853   3.587   1.320   6.739 -0.2083 -0.2817 -0.0156
 6465SOL    HW130854   3.628   1.407   6.734 -0.5506 -0.2352 -1.7448
 6465SOL    HW230855   3.538   1.335   6.820  1.6798  1.7493  0.7803
 6466SOL     OW30856   3.086   3.898   2.621  0.5915 -0.2176  0.0367
 6466SOL    HW130857   3.148   3.826   2.616 -2.0976 -2.3805 -2.5085
 6466SOL    HW230858   3.099   3.925   2.712 -0.5144 -3.4055  1.1214
 6467SOL     OW30859   4.182   2.458   8.688 -0.2159 -0.7631  0.1476
 6467SOL    HW130860   4.164   2.518   8.616  1.5910 -1.1069 -0.5994
 6467SOL    HW230861   4.217   2.525   8.747 -0.9594 -0.9382  0.7894
 6468SOL     OW30862   3.222   0.921  12.616  0.3400 -0.0506  0.1199
 6468SOL    HW130863   3.128   0.904  12.623  0.1950  1.0083  0.7716
 6468SOL    HW230864   3.248   0.856  12.682  0.1304  0.7988  1.0440
 6469SOL     OW30865   1.452   4.001   7.229 -0.1578  0.5507 -0.3627
 6469SOL    HW130866   1.413   3.921   7.265  1.0195 -0.5925 -1.6620
 6469SOL    HW230867   1.500   3.974   7.151  3.4900 -1.9812  2.7899
 6470SOL     OW30868   4.439   1.291   7.410  0.1464 -0.6258  0.3204
 6470SOL    HW130869   4.379   1.362   7.435  2.4324  1.8426 -1.2772
 6470SOL    HW230870   4.385   1.268   7.334  0.0583 -3.5991  1.3016
 6471SOL     OW30871   2.778   1.422   1.617 -0.1373  0.0910  0.3157
 6471SOL    HW130872   2.746   1.450   1.702  2.1141  1.9038  0.5558
 6471SOL    HW230873   2.862   1.467   1.614 -0.0410 -0.1841 -1.7622
 6472SOL     OW30874   2.847   2.691   6.073  0.3386  0.7875 -0.0217
 6472SOL    HW130875   2.777   2.744   6.035 -0.2314  1.4283  1.9461
 6472SOL    HW230876   2.790   2.628   6.117  0.2506  1.5487  0.9582
 6473SOL     OW30877   4.722   2.414  11.863 -0.4852  0.1079 -0.2638
 6473SOL    HW130878   0.010   2.423  11.768 -2.2539 -0.1259 -0.4966
 6473SOL    HW230879   4.696   2.495  11.906  1.9724  0.7417  0.0108
 6474SOL     OW30880   2.054   1.097   4.839 -0.4553 -0.2506 -0.1606
 6474SOL    HW130881   2.069   1.014   4.795  3.9901 -0.0929  1.0413
 6474SOL    HW230882   2.129   1.091   4.899  1.1412  2.3398 -1.9171
 6475SOL     OW30883   0.054   1.707   1.475 -0.4979  0.0109 -0.3182
 6475SOL    HW130884   0.115   1.644   1.511 -1.7129 -0.9791  0.0255
 6475SOL    HW230885   4.713   1.646   1.437  0.1211  0.5632 -2.2387
 6476SOL     OW30886   3.498   3.671  17.236  0.0766 -0.1592  0.0995
 6476SOL    HW130887   3.405   3.650  17.226  0.0335 -0.5071  1.1581
 6476SOL    HW230888   3.516   3.745  17.178 -0.0158 -0.3451 -0.1623
 6477SOL     OW30889   1.816   0.480   4.232  0.2087  0.1137  0.2004
 6477SOL    HW130890   1.757   0.554   4.247  3.1159  1.6514  4.2573
 6477SOL    HW230891   1.866   0.506   4.154 -1.2795  1.5737 -0.2747
 6478SOL     OW30892   0.745   4.086  10.201 -0.0932  0.4085 -0.3064
 6478SOL    HW130893   0.814   4.148  10.224  1.2223 -0.7842 -1.0155
 6478SOL    HW230894   0.675   4.151  10.194 -0.8466 -0.6103 -2.3419
 6479SOL     OW30895   2.044   2.489   1.638 -0.3599  0.1616  0.2967
 6479SOL    HW130896   2.088   2.566   1.603 -0.7026  0.9468  1.5766
 6479SOL    HW230897   1.969   2.528   1.682  0.7310  1.7678  0.7102
 6480SOL     OW30898   3.772   2.780   6.425  0.1910 -0.7826 -0.0772
 6480SOL    HW130899   3.803   2.741   6.507 -0.2695  0.1574  0.5420
 6480SOL    HW230900   3.783   2.709   6.361 -3.1326 -1.4774  0.1178
 6481SOL     OW30901   2.806   0.625  15.279 -0.2977 -0.1554  0.6901
 6481SOL    HW130902   2.735   0.625  15.216  0.2181 -0.5261  0.1052
 6481SOL    HW230903   2.881   0.651  15.225 -0.0459  0.0011  1.1099
 6482SOL     OW30904   3.628   0.493   2.999  0.2867  0.3085 -0.2904
 6482SOL    HW130905   3.658   0.498   3.090  1.4368 -0.2022 -0.6384
 6482SOL    HW230906   3.648   0.400   2.994 -0.6850  0.1475 -1.1373
 6483SOL     OW30907   0.848   4.278  13.208  0.3265 -0.0675 -0.1466
 6483SOL    HW130908   0.894   4.238  13.134  0.4794  0.3951 -0.2950
 6483SOL    HW230909   0.794   4.348  13.173 -0.5869  0.3407  2.0714
 6484SOL     OW30910   4.351   3.539   8.641  0.3924 -0.6411  0.3142
 6484SOL    HW130911   4.339   3.541   8.546 -0.7365 -0.6337  0.4452
 6484SOL    HW230912   4.400   3.617   8.668 -1.2347  0.2908  0.6331
 6485SOL     OW30913   3.002   4.582  11.501 -0.3395 -0.2360 -0.0099
 6485SOL    HW130914   3.083   4.633  11.505  0.3236 -1.3824  1.0575
 6485SOL    HW230915   2.950   4.655  11.465 -0.1390 -0.1633 -0.1482
 6486SOL     OW30916   0.942   0.039   5.777  0.0465 -0.3327 -0.2000
 6486SOL    HW130917   0.949   0.134   5.785 -1.9532 -0.1919 -0.1865
 6486SOL    HW230918   0.913   0.015   5.865  0.5504  1.0153  0.3350
 6487SOL     OW30919   1.001   1.067   7.436  0.7838  0.4132 -0.4768
 6487SOL    HW130920   1.049   1.147   7.418  1.0277  0.3853  0.0561
 6487SOL    HW230921   0.923   1.086   7.384 -0.5399 -1.8843  0.6647
 6488SOL     OW30922   1.491   0.722  12.660 -0.2527 -0.0374 -0.0284
 6488SOL    HW130923   1.480   0.635  12.697  2.3420 -1.0102 -1.5473
 6488SOL    HW230924   1.434   0.722  12.583 -3.9706 -0.3880  2.7374
 6489SOL     OW30925   3.540   3.272  10.676 -0.3054  0.1221  0.0758
 6489SOL    HW130926   3.444   3.284  10.675 -0.2936  0.2914  1.1611
 6489SOL    HW230927   3.547   3.204  10.742  1.8777  0.1552 -0.1438
 6490SOL     OW30928   1.055   2.803   1.879 -0.1708 -0.9126  0.3958
 6490SOL    HW130929   1.074   2.829   1.789  2.6076  1.2965  1.6051
 6490SOL    HW230930   1.087   2.881   1.925  0.0596 -0.1730 -1.0038
 6491SOL     OW30931   4.460   4.471   2.466 -0.0815 -0.3782 -0.3084
 6491SOL    HW130932   4.503   4.542   2.515  2.2991 -1.1332 -1.2852
 6491SOL    HW230933   4.532   4.433   2.415  0.6313  0.3020  0.1894
 6492SOL     OW30934   3.920   3.831   7.606  0.4625 -0.0829  0.2336
 6492SOL    HW130935   3.982   3.892   7.566 -1.3028  0.5326 -1.5612
 6492SOL    HW230936   3.844   3.821   7.548  0.7237 -0.2776 -0.0767
 6493SOL     OW30937   2.268   1.412  14.280  0.0094 -0.7507 -0.1572
 6493SOL    HW130938   2.214   1.338  14.255  0.9050 -0.2883 -3.5103
 6493SOL    HW230939   2.213   1.489  14.263  1.0985  0.1839  0.5462
 6494SOL     OW30940   4.417   3.578   0.853  0.0283 -0.5743  0.8360
 6494SOL    HW130941   4.398   3.487   0.830 -1.6267 -0.1093  0.3601
 6494SOL    HW230942   4.431   3.567   0.947 -0.4028 -0.1656  0.9480
 6495SOL     OW30943   4.160   1.565   9.735 -0.0089 -0.1089 -0.5532
 6495SOL    HW130944   4.179   1.520   9.652  1.4781 -0.7926  0.1584
 6495SOL    HW230945   4.240   1.553   9.786 -0.6228 -0.3203  0.3635
 6496SOL     OW30946   1.154   3.679  15.846  0.4100  0.7742 -0.0812
 6496SOL    HW130947   1.155   3.666  15.752 -0.7349 -2.1367  0.3154
 6496SOL    HW230948   1.120   3.593  15.871  1.9002  0.3578  0.5282
 6497SOL     OW30949   2.085   1.371  14.584  0.3326  0.1563 -0.2106
 6497SOL    HW130950   2.030   1.330  14.651  0.7832 -1.5596 -0.9172
 6497SOL    HW230951   2.048   1.458  14.572  0.3740  0.3640  1.0967
 6498SOL     OW30952   4.649   4.509  16.625 -0.2397 -0.1240  0.0171
 6498SOL    HW130953   4.657   4.446  16.554 -1.5961  0.2997 -0.5108
 6498SOL    HW230954   4.564   4.475  16.656  0.2837 -1.4149  0.0330
 6499SOL     OW30955   3.999   0.057   4.270  0.2677 -0.6681  0.2697
 6499SOL    HW130956   3.914   0.024   4.301 -0.0190 -2.5522 -2.4043
 6499SOL    HW230957   4.046   0.077   4.350  1.5996  0.7079 -0.8688
 6500SOL     OW30958   3.744   4.366  15.103  0.1698 -1.3290  0.5816
 6500SOL    HW130959   3.649   4.375  15.094  0.3944 -0.9342 -1.5611
 6500SOL    HW230960   3.750   4.276  15.072  1.4328 -0.4409 -1.7597
 6501SOL     OW30961   0.200   3.778   3.441 -0.4963  0.4732 -0.4637
 6501SOL    HW130962   0.238   3.761   3.528  0.4333  0.1241 -0.9391
 6501SOL    HW230963   0.262   3.738   3.380  0.4861 -1.8599  2.0110
 6502SOL     OW30964   4.451   3.593   7.677  1.0294  0.4900  0.6992
 6502SOL    HW130965   4.421   3.674   7.718  0.2620 -0.6331  2.3655
 6502SOL    HW230966   4.425   3.537   7.749  1.0607 -0.5334 -0.0853
 6503SOL     OW30967   1.153   0.625  16.184 -0.6717  0.1406 -0.3237
 6503SOL    HW130968   1.163   0.589  16.272 -0.1325 -1.8655 -1.2040
 6503SOL    HW230969   1.118   0.552  16.133 -0.4422  0.4362 -0.9082
 6504SOL     OW30970   0.997   1.694   4.542  0.0219  0.7078  0.6542
 6504SOL    HW130971   0.957   1.739   4.468 -0.7700  1.7718  1.7397
 6504SOL    HW230972   0.944   1.712   4.620  1.4122 -0.4221  1.8785
 6505SOL     OW30973   3.433   0.067   6.008 -0.2782 -0.2338  0.0631
 6505SOL    HW130974   3.456   0.012   6.084  0.3949 -0.3931 -0.2502
 6505SOL    HW230975   3.427   0.149   6.056  0.8632  0.2364 -0.5921
 6506SOL     OW30976   4.013   0.961   4.269 -0.3945  0.0170 -0.4757
 6506SOL    HW130977   4.063   0.889   4.229 -0.6801  1.0838 -2.7922
 6506SOL    HW230978   4.035   1.035   4.212  0.7780 -0.4588 -0.6367
 6507SOL     OW30979   2.902   1.212  16.526 -0.0144  0.1823  0.2049
 6507SOL    HW130980   2.889   1.264  16.447 -1.8378  0.4344  0.6599
 6507SOL    HW230981   2.821   1.162  16.539 -0.3682  0.8074  0.4036
 6508SOL     OW30982   0.551   0.742   6.451 -0.2123 -0.1820 -0.4362
 6508SOL    HW130983   0.534   0.678   6.520 -1.5894  0.9633  0.2915
 6508SOL    HW230984   0.474   0.798   6.460  0.3376  0.6355 -0.8969
 6509SOL     OW30985   3.316   4.134  14.131 -0.4084  0.4328 -0.5348
 6509SOL    HW130986   3.346   4.142  14.041  1.6061  0.4579  0.1334
 6509SOL    HW230987   3.294   4.041  14.133 -1.8111  0.7975  1.0728
 6510SOL     OW30988   2.320   4.715   6.845  0.0653  0.3476  0.1060
 6510SOL    HW130989   2.390   4.684   6.903 -2.1281 -2.5241  1.2237
 6510SOL    HW230990   2.362   0.017   6.763  1.3354 -0.7759  0.4058
 6511SOL     OW30991   3.355   0.534   6.525 -0.3623  0.2438  0.0866
 6511SOL    HW130992   3.436   0.484   6.518 -2.3309 -2.6183 -2.4712
 6511SOL    HW230993   3.308   0.507   6.446  0.6003 -0.0875 -0.3674
 6512SOL     OW30994   2.351   3.059   3.091 -0.3790 -0.1001  0.1600
 6512SOL    HW130995   2.401   3.134   3.121 -1.4956  0.2567  1.1171
 6512SOL    HW230996   2.389   3.038   3.006  0.9367  0.4326  0.6204
 6513SOL     OW30997   3.636   3.189   3.764  0.0514 -1.0186  0.0139
 6513SOL    HW130998   3.634   3.135   3.684 -1.4724  2.7556 -2.4876
 6513SOL    HW230999   3.727   3.219   3.761  0.0013 -0.7895  0.9347
 6514SOL     OW31000   1.163   0.260  11.738  0.3012 -0.0012  0.0691
 6514SOL    HW131001   1.119   0.284  11.657  0.4883 -1.5384 -0.4925
 6514SOL    HW231002   1.096   0.205  11.779  1.3628 -1.3914 -0.0671
 6515SOL     OW31003   2.355   1.523   7.895 -0.1098 -0.3986 -0.6353
 6515SOL    HW131004   2.357   1.580   7.818 -0.5399  2.1293  1.2176
 6515SOL    HW231005   2.445   1.493   7.902 -0.1683 -0.3889  0.0958
 6516SOL     OW31006   1.603   2.830   0.862 -0.2352  0.1907  0.7141
 6516SOL    HW131007   1.509   2.824   0.848  0.0165 -0.8328 -0.6381
 6516SOL    HW231008   1.604   2.879   0.944  1.1124 -1.3978  1.6625
 6517SOL     OW31009   0.822   0.803   3.439  0.0258 -0.7622 -0.1611
 6517SOL    HW131010   0.873   0.731   3.475  1.4095 -0.0382 -0.6858
 6517SOL    HW231011   0.844   0.804   3.346 -0.4372 -0.4272 -0.2707
 6518SOL     OW31012   1.000   4.034  14.904 -0.2476  0.1196 -0.2258
 6518SOL    HW131013   1.083   4.079  14.920  0.4601 -1.9716  1.9565
 6518SOL    HW231014   0.979   3.985  14.984 -0.2802  1.7653  0.7739
 6519SOL     OW31015   2.360   4.286   5.522 -0.2954  0.0333  0.8600
 6519SOL    HW131016   2.418   4.346   5.475  0.3463 -1.4126 -0.1922
 6519SOL    HW231017   2.405   4.208   5.488 -0.9444 -0.5127  1.2608
 6520SOL     OW31018   4.104   2.789   8.616 -0.1349  0.0873 -0.4120
 6520SOL    HW131019   4.138   2.875   8.641 -0.3123  0.4148 -1.2882
 6520SOL    HW231020   4.138   2.744   8.693  0.3931  0.1873 -0.5873
 6521SOL     OW31021   1.825   4.414  12.107  0.0693 -0.6385 -0.4670
 6521SOL    HW131022   1.875   4.370  12.177  1.2167 -1.2067 -1.6396
 6521SOL    HW231023   1.819   4.347  12.040 -0.6657 -0.6502 -0.3847
 6522SOL     OW31024   1.603   2.006  14.689 -0.0971  0.3256 -0.1680
 6522SOL    HW131025   1.565   2.089  14.660  0.0438  0.1014 -1.0076
 6522SOL    HW231026   1.591   1.955  14.608  0.1236 -1.3535  0.8542
 6523SOL     OW31027   0.691   0.733  11.028  0.0154  0.1383 -0.1071
 6523SOL    HW131028   0.756   0.757  11.094  1.0516 -0.1447 -1.0258
 6523SOL    HW231029   0.643   0.816  11.024 -0.1172  0.0519 -0.3611
 6524SOL     OW31030   1.797   1.356   0.738  0.4407 -0.0078 -0.5585
 6524SOL    HW131031   1.878   1.360   0.788  0.0323  2.3541 -0.1109
 6524SOL    HW231032   1.730   1.334   0.803  0.9982  1.2720  0.4281
 6525SOL     OW31033   2.060   0.667   8.593  0.2731 -0.5125 -0.0522
 6525SOL    HW131034   1.976   0.633   8.561  0.1583  0.2152 -0.5382
 6525SOL    HW231035   2.062   0.631   8.681  0.3804 -0.2596  0.0496
 6526SOL     OW31036   3.651   2.211   6.032 -0.0823  0.3525  0.5928
 6526SOL    HW131037   3.591   2.286   6.036  0.8012  1.0278  1.2467
 6526SOL    HW231038   3.626   2.159   5.956  0.8186 -0.3244  0.7545
 6527SOL     OW31039   3.032   0.945  14.272 -0.1722 -0.7119  0.5244
 6527SOL    HW131040   3.118   0.903  14.281  0.0356 -0.1848  0.9679
 6527SOL    HW231041   2.982   0.873  14.232 -1.9440 -0.4663  2.3437
 6528SOL     OW31042   1.398   2.628   6.952  0.1552  0.5654 -0.6545
 6528SOL    HW131043   1.415   2.543   6.912  1.4535  0.8469 -0.6949
 6528SOL    HW231044   1.364   2.613   7.041  1.0436 -1.2488 -0.6046
 6529SOL     OW31045   3.449   2.190   8.191  0.2512 -0.2799  0.0002
 6529SOL    HW131046   3.456   2.238   8.274  1.1760  1.0064 -0.8251
 6529SOL    HW231047   3.394   2.251   8.143  1.1881 -0.8888 -1.8388
 6530SOL     OW31048   2.435   4.641   2.251 -0.4543  0.0511  0.1750
 6530SOL    HW131049   2.441   4.664   2.158  0.3152 -1.0807 -0.0542
 6530SOL    HW231050   2.480   4.722   2.277 -0.1458 -0.2557  0.5774
 6531SOL     OW31051   0.808   2.550  14.414  0.2619  0.8644  0.3227
 6531SOL    HW131052   0.751   2.504  14.475  1.5298 -0.1425  0.7607
 6531SOL    HW231053   0.883   2.567  14.471  0.4624  0.5800  0.1499
 6532SOL     OW31054   0.103   1.892   2.294  0.2947  0.3311  0.1609
 6532SOL    HW131055   0.055   1.907   2.376 -0.3327  0.4679 -0.2342
 6532SOL    HW231056   0.084   1.967   2.239  2.0575  1.8904  1.6535
 6533SOL     OW31057   0.038   2.051   9.752 -0.2779 -0.0430 -0.3533
 6533SOL    HW131058   4.699   2.107   9.800  2.3065  0.7316  2.1219
 6533SOL    HW231059   0.121   2.097   9.757 -0.1451 -0.2775 -0.3888
 6534SOL     OW31060   3.780   3.065   3.218 -0.1730  0.1439 -0.3092
 6534SOL    HW131061   3.851   3.042   3.278 -1.3865  1.1503  1.5014
 6534SOL    HW231062   3.829   3.104   3.145 -2.3001  1.6314 -0.9452
 6535SOL     OW31063   3.193   0.824  14.868 -0.0007  0.7673 -0.0208
 6535SOL    HW131064   3.124   0.845  14.932  0.1129  1.6096 -0.1799
 6535SOL    HW231065   3.248   0.899  14.889  1.3694 -0.0844 -0.5865
 6536SOL     OW31066   3.517   2.844   8.547  0.2383  0.0690 -0.0618
 6536SOL    HW131067   3.504   2.855   8.453  0.7670 -2.9528 -0.4956
 6536SOL    HW231068   3.611   2.847   8.564  0.2085  1.3315 -0.1578
 6537SOL     OW31069   1.085   3.093  10.649 -0.1159  0.4493  0.3973
 6537SOL    HW131070   1.156   3.096  10.714  0.4367  0.3505 -0.2086
 6537SOL    HW231071   1.120   3.150  10.582 -0.2820 -1.4685 -1.3131
 6538SOL     OW31072   0.376   4.109   3.858  0.0727 -0.0759 -0.0876
 6538SOL    HW131073   0.401   4.145   3.773  0.1649 -1.3877 -0.5993
 6538SOL    HW231074   0.300   4.161   3.887  1.4664  1.3330  1.0747
 6539SOL     OW31075   2.433   4.327   4.823 -0.1391 -0.0658 -0.0591
 6539SOL    HW131076   2.426   4.315   4.728  0.8264 -0.8202 -0.0271
 6539SOL    HW231077   2.343   4.301   4.844 -0.4408 -1.9414 -3.7715
 6540SOL     OW31078   3.770   4.476  13.083  0.0458 -0.2490 -0.0367
 6540SOL    HW131079   3.799   4.564  13.109  0.3887 -0.3690 -0.0051
 6540SOL    HW231080   3.817   4.410  13.135  2.2779  0.2421 -1.4345
 6541SOL     OW31081   0.279   0.005   3.044 -0.2707 -0.4964 -0.2864
 6541SOL    HW131082   0.290   0.043   3.131 -3.2702  0.6328 -0.3854
 6541SOL    HW231083   0.184   0.013   3.038 -0.0748  1.6930 -0.7271
 6542SOL     OW31084   1.091   2.973  11.237  0.1188  0.0667  0.1396
 6542SOL    HW131085   1.144   3.041  11.196 -1.5406  1.3214  0.1105
 6542SOL    HW231086   1.011   3.025  11.236  0.0477 -0.0279  0.6230
 6543SOL     OW31087   4.064   0.246   6.948  0.1999  0.2270  0.1218
 6543SOL    HW131088   4.118   0.201   7.013 -1.6107 -0.7219  0.9898
 6543SOL    HW231089   4.137   0.293   6.909  1.4003 -1.4707  0.2896
 6544SOL     OW31090   1.250   0.922  10.699  0.7985  0.0322  0.0552
 6544SOL    HW131091   1.256   0.957  10.788 -0.5249  2.2013 -0.7185
 6544SOL    HW231092   1.280   1.002  10.655  2.4300 -0.1222  0.8659
 6545SOL     OW31093   3.812   2.997   4.566 -0.5413 -1.1072 -0.0853
 6545SOL    HW131094   3.732   3.036   4.530 -0.3254 -1.9005 -1.4147
 6545SOL    HW231095   3.862   3.074   4.594 -1.8056 -0.0836 -0.6859
 6546SOL     OW31096   2.022   4.324  14.825  0.0338 -0.1183 -0.0175
 6546SOL    HW131097   2.011   4.371  14.908  0.4206  0.5910 -0.3712
 6546SOL    HW231098   2.020   4.402  14.770 -0.6816  0.0297  0.2160
 6547SOL     OW31099   3.346   3.037   2.190 -0.5127 -0.3416 -0.0466
 6547SOL    HW131100   3.418   3.099   2.182  1.5531 -2.8185 -0.7536
 6547SOL    HW231101   3.312   3.029   2.101  0.3978 -1.1972 -0.3178
 6548SOL     OW31102   4.554   3.966   2.956 -0.5133 -0.0013  0.5814
 6548SOL    HW131103   4.549   4.028   3.029 -1.6658 -0.2063  0.6773
 6548SOL    HW231104   4.471   3.982   2.911  0.0293 -0.4469 -0.5695
 6549SOL     OW31105   1.718   1.102   2.811  0.4973 -0.3964 -0.0556
 6549SOL    HW131106   1.740   1.172   2.873  1.7219 -0.8551  0.0163
 6549SOL    HW231107   1.765   1.033   2.857 -0.0774  0.2650  1.5413
 6550SOL     OW31108   3.102   3.169   8.238  0.4205 -0.0289  0.2190
 6550SOL    HW131109   3.157   3.236   8.197  0.3451  1.2673  2.2297
 6550SOL    HW231110   3.055   3.125   8.167 -0.3997  1.2180 -0.0004
 6551SOL     OW31111   4.056   2.208   9.838 -0.6408  0.6087  0.1569
 6551SOL    HW131112   4.119   2.175   9.774 -2.5199 -2.7891  0.0911
 6551SOL    HW231113   4.031   2.127   9.881  0.7130 -0.1014 -0.4139
 6552SOL     OW31114   1.109   4.540   9.942 -0.5083  0.9103 -0.0747
 6552SOL    HW131115   1.115   4.470  10.007 -0.9080  0.4824 -0.5072
 6552SOL    HW231116   1.031   4.524   9.889  0.8114  0.2488 -1.7962
 6553SOL     OW31117   1.558   0.956   6.319  0.6160  0.4031 -0.5193
 6553SOL    HW131118   1.643   0.959   6.363 -0.2840 -1.1362  1.3559
 6553SOL    HW231119   1.504   1.014   6.372  0.7344 -1.1835  1.3338
 6554SOL     OW31120   2.302   3.363   8.376 -0.6044 -0.0034  0.1159
 6554SOL    HW131121   2.309   3.278   8.333 -4.9993 -0.6380  0.6773
 6554SOL    HW231122   2.337   3.428   8.315  1.1637 -0.2393  0.8726
 6555SOL     OW31123   3.264   4.104   8.464 -0.2155 -0.0916 -0.5413
 6555SOL    HW131124   3.301   4.026   8.423 -2.0345 -0.4273 -1.5419
 6555SOL    HW231125   3.341   4.161   8.472  0.4265 -0.8611 -1.1876
 6556SOL     OW31126   2.562   0.002   7.377 -0.0448  0.0684 -0.2322
 6556SOL    HW131127   2.568   0.022   7.283 -0.1477  1.1263 -0.0161
 6556SOL    HW231128   2.493   4.659   7.372 -0.7559  0.7616  0.4001
 6557SOL     OW31129   3.362   2.853   6.058  0.4666  0.1418 -0.0512
 6557SOL    HW131130   3.438   2.822   6.108  0.6256 -0.1473 -0.4703
 6557SOL    HW231131   3.291   2.837   6.120 -0.2607  2.4650 -0.2904
 6558SOL     OW31132   1.921   1.212  10.139  0.2779  0.2532 -0.0638
 6558SOL    HW131133   1.993   1.265  10.173 -1.3595  0.1494  3.5685
 6558SOL    HW231134   1.907   1.149  10.210  1.2818  0.8110  0.6430
 6559SOL     OW31135   0.317   0.393   2.642  0.4455  0.1802 -0.5279
 6559SOL    HW131136   0.277   0.478   2.623  1.1915  0.6073 -0.1504
 6559SOL    HW231137   0.292   0.375   2.732  3.0303  0.0967  0.1683
 6560SOL     OW31138   2.372   1.291   7.583 -0.5006  0.5147 -0.2430
 6560SOL    HW131139   2.431   1.359   7.615  0.0237  0.1766 -0.4915
 6560SOL    HW231140   2.425   1.217   7.614 -1.5517  0.0171  0.3918
 6561SOL     OW31141   3.529   3.279   8.542 -0.3360 -0.1718  0.0337
 6561SOL    HW131142   3.458   3.342   8.526 -0.8229 -0.3976  1.2899
 6561SOL    HW231143   3.573   3.277   8.457 -0.1365 -2.5404  0.2072
 6562SOL     OW31144   2.837   2.446   7.280  0.5802 -0.0864  0.2399
 6562SOL    HW131145   2.889   2.393   7.341  1.1692 -1.3533 -1.3628
 6562SOL    HW231146   2.871   2.533   7.297  1.3769 -0.5666  1.1221
 6563SOL     OW31147   0.433   2.291   7.974  0.4354  0.0627 -0.1709
 6563SOL    HW131148   0.389   2.310   7.891  1.0012  1.6632 -0.1036
 6563SOL    HW231149   0.433   2.196   7.979  0.0137  0.0638 -0.1040
 6564SOL     OW31150   0.354   4.087   7.352  0.3580  0.4234 -0.2762
 6564SOL    HW131151   0.301   4.033   7.293  0.9152  0.6544 -0.9833
 6564SOL    HW231152   0.334   4.176   7.323 -2.5749 -0.0371  0.3130
 6565SOL     OW31153   4.536   1.814   1.319 -0.0409  0.3308 -0.1339
 6565SOL    HW131154   4.445   1.788   1.332 -0.0097 -0.0845 -0.7458
 6565SOL    HW231155   4.589   1.739   1.345  0.2627  0.1383 -1.3098
 6566SOL     OW31156   0.585   4.366   8.988 -0.6131  0.1113 -0.1278
 6566SOL    HW131157   0.592   4.270   8.981  1.8922  0.2803 -0.1843
 6566SOL    HW231158   0.558   4.389   8.900 -1.3797 -0.6356 -0.0921
 6567SOL     OW31159   2.183   3.077  14.256 -0.1318  0.7012 -0.7602
 6567SOL    HW131160   2.272   3.054  14.229 -0.1450  1.7467 -1.7073
 6567SOL    HW231161   2.166   3.155  14.203  0.8940  0.6288 -1.1946
 6568SOL     OW31162   1.593   2.724  17.157 -0.2932  0.3123  0.1173
 6568SOL    HW131163   1.657   2.718  17.227 -1.2937 -0.1366  0.9972
 6568SOL    HW231164   1.543   2.801  17.185 -0.7420  0.5054 -1.2160
 6569SOL     OW31165   1.891   1.876  16.321  0.2953  0.0810  0.3331
 6569SOL    HW131166   1.966   1.926  16.353  1.7135  0.1072 -3.0435
 6569SOL    HW231167   1.836   1.883  16.400  0.2470  0.7024  0.2432
 6570SOL     OW31168   0.582   0.017   6.025  0.0180 -0.2015  0.0190
 6570SOL    HW131169   0.575   0.056   5.938  0.8851  0.6380  0.3277
 6570SOL    HW231170   0.677   0.017   6.034  0.0653  0.3780 -0.5238
 6571SOL     OW31171   1.672   0.862   3.362  0.0134  0.8764 -0.5311
 6571SOL    HW131172   1.608   0.930   3.384 -0.8120  0.1706 -0.7453
 6571SOL    HW231173   1.757   0.896   3.388  0.4494 -0.5950 -0.0182
 6572SOL     OW31174   3.846   2.260   4.274  0.3363  0.1873  1.2263
 6572SOL    HW131175   3.798   2.256   4.191  0.9128  0.7180  0.8659
 6572SOL    HW231176   3.773   2.290   4.328  0.0955 -1.0880  1.6209
 6573SOL     OW31177   1.203   0.422   2.391 -0.0159  0.2673 -0.1483
 6573SOL    HW131178   1.254   0.459   2.464 -1.0540  1.4977 -0.0600
 6573SOL    HW231179   1.245   0.469   2.319 -0.8597  0.9578 -0.1774
 6574SOL     OW31180   1.113   4.000   2.385  0.4734  0.1741 -0.2386
 6574SOL    HW131181   1.100   3.910   2.354  1.4648 -0.2842  0.6612
 6574SOL    HW231182   1.054   4.044   2.324  0.7013  1.7842  0.6950
 6575SOL     OW31183   3.586   1.839   8.960  0.7534 -0.0914  0.1240
 6575SOL    HW131184   3.572   1.756   8.913  0.4126 -0.6264  1.1663
 6575SOL    HW231185   3.495   1.858   8.978  0.8662  1.2055 -0.6725
 6576SOL     OW31186   3.765   1.081   6.719  0.5117  0.3079  0.7911
 6576SOL    HW131187   3.720   1.160   6.690 -0.0315 -0.0346  0.7060
 6576SOL    HW231188   3.708   1.037   6.782 -2.9030 -0.1901 -2.6403
 6577SOL     OW31189   1.923   0.882  13.610 -0.7818 -0.4652  0.3448
 6577SOL    HW131190   1.980   0.859  13.684 -1.6390  0.5324  1.3222
 6577SOL    HW231191   1.835   0.880  13.649 -1.5880 -1.5431 -1.5659
 6578SOL     OW31192   4.258   0.318   9.150  0.4166 -0.0393 -0.3989
 6578SOL    HW131193   4.167   0.340   9.129  0.8014  0.3312 -1.7045
 6578SOL    HW231194   4.267   0.226   9.123 -1.0020 -0.4798  0.6396
 6579SOL     OW31195   4.392   2.569   7.187  0.0960 -0.6637  0.7280
 6579SOL    HW131196   4.369   2.636   7.252  2.2783 -2.0001  2.8557
 6579SOL    HW231197   4.483   2.567   7.217  0.9924  2.4148 -1.7582
 6580SOL     OW31198   4.359   0.128   2.286 -0.2512 -0.5169 -0.1705
 6580SOL    HW131199   4.444   0.090   2.264 -0.2755  0.3592 -1.7518
 6580SOL    HW231200   4.298   0.056   2.264 -1.5460  0.8714 -1.1590
 6581SOL     OW31201   1.665   1.249  14.400  0.0366  0.2241 -0.2401
 6581SOL    HW131202   1.668   1.334  14.445 -2.1563 -1.2410  2.6664
 6581SOL    HW231203   1.620   1.186  14.455 -0.1200  0.2280 -0.3628
 6582SOL     OW31204   2.700   2.454   6.102  0.4512  0.3533 -0.9996
 6582SOL    HW131205   2.621   2.489   6.061 -0.8454 -0.1482  1.0889
 6582SOL    HW231206   2.656   2.384   6.151 -1.8080 -0.3211 -4.0001
 6583SOL     OW31207   1.184   4.574   1.923 -0.3981  0.1107  0.3362
 6583SOL    HW131208   1.208   4.483   1.905  0.0314  0.3110 -0.1142
 6583SOL    HW231209   1.103   4.563   1.972  0.2520 -1.5578  1.0378
 6584SOL     OW31210   2.570   0.003  12.395  0.3026 -0.0616 -0.4463
 6584SOL    HW131211   2.659   0.037  12.391  1.2811 -2.9880 -3.4944
 6584SOL    HW231212   2.559   4.714  12.490 -1.5243  1.1179 -0.5168
 6585SOL     OW31213   3.608   0.088  14.105  0.2414  0.7107 -0.1595
 6585SOL    HW131214   3.629   0.157  14.168 -0.8788 -0.2707  1.3068
 6585SOL    HW231215   3.610   0.132  14.021  0.1811  1.5844  0.2965
 6586SOL     OW31216   3.547   2.690   3.924 -0.3410 -0.0626  0.1553
 6586SOL    HW131217   3.568   2.751   3.994  1.2638  1.2430 -1.4771
 6586SOL    HW231218   3.478   2.741   3.880  0.0766 -1.0602 -1.6533
 6587SOL     OW31219   0.170   0.810   8.235  0.3436  0.0028 -0.1237
 6587SOL    HW131220   0.173   0.787   8.328 -0.4696  2.8227  0.5936
 6587SOL    HW231221   0.186   0.725   8.193 -0.0557 -0.5148  0.7784
 6588SOL     OW31222   2.360   1.669   4.416  0.4363  0.1933 -0.2991
 6588SOL    HW131223   2.413   1.599   4.378  0.8130  0.8051 -0.8986
 6588SOL    HW231224   2.426   1.738   4.426 -1.2161  1.7424 -0.1238
 6589SOL     OW31225   3.774   1.461   8.311 -0.4173 -0.0355  0.1155
 6589SOL    HW131226   3.812   1.530   8.365 -1.6381 -0.3469  1.3865
 6589SOL    HW231227   3.806   1.474   8.222 -0.0537 -0.2118  0.2207
 6590SOL     OW31228   0.457   1.055  13.425 -0.3854 -0.1360 -0.4272
 6590SOL    HW131229   0.461   1.144  13.459  5.2155 -0.6851  0.3134
 6590SOL    HW231230   0.544   1.043  13.387 -0.9319  1.0803 -2.0923
 6591SOL     OW31231   1.012   3.139   9.237 -0.5244  0.1767 -0.1398
 6591SOL    HW131232   1.101   3.104   9.227 -0.8556 -0.9842  0.9901
 6591SOL    HW231233   0.957   3.063   9.252  0.4003 -0.3672  0.5424
 6592SOL     OW31234   0.461   1.862   6.622 -0.6532  0.4503  0.3750
 6592SOL    HW131235   0.484   1.775   6.654 -0.0730  0.1747 -0.8023
 6592SOL    HW231236   0.369   1.859   6.594 -0.0016  1.2826 -1.8452
 6593SOL     OW31237   1.706   2.131   5.762  0.0052 -0.4949  0.6808
 6593SOL    HW131238   1.766   2.200   5.731  0.5979 -1.9006 -1.3145
 6593SOL    HW231239   1.745   2.058   5.714 -1.8265 -0.4369 -0.9101
 6594SOL     OW31240   2.512   1.895   4.470  0.0204  0.2596  0.5081
 6594SOL    HW131241   2.569   1.951   4.522  1.4526 -0.9911  0.2584
 6594SOL    HW231242   2.455   1.964   4.435 -1.5237 -0.9448  0.6141
 6595SOL     OW31243   3.595   0.727   7.280 -0.0952 -0.5093  0.0697
 6595SOL    HW131244   3.686   0.757   7.284 -0.2948  0.0070  0.7670
 6595SOL    HW231245   3.603   0.640   7.320 -2.1109 -0.8515 -0.2879
 6596SOL     OW31246   2.984   0.889   9.932 -0.0803 -0.7117  0.7624
 6596SOL    HW131247   2.938   0.900   9.848 -0.9877  0.1892  1.3753
 6596SOL    HW231248   2.990   0.983   9.948  0.1378 -0.9157  1.8273
 6597SOL     OW31249   4.101   2.637  11.552 -0.3568  0.2946 -0.1077
 6597SOL    HW131250   4.157   2.703  11.512  0.8051 -0.7043 -0.1325
 6597SOL    HW231251   4.059   2.604  11.472  0.4057 -0.4046 -0.2171
 6598SOL     OW31252   3.583   3.358   6.614 -0.0296 -0.3848 -0.0878
 6598SOL    HW131253   3.488   3.367   6.602 -0.1940 -2.5685 -0.4024
 6598SOL    HW231254   3.603   3.430   6.674 -1.5444 -0.6166  0.7205
 6599SOL     OW31255   1.155   4.656  17.375 -0.5880  0.0257 -0.7475
 6599SOL    HW131256   1.085   4.593  17.356 -0.8600  0.3316 -0.7503
 6599SOL    HW231257   1.173   4.688  17.287  1.1631  0.1346 -0.3606
 6600SOL     OW31258   0.378   4.441  16.861 -0.2577  0.0150  0.5023
 6600SOL    HW131259   0.313   4.374  16.885 -1.2997  0.6798 -0.4288
 6600SOL    HW231260   0.345   4.477  16.778  1.4343 -0.9424 -0.5891
 6601SOL     OW31261   1.634   2.621   6.029  0.1720 -0.1216 -0.3898
 6601SOL    HW131262   1.667   2.707   6.004  0.5829  0.1622  1.1275
 6601SOL    HW231263   1.592   2.632   6.114 -0.1798  2.2043 -0.8848
 6602SOL     OW31264   4.482   0.678   1.023  0.6276  0.3112 -0.5180
 6602SOL    HW131265   4.532   0.619   1.080 -0.7348 -0.1015  0.2584
 6602SOL    HW231266   4.544   0.751   1.018  1.0892 -0.1029 -0.9007
 6603SOL     OW31267   1.124   1.547   2.691  0.3619 -0.2621  0.5356
 6603SOL    HW131268   1.112   1.546   2.596  0.8738  1.5560  0.4385
 6603SOL    HW231269   1.071   1.612   2.738  0.2799 -0.3600  0.5776
 6604SOL     OW31270   0.671   1.542  12.421 -0.2092  0.0511 -0.2379
 6604SOL    HW131271   0.711   1.627  12.399 -0.1505 -0.2877 -1.4359
 6604SOL    HW231272   0.626   1.522  12.339  2.0310  0.1955 -1.5034
 6605SOL     OW31273   2.353   3.395  12.211 -0.0333 -0.3633 -0.2035
 6605SOL    HW131274   2.327   3.429  12.297 -0.9438 -0.6209 -0.3856
 6605SOL    HW231275   2.357   3.302  12.231 -0.5503  0.0098  1.6342
 6606SOL     OW31276   0.943   0.374   7.191 -0.7047 -0.3072 -0.1067
 6606SOL    HW131277   0.909   0.374   7.102 -1.2684  4.6106  0.0930
 6606SOL    HW231278   0.957   0.469   7.198  0.6888 -0.5701  0.6715
 6607SOL     OW31279   0.144   2.383   1.152 -0.2794 -0.7988 -0.5860
 6607SOL    HW131280   0.123   2.469   1.116  1.0201  0.1784  0.9927
 6607SOL    HW231281   0.088   2.389   1.230  0.8532  0.9228  0.0771
 6608SOL     OW31282   4.627   0.039  16.329 -0.0121 -0.4266 -0.5027
 6608SOL    HW131283   4.637   0.062  16.237 -1.2788  0.6351 -0.3865
 6608SOL    HW231284   4.593   0.123  16.360 -0.5902 -0.8938  0.1370
 6609SOL     OW31285   4.193   0.900  11.941  0.0480 -0.1823 -0.6280
 6609SOL    HW131286   4.131   0.830  11.922 -0.7344 -0.3921  2.7504
 6609SOL    HW231287   4.163   0.946  12.019  1.1043 -2.6264  1.2351
 6610SOL     OW31288   2.226   1.682   1.986 -0.2954 -0.1422  0.1387
 6610SOL    HW131289   2.271   1.653   1.907  0.4764 -0.7649  0.8151
 6610SOL    HW231290   2.138   1.657   1.958 -1.1111  1.7562  0.9590
 6611SOL     OW31291   1.559   1.524   6.229  0.3154 -0.1640 -0.8908
 6611SOL    HW131292   1.654   1.533   6.235 -0.0324  1.2374  2.3807
 6611SOL    HW231293   1.538   1.615   6.207 -0.8763 -0.7704 -2.2700
 6612SOL     OW31294   3.307   3.606   7.404  0.0871 -0.0862  0.0541
 6612SOL    HW131295   3.381   3.610   7.464  0.2942 -1.0576 -0.1248
 6612SOL    HW231296   3.341   3.551   7.333 -2.1798 -0.0469 -1.0614
 6613SOL     OW31297   3.873   2.691   6.669 -0.0733  0.1130  0.1425
 6613SOL    HW131298   3.825   2.772   6.685 -1.8341 -0.6890 -1.1259
 6613SOL    HW231299   3.960   2.730   6.661  0.9390 -2.5048 -1.5989
 6614SOL     OW31300   1.190   3.880  16.027 -0.0487 -0.5190 -0.0292
 6614SOL    HW131301   1.214   3.960  15.980  0.1730  0.7201  2.1689
 6614SOL    HW231302   1.172   3.815  15.960  2.8198 -0.0709 -1.2515
 6615SOL     OW31303   4.461   3.160  16.578 -0.5359  0.2758  0.4550
 6615SOL    HW131304   4.369   3.184  16.583 -1.0930 -1.2670 -2.4378
 6615SOL    HW231305   4.475   3.107  16.657  2.1332  1.0808  0.5444
 6616SOL     OW31306   3.751   1.180   4.720  0.0944 -0.1830 -0.3641
 6616SOL    HW131307   3.789   1.154   4.637 -1.9179  0.7356 -1.5702
 6616SOL    HW231308   3.732   1.272   4.701 -0.2926  0.6080  3.8621
 6617SOL     OW31309   0.331   1.148   9.098 -0.4047 -0.2077  0.4331
 6617SOL    HW131310   0.394   1.139   9.170  0.6846  1.9343 -0.2603
 6617SOL    HW231311   0.388   1.173   9.026 -2.0695  0.1067 -0.7779
 6618SOL     OW31312   2.981   0.702   8.646 -0.1786 -0.0572  0.1795
 6618SOL    HW131313   2.936   0.685   8.729  0.4532 -2.3636  0.0652
 6618SOL    HW231314   3.031   0.782   8.659 -0.2367 -0.2589  1.6997
 6619SOL     OW31315   2.294   2.490  17.351  0.4560  0.1885  0.0637
 6619SOL    HW131316   2.358   2.506  17.281  0.3801 -3.7645 -0.8985
 6619SOL    HW231317   2.263   2.403  17.325  1.4308  0.1167 -0.8909
 6620SOL     OW31318   2.906   1.104  17.344 -0.2445 -0.2907 -0.6268
 6620SOL    HW131319   2.948   1.050  17.277 -0.2292  0.0366 -0.8819
 6620SOL    HW231320   2.974   1.132  17.406  2.0054 -1.8691 -2.3573
 6621SOL     OW31321   3.126   1.583  12.196  0.1976  0.0849  0.4156
 6621SOL    HW131322   3.069   1.536  12.257  1.7398 -0.7299  1.2139
 6621SOL    HW231323   3.057   1.621  12.142 -0.9115 -0.1631  1.6563
 6622SOL     OW31324   0.179   0.680   4.134 -0.5129 -0.2337 -0.3048
 6622SOL    HW131325   0.164   0.775   4.132  0.4687 -0.0615  0.3582
 6622SOL    HW231326   0.101   0.636   4.102  0.2276 -2.7107  1.2924
 6623SOL     OW31327   1.525   0.644   6.238 -0.1116 -0.0270  0.0498
 6623SOL    HW131328   1.466   0.624   6.166 -0.6861 -0.1377  0.5516
 6623SOL    HW231329   1.532   0.739   6.233  0.2913 -0.1784 -2.1550
 6624SOL     OW31330   1.214   3.866   0.290 -0.5452 -0.3732 -0.3930
 6624SOL    HW131331   1.251   3.947   0.323 -0.1911 -0.9609  0.6447
 6624SOL    HW231332   1.271   3.850   0.215  0.7057  2.3590  0.0030
 6625SOL     OW31333   3.627   2.868  14.215 -0.5382 -0.4871  0.0717
 6625SOL    HW131334   3.704   2.881  14.271  0.3994 -0.7892 -1.1310
 6625SOL    HW231335   3.661   2.816  14.141 -1.3612 -1.0591  0.0929
 6626SOL     OW31336   4.260   1.148   2.442 -0.4402 -0.1416 -0.3238
 6626SOL    HW131337   4.197   1.076   2.437  0.9458 -1.5825  3.1200
 6626SOL    HW231338   4.291   1.131   2.353 -0.5100  2.0430 -0.7617
 6627SOL     OW31339   4.470   3.789   7.308 -0.1261 -0.6096  0.0554
 6627SOL    HW131340   4.457   3.884   7.313 -1.2133 -0.9131  2.4582
 6627SOL    HW231341   4.444   3.772   7.217  1.1058 -1.5952 -0.1175
 6628SOL     OW31342   0.386   4.439   1.601 -0.1082 -0.3637 -0.3808
 6628SOL    HW131343   0.428   4.354   1.591  1.1644  0.5634 -2.9534
 6628SOL    HW231344   0.456   4.474   1.655  1.0241 -3.2229 -0.0034
 6629SOL     OW31345   1.954   3.042   3.384 -0.7541 -0.1671 -0.0322
 6629SOL    HW131346   2.020   2.988   3.340 -0.9605  0.5854 -1.2775
 6629SOL    HW231347   1.918   3.088   3.309 -1.0404 -1.7567 -0.8634
 6630SOL     OW31348   2.873   1.304  14.992  0.5351 -0.6258  0.2575
 6630SOL    HW131349   2.960   1.319  15.030  0.5403  2.8007 -1.0873
 6630SOL    HW231350   2.887   1.324  14.900  0.9253 -0.1431  0.4236
 6631SOL     OW31351   0.782   1.954   9.298  0.4722 -0.2004  0.2779
 6631SOL    HW131352   0.709   1.924   9.244  0.3502 -0.7866  0.7609
 6631SOL    HW231353   0.756   2.040   9.328  0.5848 -0.9106  2.3843
 6632SOL     OW31354   1.434   2.235   6.099 -0.5258  0.4529  0.4019
 6632SOL    HW131355   1.476   2.304   6.049  0.8272 -0.7818 -0.1768
 6632SOL    HW231356   1.465   2.168   6.038  0.1195  1.0105  0.1288
 6633SOL     OW31357   1.287   2.088   0.782  0.5440  0.1511 -0.5869
 6633SOL    HW131358   1.330   2.078   0.697  0.9451 -1.9087 -0.1185
 6633SOL    HW231359   1.308   2.179   0.806 -1.6911 -0.1519  2.4869
 6634SOL     OW31360   3.089   1.802  12.374  0.2037 -0.4893  0.0005
 6634SOL    HW131361   3.073   1.790  12.468  0.6407 -2.2938 -0.1524
 6634SOL    HW231362   3.102   1.711  12.346 -0.9383  0.2489 -2.9333
 6635SOL     OW31363   2.168   4.528   7.948  0.2674  0.4984  0.1206
 6635SOL    HW131364   2.128   4.555   7.865  1.1037 -0.0167 -0.4540
 6635SOL    HW231365   2.088   4.512   7.998  0.9136 -3.0094  0.0585
 6636SOL     OW31366   2.197   4.535  10.048 -0.5672  0.6849  0.4273
 6636SOL    HW131367   2.129   4.473  10.075  0.4950 -1.3532 -1.5226
 6636SOL    HW231368   2.210   4.502   9.959 -0.0316  0.4975  0.5714
 6637SOL     OW31369   2.059   0.369   0.185  0.4657  1.2036 -0.2466
 6637SOL    HW131370   1.964   0.362   0.198  0.7855 -3.6747 -0.4818
 6637SOL    HW231371   2.081   0.459   0.206  0.6858  1.0377  0.2279
 6638SOL     OW31372   3.261   1.050   0.013  0.2882 -0.4178  0.0569
 6638SOL    HW131373   3.283   0.968  17.663 -0.3320  0.0569 -1.1007
 6638SOL    HW231374   3.166   1.049   0.006  0.1107 -2.1228  2.7657
 6639SOL     OW31375   1.640   0.449   3.664 -0.2422 -0.1034 -0.4916
 6639SOL    HW131376   1.591   0.425   3.585  0.1233 -2.7606  0.0918
 6639SOL    HW231377   1.655   0.540   3.638  1.3550 -0.1322  0.3314
 6640SOL     OW31378   2.790   2.997  13.246  0.1190 -0.3235  1.1940
 6640SOL    HW131379   2.792   2.937  13.172 -1.6893  0.6686  0.3586
 6640SOL    HW231380   2.770   2.937  13.318  3.9006 -2.3127  0.6239
 6641SOL     OW31381   1.923   1.874   1.881  0.4523 -0.5729 -0.1004
 6641SOL    HW131382   1.844   1.928   1.868  1.2832  0.5891 -0.2715
 6641SOL    HW231383   1.990   1.942   1.872 -0.6080  0.8288  2.5989
 6642SOL     OW31384   2.085   3.338   7.694 -0.1300  0.0455 -0.8504
 6642SOL    HW131385   2.160   3.385   7.658 -1.3657  1.6983 -1.2583
 6642SOL    HW231386   2.035   3.420   7.698  0.7198  0.4914  0.9333
 6643SOL     OW31387   0.715   3.538   6.136  0.0903  0.0080 -0.3380
 6643SOL    HW131388   0.774   3.581   6.198  0.8751 -0.6434 -0.6293
 6643SOL    HW231389   0.627   3.540   6.173  0.4645 -0.2746  0.5688
 6644SOL     OW31390   4.032   0.249   2.938  0.2083  0.1934 -0.0465
 6644SOL    HW131391   4.102   0.273   2.999 -1.4873 -0.0735  1.9932
 6644SOL    HW231392   3.997   0.338   2.928 -1.3798 -0.3555  0.6277
 6645SOL     OW31393   3.800   3.048   5.714 -0.0169 -0.8108  0.5764
 6645SOL    HW131394   3.704   3.053   5.721  0.1254  2.4912  0.3297
 6645SOL    HW231395   3.828   3.042   5.805  0.8671 -0.5315  0.3201
 6646SOL     OW31396   0.016   2.435   1.392  0.7270 -0.3428  0.6391
 6646SOL    HW131397   0.028   2.507   1.455  0.8622  1.7149 -1.7231
 6646SOL    HW231398   4.644   2.438   1.391  0.7811  1.7518  1.1309
 6647SOL     OW31399   4.629   1.693   6.061 -0.0383 -0.1967  0.0370
 6647SOL    HW131400   4.693   1.624   6.081 -1.1242 -1.1233  0.2716
 6647SOL    HW231401   4.620   1.751   6.137  1.8806 -0.0264  0.1377
 6648SOL     OW31402   3.664   1.043   7.395 -0.1054 -0.0694 -0.1738
 6648SOL    HW131403   3.720   1.075   7.324 -1.6416  0.1911 -1.2796
 6648SOL    HW231404   3.706   0.958   7.407  0.4733  0.4437  1.3815
 6649SOL     OW31405   0.119   2.287   3.304 -0.2456 -0.0269 -0.2996
 6649SOL    HW131406   0.100   2.381   3.301  2.3673  0.4864 -1.3007
 6649SOL    HW231407   0.123   2.261   3.396  0.6402 -0.7203 -0.5251
 6650SOL     OW31408   3.880   4.471   4.099 -0.0787 -0.0937  0.3175
 6650SOL    HW131409   3.914   4.559   4.112 -0.9736  0.2531  0.3158
 6650SOL    HW231410   3.896   4.448   4.191  3.6239 -4.3716 -1.3402
 6651SOL     OW31411   3.759   3.819   7.970  0.1957 -0.5955 -0.3730
 6651SOL    HW131412   3.845   3.804   8.007 -0.2589 -1.3010  0.3947
 6651SOL    HW231413   3.711   3.798   8.050  2.3027 -1.0325  0.7602
 6652SOL     OW31414   0.109   4.065   6.958 -0.0873  0.0180  0.0597
 6652SOL    HW131415   0.169   4.118   6.906  1.8998 -2.4821 -0.2141
 6652SOL    HW231416   0.175   4.024   7.015 -0.8098  2.2316  2.4876
 6653SOL     OW31417   3.540   4.350   6.274  0.3901 -0.4393 -0.3855
 6653SOL    HW131418   3.467   4.316   6.222 -2.1627  4.1492  0.1734
 6653SOL    HW231419   3.514   4.308   6.356  1.6437  2.4894  1.5186
 6654SOL     OW31420   2.379   3.041   8.411 -0.3148  0.3898 -0.0763
 6654SOL    HW131421   2.326   3.081   8.342 -0.3845  0.8319  0.2362
 6654SOL    HW231422   2.361   2.949   8.392  0.1084  0.4092 -0.5532
 6655SOL     OW31423   1.378   3.641   3.462 -0.1559  0.2859  0.2195
 6655SOL    HW131424   1.297   3.593   3.445 -0.9380  1.5352  0.4231
 6655SOL    HW231425   1.422   3.617   3.380 -0.5413  1.4291 -0.3263
 6656SOL     OW31426   4.613   2.983   2.377 -0.6396  0.2787 -0.2085
 6656SOL    HW131427   4.528   2.963   2.415 -0.4984 -0.7512 -0.4445
 6656SOL    HW231428   4.605   2.989   2.282 -0.5771 -0.3597 -0.2506
 6657SOL     OW31429   1.604   0.707   4.298 -0.0204 -0.1681 -0.3063
 6657SOL    HW131430   1.649   0.742   4.375  0.4819 -1.3734 -0.0504
 6657SOL    HW231431   1.516   0.736   4.324 -0.0768  0.4066 -1.1173
 6658SOL     OW31432   1.916   1.716  17.281 -0.4398  0.5839  0.2648
 6658SOL    HW131433   1.850   1.697  17.348 -0.4111 -0.2773  0.0495
 6658SOL    HW231434   1.990   1.734  17.340 -0.6736  0.5678  0.5654
 6659SOL     OW31435   2.318   4.142   3.653  0.1078 -0.3399 -0.7635
 6659SOL    HW131436   2.364   4.112   3.574  1.6494  0.0309 -0.0167
 6659SOL    HW231437   2.294   4.230   3.627  1.3137 -0.0695 -0.9761
 6660SOL     OW31438   2.313   1.825  15.790 -0.0146 -0.1725 -0.5909
 6660SOL    HW131439   2.269   1.754  15.744 -0.9363  0.0132  0.0039
 6660SOL    HW231440   2.237   1.883  15.802 -0.9109 -1.1074 -1.7983
 6661SOL     OW31441   0.688   2.326   2.839  0.0918  0.5363 -0.1358
 6661SOL    HW131442   0.627   2.398   2.843  0.5522  0.8133  1.8413
 6661SOL    HW231443   0.764   2.379   2.813 -0.7787  2.0524  0.4627
 6662SOL     OW31444   2.868   3.440  17.256 -0.4705  0.6417  0.8146
 6662SOL    HW131445   2.913   3.367  17.213  1.0638  1.3326  1.2546
 6662SOL    HW231446   2.795   3.451  17.195  2.5796  3.2623 -2.3933
 6663SOL     OW31447   3.363   2.354  10.607  0.2264 -0.5221 -0.1765
 6663SOL    HW131448   3.321   2.388  10.687 -2.1091 -1.3062 -1.0585
 6663SOL    HW231449   3.390   2.438  10.570  1.4230 -0.0983  1.6247
 6664SOL     OW31450   0.941   2.365   3.475  0.0785  0.0434  0.7198
 6664SOL    HW131451   1.007   2.434   3.460  0.6921 -0.9024 -0.8360
 6664SOL    HW231452   0.912   2.345   3.387  3.5210 -2.0703  0.0857
 6665SOL     OW31453   0.209   0.184   5.350 -0.4155 -0.7843 -0.0538
 6665SOL    HW131454   0.249   0.141   5.425 -0.5397 -0.3942  0.2325
 6665SOL    HW231455   0.280   0.172   5.286  1.0993  0.9358  1.2986
 6666SOL     OW31456   1.281   2.671  15.038  0.9022  0.6289  0.1061
 6666SOL    HW131457   1.319   2.749  15.078  1.3194  0.2618  0.4279
 6666SOL    HW231458   1.317   2.604  15.096 -0.8608 -0.2999  0.1217
 6667SOL     OW31459   2.724   1.152  16.282 -0.1385 -0.2689  0.2705
 6667SOL    HW131460   2.672   1.105  16.347  2.8290 -1.7547  1.5708
 6667SOL    HW231461   2.723   1.084  16.214  1.4537  0.0833 -0.1173
 6668SOL     OW31462   4.577   4.435   8.281 -0.9287 -0.7226 -0.5516
 6668SOL    HW131463   4.632   4.502   8.240  0.3992 -1.0175  0.7302
 6668SOL    HW231464   4.620   4.424   8.366 -1.4686 -1.0126 -0.3183
 6669SOL     OW31465   2.518   2.897   7.376 -0.2547  0.6646 -0.0069
 6669SOL    HW131466   2.594   2.952   7.397  0.1973 -0.2794  0.8646
 6669SOL    HW231467   2.552   2.821   7.329 -1.9257 -0.0281 -0.0879
 6670SOL     OW31468   3.547   3.582   5.768  0.4170  0.1614 -0.1598
 6670SOL    HW131469   3.643   3.578   5.763  0.3915  0.9643 -1.2086
 6670SOL    HW231470   3.522   3.661   5.720  0.2686  1.4377  2.0483
 6671SOL     OW31471   0.701   0.852   9.881 -0.1939  0.0528 -0.3606
 6671SOL    HW131472   0.628   0.791   9.869  1.7771 -2.5245  0.8056
 6671SOL    HW231473   0.756   0.784   9.920  1.5945  0.4401 -2.1866
 6672SOL     OW31474   1.084   2.744   0.394  0.1870 -0.0385  0.2128
 6672SOL    HW131475   1.036   2.806   0.450  1.6668  2.6662 -1.5264
 6672SOL    HW231476   1.133   2.689   0.455  2.3117 -0.5991 -2.0498
 6673SOL     OW31477   4.072   1.637   5.424  0.5999 -0.1948 -0.0385
 6673SOL    HW131478   4.106   1.616   5.511  0.0693  0.3765  0.3097
 6673SOL    HW231479   4.096   1.563   5.369 -0.1522 -0.6895  0.3156
 6674SOL     OW31480   4.473   3.556  12.909  0.3203  0.1038  0.0783
 6674SOL    HW131481   4.458   3.470  12.946  4.4406  0.0352  1.6710
 6674SOL    HW231482   4.564   3.536  12.887  0.0565 -1.0608  0.0912
 6675SOL     OW31483   0.211   4.031   5.622 -0.6917 -0.3317 -0.4323
 6675SOL    HW131484   0.133   4.048   5.675 -1.1100  1.1136 -1.5468
 6675SOL    HW231485   0.214   4.111   5.570 -1.8086  0.4048  0.6289
 6676SOL     OW31486   3.970   3.006   0.955 -0.7708  0.5829 -0.1440
 6676SOL    HW131487   3.903   3.010   0.887 -0.3461  2.1157 -0.4859
 6676SOL    HW231488   3.972   2.911   0.969 -1.2311  0.8996  2.0538
 6677SOL     OW31489   3.692   3.092  11.487 -0.1439  0.4895  0.0394
 6677SOL    HW131490   3.723   3.119  11.573 -2.0468  0.4232  0.7422
 6677SOL    HW231491   3.770   3.107  11.433  1.4287 -0.2054  2.1202
 6678SOL     OW31492   4.112   0.150   5.339  0.1616 -0.3016  0.7986
 6678SOL    HW131493   4.086   0.145   5.431  0.9240  1.0150  1.0880
 6678SOL    HW231494   4.044   0.093   5.304 -1.3540  1.7195  0.4347
 6679SOL     OW31495   1.919   0.397   7.814 -0.1181  0.0545 -0.0259
 6679SOL    HW131496   1.881   0.475   7.854  2.6757  1.4277 -0.0293
 6679SOL    HW231497   2.002   0.443   7.802 -1.5118  2.3053 -1.0549
 6680SOL     OW31498   4.144   2.433   0.894 -0.5176  0.2680 -0.2261
 6680SOL    HW131499   4.207   2.424   0.823  0.1782  3.0133  0.0144
 6680SOL    HW231500   4.110   2.518   0.865  0.5178  1.4459  1.9718
 6681SOL     OW31501   0.057   1.178   9.678  0.0215  0.0449  0.1947
 6681SOL    HW131502   4.701   1.152   9.725  1.2213 -3.4734  0.3352
 6681SOL    HW231503   0.093   1.091   9.659 -1.6000 -1.1649  2.6155
 6682SOL     OW31504   0.584   4.705   6.385 -0.1441 -0.0002  0.5253
 6682SOL    HW131505   0.618   4.706   6.475  0.3506 -0.5606  0.3397
 6682SOL    HW231506   0.498   0.021   6.400  0.0007  0.6038 -0.2157
 6683SOL     OW31507   2.816   4.345  15.385 -0.0913  0.6283  0.3457
 6683SOL    HW131508   2.862   4.339  15.469  0.2353 -0.7918  0.0798
 6683SOL    HW231509   2.739   4.292  15.407  0.5273  0.6647  2.6247
 6684SOL     OW31510   0.989   0.773   8.824  0.1405  0.3685  0.0358
 6684SOL    HW131511   0.984   0.728   8.739 -1.4878  0.3305  0.1410
 6684SOL    HW231512   0.917   0.834   8.808  2.0747  2.6782  0.1020
 6685SOL     OW31513   2.197   0.468   0.601 -0.4975  0.7767  0.1142
 6685SOL    HW131514   2.252   0.396   0.571 -1.5876 -0.0780  0.1915
 6685SOL    HW231515   2.165   0.436   0.686  1.5715 -0.2847  0.5061
 6686SOL     OW31516   2.743   4.423   5.374  0.3393 -0.4377  0.2968
 6686SOL    HW131517   2.836   4.438   5.359 -0.0127 -0.8914 -2.3592
 6686SOL    HW231518   2.739   4.338   5.330  1.2922  0.3496 -1.3201
 6687SOL     OW31519   1.839   3.701   4.733 -0.0622  0.3577  0.6795
 6687SOL    HW131520   1.859   3.608   4.743  1.9448  0.8359  1.2996
 6687SOL    HW231521   1.803   3.725   4.819 -0.0386 -1.7080  1.2554
 6688SOL     OW31522   2.215   1.352   0.235 -0.2632 -0.0574 -0.2250
 6688SOL    HW131523   2.144   1.414   0.218  0.7617  1.1694 -0.0682
 6688SOL    HW231524   2.228   1.362   0.329  0.0209 -3.1725  0.0698
 6689SOL     OW31525   0.308   4.674   6.811  0.6528 -0.3972  0.3814
 6689SOL    HW131526   0.320   0.012   6.884 -1.0046  0.7808 -0.3554
 6689SOL    HW231527   0.288   0.011   6.741 -1.4445 -0.7317  0.7004
 6690SOL     OW31528   3.125   3.203   8.676  0.2974  0.0948 -0.0128
 6690SOL    HW131529   3.198   3.150   8.647  0.8441  2.2904 -2.7078
 6690SOL    HW231530   3.100   3.246   8.594  0.5092  1.5701  0.6807
 6691SOL     OW31531   2.007   3.721   7.539 -0.2190 -0.0317 -0.6526
 6691SOL    HW131532   1.969   3.658   7.600  1.9856 -0.0711  0.7011
 6691SOL    HW231533   1.972   3.690   7.456  0.0441  1.0388 -1.1633
 6692SOL     OW31534   3.606   1.983   9.310  0.4020  0.7023 -0.2566
 6692SOL    HW131535   3.572   2.051   9.252  0.3770  3.0781  2.5214
 6692SOL    HW231536   3.523   1.961   9.351  0.7000  0.3893  0.1857
 6693SOL     OW31537   2.417   2.453   0.965  0.4786  0.6900 -0.0876
 6693SOL    HW131538   2.479   2.469   0.894 -1.8582 -0.3847 -2.3696
 6693SOL    HW231539   2.335   2.458   0.916  0.7555 -0.8605 -0.7000
 6694SOL     OW31540   4.178   3.929   3.309 -0.4105 -0.3930 -0.0787
 6694SOL    HW131541   4.203   3.863   3.245 -0.1109 -2.5217  2.2516
 6694SOL    HW231542   4.110   3.975   3.259 -1.3857 -1.0898  0.6097
 6695SOL     OW31543   2.172   4.194   4.875  0.3863  0.1733  0.1990
 6695SOL    HW131544   2.136   4.146   4.949  0.3596  0.7440  0.5624
 6695SOL    HW231545   2.167   4.129   4.805  0.2085  0.0400  0.3344
 6696SOL     OW31546   2.237   1.749  12.017 -0.0733  0.3704 -0.0453
 6696SOL    HW131547   2.156   1.782  11.978 -1.9723 -3.0475  1.0189
 6696SOL    HW231548   2.214   1.657  12.008  0.1240  0.6399 -3.0986
 6697SOL     OW31549   3.111   2.137   8.909  0.3202  0.2687  0.1369
 6697SOL    HW131550   3.134   2.200   8.840  0.9110  1.6576  1.6121
 6697SOL    HW231551   3.123   2.201   8.979  2.7083  0.9889 -0.9082
 6698SOL     OW31552   4.083   1.447   6.514 -0.2233  0.1514 -0.6591
 6698SOL    HW131553   4.022   1.374   6.504  0.4284 -0.4121 -0.5559
 6698SOL    HW231554   4.048   1.513   6.454 -0.9441  1.0612  0.7415
 6699SOL     OW31555   3.073   3.190   4.490  0.3662 -0.1619 -0.0043
 6699SOL    HW131556   3.079   3.197   4.585  0.3328 -4.0305  0.3065
 6699SOL    HW231557   2.978   3.179   4.484  0.5848 -1.6869 -0.9322
 6700SOL     OW31558   0.844   0.781   4.701 -0.3581 -0.3325  0.0369
 6700SOL    HW131559   0.806   0.845   4.640  1.4506 -0.2599 -1.0258
 6700SOL    HW231560   0.883   0.846   4.758  2.1502 -1.1915 -0.6850
 6701SOL     OW31561   1.172   2.246  15.790  0.2012  0.3347 -0.2561
 6701SOL    HW131562   1.234   2.253  15.718 -1.0593 -1.5362 -1.5237
 6701SOL    HW231563   1.219   2.277  15.868  0.9490 -0.0281 -0.5608
 6702SOL     OW31564   2.821   4.015   4.582 -0.1619 -0.2808 -0.1957
 6702SOL    HW131565   2.873   3.940   4.611  0.3278  0.6237  1.2399
 6702SOL    HW231566   2.737   3.977   4.608 -0.1701 -2.7074 -3.7078
 6703SOL     OW31567   0.330   1.429   4.315  0.3734 -0.0451 -0.3669
 6703SOL    HW131568   0.266   1.463   4.252  0.5403 -1.0431 -1.0861
 6703SOL    HW231569   0.367   1.506   4.358  0.9112 -0.1521 -0.6333
 6704SOL     OW31570   4.457   3.564   6.760  0.2166 -0.5602  0.1999
 6704SOL    HW131571   4.518   3.630   6.793  0.4239 -0.9312  0.5474
 6704SOL    HW231572   4.431   3.527   6.844 -1.1027  1.3486  0.6533
 6705SOL     OW31573   0.774   2.260   3.904  0.3305 -0.1853  0.2967
 6705SOL    HW131574   0.726   2.185   3.869 -0.2546  0.1804  0.3153
 6705SOL    HW231575   0.816   2.305   3.831 -1.8206  1.1120 -0.1721
 6706SOL     OW31576   3.124   0.827   8.024 -0.6821  0.0425 -0.2940
 6706SOL    HW131577   3.078   0.908   8.048  0.0042  0.7398 -1.3067
 6706SOL    HW231578   3.112   0.828   7.929 -0.3207  2.4557 -0.3340
 6707SOL     OW31579   0.331   2.576   2.370 -0.1469 -0.0814  0.2522
 6707SOL    HW131580   0.380   2.631   2.431 -0.9282  0.6460  0.2184
 6707SOL    HW231581   0.258   2.634   2.348 -0.1892 -0.3431 -0.3091
 6708SOL     OW31582   0.714   2.902  13.535  0.3204 -0.0855  0.3009
 6708SOL    HW131583   0.768   2.858  13.600  2.9090  1.4460 -0.7987
 6708SOL    HW231584   0.637   2.847  13.549 -0.8226  1.6064  0.8074
 6709SOL     OW31585   4.665   1.432   1.691  0.1406  0.0754  0.1093
 6709SOL    HW131586   4.638   1.346   1.724  1.0247 -0.4094 -0.3963
 6709SOL    HW231587   4.657   1.406   1.599 -0.8456  0.8240 -0.0120
 6710SOL     OW31588   2.782   4.432   5.816 -0.1665  0.2009 -0.6105
 6710SOL    HW131589   2.876   4.453   5.819 -0.8742  3.6112 -2.1581
 6710SOL    HW231590   2.742   4.487   5.884 -1.1325 -1.0931 -0.1419
 6711SOL     OW31591   1.960   4.713   3.922 -0.2625 -0.1791  0.0560
 6711SOL    HW131592   1.869   4.701   3.950 -0.0772  1.5313  1.4425
 6711SOL    HW231593   1.946   0.065   3.864 -0.0380 -1.0354 -1.0826
 6712SOL     OW31594   1.872   0.349   6.231  0.0931  0.0087 -0.7027
 6712SOL    HW131595   1.908   0.329   6.144 -0.2649  0.2068 -0.9003
 6712SOL    HW231596   1.898   0.272   6.279  0.1204  0.8668  0.6446
 6713SOL     OW31597   2.831   3.741  14.440  0.6411 -0.7755  0.3271
 6713SOL    HW131598   2.866   3.830  14.449  1.1190 -1.0125  0.7930
 6713SOL    HW231599   2.829   3.717  14.532  0.1386 -3.6127 -0.4103
 6714SOL     OW31600   2.035   4.031   2.820  0.1706 -0.2040 -0.0941
 6714SOL    HW131601   2.087   3.966   2.867  2.2846  1.3611 -0.2552
 6714SOL    HW231602   2.108   4.084   2.790 -0.6719  1.9336  1.5589
 6715SOL     OW31603   0.602   4.367   7.069  0.2845  0.5774 -0.1218
 6715SOL    HW131604   0.600   4.406   6.982 -0.3450 -0.7106 -0.6800
 6715SOL    HW231605   0.593   4.273   7.049 -1.1705  0.0361  3.0797
 6716SOL     OW31606   0.508   3.567   8.220  0.4493 -0.2632  0.6630
 6716SOL    HW131607   0.562   3.525   8.152  0.5115  0.2247  0.4101
 6716SOL    HW231608   0.428   3.562   8.168  1.2792 -0.9649 -0.5534
 6717SOL     OW31609   2.551   1.601   2.856  0.1060  0.0498  0.0759
 6717SOL    HW131610   2.522   1.676   2.908 -0.5136  0.7916 -1.3732
 6717SOL    HW231611   2.622   1.562   2.908 -0.7846 -0.0780  1.2042
 6718SOL     OW31612   1.819   2.937   5.013  0.0953  0.4560 -0.1166
 6718SOL    HW131613   1.772   2.882   5.077  1.8991 -0.2006  0.6309
 6718SOL    HW231614   1.862   2.872   4.958  1.0936 -0.7757  2.1097
 6719SOL     OW31615   1.233   3.491   0.678 -0.3743 -0.3900 -0.1537
 6719SOL    HW131616   1.268   3.463   0.763 -0.2594 -0.1633 -0.1255
 6719SOL    HW231617   1.289   3.565   0.655 -1.4726 -0.2645 -2.4363
 6720SOL     OW31618   0.173   3.667   7.199 -0.4072 -0.3245 -0.1231
 6720SOL    HW131619   0.196   3.589   7.251  0.3643 -0.5648 -0.8228
 6720SOL    HW231620   0.112   3.712   7.258 -2.2108  2.2496 -3.9833
 6721SOL     OW31621   1.136   3.559  14.646  0.0480  0.2915 -1.1003
 6721SOL    HW131622   1.125   3.465  14.662 -1.9453  0.8352  0.8436
 6721SOL    HW231623   1.231   3.573  14.643  0.3758 -1.6177  0.0363
 6722SOL     OW31624   1.534   1.061   1.895  1.3462  0.4152  0.2515
 6722SOL    HW131625   1.533   0.992   1.829 -2.2494 -0.4647  1.2317
 6722SOL    HW231626   1.556   1.137   1.842  1.5951 -0.3553 -0.7514
 6723SOL     OW31627   1.529   4.720  17.412  0.0637  0.2587  0.2266
 6723SOL    HW131628   1.452   4.666  17.395  1.1589 -1.4421  0.6820
 6723SOL    HW231629   1.594   4.673  17.361  0.2904 -2.4185  3.0231
 6724SOL     OW31630   3.100   0.260   1.696  0.7958 -0.0400 -0.1999
 6724SOL    HW131631   3.068   0.199   1.630 -1.3450  0.4798  0.3315
 6724SOL    HW231632   3.195   0.251   1.691  0.9221  0.9839  0.4279
 6725SOL     OW31633   1.892   4.248   8.832 -0.4216 -0.0643  0.5248
 6725SOL    HW131634   1.892   4.157   8.804 -0.0939  0.2049 -0.3347
 6725SOL    HW231635   1.944   4.249   8.912 -0.1264 -1.8029  0.3404
 6726SOL     OW31636   3.677   4.229   4.937  0.5264 -0.3537 -0.2798
 6726SOL    HW131637   3.648   4.229   5.029  0.6586  0.2674 -0.2346
 6726SOL    HW231638   3.649   4.146   4.900  1.5200 -1.4956  1.5366
 6727SOL     OW31639   2.029   3.494   4.384  0.0172  0.4074  0.1849
 6727SOL    HW131640   2.054   3.523   4.296 -0.7208  0.6834  0.0643
 6727SOL    HW231641   1.935   3.496   4.370 -0.2511  0.3497  1.9817
 6728SOL     OW31642   3.936   1.640   6.425  0.9873 -0.5953  0.2201
 6728SOL    HW131643   3.854   1.688   6.417  1.1080 -0.4631 -0.2321
 6728SOL    HW231644   3.995   1.716   6.424  1.0213 -0.6456 -1.0187
 6729SOL     OW31645   2.317   0.806   7.995  0.3815  0.1863 -0.4658
 6729SOL    HW131646   2.356   0.789   8.080  0.0467  3.5755  0.3469
 6729SOL    HW231647   2.284   0.896   7.999 -1.3324 -0.5623  2.2447
 6730SOL     OW31648   1.221   3.645  17.399 -0.1195  0.0587 -0.5743
 6730SOL    HW131649   1.271   3.650  17.480  0.6157 -0.1668 -1.0106
 6730SOL    HW231650   1.267   3.715  17.353  0.0079  0.5656  0.3287
 6731SOL     OW31651   3.033   1.173   4.736 -0.0975 -0.1634  0.0106
 6731SOL    HW131652   3.005   1.139   4.821  1.2559 -1.5127 -0.0663
 6731SOL    HW231653   3.050   1.266   4.749  0.0799 -0.1098 -0.5796
 6732SOL     OW31654   4.018   1.292   7.611 -0.1258 -0.1924  0.1831
 6732SOL    HW131655   4.006   1.294   7.516  0.3188 -2.1161  0.0822
 6732SOL    HW231656   4.107   1.257   7.616 -0.3769 -0.5344  2.1947
 6733SOL     OW31657   1.997   2.626   9.051 -0.4823  0.2781  0.3979
 6733SOL    HW131658   2.092   2.622   9.052 -0.5199 -0.3100  2.1200
 6733SOL    HW231659   1.980   2.585   9.136  0.2951 -3.8672 -1.4873
 6734SOL     OW31660   4.129   4.094   6.351 -1.0326  0.3734  0.1983
 6734SOL    HW131661   4.158   4.031   6.285 -1.5228  1.1961 -0.8022
 6734SOL    HW231662   4.105   4.169   6.296 -0.9301  0.2457 -0.0241
 6735SOL     OW31663   0.739   1.623   2.757  0.3873  0.3472  0.3550
 6735SOL    HW131664   0.804   1.641   2.825  0.6440 -3.4009  1.1037
 6735SOL    HW231665   0.750   1.707   2.713  3.1255  0.0429  0.4584
 6736SOL     OW31666   1.547   3.305   8.163  0.4366 -0.5793 -0.3350
 6736SOL    HW131667   1.573   3.285   8.074  0.5053 -0.4529 -0.3422
 6736SOL    HW231668   1.572   3.397   8.174  0.6101 -0.4641 -1.8077
 6737SOL     OW31669   0.379   2.136   5.481  0.2221 -0.3830  0.6815
 6737SOL    HW131670   0.418   2.107   5.398 -1.5394 -2.9301  0.7148
 6737SOL    HW231671   0.392   2.230   5.474  0.4691 -0.6197 -2.1101
 6738SOL     OW31672   3.269   3.449  12.975 -1.0330  0.0776  0.0297
 6738SOL    HW131673   3.190   3.504  12.968 -0.3998  0.9709 -0.1019
 6738SOL    HW231674   3.305   3.493  12.898  0.9195  0.2829  1.0809
 6739SOL     OW31675   2.538   0.705  16.008  0.9111  0.2924 -0.0100
 6739SOL    HW131676   2.454   0.733  15.971  0.1093 -0.4999  1.2056
 6739SOL    HW231677   2.575   0.669  15.927  0.7442 -1.2959  0.6321
 6740SOL     OW31678   0.464   1.542   8.345 -0.1340  0.0499 -0.5106
 6740SOL    HW131679   0.434   1.588   8.267 -2.1763  0.1955  0.3354
 6740SOL    HW231680   0.394   1.477   8.352  2.5475 -2.7080  0.5793
 6741SOL     OW31681   1.157   1.380   8.022  0.0021  0.1482  0.2986
 6741SOL    HW131682   1.237   1.414   8.062  0.7794  1.1953 -2.1481
 6741SOL    HW231683   1.123   1.347   8.105 -0.3236 -0.0884  0.0701
 6742SOL     OW31684   2.846   4.056   6.207 -0.1367 -0.2187 -0.3370
 6742SOL    HW131685   2.939   4.037   6.214 -0.2177 -0.6157 -0.3389
 6742SOL    HW231686   2.805   4.020   6.286 -1.2234 -0.9278 -1.2311
 6743SOL     OW31687   2.116   0.838   1.444 -0.4017  0.3810  0.2295
 6743SOL    HW131688   2.188   0.776   1.432 -0.5990 -0.3110  2.5082
 6743SOL    HW231689   2.078   0.836   1.357  1.8244 -1.4281 -0.7180
 6744SOL     OW31690   1.953   1.387  17.077  0.3083 -0.2185  0.0497
 6744SOL    HW131691   1.882   1.425  17.026  1.1699  1.6903  0.2647
 6744SOL    HW231692   1.908   1.371  17.159  1.3681  0.7823  0.8253
 6745SOL     OW31693   0.641   0.769   1.897  0.4039  0.1171  0.3108
 6745SOL    HW131694   0.684   0.848   1.864 -0.3373 -0.5990 -2.3217
 6745SOL    HW231695   0.551   0.796   1.915  1.6236  3.0679  1.9669
 6746SOL     OW31696   3.135   0.035   8.376 -0.0734  0.4706 -0.1442
 6746SOL    HW131697   3.207   0.093   8.349  0.9722 -1.1290 -0.7525
 6746SOL    HW231698   3.088   0.096   8.433  0.6430 -0.2317  1.1864
 6747SOL     OW31699   0.759   0.001   1.129  0.4305 -0.2152 -0.2220
 6747SOL    HW131700   0.792   0.000   1.040  0.0852  0.1296 -0.3534
 6747SOL    HW231701   0.824   0.055   1.174  2.0474 -1.1568 -1.4250
 6748SOL     OW31702   3.103   0.466   3.365 -0.3116  0.3593 -0.3062
 6748SOL    HW131703   3.186   0.421   3.378 -0.7424 -1.3444 -3.4683
 6748SOL    HW231704   3.127   0.555   3.338  0.1917  0.4203  0.3261
 6749SOL     OW31705   3.976   3.082   5.959  0.1252 -0.6579 -0.4515
 6749SOL    HW131706   3.941   3.003   6.000 -0.9859 -0.0865 -0.3104
 6749SOL    HW231707   3.932   3.140   6.021 -1.7428 -0.5886 -1.8427
 6750SOL     OW31708   0.498   3.228  12.101  0.1641 -0.1335 -0.4155
 6750SOL    HW131709   0.434   3.218  12.172 -1.2186  0.0974 -1.6179
 6750SOL    HW231710   0.537   3.312  12.123  0.3438  0.7205 -3.9838
 6751SOL     OW31711   3.272   3.413   8.908 -0.1466 -0.0042 -0.0324
 6751SOL    HW131712   3.332   3.485   8.887 -2.1331  1.5388 -0.4085
 6751SOL    HW231713   3.324   3.336   8.885 -0.2022 -0.5489  1.6853
 6752SOL     OW31714   0.839   1.450   6.097  0.3479 -0.3897  0.0742
 6752SOL    HW131715   0.823   1.537   6.135  0.7789  0.1575 -0.9932
 6752SOL    HW231716   0.894   1.412   6.165  0.4795  0.9481  0.7189
 6753SOL     OW31717   2.668   0.940  12.656  0.0190 -0.3401  0.2360
 6753SOL    HW131718   2.657   0.974  12.568 -0.8272 -0.7840  0.1617
 6753SOL    HW231719   2.636   1.008  12.716 -2.4560 -1.1437 -0.1643
 6754SOL     OW31720   2.038   1.568   6.104  0.2995  0.2282 -0.6051
 6754SOL    HW131721   2.036   1.588   6.010  3.3373 -2.0933 -1.1709
 6754SOL    HW231722   2.095   1.638   6.136  2.6814 -2.0668  0.0975
 6755SOL     OW31723   0.853   0.955  12.903  0.0900 -0.2127 -0.3831
 6755SOL    HW131724   0.874   0.904  12.825  0.1819 -0.2626 -0.3259
 6755SOL    HW231725   0.826   1.029  12.848 -0.0356 -1.2592 -1.7082
 6756SOL     OW31726   1.106   1.134   4.607  0.8694  0.4583 -0.5633
 6756SOL    HW131727   1.188   1.151   4.654 -0.3893 -0.6789  2.0533
 6756SOL    HW231728   1.044   1.102   4.673  0.4438  1.4008 -0.5074
 6757SOL     OW31729   4.665   0.868   7.116 -0.7631 -0.0344  0.0295
 6757SOL    HW131730   4.700   0.780   7.099  0.9121  0.3107  1.5542
 6757SOL    HW231731   4.696   0.886   7.205 -1.8652  1.8633  0.0276
 6758SOL     OW31732   0.195   0.435   7.383  0.2166 -0.0202  0.5359
 6758SOL    HW131733   0.255   0.432   7.309  0.8516  1.9716  0.9681
 6758SOL    HW231734   0.150   0.352   7.369 -0.2233  0.3903 -0.5129
 6759SOL     OW31735   4.173   2.699   3.075  0.4875  0.0669  0.2515
 6759SOL    HW131736   4.125   2.778   3.050 -1.4539 -1.6636 -1.4958
 6759SOL    HW231737   4.215   2.725   3.157  0.2895  0.6246  0.1702
 6760SOL     OW31738   2.617   2.828  12.328 -0.6570 -0.2775  0.6194
 6760SOL    HW131739   2.678   2.896  12.357 -1.6066  1.2199 -0.9320
 6760SOL    HW231740   2.603   2.780  12.410  1.4162 -2.0179 -0.0464
 6761SOL     OW31741   0.126   1.407  10.567 -0.1871  0.5214 -0.8969
 6761SOL    HW131742   0.155   1.317  10.583  0.3596  0.7957 -0.3504
 6761SOL    HW231743   0.210   1.451  10.573  1.1268 -2.3035  1.1594
 6762SOL     OW31744   4.693   4.441   4.743 -1.0763  0.1052  0.2333
 6762SOL    HW131745   0.049   4.410   4.700  0.3305  2.9861  0.7020
 6762SOL    HW231746   4.714   4.446   4.836  0.3413 -0.4084 -0.0749
 6763SOL     OW31747   2.050   1.813   6.588  0.1728  0.1170  0.5858
 6763SOL    HW131748   2.099   1.804   6.506  0.9012 -2.1498  1.2591
 6763SOL    HW231749   2.010   1.727   6.602 -0.2427  0.2186  0.0164
 6764SOL     OW31750   2.946   4.093  15.936  0.3984 -0.1155 -0.2153
 6764SOL    HW131751   2.876   4.047  15.983  1.6173 -2.6680 -0.9045
 6764SOL    HW231752   2.936   4.073  15.843 -0.0919 -0.0596 -0.1763
 6765SOL     OW31753   2.471   2.448   7.291 -0.0450  0.0789 -0.1656
 6765SOL    HW131754   2.440   2.410   7.208 -0.5298  0.0729  0.0207
 6765SOL    HW231755   2.536   2.386   7.324 -0.5994 -0.6715 -0.4785
 6766SOL     OW31756   3.214   2.132   7.420 -0.3329 -0.7044 -0.4587
 6766SOL    HW131757   3.232   2.141   7.514 -1.1100  3.0921 -0.6717
 6766SOL    HW231758   3.299   2.136   7.376  0.3790 -2.3863  0.7847
 6767SOL     OW31759   2.204   2.721   1.677  0.6908 -0.4815 -0.7826
 6767SOL    HW131760   2.295   2.724   1.647  0.2022  2.5339 -1.9225
 6767SOL    HW231761   2.167   2.796   1.631  1.3434  0.3763  0.1034
 6768SOL     OW31762   2.018   0.239   0.475 -0.1270  0.3595 -0.1047
 6768SOL    HW131763   2.111   0.255   0.461 -0.0054 -0.2934 -0.0157
 6768SOL    HW231764   1.979   0.255   0.389 -0.6154 -1.2497 -0.1791
 6769SOL     OW31765   4.433   2.474  12.604 -0.1587 -0.4990  0.3255
 6769SOL    HW131766   4.471   2.401  12.556 -0.8201 -1.6323  1.5028
 6769SOL    HW231767   4.480   2.544  12.558  2.0143 -0.7330  2.2025
 6770SOL     OW31768   2.411   4.593  14.488  0.2988  0.5693  0.3596
 6770SOL    HW131769   2.318   4.607  14.508  0.0129 -2.0119  0.8528
 6770SOL    HW231770   2.433   4.670  14.436  1.4384 -0.9129 -1.3460
 6771SOL     OW31771   1.067   1.218   8.305  0.5808  0.3394  0.3478
 6771SOL    HW131772   1.002   1.157   8.342  0.2123 -0.0319 -0.9001
 6771SOL    HW231773   1.054   1.302   8.349 -0.4910  1.0230 -1.3000
 6772SOL     OW31774   0.550   4.615   3.641  0.3327 -0.7949  0.4747
 6772SOL    HW131775   0.597   4.696   3.622  0.2552 -0.0174  3.5071
 6772SOL    HW231776   0.459   4.646   3.637  0.4167 -0.3736  1.9570
 6773SOL     OW31777   4.236   0.749   6.170  0.0680  0.1247  0.3503
 6773SOL    HW131778   4.287   0.719   6.095  0.0234  0.3320  0.2350
 6773SOL    HW231779   4.190   0.821   6.126  1.8109 -0.0199 -1.6742
 6774SOL     OW31780   1.034   4.395  16.403  0.1354 -0.2703  0.0063
 6774SOL    HW131781   1.033   4.301  16.423 -0.4336  0.0771  1.6045
 6774SOL    HW231782   0.968   4.418  16.468  2.6653  2.6427  1.5458
 6775SOL     OW31783   4.378   3.618   3.430  1.2784 -0.5452  0.3677
 6775SOL    HW131784   4.421   3.571   3.359  0.5076 -1.6405  0.6048
 6775SOL    HW231785   4.297   3.634   3.381  2.7840 -0.5899 -2.1437
 6776SOL     OW31786   0.602   0.354   3.914  0.0870  0.4311 -0.2950
 6776SOL    HW131787   0.680   0.393   3.873  0.4550  0.0301  0.0227
 6776SOL    HW231788   0.604   0.393   4.002 -0.9405  0.0104 -0.0838
 6777SOL     OW31789   0.546   2.094   0.754 -0.3523  0.0111  0.3517
 6777SOL    HW131790   0.571   2.150   0.827  0.6125  0.1159 -0.0577
 6777SOL    HW231791   0.568   2.005   0.779  1.0783  1.0348  2.6760
 6778SOL     OW31792   3.335   1.496   6.512  0.2361 -0.0290  0.7195
 6778SOL    HW131793   3.296   1.506   6.425 -0.2929 -2.0806  0.7126
 6778SOL    HW231794   3.305   1.571   6.563 -0.5593  0.2578 -0.1855
 6779SOL     OW31795   2.807   4.659   1.193 -0.3319 -0.2201 -0.0343
 6779SOL    HW131796   2.811   0.004   1.260  0.5552  0.6448 -0.9625
 6779SOL    HW231797   2.780   4.584   1.246  1.2655 -0.1502  0.8682
 6780SOL     OW31798   2.685   4.246   9.761 -0.2830  0.4091 -0.7244
 6780SOL    HW131799   2.604   4.217   9.721  0.3102 -0.1071 -1.5601
 6780SOL    HW231800   2.642   4.282   9.838 -2.3085 -2.0158 -0.7416
 6781SOL     OW31801   0.001   3.355   7.990  0.1639  0.2215  0.2133
 6781SOL    HW131802   4.652   3.372   8.049  0.4446 -0.9793  0.8938
 6781SOL    HW231803   0.027   3.266   8.012 -1.9510 -0.2488  0.7352
 6782SOL     OW31804   0.687   2.087   1.007 -0.7290  0.2010 -0.1694
 6782SOL    HW131805   0.699   2.181   1.001 -1.3380  0.2521 -0.5483
 6782SOL    HW231806   0.756   2.057   1.067 -0.7420 -0.4063 -0.4540
 6783SOL     OW31807   2.873   4.334   7.086  0.3087 -0.1248 -0.1312
 6783SOL    HW131808   2.922   4.387   7.148  2.2379 -1.2631 -0.6988
 6783SOL    HW231809   2.842   4.252   7.126 -1.2805  1.2786  1.5139
 6784SOL     OW31810   2.822   0.237   7.392  0.1004  0.0991  0.1179
 6784SOL    HW131811   2.756   0.253   7.460  0.9669 -2.9723  1.6799
 6784SOL    HW231812   2.801   0.306   7.330  1.4692  2.5309  2.3894
 6785SOL     OW31813   2.865   4.464   6.178 -0.0112  0.5240  0.3093
 6785SOL    HW131814   2.803   4.504   6.118 -0.4692 -1.4057 -0.4961
 6785SOL    HW231815   2.831   4.478   6.267 -0.0187  1.6197  0.1250
 6786SOL     OW31816   2.085   3.010  13.901 -0.1636 -0.2519 -0.4295
 6786SOL    HW131817   2.146   3.083  13.899 -1.6301  1.0111  0.9705
 6786SOL    HW231818   2.018   3.031  13.836  0.2147  3.2029  0.2905
 6787SOL     OW31819   2.136   2.691   5.699 -0.3594 -0.2522  0.1806
 6787SOL    HW131820   2.058   2.637   5.714  0.4701 -0.9380  2.0075
 6787SOL    HW231821   2.127   2.750   5.773 -0.8325  0.0904 -0.1492
 6788SOL     OW31822   2.313   0.042   4.036  0.3516 -0.4626 -0.2599
 6788SOL    HW131823   2.284   4.674   4.035  3.2912 -1.4036  1.5620
 6788SOL    HW231824   2.246   0.086   3.984 -2.6310  0.9153  4.7047
 6789SOL     OW31825   2.249   0.505   4.968 -0.2926  0.1676  0.5589
 6789SOL    HW131826   2.230   0.412   4.978  1.9464 -0.3601 -0.0974
 6789SOL    HW231827   2.211   0.509   4.881  1.0985 -1.6492 -0.1433
 6790SOL     OW31828   4.647   1.916   2.495 -0.9385  0.7640  0.6530
 6790SOL    HW131829   4.601   1.832   2.497  3.0389 -1.3646  1.5700
 6790SOL    HW231830   4.671   1.940   2.585  2.8504  1.7284 -0.6239
 6791SOL     OW31831   2.863   3.405  14.074  0.1189  0.2879  0.0880
 6791SOL    HW131832   2.836   3.313  14.075 -1.9071  0.8667 -3.2190
 6791SOL    HW231833   2.793   3.442  14.020  0.8060 -0.5443 -1.3699
 6792SOL     OW31834   4.398   2.328   5.359 -0.1889  0.2462 -0.0094
 6792SOL    HW131835   4.352   2.412   5.355 -1.4543 -0.5333 -1.8606
 6792SOL    HW231836   4.430   2.320   5.448  1.3729  1.2338 -0.4808
 6793SOL     OW31837   3.602   0.203   8.689 -0.2695  0.2319 -0.1694
 6793SOL    HW131838   3.513   0.169   8.681 -0.6416  1.2101 -0.1025
 6793SOL    HW231839   3.592   0.296   8.673 -0.5921  0.2982  0.3857
 6794SOL     OW31840   2.285   3.740   7.519 -0.2142 -0.8710  0.2279
 6794SOL    HW131841   2.287   3.834   7.541  1.5871 -0.4268 -1.7720
 6794SOL    HW231842   2.190   3.735   7.516 -0.1630 -1.7820  0.1408
 6795SOL     OW31843   2.256   0.706   5.882  0.4446  0.4685  0.3689
 6795SOL    HW131844   2.326   0.698   5.817  0.0744  0.6247 -0.0496
 6795SOL    HW231845   2.237   0.800   5.874  1.1878  0.5163 -0.7849
 6796SOL     OW31846   2.479   1.481   6.748 -0.5788 -0.4706  0.0188
 6796SOL    HW131847   2.533   1.410   6.783 -0.7410 -0.4029  0.4051
 6796SOL    HW231848   2.404   1.423   6.741 -1.0556  0.2046 -0.4597
 6797SOL     OW31849   1.262   2.552   7.190  0.5713 -0.7288 -0.0652
 6797SOL    HW131850   1.278   2.462   7.161 -1.8532 -1.1825 -0.0235
 6797SOL    HW231851   1.176   2.537   7.228 -0.0903  2.1391 -0.4606
 6798SOL     OW31852   2.067   0.456  14.843  0.2553  0.1388 -0.6932
 6798SOL    HW131853   2.038   0.514  14.772 -1.3318  0.2470  0.0431
 6798SOL    HW231854   2.147   0.500  14.873 -0.3348  0.3481  0.5458
 6799SOL     OW31855   2.251   2.667   5.058 -0.6308  0.0875 -0.0020
 6799SOL    HW131856   2.285   2.757   5.056 -3.1474  1.1083  1.7087
 6799SOL    HW231857   2.282   2.642   5.145  2.8062  0.2667 -1.1675
 6800SOL     OW31858   0.002   1.020   7.638 -0.3315  0.3545 -0.1749
 6800SOL    HW131859   4.652   1.074   7.609  0.9464  1.8240 -0.7344
 6800SOL    HW231860   4.704   0.941   7.588  0.4721 -0.0927  0.1911
 6801SOL     OW31861   2.354   2.011  15.349  0.1729  0.5566  0.3315
 6801SOL    HW131862   2.288   2.077  15.325 -1.8199 -1.8047 -0.7070
 6801SOL    HW231863   2.321   1.939  15.295  1.0420 -1.2886  2.2528
 6802SOL     OW31864   0.429   0.277   5.040 -0.4167  0.4559  0.8639
 6802SOL    HW131865   0.438   0.314   4.952 -0.4041 -2.0955 -0.2143
 6802SOL    HW231866   0.493   0.206   5.044 -1.3912 -0.1646  5.0598
 6803SOL     OW31867   1.375   3.816   8.594 -0.1068 -0.4839  0.0228
 6803SOL    HW131868   1.339   3.736   8.635 -0.3667 -0.1538  0.4460
 6803SOL    HW231869   1.459   3.783   8.563  0.8105  0.3911  1.5977
 6804SOL     OW31870   2.065   3.108   7.803 -0.4872  0.0422  0.3060
 6804SOL    HW131871   2.048   3.144   7.890  0.2819  0.3340  0.3346
 6804SOL    HW231872   2.076   3.186   7.750 -0.6994  0.5103  0.9401
 6805SOL     OW31873   4.542   2.311   8.836 -0.0078  0.5458 -0.4107
 6805SOL    HW131874   4.565   2.387   8.782  1.1394 -2.0654 -3.6009
 6805SOL    HW231875   4.448   2.311   8.820 -0.1685  0.2390  0.5076
 6806SOL     OW31876   0.603   0.311   8.481 -0.0061  0.2457  0.0772
 6806SOL    HW131877   0.519   0.290   8.442  1.1634 -1.9330 -1.2499
 6806SOL    HW231878   0.655   0.323   8.402 -0.0280  3.7327  0.5933
 6807SOL     OW31879   3.956   3.731  16.617 -0.0539 -0.3904  0.4197
 6807SOL    HW131880   3.900   3.655  16.632  3.0249 -1.9545  3.9384
 6807SOL    HW231881   3.935   3.785  16.692 -0.2253 -0.4626  0.4224
 6808SOL     OW31882   1.763   1.203   7.014  0.2370 -0.3000  0.8053
 6808SOL    HW131883   1.801   1.118   6.992 -0.3957 -0.0451 -1.3456
 6808SOL    HW231884   1.752   1.246   6.929  0.3992  1.0847  1.4791
 6809SOL     OW31885   3.000   1.672   1.443  0.2553  0.2926  0.3478
 6809SOL    HW131886   2.934   1.687   1.511 -0.2476  2.0470 -0.5477
 6809SOL    HW231887   2.997   1.576   1.443 -2.1075  0.3848  1.7189
 6810SOL     OW31888   2.249   2.379   5.987 -0.6909 -0.2453 -0.2429
 6810SOL    HW131889   2.281   2.332   5.910  1.1313  1.0673 -0.2808
 6810SOL    HW231890   2.223   2.309   6.048 -3.6594  1.3098  0.2969
 6811SOL     OW31891   4.088   1.805  12.082 -0.2342 -0.2459 -0.0144
 6811SOL    HW131892   4.180   1.814  12.057 -0.4611 -0.2577 -0.8744
 6811SOL    HW231893   4.058   1.884  12.037 -1.6192  0.9868  3.0979
 6812SOL     OW31894   4.347   1.618   3.846  0.0537 -0.3035 -0.4668
 6812SOL    HW131895   4.405   1.565   3.902 -3.0112 -1.7628  1.3490
 6812SOL    HW231896   4.322   1.688   3.906 -2.5065  1.2776 -3.4242
 6813SOL     OW31897   2.671   1.229   3.606 -0.2345 -0.1592  0.1888
 6813SOL    HW131898   2.657   1.160   3.541 -3.5874  1.7072 -1.0286
 6813SOL    HW231899   2.583   1.266   3.601  0.3898  1.2348 -0.5261
 6814SOL     OW31900   2.818   4.336   3.589  0.0552 -0.2783 -0.4667
 6814SOL    HW131901   2.729   4.357   3.559  0.3566  1.0567 -0.4146
 6814SOL    HW231902   2.863   4.309   3.509  0.9605 -0.2660  0.0402
 6815SOL     OW31903   1.678   1.240  15.096  0.2495  0.5594 -0.5457
 6815SOL    HW131904   1.614   1.171  15.081 -0.0315  0.4377  1.2368
 6815SOL    HW231905   1.759   1.201  15.065  0.5709 -0.3574  1.5140
 6816SOL     OW31906   2.118   1.629   7.523 -0.2257 -0.0133  0.1704
 6816SOL    HW131907   2.164   1.628   7.439  2.6339 -0.6595  1.7586
 6816SOL    HW231908   2.200   1.633   7.572 -0.7327  0.8405  0.9335
 6817SOL     OW31909   0.886   3.408   2.615  0.2717 -0.4820  0.0811
 6817SOL    HW131910   0.798   3.394   2.580  0.5778  0.4942 -1.0596
 6817SOL    HW231911   0.851   3.479   2.670  1.3692  1.2182 -1.4209
 6818SOL     OW31912   2.800   3.206   3.145  0.2265 -0.3411 -0.1367
 6818SOL    HW131913   2.814   3.155   3.065  0.2615  0.2733 -0.5194
 6818SOL    HW231914   2.886   3.246   3.139  0.6182 -1.4971 -2.6492
 6819SOL     OW31915   4.448   2.564   5.639  0.2198 -0.3335 -0.7536
 6819SOL    HW131916   4.418   2.567   5.548 -1.0683  1.3876 -0.2775
 6819SOL    HW231917   4.364   2.591   5.675  0.9498 -0.4478  1.0303
 6820SOL     OW31918   3.909   4.302   7.449  0.3395 -0.2372 -1.1382
 6820SOL    HW131919   3.937   4.232   7.507 -0.2929  0.3243 -0.1592
 6820SOL    HW231920   3.820   4.278   7.423 -1.0668  2.5458  1.1075
 6821SOL     OW31921   2.182   1.179  17.062  0.1578  0.5203  0.7092
 6821SOL    HW131922   2.141   1.264  17.045 -0.9563 -0.1508 -0.0029
 6821SOL    HW231923   2.131   1.144  17.135  1.2537 -1.1858  0.6451
 6822SOL     OW31924   2.714   2.190   7.246  0.1163 -0.2932 -0.5259
 6822SOL    HW131925   2.781   2.139   7.292  1.1287  0.0865 -1.5946
 6822SOL    HW231926   2.750   2.279   7.251 -1.2348  0.2243  0.0561
 6823SOL     OW31927   4.258   2.042   7.115 -0.7738  0.0866 -0.1113
 6823SOL    HW131928   4.334   1.997   7.078  0.5331  2.0316  0.2126
 6823SOL    HW231929   4.265   2.017   7.207 -0.2495  0.6651  0.0038
 6824SOL     OW31930   4.176   4.576   0.375  0.0965 -0.1010 -0.0792
 6824SOL    HW131931   4.250   4.583   0.435  0.1062  1.8871 -0.2958
 6824SOL    HW231932   4.120   4.523   0.432  1.7143 -1.2578  0.4175
 6825SOL     OW31933   1.020   1.339   6.296 -0.5771  0.0171 -0.0445
 6825SOL    HW131934   1.116   1.338   6.291 -0.5680  0.1204  0.1289
 6825SOL    HW231935   1.013   1.249   6.327 -0.4860  0.0806  0.1584
 6826SOL     OW31936   3.569   4.211   7.725 -0.1958 -0.5966 -0.3229
 6826SOL    HW131937   3.508   4.162   7.780 -0.6985  0.1858 -0.1883
 6826SOL    HW231938   3.652   4.167   7.741 -1.4509 -2.1823  1.7747
 6827SOL     OW31939   2.686   0.403  14.925 -0.4620  0.1190 -0.2086
 6827SOL    HW131940   2.773   0.371  14.946 -1.2217 -1.0144  1.1836
 6827SOL    HW231941   2.672   0.392  14.831  0.7424  2.1229 -0.6117
 6828SOL     OW31942   1.780   0.214   6.622 -0.3547 -0.1682  1.2253
 6828SOL    HW131943   1.702   0.206   6.677 -2.1130  2.1438 -0.9726
 6828SOL    HW231944   1.772   0.300   6.582  0.1843  0.0817  1.6446
 6829SOL     OW31945   1.463   0.814   2.318 -0.2480  0.3424  0.1342
 6829SOL    HW131946   1.505   0.830   2.234 -0.9065  3.8267  0.4556
 6829SOL    HW231947   1.531   0.766   2.365 -2.7898 -2.3501  1.0790
 6830SOL     OW31948   2.555   0.525   0.838  0.0764 -0.2931 -0.2340
 6830SOL    HW131949   2.554   0.530   0.742 -0.5617 -1.5564 -0.2866
 6830SOL    HW231950   2.608   0.446   0.849  0.5455 -0.2320 -2.0436
 6831SOL     OW31951   3.523   2.302   2.049  0.6093  0.6263  0.3555
 6831SOL    HW131952   3.568   2.280   1.967  0.1108  0.9876 -0.0114
 6831SOL    HW231953   3.433   2.292   2.020  0.3572  2.0608  0.6416
 6832SOL     OW31954   4.519   3.855   9.489 -0.0803  0.6678 -0.4968
 6832SOL    HW131955   4.612   3.862   9.468  0.5571 -0.8350  1.9034
 6832SOL    HW231956   4.528   3.777   9.542 -0.9171 -0.1958 -1.6182
 6833SOL     OW31957   3.131   0.696   3.816 -0.8269  0.4546  0.0334
 6833SOL    HW131958   3.217   0.728   3.790 -0.2435 -1.7149 -0.7353
 6833SOL    HW231959   3.096   0.776   3.855  0.6032  2.0377 -1.9326
 6834SOL     OW31960   2.149   1.594   1.145  0.1568  0.2046 -0.1024
 6834SOL    HW131961   2.108   1.557   1.224 -1.9385  1.8216 -0.4359
 6834SOL    HW231962   2.131   1.685   1.171 -2.3457 -0.5461  0.7688
 6835SOL     OW31963   1.590   2.119   3.522  0.0089 -0.0688 -0.1997
 6835SOL    HW131964   1.558   2.042   3.569  1.3083 -1.2049 -1.1561
 6835SOL    HW231965   1.617   2.082   3.438  1.3160 -1.9225  1.0280
 6836SOL     OW31966   3.202   4.689   7.125 -0.0543  0.3324 -0.3473
 6836SOL    HW131967   3.119   0.011   7.114 -1.6166 -2.3059  0.5575
 6836SOL    HW231968   3.229   4.717   7.213  1.4642  2.1210 -1.3854
 6837SOL     OW31969   1.248   0.889   7.358 -0.2089 -0.3640 -0.4451
 6837SOL    HW131970   1.231   0.935   7.276  2.0840  0.0494 -0.6801
 6837SOL    HW231971   1.177   0.919   7.414  1.6690 -1.5400  2.5841
 6838SOL     OW31972   0.625   3.876   4.267 -0.7074 -0.6150 -0.3636
 6838SOL    HW131973   0.699   3.935   4.279  1.0377 -2.6057 -1.3730
 6838SOL    HW231974   0.574   3.936   4.213 -0.9175 -1.8170 -1.4842
 6839SOL     OW31975   3.237   4.060   1.754  0.2474  0.5091 -0.4215
 6839SOL    HW131976   3.178   4.115   1.703 -2.8281 -0.7945  1.7087
 6839SOL    HW231977   3.228   4.077   1.848  0.3386  0.2736 -0.3701
 6840SOL     OW31978   2.835   0.373   2.473 -0.1969  1.0186  0.2860
 6840SOL    HW131979   2.851   0.339   2.385  0.4362  1.4917  0.2161
 6840SOL    HW231980   2.910   0.432   2.479  0.0847  0.6527  0.3955
 6841SOL     OW31981   1.304   1.969   8.445  0.4331 -0.8478  0.6697
 6841SOL    HW131982   1.252   2.026   8.501  1.7745  1.2390 -0.2032
 6841SOL    HW231983   1.315   2.025   8.369  1.0377 -0.1901  1.2408
 6842SOL     OW31984   2.861   2.253   4.748 -0.1859  0.7726 -0.5825
 6842SOL    HW131985   2.860   2.220   4.838 -1.2152  1.5315 -0.3157
 6842SOL    HW231986   2.809   2.192   4.695 -0.3002  1.6996 -1.5286
 6843SOL     OW31987   3.868   4.217   5.692 -0.6988  0.3558 -0.4077
 6843SOL    HW131988   3.857   4.152   5.761  0.8100  0.6466  0.0962
 6843SOL    HW231989   3.887   4.300   5.736 -0.5184 -0.9091  1.8830
 6844SOL     OW31990   3.474   4.579  14.152 -0.4973  0.0240 -0.1981
 6844SOL    HW131991   3.403   4.643  14.158 -0.4322  0.1086 -0.3403
 6844SOL    HW231992   3.540   4.642  14.123  2.0759 -2.3494  0.4742
 6845SOL     OW31993   0.737   4.618   6.965 -0.2600  0.3958  0.5830
 6845SOL    HW131994   0.829   4.592   6.968 -0.5434 -0.4396  1.9721
 6845SOL    HW231995   0.696   4.546   6.916 -1.1297  1.6478 -0.5269
 6846SOL     OW31996   1.224   2.531   4.517  0.2902 -0.4238  0.3159
 6846SOL    HW131997   1.161   2.599   4.543 -2.9360 -2.8639 -1.2156
 6846SOL    HW231998   1.245   2.493   4.602  2.2525  1.4488  0.6579
 6847SOL     OW31999   3.050   1.983   1.443 -0.0728  0.0276 -0.1068
 6847SOL    HW132000   3.120   1.922   1.421  1.6772  1.0850  2.5117
 6847SOL    HW232001   3.039   2.015   1.354 -0.1995  0.5835  0.1113
 6848SOL     OW32002   1.311   0.209   4.675 -0.0275 -0.3238  0.3440
 6848SOL    HW132003   1.351   0.148   4.612  2.2669  1.2138  0.3054
 6848SOL    HW232004   1.372   0.282   4.665  0.8809 -1.0897  0.2684
 6849SOL     OW32005   0.414   0.076   9.011  0.3969  0.0347 -0.0242
 6849SOL    HW132006   0.381   0.094   9.099  2.7225 -1.4822  1.1708
 6849SOL    HW232007   0.498   0.031   9.020 -0.6744 -1.6916  1.3710
 6850SOL     OW32008   1.648   3.671   6.824 -0.1639  0.4455  0.0409
 6850SOL    HW132009   1.589   3.713   6.761 -0.2250  0.8471  0.3646
 6850SOL    HW232010   1.607   3.584   6.828 -0.2160  0.6167  3.3528
 6851SOL     OW32011   4.569   1.659  10.049 -0.0654 -0.0825 -0.1008
 6851SOL    HW132012   4.620   1.685  10.125  2.6257  1.6340 -2.5041
 6851SOL    HW232013   4.612   1.713   9.983  0.9773  0.6891  1.2320
 6852SOL     OW32014   4.649   0.511   8.066  0.3859  0.1104 -0.4933
 6852SOL    HW132015   4.599   0.512   8.148 -0.2027 -0.5206 -0.8446
 6852SOL    HW232016   4.612   0.426   8.040  0.9507  0.3099 -1.9629
 6853SOL     OW32017   0.735   0.541   0.593  0.0770  0.3163  0.3643
 6853SOL    HW132018   0.759   0.478   0.525  0.3107 -0.5046  1.2027
 6853SOL    HW232019   0.722   0.484   0.669 -0.2547 -0.4943 -0.3002
 6854SOL     OW32020   4.253   3.928   8.424  0.0274 -0.2254  0.5001
 6854SOL    HW132021   4.250   4.021   8.443 -1.4034  0.2876 -2.2359
 6854SOL    HW232022   4.346   3.910   8.413 -0.0441 -0.1725 -0.2306
 6855SOL     OW32023   3.665   0.205   2.639  0.1669 -0.6951  0.4319
 6855SOL    HW132024   3.750   0.176   2.672  0.6386 -1.5693 -1.5179
 6855SOL    HW232025   3.637   0.127   2.590  1.4925 -0.4467 -0.7173
 6856SOL     OW32026   3.810   3.667  14.462 -0.1645  0.3283  0.4761
 6856SOL    HW132027   3.756   3.712  14.398 -0.1067  0.8411  0.7894
 6856SOL    HW232028   3.819   3.737  14.527 -1.1769  0.6273  0.2926
 6857SOL     OW32029   2.778   4.444   9.178  0.0909  0.3181 -0.0346
 6857SOL    HW132030   2.836   4.512   9.214 -0.6970  2.4425 -2.7598
 6857SOL    HW232031   2.700   4.461   9.230 -0.1950 -1.2986  0.0524
 6858SOL     OW32032   1.732   3.886  13.952  0.3810 -0.1942  0.3930
 6858SOL    HW132033   1.743   3.802  13.996  1.5137 -1.2749 -1.9481
 6858SOL    HW232034   1.801   3.881  13.886  1.8131 -0.3055  1.9199
 6859SOL     OW32035   3.146   2.086   4.407  0.6398 -0.2730 -0.5035
 6859SOL    HW132036   3.143   2.158   4.470 -1.9327 -0.8320  0.0070
 6859SOL    HW232037   3.133   2.009   4.461 -0.7311 -0.3249 -0.9020
 6860SOL     OW32038   2.206   1.361   0.534  0.0281  0.8052  0.4149
 6860SOL    HW132039   2.202   1.265   0.538  0.5998  0.7638 -0.0623
 6860SOL    HW232040   2.160   1.385   0.614 -0.8119  0.0127  0.1725
 6861SOL     OW32041   1.767   0.557   8.643 -0.2694  0.5529  0.0301
 6861SOL    HW132042   1.697   0.535   8.581  1.8548 -3.2960 -1.0419
 6861SOL    HW232043   1.787   0.471   8.682 -0.2454  0.8094  0.5847
 6862SOL     OW32044   0.059   1.316   7.203  0.4497  0.2959 -0.1482
 6862SOL    HW132045   0.027   1.351   7.286  1.6867  1.0940 -0.0061
 6862SOL    HW232046   0.139   1.275   7.237 -1.2015 -1.4117  1.6290
 6863SOL     OW32047   3.404   4.386   7.521  0.2038  0.3320  0.2419
 6863SOL    HW132048   3.431   4.339   7.600  1.4178 -0.8136 -0.8385
 6863SOL    HW232049   3.365   4.460   7.567 -0.9586  0.9171 -1.6632
 6864SOL     OW32050   1.594   2.192   5.389  0.4627 -0.0784 -0.3026
 6864SOL    HW132051   1.525   2.258   5.394 -0.7747 -1.4613  1.0935
 6864SOL    HW232052   1.552   2.134   5.452  0.9728 -0.0717  0.0445
 6865SOL     OW32053   2.433   3.706   4.867  0.5497  0.4556 -0.0368
 6865SOL    HW132054   2.431   3.792   4.825 -1.0458  0.7715  0.6940
 6865SOL    HW232055   2.351   3.670   4.834 -0.1128  0.4507  1.6107
 6866SOL     OW32056   1.594   4.553  16.642 -0.3969 -0.0658 -0.0980
 6866SOL    HW132057   1.564   4.478  16.693  0.8756 -1.0375 -0.7853
 6866SOL    HW232058   1.686   4.559  16.669 -0.2747 -2.3185  0.0017
 6867SOL     OW32059   3.552   1.371   2.295  0.0690 -0.1083  0.1382
 6867SOL    HW132060   3.594   1.285   2.291 -0.7031 -0.5150  0.7018
 6867SOL    HW232061   3.545   1.378   2.390 -1.5876 -1.0347  0.0741
 6868SOL     OW32062   4.208   3.437  16.592 -0.2272  0.2637 -0.5383
 6868SOL    HW132063   4.303   3.445  16.602 -0.4403  2.1053  0.0105
 6868SOL    HW232064   4.180   3.457  16.681  0.1050  1.8962 -0.7911
 6869SOL     OW32065   4.449   2.848   0.364 -0.1881  0.2225  0.3737
 6869SOL    HW132066   4.387   2.782   0.394 -0.6628  0.1261 -0.7974
 6869SOL    HW232067   4.506   2.854   0.441  0.6662  0.2465 -0.2643
 6870SOL     OW32068   4.597   0.142   2.725 -0.0717  0.0128 -0.1422
 6870SOL    HW132069   4.541   0.128   2.801 -1.3891 -1.9291 -1.4814
 6870SOL    HW232070   4.543   0.199   2.670 -0.5401  0.2831  0.5938
 6871SOL     OW32071   3.636   4.648   8.827 -0.5344  0.0751  0.0804
 6871SOL    HW132072   3.662   4.721   8.771  0.5502 -1.0477 -0.8570
 6871SOL    HW232073   3.630   4.699   8.908 -0.6454  1.2639 -0.6788
 6872SOL     OW32074   3.564   3.596   7.527  0.4041 -0.5392 -0.6241
 6872SOL    HW132075   3.618   3.592   7.449  1.5922  1.4184  0.1009
 6872SOL    HW232076   3.634   3.601   7.592 -1.8381  1.4729  1.6384
 6873SOL     OW32077   4.112   2.299   7.452  0.3242  0.3604 -0.2199
 6873SOL    HW132078   4.060   2.323   7.529 -0.9975  0.7295 -1.2112
 6873SOL    HW232079   4.044   2.269   7.392 -1.1913  1.3480  0.9978
 6874SOL     OW32080   2.953   0.362   6.543  0.1451 -0.4769  0.2362
 6874SOL    HW132081   2.916   0.449   6.533  1.2681  0.0529  0.6749
 6874SOL    HW232082   2.952   0.328   6.453 -0.1636 -0.5848  0.2832
 6875SOL     OW32083   2.023   3.849   5.346  0.6503  0.6676  1.2874
 6875SOL    HW132084   2.081   3.802   5.286 -0.1612 -0.8067  1.6549
 6875SOL    HW232085   2.029   3.797   5.426  1.5723 -0.8581  0.2281
 6876SOL     OW32086   1.670   2.328   7.816 -0.1386  0.0131  0.2508
 6876SOL    HW132087   1.640   2.239   7.832 -0.0029  0.0875  0.9645
 6876SOL    HW232088   1.735   2.306   7.750 -0.0179 -1.3705  0.8323
 6877SOL     OW32089   4.243   3.050  15.647 -0.1463  0.2263  0.2637
 6877SOL    HW132090   4.332   3.031  15.618 -0.0887  1.6632 -0.4640
 6877SOL    HW232091   4.182   3.009  15.586 -0.6584  1.0435  0.2232
 6878SOL     OW32092   1.609   1.575   2.511  0.1532 -0.3315 -0.0775
 6878SOL    HW132093   1.700   1.543   2.509 -0.5215 -2.2521  0.0394
 6878SOL    HW232094   1.566   1.492   2.530 -0.8223  0.1490 -0.1849
 6879SOL     OW32095   0.752   4.388   8.331 -0.1843 -0.0933 -0.2454
 6879SOL    HW132096   0.807   4.464   8.314  1.1761 -0.9406  0.2949
 6879SOL    HW232097   0.726   4.361   8.243 -0.3961  1.6004 -0.6932
 6880SOL     OW32098   0.144   4.412  16.249  0.0161 -0.3073 -0.2616
 6880SOL    HW132099   0.169   4.473  16.179  0.5944  0.5958  0.7411
 6880SOL    HW232100   0.063   4.450  16.282 -0.3806 -2.6866  1.4869
 6881SOL     OW32101   3.359   2.297   0.258 -0.0659  0.4895  0.3651
 6881SOL    HW132102   3.442   2.292   0.212 -1.5005  1.0958 -2.2976
 6881SOL    HW232103   3.389   2.292   0.349  2.3593 -0.9614 -0.5136
 6882SOL     OW32104   0.716   0.287   8.003 -0.4493 -0.3916  0.0892
 6882SOL    HW132105   0.682   0.374   7.985  0.4244 -0.5083 -2.1249
 6882SOL    HW232106   0.811   0.302   8.002 -0.5388  0.1762  0.1795
 6883SOL     OW32107   1.777   2.483   4.797  0.5607 -0.2589 -0.3045
 6883SOL    HW132108   1.772   2.484   4.701 -1.4638 -0.1612 -0.2121
 6883SOL    HW232109   1.813   2.396   4.809  1.4788  0.4802  2.1777
 6884SOL     OW32110   1.180   1.558   7.352 -0.2390  0.2839  0.0387
 6884SOL    HW132111   1.117   1.631   7.357 -1.0025 -0.3774  0.0514
 6884SOL    HW232112   1.221   1.554   7.439  1.2508 -1.5033 -0.7684
 6885SOL     OW32113   0.200   2.196  11.690  0.6637 -0.3153  0.7376
 6885SOL    HW132114   0.187   2.291  11.682  0.1673 -0.6131 -1.9332
 6885SOL    HW232115   0.176   2.178  11.781 -0.8845 -1.4720  0.0880
 6886SOL     OW32116   1.585   2.990  16.440  0.2942 -0.7432  0.3145
 6886SOL    HW132117   1.547   3.076  16.423  0.9716 -1.0427 -2.7082
 6886SOL    HW232118   1.615   2.999  16.531 -0.6243  0.0872  0.5306
 6887SOL     OW32119   1.159   3.147   6.355 -0.2814 -0.4497  0.0609
 6887SOL    HW132120   1.144   3.242   6.355  3.0679  0.0574 -1.5628
 6887SOL    HW232121   1.237   3.134   6.302 -0.9897 -1.8159 -0.6288
 6888SOL     OW32122   2.567   0.436   5.861  0.5351  0.2839 -0.0934
 6888SOL    HW132123   2.505   0.378   5.904  1.4807 -1.5035 -1.1595
 6888SOL    HW232124   2.645   0.418   5.915 -0.1703 -0.4069  0.6823
 6889SOL     OW32125   0.378   2.305   8.816 -0.0865 -0.1872 -0.9066
 6889SOL    HW132126   0.322   2.252   8.872  2.6293 -2.2006 -0.0900
 6889SOL    HW232127   0.366   2.394   8.850  2.2729 -0.5632  0.8656
 6890SOL     OW32128   0.393   0.577   5.519  0.2440 -0.3760 -0.1505
 6890SOL    HW132129   0.320   0.517   5.531 -0.0752  0.1984  0.7214
 6890SOL    HW232130   0.441   0.527   5.452 -1.3925 -1.2174 -0.7019
 6891SOL     OW32131   3.791   4.001  12.861  0.6925  0.7369 -0.1200
 6891SOL    HW132132   3.747   3.937  12.918  0.9404  2.2756  1.8018
 6891SOL    HW232133   3.796   3.960  12.775  0.2124  0.5711 -0.0693
 6892SOL     OW32134   0.335   2.046   1.378  0.2014  0.0226  0.7155
 6892SOL    HW132135   0.257   2.013   1.334  0.5745 -1.9135  1.5085
 6892SOL    HW232136   0.335   2.139   1.353 -1.1165 -0.0800  0.3603
 6893SOL     OW32137   2.677   1.055   4.189  0.2531  0.2750 -0.6125
 6893SOL    HW132138   2.671   1.137   4.238  2.1468  0.2166 -0.3103
 6893SOL    HW232139   2.770   1.034   4.184  0.8456  2.7789 -0.0745
 6894SOL     OW32140   2.316   1.944   8.304 -0.3932 -0.1384 -0.1543
 6894SOL    HW132141   2.397   1.902   8.330  0.1414  0.7000 -0.4659
 6894SOL    HW232142   2.279   1.977   8.387  1.3830  2.3501 -0.3502
 6895SOL     OW32143   1.940   2.323  10.590 -0.0417  0.3371 -0.2668
 6895SOL    HW132144   1.975   2.242  10.552  0.8359  1.2030 -1.2687
 6895SOL    HW232145   1.862   2.292  10.637 -1.1177  3.1114 -0.2332
 6896SOL     OW32146   1.698   2.400  12.525 -0.4405  0.5360  0.1833
 6896SOL    HW132147   1.746   2.374  12.446  2.3048  0.9916  1.7230
 6896SOL    HW232148   1.612   2.430  12.493  0.2161 -0.0490 -2.1271
 6897SOL     OW32149   3.271   2.032  17.354 -0.1716 -0.2761  0.0899
 6897SOL    HW132150   3.297   2.124  17.349  0.0707 -0.1733  2.8335
 6897SOL    HW232151   3.273   2.014  17.260  0.5758  4.0806 -0.7350
 6898SOL     OW32152   4.624   1.795   5.309  0.0277  0.2863  0.0386
 6898SOL    HW132153   4.631   1.701   5.299  2.1725  0.6280 -1.5067
 6898SOL    HW232154   4.530   1.810   5.295  0.4514  0.8312 -2.1782
 6899SOL     OW32155   0.202   1.629  10.004  0.2640  0.1374 -0.0050
 6899SOL    HW132156   0.229   1.633  10.095  1.4118  0.1603 -0.3505
 6899SOL    HW232157   0.147   1.707  10.006  2.0564  1.3917 -0.7610
 6900SOL     OW32158   2.037   2.542  12.547 -0.1586 -0.2209 -0.5519
 6900SOL    HW132159   1.990   2.501  12.474 -0.7134 -0.6710  0.0579
 6900SOL    HW232160   2.123   2.501  12.536  0.5147  1.1482 -0.2947
 6901SOL     OW32161   0.128   1.512   3.499 -0.1362 -0.2230  0.4820
 6901SOL    HW132162   0.085   1.496   3.584 -0.1882  0.1066  0.5155
 6901SOL    HW232163   0.133   1.607   3.492  0.3488 -0.5106 -3.0521
 6902SOL     OW32164   2.905   3.668   6.168  0.3456  0.1207  0.1094
 6902SOL    HW132165   2.874   3.704   6.084  0.2928  0.7012  0.3776
 6902SOL    HW232166   2.832   3.607   6.169  0.0936  0.4187 -0.0906
 6903SOL     OW32167   3.706   2.192  14.609 -0.0189 -0.0081  0.2592
 6903SOL    HW132168   3.733   2.122  14.669 -4.7043 -0.1141  2.2792
 6903SOL    HW232169   3.790   2.217  14.571 -0.5103  0.5656 -0.4444
 6904SOL     OW32170   3.901   2.730   1.031 -0.9038  0.0121  0.0446
 6904SOL    HW132171   3.879   2.669   0.960  1.6298  0.8161 -1.4276
 6904SOL    HW232172   3.953   2.670   1.084 -2.0109 -1.5710 -0.6471
 6905SOL     OW32173   2.066   3.324  13.725  0.0778 -0.3824  0.2475
 6905SOL    HW132174   2.019   3.245  13.701  0.5872 -0.3236 -0.9233
 6905SOL    HW232175   2.131   3.308  13.794  1.0099 -0.1394 -0.5822
 6906SOL     OW32176   2.813   4.582  12.260  0.2112  0.2906  0.5221
 6906SOL    HW132177   2.831   4.657  12.317 -1.8500  0.2058  1.2897
 6906SOL    HW232178   2.814   4.510  12.323 -0.8163  0.3252  0.5914
 6907SOL     OW32179   4.003   0.798   0.434 -0.4920  0.5972  0.2087
 6907SOL    HW132180   3.992   0.705   0.452 -3.4520  1.1615  1.2914
 6907SOL    HW232181   4.042   0.830   0.515 -0.5019 -1.8467  1.1735
 6908SOL     OW32182   3.231   1.567   4.067 -0.3550  0.5429 -0.1705
 6908SOL    HW132183   3.319   1.530   4.075 -0.5365 -0.1850 -1.5365
 6908SOL    HW232184   3.251   1.609   3.984  0.3433  1.0499  0.2534
 6909SOL     OW32185   0.934   0.808   5.514 -0.4622 -0.0823 -0.3958
 6909SOL    HW132186   0.948   0.869   5.441  0.5848 -2.8259 -2.5038
 6909SOL    HW232187   0.878   0.873   5.555  0.9592  0.2952  0.9569
 6910SOL     OW32188   1.594   1.568   7.152  0.0998 -0.2107  0.3602
 6910SOL    HW132189   1.645   1.497   7.190  0.4078  0.4599  1.1927
 6910SOL    HW232190   1.605   1.635   7.219  0.7277 -0.7899  0.8280
 6911SOL     OW32191   3.203   3.545  15.773  0.2851 -0.3223  0.3511
 6911SOL    HW132192   3.203   3.602  15.850 -1.0579 -0.7194  0.6500
 6911SOL    HW232193   3.269   3.588  15.719 -0.4974  0.5420  0.0813
 6912SOL     OW32194   1.195   1.229   5.815  0.2515  0.1455 -0.2957
 6912SOL    HW132195   1.188   1.185   5.730  0.5662 -2.0624  0.8156
 6912SOL    HW232196   1.116   1.188   5.850  1.0912 -1.2837 -0.0583
 6913SOL     OW32197   4.721   1.174   4.622 -0.2350 -0.1026 -0.1149
 6913SOL    HW132198   4.645   1.128   4.658  0.2227  0.8280  2.0474
 6913SOL    HW232199   0.026   1.216   4.703  1.7001 -0.4559 -0.6167
 6914SOL     OW32200   1.279   4.069   6.815  0.6599 -0.0617  0.2012
 6914SOL    HW132201   1.326   4.110   6.888  0.5933  0.1696  0.1109
 6914SOL    HW232202   1.258   4.142   6.758 -1.0109  0.5993  1.6727
 6915SOL     OW32203   0.340   1.808   6.887 -0.7116  0.2624  0.7858
 6915SOL    HW132204   0.386   1.887   6.859  0.1266 -0.2810  0.6145
 6915SOL    HW232205   0.410   1.745   6.906  1.4138  1.8861 -1.6745
 6916SOL     OW32206   4.333   1.023   2.177 -0.8827  0.2551 -0.5057
 6916SOL    HW132207   4.354   0.930   2.185  0.1262  0.3087 -2.4359
 6916SOL    HW232208   4.391   1.054   2.107 -0.0904  0.6094  0.3097
 6917SOL     OW32209   2.508   3.246   3.242 -0.1586  0.1528 -0.8008
 6917SOL    HW132210   2.596   3.255   3.205  0.0720 -2.7602 -1.0258
 6917SOL    HW232211   2.480   3.333   3.216 -0.3917  0.9723  2.1918
 6918SOL     OW32212   3.928   0.838   7.075 -0.2352 -0.3964  0.1584
 6918SOL    HW132213   3.958   0.775   7.141 -1.0149  2.4128  3.1299
 6918SOL    HW232214   3.881   0.785   7.010  2.6822 -1.8067 -0.8347
 6919SOL     OW32215   3.292   3.116   4.812  0.5551 -0.9153 -0.3163
 6919SOL    HW132216   3.211   3.124   4.863  0.9803 -1.7251  0.4805
 6919SOL    HW232217   3.250   3.103   4.727  0.5578  0.2344 -0.4908
 6920SOL     OW32218   1.784   1.238  15.958 -0.4040  0.2193 -0.2241
 6920SOL    HW132219   1.795   1.145  15.937  1.8177  0.4442 -0.0226
 6920SOL    HW232220   1.699   1.248  16.001 -1.9845 -0.6596 -3.1366
 6921SOL     OW32221   4.618   3.162   5.755 -0.3564 -0.2461  1.3586
 6921SOL    HW132222   4.633   3.100   5.684  1.7044  1.2472  0.4768
 6921SOL    HW232223   4.636   3.243   5.707  3.6309 -1.1987  1.2410
 6922SOL     OW32224   4.185   3.728   7.680  0.2550 -0.2925 -0.1039
 6922SOL    HW132225   4.196   3.802   7.739  1.1482 -1.8035  1.6419
 6922SOL    HW232226   4.169   3.772   7.597 -1.9174 -1.5592 -0.3687
 6923SOL     OW32227   1.726   4.332   1.068  0.1652 -0.3846 -0.3509
 6923SOL    HW132228   1.659   4.318   1.001 -0.5186 -1.1156  0.4827
 6923SOL    HW232229   1.672   4.356   1.144 -1.0423 -0.6767 -1.1109
 6924SOL     OW32230   3.790   4.418   3.578  0.1543 -0.3972  0.1812
 6924SOL    HW132231   3.737   4.442   3.654  2.9088 -2.1001  2.6380
 6924SOL    HW232232   3.728   4.354   3.543  0.4947  0.1424 -1.4131
 6925SOL     OW32233   0.390   0.854   2.284 -0.6883  0.1534  0.2370
 6925SOL    HW132234   0.366   0.896   2.202 -1.6360  1.2054  1.0544
 6925SOL    HW232235   0.467   0.900   2.318 -0.8456  0.4053  0.2500
 6926SOL     OW32236   1.098   2.224   4.456  0.0249 -0.2578 -0.0568
 6926SOL    HW132237   1.140   2.169   4.391 -1.3534 -0.8599 -0.4558
 6926SOL    HW232238   1.097   2.157   4.524 -0.6845 -0.3324 -0.1359
 6927SOL     OW32239   3.180   0.373  11.063  0.1063 -0.1398 -0.1771
 6927SOL    HW132240   3.105   0.431  11.051 -0.4041 -0.3035  2.1833
 6927SOL    HW232241   3.255   0.420  11.027  1.1048 -3.3017 -2.2548
 6928SOL     OW32242   0.556   1.277   2.497  0.0474 -0.4650 -0.0939
 6928SOL    HW132243   0.594   1.297   2.582  1.6041  0.3570 -0.9726
 6928SOL    HW232244   0.491   1.348   2.492 -0.3715 -0.7467  1.5853
 6929SOL     OW32245   4.402   2.218   9.360 -0.9082  0.0009  0.0064
 6929SOL    HW132246   4.384   2.305   9.324 -0.7547 -0.2651 -0.6900
 6929SOL    HW232247   4.323   2.167   9.342 -1.0210 -0.0223  0.5543
 6930SOL     OW32248   2.468   3.211   5.258  0.4237 -0.5937 -0.4478
 6930SOL    HW132249   2.372   3.206   5.261  0.4632 -1.1152 -0.0801
 6930SOL    HW232250   2.491   3.220   5.350  0.5168  2.5021 -0.7823
 6931SOL     OW32251   0.815   2.491   1.782  0.1450  0.1559 -0.3879
 6931SOL    HW132252   0.882   2.528   1.840  0.9044  0.5808 -1.5348
 6931SOL    HW232253   0.809   2.560   1.716 -0.3557 -2.6085 -3.2645
 6932SOL     OW32254   4.666   0.307   7.795 -0.1777 -0.2704 -0.2187
 6932SOL    HW132255   0.001   0.244   7.837 -1.4165 -1.4487 -0.2451
 6932SOL    HW232256   4.579   0.279   7.823 -0.5416  0.0115 -1.0652
 6933SOL     OW32257   1.815   4.123  16.365  0.1300 -0.2846 -0.1740
 6933SOL    HW132258   1.891   4.074  16.396 -0.4582 -2.9702 -2.9847
 6933SOL    HW232259   1.779   4.160  16.446 -0.4344  2.2628 -1.5870
 6934SOL     OW32260   0.432   3.716   4.383 -0.5753 -0.6404 -0.0936
 6934SOL    HW132261   0.365   3.783   4.398 -1.8822 -2.5528  2.5792
 6934SOL    HW232262   0.510   3.765   4.355  1.9891 -5.1058 -0.7371
 6935SOL     OW32263   3.470   0.385   2.727 -0.6177 -0.0529  0.4628
 6935SOL    HW132264   3.550   0.436   2.743  0.9432 -2.3574 -0.0302
 6935SOL    HW232265   3.514   0.304   2.702 -1.3864 -0.5059  0.5875
 6936SOL     OW32266   2.650   0.402   7.208  0.9968 -0.3792 -0.2825
 6936SOL    HW132267   2.665   0.308   7.195  0.5553 -0.6047  0.8422
 6936SOL    HW232268   2.699   0.438   7.134 -2.9758  1.3736 -2.0317
 6937SOL     OW32269   0.186   3.114  15.230 -0.2275 -0.6467 -0.1521
 6937SOL    HW132270   0.180   3.051  15.158 -1.3285  0.2976 -0.8720
 6937SOL    HW232271   0.112   3.173  15.219 -1.5757 -2.0028  1.4799
 6938SOL     OW32272   3.906   1.265  14.955 -0.0739  0.5381 -0.3117
 6938SOL    HW132273   3.994   1.242  14.927 -0.0197 -0.1025  0.4011
 6938SOL    HW232274   3.875   1.326  14.888 -1.2921 -0.0304 -0.2651
 6939SOL     OW32275   0.527   0.631  11.923  0.2121 -0.0148  0.4354
 6939SOL    HW132276   0.505   0.538  11.921 -0.7757  0.2867 -2.0891
 6939SOL    HW232277   0.498   0.643  12.013 -0.5873  0.9225  0.0489
 6940SOL     OW32278   4.614   2.845   6.374 -0.6903  0.3901 -0.3201
 6940SOL    HW132279   4.558   2.908   6.328 -2.5720 -1.3738 -0.4321
 6940SOL    HW232280   4.565   2.763   6.370 -0.9173  0.5134  0.0481
 6941SOL     OW32281   1.277   0.471   0.242  0.2469 -0.1753  0.1420
 6941SOL    HW132282   1.346   0.408   0.224 -0.0036  0.0811 -1.8258
 6941SOL    HW232283   1.266   0.493   0.149 -2.6765 -0.7996  0.3129
 6942SOL     OW32284   0.680   2.361   8.783 -0.4195  0.0243  0.9499
 6942SOL    HW132285   0.735   2.438   8.799  0.9082 -0.3692 -1.8742
 6942SOL    HW232286   0.661   2.318   8.867 -0.2302 -0.1792  0.8881
 6943SOL     OW32287   2.863   1.766   4.628  0.2997  0.5175 -0.2951
 6943SOL    HW132288   2.820   1.707   4.566  1.2594  0.0084 -0.4810
 6943SOL    HW232289   2.820   1.757   4.713  1.7468  1.2908  0.5262
 6944SOL     OW32290   4.708   4.524   7.818  0.1627 -0.5577 -0.0056
 6944SOL    HW132291   0.073   4.511   7.784 -0.9916 -1.7607 -2.5110
 6944SOL    HW232292   4.655   4.499   7.743 -1.9507 -1.1247  1.6777
 6945SOL     OW32293   1.788   0.617   6.296 -0.1119  0.0430  0.0630
 6945SOL    HW132294   1.694   0.620   6.279 -0.1390  0.4306  0.2679
 6945SOL    HW232295   1.820   0.541   6.247 -1.6471  0.3084 -1.3472
 6946SOL     OW32296   1.948   2.251   7.300  0.2285 -0.6975 -0.3486
 6946SOL    HW132297   2.038   2.226   7.320 -0.3816 -3.3845 -0.9350
 6946SOL    HW232298   1.892   2.175   7.313 -1.4569  1.2759  4.0357
 6947SOL     OW32299   4.372   0.095   3.608 -0.8199  0.2014  0.4225
 6947SOL    HW132300   4.290   0.063   3.572 -0.1780  0.9583 -1.6943
 6947SOL    HW232301   4.438   0.081   3.540 -0.2645 -0.5381  1.1052
 6948SOL     OW32302   3.347   4.537   5.480 -0.5407  0.2377 -0.1693
 6948SOL    HW132303   3.439   4.541   5.454  0.0476 -0.2486  1.8092
 6948SOL    HW232304   3.339   4.477   5.554  2.4585 -0.1461 -0.1513
 6949SOL     OW32305   2.837   4.130  10.858  0.5683  0.3001  0.5006
 6949SOL    HW132306   2.743   4.133  10.840  0.2218  0.7678  2.3841
 6949SOL    HW232307   2.862   4.219  10.882 -1.0251  0.4389  1.6362
 6950SOL     OW32308   4.186   3.153  16.546 -0.1530  0.2617  0.1018
 6950SOL    HW132309   4.168   3.239  16.508 -3.0749  0.7631  2.6397
 6950SOL    HW232310   4.126   3.156  16.621 -0.5611 -0.8739 -0.1823
 6951SOL     OW32311   2.114   2.907  10.782  0.0634  0.2610 -0.1821
 6951SOL    HW132312   2.098   2.880  10.873 -0.7047  1.3851  0.0087
 6951SOL    HW232313   2.169   2.983  10.801  2.1810 -1.1976 -0.3426
 6952SOL     OW32314   1.933   3.591   5.105 -0.0762  0.5242 -0.2175
 6952SOL    HW132315   1.973   3.621   5.187  0.9833  0.5475 -0.7368
 6952SOL    HW232316   1.883   3.667   5.073  3.4621  3.2157  0.5586
 6953SOL     OW32317   4.487   0.138   4.353  0.1247 -0.1952  1.1802
 6953SOL    HW132318   4.448   0.144   4.266  0.1370 -0.7430  1.1372
 6953SOL    HW232319   4.514   0.046   4.357  0.5977 -0.2444 -3.0622
 6954SOL     OW32320   1.653   1.939  10.811  0.0180 -0.2130 -0.2957
 6954SOL    HW132321   1.559   1.943  10.827 -0.1042 -1.0177 -0.8242
 6954SOL    HW232322   1.686   1.920  10.899  0.9687  1.6909 -0.2286
 6955SOL     OW32323   2.603   4.298   2.577 -0.1833  0.0534 -0.2273
 6955SOL    HW132324   2.604   4.222   2.518 -2.4107 -0.2482  0.1258
 6955SOL    HW232325   2.611   4.358   2.503  2.0663  0.1496  0.0832
 6956SOL     OW32326   3.950   4.191  15.280  0.6092  1.1236  0.2217
 6956SOL    HW132327   3.920   4.224  15.196  0.2314  1.7875  0.6175
 6956SOL    HW232328   3.891   4.116  15.289 -0.1542  1.6459 -0.4267
 6957SOL     OW32329   0.069   2.545   9.262 -0.5185  0.2917 -0.3694
 6957SOL    HW132330   0.097   2.574   9.349 -0.9307 -0.2569 -0.0503
 6957SOL    HW232331   0.080   2.628   9.214  0.5048  0.4464  0.1242
 6958SOL     OW32332   2.669   4.508   4.780  0.5245 -0.1592  0.3937
 6958SOL    HW132333   2.663   4.535   4.689 -0.7285 -0.9237  0.2586
 6958SOL    HW232334   2.579   4.479   4.792  0.1248  0.5527 -0.9434
 6959SOL     OW32335   3.733   3.564   6.420 -0.2055  0.6622 -0.5381
 6959SOL    HW132336   3.661   3.513   6.383 -1.0130  1.4474 -0.0679
 6959SOL    HW232337   3.708   3.654   6.402  0.2047  1.0456  0.8223
 6960SOL     OW32338   0.045   3.182  10.464  0.5876 -0.2226  0.5345
 6960SOL    HW132339   4.706   3.255  10.467 -0.3975 -0.9046 -2.7943
 6960SOL    HW232340   0.125   3.233  10.454  0.4550 -0.8096 -3.5957
 6961SOL     OW32341   1.461   0.600   1.004 -0.0154  0.2463  0.1356
 6961SOL    HW132342   1.478   0.615   1.097  1.7189 -0.8388 -0.0107
 6961SOL    HW232343   1.367   0.587   1.015  0.4920 -3.7442 -0.3611
 6962SOL     OW32344   3.494   1.654   5.695 -0.2121  0.0308  0.1371
 6962SOL    HW132345   3.517   1.587   5.631  0.1141 -0.3726  0.6786
 6962SOL    HW232346   3.529   1.623   5.778 -0.1017 -3.4613 -1.2071
 6963SOL     OW32347   0.519   3.806   2.549  0.6410 -0.2093  0.1391
 6963SOL    HW132348   0.481   3.776   2.632  1.2545 -2.0954 -0.2693
 6963SOL    HW232349   0.609   3.827   2.575  0.3217  3.4184 -1.6716
 6964SOL     OW32350   1.170   3.218  10.419  0.0291  0.4091  0.1919
 6964SOL    HW132351   1.234   3.152  10.395 -0.5413  0.3666 -1.1888
 6964SOL    HW232352   1.087   3.178  10.392  1.2263 -1.0539 -1.3358
 6965SOL     OW32353   0.867   2.168   5.771  0.2557 -0.0193  0.2659
 6965SOL    HW132354   0.797   2.104   5.780  1.8266 -1.5542  1.6382
 6965SOL    HW232355   0.936   2.105   5.750  0.5768  0.0381  1.1372
 6966SOL     OW32356   1.868   1.453   5.485  0.1414  0.3459  0.4211
 6966SOL    HW132357   1.831   1.495   5.563  1.0311  1.0738  0.4483
 6966SOL    HW232358   1.952   1.431   5.524  1.2660  3.2141 -0.4348
 6967SOL     OW32359   1.821   2.527  11.931  0.4956 -0.4431  0.0923
 6967SOL    HW132360   1.892   2.532  11.995  0.1655  0.6939  0.3735
 6967SOL    HW232361   1.811   2.622  11.921 -2.0879 -0.5223  2.1994
 6968SOL     OW32362   2.202   4.002   2.508  0.0015  0.6610  0.3190
 6968SOL    HW132363   2.246   4.025   2.589  1.5615 -1.3465  0.0678
 6968SOL    HW232364   2.206   3.906   2.513 -0.3033  0.6426  0.1839
 6969SOL     OW32365   3.452   3.865   4.394  0.3236 -0.5627 -0.3136
 6969SOL    HW132366   3.481   3.838   4.480 -0.7895 -2.0772 -0.4277
 6969SOL    HW232367   3.540   3.893   4.365  1.4103 -1.5979  2.0031
 6970SOL     OW32368   0.499   1.496   7.561 -0.3264 -0.0197 -0.0841
 6970SOL    HW132369   0.568   1.431   7.547 -0.2009  0.3402 -1.1401
 6970SOL    HW232370   0.544   1.557   7.619  0.6255 -0.1007 -0.7151
 6971SOL     OW32371   1.327   0.044   2.296  0.6573  0.5207 -0.1725
 6971SOL    HW132372   1.361   0.086   2.217  1.5648 -1.0699 -0.6184
 6971SOL    HW232373   1.252   0.097   2.324  0.7370  0.8742 -0.6180
 6972SOL     OW32374   4.697   1.169   3.608  0.7657 -0.3123  0.0455
 6972SOL    HW132375   0.006   1.093   3.656  0.3375 -1.7797 -2.0009
 6972SOL    HW232376   0.055   1.219   3.598 -0.4259  1.6367  0.0516
 6973SOL     OW32377   2.391   4.702   8.082  0.8681  0.0197 -0.2158
 6973SOL    HW132378   2.378   4.642   8.156  2.9394  2.0938  1.8331
 6973SOL    HW232379   2.322   4.673   8.022  0.4529  0.3838  0.0849
 6974SOL     OW32380   4.257   2.033   6.612 -0.1150 -0.1891 -0.5316
 6974SOL    HW132381   4.210   2.055   6.693  1.8541 -1.3354  0.9189
 6974SOL    HW232382   4.347   2.043   6.643 -0.6854  1.4269  0.6076
 6975SOL     OW32383   2.491   0.389  15.309  0.4141  0.2143  0.0811
 6975SOL    HW132384   2.445   0.411  15.228  1.6790 -0.4336 -0.8240
 6975SOL    HW232385   2.426   0.415  15.374  1.2559  1.4327  0.4321
 6976SOL     OW32386   2.764   3.740   2.223  0.4144  0.1128  0.4199
 6976SOL    HW132387   2.683   3.751   2.173  0.2689 -1.4211  0.3272
 6976SOL    HW232388   2.820   3.807   2.185  0.4520  0.5187  1.1861
 6977SOL     OW32389   1.360   1.995   8.012  0.2060  0.3865 -0.2224
 6977SOL    HW132390   1.442   1.967   8.052  0.3097  0.0978 -0.6366
 6977SOL    HW232391   1.351   1.929   7.943  1.6672  1.9064 -1.8763
 6978SOL     OW32392   1.886   1.517   7.441 -0.1936  0.0843  0.0410
 6978SOL    HW132393   1.834   1.507   7.521  2.6328  0.3786  1.8856
 6978SOL    HW232394   1.964   1.565   7.468  1.6144 -2.8268 -0.0672
 6979SOL     OW32395   0.714   3.347   8.894  0.1549  0.2008  0.7549
 6979SOL    HW132396   0.793   3.369   8.942  0.6615  3.3521 -1.4340
 6979SOL    HW232397   0.730   3.254   8.881  0.8726  0.5378 -0.9062
 6980SOL     OW32398   2.745   4.294   4.479 -0.1262  0.2849  0.1155
 6980SOL    HW132399   2.792   4.213   4.457  1.3074  1.2123 -0.2281
 6980SOL    HW232400   2.822   4.350   4.484 -2.4942  3.3553  2.2900
 6981SOL     OW32401   2.991   1.865   1.708  0.1082  0.0860  0.4512
 6981SOL    HW132402   2.924   1.926   1.738 -0.2537  0.3807 -0.9735
 6981SOL    HW232403   3.008   1.909   1.625  0.8341  0.6284  0.8904
 6982SOL     OW32404   4.484   4.331   1.448 -0.6814  0.5892 -0.1304
 6982SOL    HW132405   4.409   4.384   1.473  0.0535  1.2320  0.7100
 6982SOL    HW232406   4.467   4.296   1.360 -1.3917  2.3116 -0.6649
 6983SOL     OW32407   2.044   2.750   1.360 -0.5769 -0.9113 -0.2801
 6983SOL    HW132408   2.071   2.824   1.415 -1.5684 -1.4575  0.9308
 6983SOL    HW232409   1.956   2.723   1.386  0.0959 -2.8170  0.0365
 6984SOL     OW32410   2.003   4.513   5.241 -0.1270 -0.3900  0.2063
 6984SOL    HW132411   2.091   4.477   5.243  0.5399  1.1939 -0.7826
 6984SOL    HW232412   1.975   4.467   5.162 -0.4382  0.2397 -0.0480
 6985SOL     OW32413   4.370   4.667   8.602 -0.2243  0.3564  0.5653
 6985SOL    HW132414   4.380   0.011   8.536  0.5531  0.8909  1.2237
 6985SOL    HW232415   4.276   4.678   8.613 -0.1651  0.1008  1.3419
 6986SOL     OW32416   0.406   2.970   0.784  0.1447 -0.2288 -0.0235
 6986SOL    HW132417   0.337   2.978   0.849 -1.7879 -1.3212 -1.9189
 6986SOL    HW232418   0.460   3.041   0.816 -0.3158 -0.4672  1.2867
 6987SOL     OW32419   0.704   3.124   7.279  0.3724  0.0641  0.4150
 6987SOL    HW132420   0.759   3.193   7.240  1.4777 -0.6579  0.6915
 6987SOL    HW232421   0.625   3.144   7.229  1.0568  2.6459  0.3695
 6988SOL     OW32422   0.979   2.917   0.147  0.2256 -0.4364  0.3238
 6988SOL    HW132423   1.062   2.959   0.169  0.7045 -1.3139  0.1753
 6988SOL    HW232424   1.001   2.885   0.060  1.0848 -3.6954  1.7265
 6989SOL     OW32425   0.706   4.717   1.917  0.1375  0.7726 -0.2656
 6989SOL    HW132426   0.675   0.050   1.988 -1.2554  1.3287 -1.3054
 6989SOL    HW232427   0.752   0.053   1.858  0.1215  0.3554 -0.6981
 6990SOL     OW32428   3.072   2.963  16.547  0.4321 -0.0948 -0.1252
 6990SOL    HW132429   3.000   3.016  16.581 -1.0083 -1.4039 -1.1618
 6990SOL    HW232430   3.074   2.904  16.622 -2.4233  1.4408  1.1726
 6991SOL     OW32431   3.667   1.243   8.479  0.0372 -0.3400  0.3676
 6991SOL    HW132432   3.664   1.304   8.406  1.1096  1.1332  1.5283
 6991SOL    HW232433   3.652   1.161   8.432  0.8977 -0.3251  0.0672
 6992SOL     OW32434   3.123   1.349  16.588 -0.2737 -0.7514  0.5518
 6992SOL    HW132435   3.091   1.425  16.540  0.1706 -0.6426  0.4272
 6992SOL    HW232436   3.041   1.302  16.604 -0.7528 -0.1494 -0.1632
 6993SOL     OW32437   2.359   0.775   6.641  0.2144  0.2412 -0.3713
 6993SOL    HW132438   2.343   0.855   6.692 -0.6608  1.2955 -2.2924
 6993SOL    HW232439   2.395   0.813   6.561 -1.0160  0.4420 -0.8350
 6994SOL     OW32440   2.454   1.581   2.606  0.4678  0.1438 -0.0623
 6994SOL    HW132441   2.409   1.499   2.588  1.4341  0.4021 -3.6719
 6994SOL    HW232442   2.482   1.569   2.697 -0.2406 -1.1259 -0.0129
 6995SOL     OW32443   4.062   2.226   1.364 -0.5551  0.2472 -0.6373
 6995SOL    HW132444   4.126   2.222   1.293  0.2111 -1.4245  0.1433
 6995SOL    HW232445   4.007   2.149   1.350  1.2846 -1.0228 -0.9705
 6996SOL     OW32446   2.202   2.132   6.969 -0.1662 -0.0303 -0.1288
 6996SOL    HW132447   2.109   2.145   6.989 -0.7296  0.5493 -3.1370
 6996SOL    HW232448   2.188   2.113   6.876  2.9034 -1.0487 -0.3745
 6997SOL     OW32449   1.111   3.476   5.627  0.1657 -0.3444 -0.0833
 6997SOL    HW132450   1.110   3.496   5.720  0.4647 -2.5340  0.3851
 6997SOL    HW232451   1.045   3.406   5.620 -2.0285  1.8846 -1.8636
 6998SOL     OW32452   0.405   1.085  13.060  0.4349  0.1544  0.3521
 6998SOL    HW132453   0.420   1.130  13.143 -0.7872  1.5877 -0.2076
 6998SOL    HW232454   0.481   1.026  13.058  0.3789  0.0666  0.9671
 6999SOL     OW32455   0.201   0.966   1.126  0.2710 -0.0645 -0.1240
 6999SOL    HW132456   0.231   1.036   1.068  1.4541 -1.2184 -0.9000
 6999SOL    HW232457   0.171   1.012   1.205 -0.1299  1.6085 -1.2510
 7000SOL     OW32458   1.340   2.201   3.487 -0.5011  0.0514  0.4195
 7000SOL    HW132459   1.432   2.192   3.462 -0.5392  2.0433 -0.4776
 7000SOL    HW232460   1.294   2.177   3.407  0.3163  0.2563 -0.1143
 7001SOL     OW32461   1.182   3.642   0.984  0.1634 -0.2833  0.0331
 7001SOL    HW132462   1.149   3.607   1.067  1.3183  1.7184  1.3432
 7001SOL    HW232463   1.225   3.563   0.952  1.2060  0.0568  0.5931
 7002SOL     OW32464   4.692   2.129   5.858  0.2598 -0.3697  0.4255
 7002SOL    HW132465   0.032   2.134   5.786 -0.9830 -0.9965 -0.7180
 7002SOL    HW232466   4.697   2.034   5.869 -1.4024 -0.1966  2.7040
 7003SOL     OW32467   4.519   0.045   3.390  0.2627 -0.7746 -0.3246
 7003SOL    HW132468   4.587   4.702   3.397  0.5317 -0.3325  1.2809
 7003SOL    HW232469   4.460   0.005   3.326  0.3777 -0.9177 -0.3381
 7004SOL     OW32470   1.630   3.920  11.605  0.2249 -0.0425  0.3392
 7004SOL    HW132471   1.616   3.829  11.578 -1.4031 -0.2966  1.9805
 7004SOL    HW232472   1.574   3.930  11.682  0.3166 -1.9415  0.6649
 7005SOL     OW32473   0.753   1.580   1.010 -0.0883  0.3066 -0.2558
 7005SOL    HW132474   0.796   1.653   1.056 -0.7968  0.3159  0.3950
 7005SOL    HW232475   0.791   1.508   1.061 -0.5054 -0.9220 -1.6810
 7006SOL     OW32476   4.345   4.693   1.480  0.6435 -0.9790  0.1114
 7006SOL    HW132477   4.393   4.706   1.562  0.8552  0.5275 -0.2520
 7006SOL    HW232478   4.412   4.708   1.413  1.4594 -2.5302  0.5709
 7007SOL     OW32479   2.252   2.581   9.313 -0.0591 -0.1179 -0.7956
 7007SOL    HW132480   2.274   2.489   9.299 -3.1196 -1.2191  1.5842
 7007SOL    HW232481   2.313   2.630   9.257  0.1170 -0.2498 -0.7187
 7008SOL     OW32482   0.609   1.146  14.458 -0.5885 -0.1691 -0.0579
 7008SOL    HW132483   0.684   1.114  14.508  0.1475  1.1384 -0.3525
 7008SOL    HW232484   0.595   1.238  14.476  0.2133  0.1084 -0.8263
 7009SOL     OW32485   3.833   3.733   7.157  0.0751  0.2205  0.6379
 7009SOL    HW132486   3.899   3.680   7.112 -0.7991  1.5373 -2.1618
 7009SOL    HW232487   3.867   3.822   7.148  0.8899 -0.1898 -0.3625
 7010SOL     OW32488   4.650   4.705   3.080 -0.3904  0.2983 -0.0117
 7010SOL    HW132489   4.568   0.023   3.052 -1.5424 -1.2531  1.0820
 7010SOL    HW232490   4.647   4.614   3.050 -0.0403  0.4418 -0.4905
 7011SOL     OW32491   3.424   1.356   6.970  0.2597 -0.3835 -0.2933
 7011SOL    HW132492   3.374   1.421   7.020  0.4489 -0.5361  0.0911
 7011SOL    HW232493   3.487   1.318   7.030 -0.2366 -0.5600  0.1165
 7012SOL     OW32494   0.095   0.945   2.223 -0.1466  0.1368 -0.3979
 7012SOL    HW132495   0.054   0.920   2.305 -0.9811 -1.0310 -1.1704
 7012SOL    HW232496   0.080   1.039   2.220 -0.8906 -0.0301 -2.0606
 7013SOL     OW32497   1.994   2.003   7.471  0.2796 -0.8203 -0.0465
 7013SOL    HW132498   1.970   1.921   7.513  0.3930 -1.9792 -2.2183
 7013SOL    HW232499   2.026   1.977   7.384 -0.2851 -0.7310 -0.2798
 7014SOL     OW32500   3.945   0.134   6.523  0.2488 -0.3700 -0.0589
 7014SOL    HW132501   4.009   0.076   6.564  0.1473  1.0459  2.1201
 7014SOL    HW232502   3.941   0.216   6.573 -0.0247 -0.0461 -0.6108
 7015SOL     OW32503   0.481   1.162   0.279  0.3934 -0.2609  0.0602
 7015SOL    HW132504   0.425   1.233   0.309  1.0389  0.7898 -1.2184
 7015SOL    HW232505   0.557   1.211   0.249  1.0193 -2.4261 -1.9121
 7016SOL     OW32506   0.192   3.001   3.785  0.3093  0.2499 -0.7420
 7016SOL    HW132507   0.143   3.013   3.866 -0.9619 -1.1479 -1.2934
 7016SOL    HW232508   0.125   2.953   3.737 -0.0561 -0.9891  0.9914
 7017SOL     OW32509   1.468   2.094   4.677  0.0190  0.2695 -0.2224
 7017SOL    HW132510   1.480   2.187   4.696 -0.0129 -0.2394  2.2110
 7017SOL    HW232511   1.528   2.082   4.603 -1.6091 -2.0532 -1.1638
 7018SOL     OW32512   2.388   4.567   8.981 -0.0029 -0.0523  0.5031
 7018SOL    HW132513   2.426   4.609   9.057 -1.8355  1.5956  0.5087
 7018SOL    HW232514   2.296   4.596   8.976  1.2309  3.8385  0.0980
 7019SOL     OW32515   0.819   3.909  16.152  0.2256 -0.3399 -0.1997
 7019SOL    HW132516   0.746   3.962  16.183  0.9488  0.5237  0.0260
 7019SOL    HW232517   0.824   3.851  16.227  1.1745 -0.0033 -0.0011
 7020SOL     OW32518   1.654   1.800   7.005 -0.0792 -0.2470  0.3470
 7020SOL    HW132519   1.597   1.877   7.010  0.0797 -0.2264  1.7582
 7020SOL    HW232520   1.596   1.750   6.948  2.0928 -2.0246 -0.3017
 7021SOL     OW32521   1.076   0.716  16.875  0.3142 -0.5335  0.0790
 7021SOL    HW132522   1.041   0.794  16.831 -0.3357  0.2959  2.0492
 7021SOL    HW232523   1.000   0.659  16.872  0.8191 -1.2957  1.6106
 7022SOL     OW32524   3.003   0.600  10.591  0.5417  0.2171 -0.4006
 7022SOL    HW132525   2.949   0.593  10.513  0.9112 -1.1481 -0.5270
 7022SOL    HW232526   3.073   0.535  10.578 -0.9257 -0.7950 -3.1164
 7023SOL     OW32527   3.829   0.403   8.732 -0.4713 -0.0821  0.1164
 7023SOL    HW132528   3.853   0.343   8.802 -1.1916 -0.3357  0.1461
 7023SOL    HW232529   3.840   0.485   8.779 -0.1748  0.4254 -0.8418
 7024SOL     OW32530   1.114   3.571   7.259 -0.6798 -0.2652  0.0341
 7024SOL    HW132531   1.023   3.554   7.237 -0.2706 -1.5292 -0.7336
 7024SOL    HW232532   1.151   3.526   7.183  1.0090 -1.0487  1.3031
 7025SOL     OW32533   1.094   2.995   8.916 -0.0793 -0.5772 -0.1931
 7025SOL    HW132534   1.188   2.979   8.926 -0.1491 -0.9116 -0.0734
 7025SOL    HW232535   1.065   2.906   8.932 -1.0924 -0.5382 -1.8030
 7026SOL     OW32536   2.783   0.639   5.779  0.4350  0.5146  0.3587
 7026SOL    HW132537   2.867   0.597   5.798 -0.0101 -0.5061  0.0481
 7026SOL    HW232538   2.712   0.578   5.799 -1.8870  2.8024 -0.8981
 7027SOL     OW32539   1.545   0.132   6.332 -0.2812 -0.3782  0.0945
 7027SOL    HW132540   1.464   0.171   6.302  0.3422  2.9808  2.8236
 7027SOL    HW232541   1.514   0.095   6.415 -0.3664 -0.5008  0.0071
 7028SOL     OW32542   1.264   0.973  17.193 -0.0087 -0.0665 -0.6478
 7028SOL    HW132543   1.256   0.961  17.098 -1.4508 -3.3741 -0.1120
 7028SOL    HW232544   1.206   0.900  17.214 -2.3263  1.2758 -2.3769
 7029SOL     OW32545   3.199   2.979   5.108  0.5166  0.2201  0.2685
 7029SOL    HW132546   3.124   2.930   5.142  0.3196 -0.4068 -1.0620
 7029SOL    HW232547   3.231   2.921   5.038 -0.1590  0.3184 -0.1211
 7030SOL     OW32548   1.842   1.547   6.954  0.1729 -0.0069  0.1771
 7030SOL    HW132549   1.792   1.597   7.018 -1.2044 -0.3479 -0.6492
 7030SOL    HW232550   1.789   1.467   6.957 -0.0614  0.1256 -0.5230
 7031SOL     OW32551   2.478   1.837   5.658 -0.6305 -0.1874  0.2820
 7031SOL    HW132552   2.473   1.928   5.690 -1.1933  0.3170 -1.2589
 7031SOL    HW232553   2.561   1.844   5.612 -0.1461  1.8914  1.4437
 7032SOL     OW32554   0.564   4.088  16.946  0.4567 -0.2899 -0.0830
 7032SOL    HW132555   0.473   4.105  16.972  1.2763  0.2228  2.4905
 7032SOL    HW232556   0.612   4.112  17.025  0.2689  1.1935 -0.4187
 7033SOL     OW32557   1.063   4.494   8.160 -0.7306  0.2020  0.1848
 7033SOL    HW132558   1.041   4.587   8.154  1.3006  0.7416  1.1453
 7033SOL    HW232559   0.983   4.447   8.134  1.3622 -3.5148  0.4861
 7034SOL     OW32560   1.494   1.280   2.515  0.0080 -0.0835  0.0562
 7034SOL    HW132561   1.448   1.327   2.585  0.8481 -1.6979  1.6737
 7034SOL    HW232562   1.508   1.199   2.564  0.0868  0.7509  1.4095
 7035SOL     OW32563   2.525   0.395   9.322  0.7091 -0.2240  0.3336
 7035SOL    HW132564   2.479   0.312   9.311  0.4402 -0.0837  0.3976
 7035SOL    HW232565   2.466   0.438   9.260 -2.3592 -3.9979  0.6157
 7036SOL     OW32566   3.815   4.343  17.314  0.9493 -0.1143  0.3788
 7036SOL    HW132567   3.733   4.305  17.344  0.5614 -0.2661 -0.8688
 7036SOL    HW232568   3.876   4.286  17.361  1.9074  2.3631  2.1609
 7037SOL     OW32569   1.126   3.444   5.219 -0.1838 -0.1021  0.5341
 7037SOL    HW132570   1.182   3.517   5.192 -0.4932 -0.2961 -0.6037
 7037SOL    HW232571   1.110   3.404   5.134 -0.7117  3.0430 -0.8525
 7038SOL     OW32572   1.715   0.031  10.229  0.4010  0.5506  0.4828
 7038SOL    HW132573   1.621   0.012  10.218  0.6088 -0.6123  0.8199
 7038SOL    HW232574   1.723   0.037  10.324 -1.3341 -1.3009  0.7447
 7039SOL     OW32575   0.930   0.648   7.452  0.1531  0.2863  0.3078
 7039SOL    HW132576   0.896   0.591   7.521 -1.2875  2.0823  1.0821
 7039SOL    HW232577   1.024   0.632   7.461 -0.3212 -1.9096  1.4877
 7040SOL     OW32578   1.607   0.413  15.566 -0.0392  0.2498  0.1552
 7040SOL    HW132579   1.619   0.365  15.648  3.3597  0.6788 -0.0933
 7040SOL    HW232580   1.699   0.435  15.551 -0.3092  1.4370  0.2356
 7041SOL     OW32581   1.050   2.727   4.619 -0.2903 -0.3860 -0.1104
 7041SOL    HW132582   0.972   2.675   4.603 -1.3862  1.0867  0.4471
 7041SOL    HW232583   1.023   2.781   4.693 -2.9376 -1.8039 -0.0419
 7042SOL     OW32584   0.742   4.425   5.506 -0.2793 -0.1729 -0.6689
 7042SOL    HW132585   0.755   4.370   5.429  1.4885  0.6139 -0.9462
 7042SOL    HW232586   0.723   4.508   5.461 -3.0171  0.9962  2.5843
 7043SOL     OW32587   0.897   2.041   8.762 -0.0629 -0.1951  0.1291
 7043SOL    HW132588   0.978   1.995   8.786 -1.4991 -1.7142  2.0759
 7043SOL    HW232589   0.915   2.133   8.784  0.7008 -0.2852 -0.1065
 7044SOL     OW32590   4.543   2.530  16.837 -0.1241 -0.6488 -0.0349
 7044SOL    HW132591   4.450   2.552  16.835  0.0028 -0.1974 -1.2886
 7044SOL    HW232592   4.556   2.562  16.927 -0.6033  2.0249 -0.9063
 7045SOL     OW32593   3.769   0.847  16.655  0.0989  0.7581 -0.0896
 7045SOL    HW132594   3.714   0.858  16.732 -0.6201  1.9800 -0.7803
 7045SOL    HW232595   3.843   0.904  16.675  1.4434 -1.2874  0.8026
 7046SOL     OW32596   0.545   2.970   5.098  0.3330 -0.1069 -0.2358
 7046SOL    HW132597   0.575   2.926   5.018 -0.0964  0.0857 -0.5012
 7046SOL    HW232598   0.623   2.973   5.153  0.6831  1.2960 -0.8122
 7047SOL     OW32599   4.434   2.765   8.580 -0.4422 -0.5344 -0.3810
 7047SOL    HW132600   4.440   2.847   8.629  0.3990 -0.0989 -1.2154
 7047SOL    HW232601   4.427   2.801   8.492  0.6077  0.5329 -0.0355
 7048SOL     OW32602   2.956   0.698   6.873  0.0360  0.0406 -0.1912
 7048SOL    HW132603   3.036   0.668   6.830 -0.2365 -1.1849  0.1356
 7048SOL    HW232604   2.948   0.781   6.826 -0.4020 -0.2408 -0.6227
 7049SOL     OW32605   2.519   0.687  16.751  0.3861  0.6258  0.0533
 7049SOL    HW132606   2.503   0.601  16.713  1.1306  0.9240 -0.9178
 7049SOL    HW232607   2.435   0.708  16.792 -0.5186 -0.3304 -1.3311
 7050SOL     OW32608   0.361   2.401   7.732  0.0785  0.0250  0.5858
 7050SOL    HW132609   0.317   2.452   7.664 -1.3328 -2.4488 -0.3346
 7050SOL    HW232610   0.430   2.347   7.695 -0.0222 -0.0345  0.4859
 7051SOL     OW32611   2.891   0.073   0.505 -0.4395  0.2637  0.1701
 7051SOL    HW132612   2.947   0.147   0.479  1.2380 -0.7228  0.9469
 7051SOL    HW232613   2.852   0.106   0.586 -0.1177 -2.0074  1.2353
 7052SOL     OW32614   3.186   3.613   4.722  0.2074 -0.7855 -0.2256
 7052SOL    HW132615   3.267   3.569   4.694  0.9141 -0.1790  0.8338
 7052SOL    HW232616   3.178   3.576   4.810 -2.5594  0.4484  0.0387
 7053SOL     OW32617   1.265   3.280   8.037 -0.3748 -0.3388  0.5417
 7053SOL    HW132618   1.343   3.298   8.091  0.0998 -0.0513 -0.2368
 7053SOL    HW232619   1.195   3.317   8.092 -2.4417 -2.8267 -0.4463
 7054SOL     OW32620   0.571   1.681  14.023  0.3612  0.6558 -0.0841
 7054SOL    HW132621   0.599   1.590  14.016 -0.6659  0.3939 -0.7354
 7054SOL    HW232622   0.555   1.696  14.117 -3.7174 -1.9263 -0.3750
 7055SOL     OW32623   2.081   3.729   6.999  0.2842  0.3458  0.3136
 7055SOL    HW132624   2.003   3.696   6.954  0.3314  2.0346 -0.9740
 7055SOL    HW232625   2.044   3.802   7.047 -4.0481 -1.0496 -0.9053
 7056SOL     OW32626   0.607   2.654  16.208  0.1752  0.3843 -0.1230
 7056SOL    HW132627   0.684   2.598  16.203 -0.1088  0.0762 -0.9719
 7056SOL    HW232628   0.601   2.664  16.303  1.5562 -1.1040  0.1291
 7057SOL     OW32629   2.279   2.316   1.659  0.2974 -0.0388  0.9848
 7057SOL    HW132630   2.347   2.383   1.669  0.6348 -0.1092 -0.8320
 7057SOL    HW232631   2.206   2.370   1.631  1.4954  0.5770 -0.9254
 7058SOL     OW32632   3.922   0.144   9.228 -0.8257  0.2602 -0.0615
 7058SOL    HW132633   3.849   0.173   9.284 -2.5013 -2.0811 -1.0381
 7058SOL    HW232634   3.904   0.050   9.219  0.1346  0.1718 -1.0948
 7059SOL     OW32635   3.335   1.736   5.971 -0.2455  0.1341  0.1723
 7059SOL    HW132636   3.319   1.698   5.884 -2.6686  1.3582  0.0950
 7059SOL    HW232637   3.252   1.725   6.016 -0.4637  2.1073  0.2529
 7060SOL     OW32638   3.076   2.349   3.793 -0.0666 -0.4009 -0.2108
 7060SOL    HW132639   3.098   2.430   3.747 -0.9930 -0.4239 -0.7001
 7060SOL    HW232640   3.141   2.348   3.863  0.0248 -0.7559 -0.2983
 7061SOL     OW32641   1.240   3.633  16.188  0.1451 -0.0827  0.2500
 7061SOL    HW132642   1.244   3.689  16.110  0.4041 -0.8176 -0.2580
 7061SOL    HW232643   1.208   3.695  16.254  1.1427  2.1205 -1.3496
 7062SOL     OW32644   1.278   1.659   9.136 -1.0832  0.0499 -0.0161
 7062SOL    HW132645   1.224   1.621   9.066 -0.7024  0.4902 -0.5496
 7062SOL    HW232646   1.362   1.617   9.119 -0.1831  1.7440  0.2642
 7063SOL     OW32647   2.168   4.092   2.016 -0.1503 -0.0433  0.1501
 7063SOL    HW132648   2.081   4.109   2.052 -0.3007 -0.5352  0.0092
 7063SOL    HW232649   2.209   4.176   2.039  1.6362 -0.5972 -1.0592
 7064SOL     OW32650   4.086   1.895   6.452  0.0339 -0.0738 -0.3179
 7064SOL    HW132651   4.151   1.863   6.390  2.7615  0.5621  2.2391
 7064SOL    HW232652   4.144   1.953   6.501  1.8224 -1.3231 -0.9872
 7065SOL     OW32653   0.855   1.584  14.309 -0.3438 -0.3378 -0.1218
 7065SOL    HW132654   0.813   1.504  14.340  0.4859 -1.0111 -0.7117
 7065SOL    HW232655   0.835   1.643  14.381  0.7389  1.0026 -0.9093
 7066SOL     OW32656   1.073   0.078   3.592  0.1350 -0.2651  0.2095
 7066SOL    HW132657   1.035   0.165   3.586  0.0085 -0.3409 -0.1077
 7066SOL    HW232658   1.028   0.055   3.673 -1.3863 -0.0385 -0.5674
 7067SOL     OW32659   1.736   4.493   3.533 -0.1854  0.4785 -0.0628
 7067SOL    HW132660   1.656   4.540   3.512 -1.2351 -1.2868 -0.0237
 7067SOL    HW232661   1.729   4.490   3.629  1.2848 -2.1857 -0.0362
 7068SOL     OW32662   0.412   0.924   5.338 -0.0253 -0.3591 -0.0865
 7068SOL    HW132663   0.333   0.902   5.289  1.6083 -2.4094 -1.7948
 7068SOL    HW232664   0.479   0.871   5.295  0.6949 -0.2893  0.9229
 7069SOL     OW32665   1.368   1.364   8.395  0.3862 -0.2243 -0.2880
 7069SOL    HW132666   1.388   1.366   8.301 -0.5367 -1.8215 -0.5359
 7069SOL    HW232667   1.432   1.428   8.423 -1.5022  2.0602 -1.2027
 7070SOL     OW32668   0.096   4.614   0.786  0.5341  0.8199  0.5204
 7070SOL    HW132669   0.140   4.599   0.703  0.2159 -1.2019  0.7267
 7070SOL    HW232670   0.156   4.560   0.837  0.6276 -2.2985 -2.9002
 7071SOL     OW32671   2.653   4.480  10.789  0.3863  0.1249  0.0556
 7071SOL    HW132672   2.747   4.471  10.774  0.3784 -0.6807  0.5213
 7071SOL    HW232673   2.667   4.522  10.874 -0.3804 -2.0258  1.2218
 7072SOL     OW32674   3.982   1.471   9.450 -0.1156  0.3806  0.6906
 7072SOL    HW132675   3.995   1.506   9.362  1.2422 -2.0942 -0.0901
 7072SOL    HW232676   4.072   1.449   9.475  0.4982  0.9121 -1.0631
 7073SOL     OW32677   3.108   1.769   6.264  0.6955  0.1633 -0.1149
 7073SOL    HW132678   3.082   1.849   6.218 -2.8792 -0.2172  1.2805
 7073SOL    HW232679   3.056   1.770   6.344 -1.4292  0.3476 -1.5102
 7074SOL     OW32680   1.171   2.446   4.254 -0.2340  0.0377 -0.1914
 7074SOL    HW132681   1.162   2.351   4.242  1.2467 -0.3475  1.8357
 7074SOL    HW232682   1.169   2.458   4.349  1.9181 -0.8345 -0.0457
 7075SOL     OW32683   3.939   4.030   5.178 -0.2906  0.0259  0.0508
 7075SOL    HW132684   3.922   4.071   5.092  0.6235 -0.0378 -0.1554
 7075SOL    HW232685   3.915   3.940   5.155  0.3691 -0.5129  1.4924
 7076SOL     OW32686   0.925   4.180  11.253 -0.5955  0.0562 -0.2428
 7076SOL    HW132687   0.908   4.131  11.333 -0.4127 -2.1471 -1.5414
 7076SOL    HW232688   0.858   4.165  11.186  0.7779 -1.2462 -1.3411
 7077SOL     OW32689   2.925   0.044   6.598 -0.1910 -0.0436  0.2580
 7077SOL    HW132690   3.000   0.092   6.633 -1.8248  1.6741  1.4505
 7077SOL    HW232691   2.904   4.715   6.675  0.1289  2.1735  1.8714
 7078SOL     OW32692   2.163   2.496  11.157 -0.2227  0.2763  0.4713
 7078SOL    HW132693   2.201   2.495  11.069 -0.8483  0.9044  0.1898
 7078SOL    HW232694   2.076   2.520  11.124  0.3743  3.5897  1.2665
 7079SOL     OW32695   0.248   1.282   5.083 -0.0683  0.2603 -0.4055
 7079SOL    HW132696   0.329   1.268   5.035  0.9091  1.7520  0.8405
 7079SOL    HW232697   0.272   1.357   5.137  0.7934  0.5489 -1.1966
 7080SOL     OW32698   2.827   0.083  12.408  0.0851 -0.4885 -0.0342
 7080SOL    HW132699   2.922   0.088  12.405 -0.0403  1.0772 -1.2916
 7080SOL    HW232700   2.822   0.153  12.473  1.9654  1.2384 -1.7612
 7081SOL     OW32701   0.518   2.099   5.976  0.8185  0.1204  0.4847
 7081SOL    HW132702   0.466   2.151   5.915  2.9942  1.0368 -0.6109
 7081SOL    HW232703   0.451   2.088   6.042 -0.2195 -0.8437 -0.7260
 7082SOL     OW32704   1.448   0.443   7.126 -0.1726 -0.4036 -0.4289
 7082SOL    HW132705   1.362   0.406   7.144  0.1684 -0.6447  0.7080
 7082SOL    HW232706   1.423   0.510   7.063 -1.1731 -0.6181 -0.2547
 7083SOL     OW32707   1.321   4.242   5.809 -0.2282 -0.6106  0.2009
 7083SOL    HW132708   1.300   4.301   5.737 -0.0564 -1.3509 -0.4511
 7083SOL    HW232709   1.231   4.217   5.829  0.0114 -1.2513  0.5001
 7084SOL     OW32710   0.220   0.651   2.676  0.3159  0.2189 -0.0264
 7084SOL    HW132711   0.196   0.738   2.708 -0.9541  0.1121 -0.6596
 7084SOL    HW232712   0.133   0.610   2.682 -1.1248  3.1158 -1.1438
 7085SOL     OW32713   4.072   3.243  15.720  0.2643 -0.6460  0.1284
 7085SOL    HW132714   4.138   3.175  15.707  0.7310 -0.3623  1.0512
 7085SOL    HW232715   4.046   3.207  15.805 -1.4179  1.8584  0.6743
 7086SOL     OW32716   2.419   1.278   5.104  0.0589 -0.0778 -0.2273
 7086SOL    HW132717   2.456   1.333   5.035 -2.7893  0.3614 -1.3855
 7086SOL    HW232718   2.354   1.340   5.135  0.1404 -0.2808  0.3609
 7087SOL     OW32719   4.458   0.660   7.948 -0.1745  0.3501 -0.4421
 7087SOL    HW132720   4.527   0.618   8.000  0.8435 -0.4635 -2.4372
 7087SOL    HW232721   4.382   0.602   7.957  2.1394 -2.3672  1.8087
 7088SOL     OW32722   2.447   2.654  15.392  0.2295  0.0599  0.0932
 7088SOL    HW132723   2.392   2.581  15.365  1.5733 -1.5613  1.7146
 7088SOL    HW232724   2.377   2.709  15.429  0.5158 -0.3366  1.2373
 7089SOL     OW32725   3.798   0.306   3.431 -0.6021 -0.6594 -0.7763
 7089SOL    HW132726   3.774   0.378   3.373  0.4989  1.1324  1.0005
 7089SOL    HW232727   3.890   0.325   3.450 -0.7117 -1.4551  0.5312
 7090SOL     OW32728   1.025   0.484   9.543 -0.1213  0.5398 -0.5452
 7090SOL    HW132729   1.071   0.568   9.547 -1.0334  1.0351 -0.5595
 7090SOL    HW232730   1.000   0.483   9.635  0.5709  1.2478 -0.3515
 7091SOL     OW32731   4.087   4.687   0.139  0.3411  0.7065 -0.2457
 7091SOL    HW132732   4.011   0.018   0.160  0.0857 -0.5117  1.9553
 7091SOL    HW232733   4.092   4.640   0.222  0.6087  0.2218 -0.5376
 7092SOL     OW32734   3.670   1.489   6.172  0.1743 -0.5790  0.2289
 7092SOL    HW132735   3.639   1.579   6.160 -0.7492 -0.8205  0.7562
 7092SOL    HW232736   3.626   1.467   6.254 -0.0981 -1.4565 -0.1515
 7093SOL     OW32737   1.581   2.003   7.690  0.2204 -0.5752 -0.2137
 7093SOL    HW132738   1.629   1.948   7.628 -1.1532 -2.5709  0.4970
 7093SOL    HW232739   1.615   1.985   7.778 -1.4636  0.9189  0.7462
 7094SOL     OW32740   0.419   4.489  12.621  0.6690  0.2877 -0.1635
 7094SOL    HW132741   0.401   4.541  12.543  1.8414  1.8715  0.6048
 7094SOL    HW232742   0.341   4.433  12.620  1.3181 -0.6444  1.1385
 7095SOL     OW32743   2.248   4.030   3.109  0.1314  0.1099 -0.2588
 7095SOL    HW132744   2.231   3.959   3.046  0.0744  0.2790 -0.4357
 7095SOL    HW232745   2.280   3.986   3.187 -0.9063  0.6426  0.4752
 7096SOL     OW32746   2.747   2.597   2.642  0.6498 -0.6653 -0.3596
 7096SOL    HW132747   2.691   2.594   2.565  0.7451  1.7573 -0.5357
 7096SOL    HW232748   2.739   2.515   2.690 -0.0817 -0.4465 -0.1109
 7097SOL     OW32749   0.671   2.130   7.074 -0.1165  0.4123 -0.4527
 7097SOL    HW132750   0.677   2.154   6.981  0.7305  1.6681 -0.0729
 7097SOL    HW232751   0.579   2.107   7.088  0.7296 -0.8145  3.0231
 7098SOL     OW32752   3.483   2.133   1.820 -0.1959 -0.2447  0.2027
 7098SOL    HW132753   3.408   2.192   1.816  0.3788  0.4028 -1.0574
 7098SOL    HW232754   3.469   2.078   1.743  1.8772 -1.6924  0.8560
 7099SOL     OW32755   4.541   4.660   6.605  0.2365 -0.3581  0.3834
 7099SOL    HW132756   4.604   4.687   6.539 -0.9257  0.2078 -0.4958
 7099SOL    HW232757   4.483   0.013   6.593 -0.1681 -0.6098  0.7139
 7100SOL     OW32758   0.359   4.501  12.921 -0.0430 -0.3028 -0.3503
 7100SOL    HW132759   0.385   4.588  12.950  0.2278 -0.4115 -0.2715
 7100SOL    HW232760   0.368   4.507  12.826  1.6197  2.1424 -0.0385
 7101SOL     OW32761   2.050   4.012  10.115  0.2780  0.1445 -0.0205
 7101SOL    HW132762   2.021   4.054  10.196  2.8083 -1.1479  1.6055
 7101SOL    HW232763   2.009   3.926  10.125 -0.4332  0.5138  0.1811
 7102SOL     OW32764   1.339   0.594   6.034 -0.5380  0.1182 -0.5412
 7102SOL    HW132765   1.279   0.666   6.015 -0.7415  0.2189  0.4764
 7102SOL    HW232766   1.287   0.536   6.090 -0.6356  0.0126 -0.7414
 7103SOL     OW32767   2.163   1.840   4.472  0.3349  0.3744 -0.4454
 7103SOL    HW132768   2.194   1.847   4.562 -1.8245  1.0586  0.2341
 7103SOL    HW232769   2.233   1.781   4.446  0.2958 -0.7573  2.0108
 7104SOL     OW32770   3.451   2.740   4.645 -0.3803  0.6972  0.8269
 7104SOL    HW132771   3.448   2.815   4.585  0.5594  0.8605  0.9857
 7104SOL    HW232772   3.360   2.711   4.654 -0.1259 -0.7852 -1.2623
 7105SOL     OW32773   0.753   4.053  10.811 -0.0911 -0.2718 -0.0088
 7105SOL    HW132774   0.708   3.973  10.783 -2.4932  0.6961  1.1038
 7105SOL    HW232775   0.717   4.067  10.899  0.9871 -1.7713  0.6796
 7106SOL     OW32776   3.361   4.660   7.376  0.2766  0.0838  0.0587
 7106SOL    HW132777   3.449   4.665   7.415 -1.5396  0.4956  4.0789
 7106SOL    HW232778   3.357   4.568   7.353 -0.6030 -0.1045  1.0059
 7107SOL     OW32779   3.806   1.076   9.523 -0.0119 -0.3273 -0.2385
 7107SOL    HW132780   3.893   1.045   9.548 -0.2023 -0.4395  0.2811
 7107SOL    HW232781   3.815   1.119   9.438  0.1664 -0.0613 -0.0854
 7108SOL     OW32782   3.976   0.349   4.305 -0.2091  0.4198 -0.1457
 7108SOL    HW132783   3.999   0.396   4.225 -1.6000 -0.8864 -1.3137
 7108SOL    HW232784   4.041   0.280   4.293 -0.9804 -0.4914  0.8761
 7109SOL     OW32785   4.373   4.187   9.109  0.8900 -0.0869  0.1059
 7109SOL    HW132786   4.448   4.143   9.068  1.8178  0.3868  1.3086
 7109SOL    HW232787   4.392   4.277   9.084  2.4873  0.0042  1.6509
 7110SOL     OW32788   0.679   3.966   8.410 -0.4314  0.4713 -0.1416
 7110SOL    HW132789   0.715   4.054   8.412 -0.7844  0.5888  1.4473
 7110SOL    HW232790   0.757   3.912   8.398 -0.3571  0.9580 -1.7474
 7111SOL     OW32791   2.289   3.146   1.448  0.2487 -0.3739  0.1453
 7111SOL    HW132792   2.240   3.224   1.423  2.1345  1.5309  2.4393
 7111SOL    HW232793   2.366   3.152   1.392  1.8033  1.0686  2.4102
 7112SOL     OW32794   0.515   3.737   8.588  0.0132  0.2102  0.3030
 7112SOL    HW132795   0.598   3.784   8.593 -1.2562  2.7599 -2.7656
 7112SOL    HW232796   0.544   3.646   8.578  0.0315  0.1610  0.8110
 7113SOL     OW32797   3.857   1.535  17.484  0.5516 -0.2197 -0.1733
 7113SOL    HW132798   3.857   1.630  17.471 -1.4115 -0.2349 -0.2272
 7113SOL    HW232799   3.821   1.528  17.572  2.0310  0.3095  0.4816
 7114SOL     OW32800   4.086   2.723  13.813  0.0930  0.0712  0.1886
 7114SOL    HW132801   4.005   2.693  13.854  0.1338 -0.7731 -0.3663
 7114SOL    HW232802   4.117   2.796  13.867 -0.3660  0.1291  0.3739
 7115SOL     OW32803   2.439   4.633  10.033 -0.0694  0.2044  0.1016
 7115SOL    HW132804   2.344   4.618  10.032 -0.0711  0.2443 -0.4700
 7115SOL    HW232805   2.455   4.555  10.086  0.0549 -0.3739 -0.7773
 7116SOL     OW32806   3.905   3.381  17.281  0.1072  0.3997 -0.3237
 7116SOL    HW132807   3.892   3.469  17.248  1.2437  1.0360  0.9086
 7116SOL    HW232808   3.830   3.363  17.336  1.3884 -0.6482  1.0846
 7117SOL     OW32809   2.241   1.969   2.835  0.4797 -0.0636  0.0616
 7117SOL    HW132810   2.322   1.966   2.885 -1.3420  2.9480  3.2792
 7117SOL    HW232811   2.250   1.892   2.779  0.8619 -1.2179  1.6928
 7118SOL     OW32812   3.548   4.534   6.838  0.2444 -0.0562 -0.3358
 7118SOL    HW132813   3.602   4.490   6.771  0.0261  0.0289 -0.5678
 7118SOL    HW232814   3.540   4.616   6.790  0.3015 -0.6185 -1.3102
 7119SOL     OW32815   1.446   3.841   1.578 -0.6829 -0.1278  0.3072
 7119SOL    HW132816   1.506   3.783   1.625  0.2754  0.9957  0.4813
 7119SOL    HW232817   1.393   3.875   1.650  0.6352  0.4304  1.0216
 7120SOL     OW32818   2.405   1.104   2.169 -0.1278  0.1897  0.0636
 7120SOL    HW132819   2.397   1.133   2.260  2.4432 -0.5570  0.5190
 7120SOL    HW232820   2.451   1.020   2.163 -0.0133  0.2531  0.0511
 7121SOL     OW32821   0.344   1.410   9.558 -0.6838  0.3718 -0.4950
 7121SOL    HW132822   0.424   1.419   9.507 -0.1541  2.7246  0.7506
 7121SOL    HW232823   0.358   1.481   9.621 -1.2880 -0.3416  0.4466
 7122SOL     OW32824   2.538   3.998   7.079  0.0181 -0.4461 -0.0012
 7122SOL    HW132825   2.597   3.962   7.013  1.2181  0.4869  0.5557
 7122SOL    HW232826   2.607   4.055   7.112  0.1915 -0.9306  0.4626
 7123SOL     OW32827   1.583   2.394   5.014 -0.0357 -0.4086 -0.5033
 7123SOL    HW132828   1.653   2.455   4.991  0.1866 -0.2923  0.4766
 7123SOL    HW232829   1.508   2.449   5.037 -1.4230 -1.6697 -1.9508
 7124SOL     OW32830   3.109   1.624   2.829  0.0325 -0.0582  0.2658
 7124SOL    HW132831   3.173   1.554   2.816 -0.5708 -0.6031  0.2399
 7124SOL    HW232832   3.050   1.587   2.895  1.4533 -2.9148 -0.0608
 7125SOL     OW32833   4.011   2.515  11.321  0.2659 -0.2908 -0.2111
 7125SOL    HW132834   3.971   2.430  11.307 -0.3315  0.0172 -0.3864
 7125SOL    HW232835   3.934   2.559  11.286  0.8125 -0.1408 -1.2283
 7126SOL     OW32836   1.471   3.050   7.157  0.1869 -0.1231 -0.1582
 7126SOL    HW132837   1.435   3.100   7.084 -0.6064 -1.0005 -0.3711
 7126SOL    HW232838   1.564   3.072   7.150  0.1424 -0.2147 -1.1352
 7127SOL     OW32839   4.490   3.702  15.518 -0.0952 -0.2146  0.2397
 7127SOL    HW132840   4.440   3.635  15.471  1.3647 -1.7487  0.8854
 7127SOL    HW232841   4.472   3.676  15.608 -0.4588 -0.4234  0.1104
 7128SOL     OW32842   1.156   1.155   1.044  0.4975  0.3157 -0.4482
 7128SOL    HW132843   1.247   1.149   1.014 -0.0869 -0.9077 -1.9636
 7128SOL    HW232844   1.137   1.249   1.039 -0.9413  0.0283 -0.3181
 7129SOL     OW32845   4.233   1.652   1.966 -0.5986 -0.3359  0.3458
 7129SOL    HW132846   4.323   1.673   1.990 -1.3600 -0.5891  3.4332
 7129SOL    HW232847   4.230   1.641   1.871  0.5954  2.1274  0.0251
 7130SOL     OW32848   0.880   1.012  17.471  0.0431  0.9794 -0.5635
 7130SOL    HW132849   0.850   1.047  17.388 -0.9733 -0.1787 -0.6848
 7130SOL    HW232850   0.819   0.938  17.473 -0.1182  1.1414  0.3259
 7131SOL     OW32851   0.532   2.227   7.581 -0.5991  0.0848 -0.4623
 7131SOL    HW132852   0.566   2.141   7.557  0.4586  0.0132  1.3425
 7131SOL    HW232853   0.527   2.273   7.497  2.6206  1.7659  0.2571
 7132SOL     OW32854   2.616   4.034   2.959  0.0024 -0.0361 -0.0259
 7132SOL    HW132855   2.696   4.084   2.945  1.3575 -2.7738 -2.0808
 7132SOL    HW232856   2.652   3.949   2.984 -0.2746  1.4120  5.2478
 7133SOL     OW32857   0.346   4.412   4.418  0.0938 -0.2357 -0.2269
 7133SOL    HW132858   0.431   4.390   4.456 -0.5870 -0.0914  1.3934
 7133SOL    HW232859   0.392   4.448   4.343  2.7524 -0.5139  1.2571
 7134SOL     OW32860   2.888   0.093   5.022 -0.0937  0.2190 -0.2505
 7134SOL    HW132861   2.893   0.188   5.028  1.5408  0.1364 -0.3335
 7134SOL    HW232862   2.949   0.065   5.090 -0.8761 -0.0573  0.3460
 7135SOL     OW32863   0.575   2.030   3.269 -0.3555  0.3188 -0.2117
 7135SOL    HW132864   0.588   1.956   3.210  1.0887  0.8588 -0.5848
 7135SOL    HW232865   0.605   2.098   3.208 -1.5655  1.5986  0.6308
 7136SOL     OW32866   1.951   2.127  14.551  0.4018 -0.2475  0.3038
 7136SOL    HW132867   1.916   2.185  14.483 -2.4835  0.5898  2.5389
 7136SOL    HW232868   1.914   2.052  14.505 -1.2503 -0.3675  1.8507
 7137SOL     OW32869   2.902   0.392  15.137 -0.3219  0.0461  0.0571
 7137SOL    HW132870   2.845   0.449  15.189 -0.1319  2.2270 -2.1243
 7137SOL    HW232871   2.985   0.419  15.176 -0.7638  0.0742  0.9817
 7138SOL     OW32872   0.330   1.073  10.367  0.5964 -0.4075 -0.0387
 7138SOL    HW132873   0.377   1.133  10.308 -2.6407 -0.3974 -2.6076
 7138SOL    HW232874   0.341   0.990  10.321  0.3130 -0.5268  0.1118
 7139SOL     OW32875   2.645   0.284  15.688  0.3259 -0.2301 -0.1724
 7139SOL    HW132876   2.666   0.197  15.721  1.9294 -0.3310 -1.4929
 7139SOL    HW232877   2.684   0.286  15.601  0.4167 -2.4606 -0.1821
 7140SOL     OW32878   0.592   0.979   2.445  0.4587 -0.6839  0.0283
 7140SOL    HW132879   0.621   0.956   2.533  0.3475 -1.0770 -0.0396
 7140SOL    HW232880   0.601   1.074   2.449  0.8590 -0.7835  1.3504
 7141SOL     OW32881   4.474   2.149   3.542  0.0124  0.3409  0.0134
 7141SOL    HW132882   4.490   2.195   3.624  0.0391 -2.0804  1.3759
 7141SOL    HW232883   4.518   2.064   3.548 -1.7259 -0.5594  0.0065
 7142SOL     OW32884   0.656   1.090   2.038  0.0261 -0.5533  0.0195
 7142SOL    HW132885   0.617   1.156   2.096 -1.8649 -3.2836  1.8443
 7142SOL    HW232886   0.727   1.144   2.005 -1.4535  1.2490 -0.1994
 7143SOL     OW32887   1.880   4.258   5.528  0.0570 -0.5828  0.2019
 7143SOL    HW132888   1.860   4.172   5.489  0.2420 -0.0552 -1.0632
 7143SOL    HW232889   1.831   4.311   5.465  0.3254 -2.9715 -2.0279
 7144SOL     OW32890   4.691   3.356   4.512  0.1462 -0.7172  0.4460
 7144SOL    HW132891   4.715   3.286   4.452  0.8667  0.5702 -0.7764
 7144SOL    HW232892   4.674   3.301   4.588 -2.0113 -0.8037 -0.0988
 7145SOL     OW32893   4.585   0.258  14.207 -0.3663  0.1410 -0.3031
 7145SOL    HW132894   4.553   0.344  14.234 -0.9985 -0.4663  0.8842
 7145SOL    HW232895   4.552   0.232  14.121 -3.0377  2.1155  0.1258
 7146SOL     OW32896   3.495   2.419   5.598 -0.5613  0.1355  0.2544
 7146SOL    HW132897   3.469   2.422   5.690  2.1575 -0.4219  1.0473
 7146SOL    HW232898   3.449   2.492   5.557  0.7865  0.4779 -0.6497
 7147SOL     OW32899   1.362   0.207   3.267 -0.2614 -0.6421 -0.3726
 7147SOL    HW132900   1.398   0.120   3.253 -0.0854 -0.7604  0.8413
 7147SOL    HW232901   1.375   0.227   3.174 -0.2837 -0.2297 -0.2899
 7148SOL     OW32902   3.381   3.700   2.269  0.2122  0.8705 -0.2860
 7148SOL    HW132903   3.349   3.664   2.352 -1.7311  0.9980 -0.9829
 7148SOL    HW232904   3.299   3.704   2.221  0.0267 -2.4238 -0.2652
 7149SOL     OW32905   2.888   1.611   5.195 -0.0939  0.4602  0.4451
 7149SOL    HW132906   2.971   1.572   5.165 -0.9727 -2.3108  1.6083
 7149SOL    HW232907   2.831   1.598   5.119  0.1235 -2.5279  0.7866
 7150SOL     OW32908   0.222   2.203   9.023  0.2799  0.5394 -0.2313
 7150SOL    HW132909   0.128   2.219   9.027  0.1833  0.4596 -1.8752
 7150SOL    HW232910   0.247   2.222   9.113 -1.3729 -0.0684  0.3473
 7151SOL     OW32911   2.824   2.138   7.896  0.5650  0.3375 -0.4862
 7151SOL    HW132912   2.779   2.088   7.964  1.9082  0.7920  0.7508
 7151SOL    HW232913   2.783   2.223   7.916  0.3318 -0.0549  0.6863
 7152SOL     OW32914   2.384   0.028  14.236 -0.4836 -0.1133 -0.2769
 7152SOL    HW132915   2.423   0.115  14.235  1.7841 -1.1347  0.6357
 7152SOL    HW232916   2.379   0.001  14.145 -2.5091 -1.3178  0.1773
 7153SOL     OW32917   0.962   2.467  15.773 -0.1542  0.2885 -0.2466
 7153SOL    HW132918   0.976   2.431  15.686  1.0709 -1.2413  0.5789
 7153SOL    HW232919   1.002   2.400  15.830 -0.6671 -0.1509 -0.4007
 7154SOL     OW32920   0.971   4.636  14.368  0.2874  0.0021 -0.0359
 7154SOL    HW132921   0.939   4.637  14.458  0.6103 -1.2019  0.0979
 7154SOL    HW232922   0.911   4.690  14.316 -0.8876  1.1196  2.4666
 7155SOL     OW32923   3.254   4.217   3.473 -0.1787 -0.2785  0.2865
 7155SOL    HW132924   3.245   4.122   3.481 -1.0877 -0.3305 -1.1920
 7155SOL    HW232925   3.339   4.229   3.514  0.6616 -1.4913 -1.1204
 7156SOL     OW32926   4.494   3.211   6.345 -0.1701  0.7449  0.3828
 7156SOL    HW132927   4.493   3.266   6.424  0.6155 -0.9767  1.6053
 7156SOL    HW232928   4.586   3.221   6.322 -0.3739  1.4336 -0.1248
 7157SOL     OW32929   3.014   2.524  12.753 -0.1430  0.2004  0.7267
 7157SOL    HW132930   3.038   2.435  12.729 -1.5508  0.1213 -0.3484
 7157SOL    HW232931   3.096   2.536  12.802  1.0085  0.2658 -1.2204
 7158SOL     OW32932   2.101   1.708   6.888 -0.1783  0.2471 -0.2186
 7158SOL    HW132933   2.061   1.657   6.817 -0.0070 -0.3354  0.1019
 7158SOL    HW232934   2.035   1.773   6.911 -2.3448 -2.2736  0.6301
 7159SOL     OW32935   1.457   0.212   3.015  0.2565 -0.3179 -0.2733
 7159SOL    HW132936   1.506   0.131   2.999  1.7803  0.4489  0.5044
 7159SOL    HW232937   1.512   0.282   2.979  0.5007 -0.6619 -0.5653
 7160SOL     OW32938   4.168   0.069   0.677 -0.3926  0.3151  0.0020
 7160SOL    HW132939   4.144   0.105   0.592 -2.4790 -0.8808  0.0814
 7160SOL    HW232940   4.113   0.119   0.738  1.0787  1.8568  0.0828
 7161SOL     OW32941   2.206   4.071   5.857 -0.2747  0.2638 -0.1049
 7161SOL    HW132942   2.183   4.123   5.934 -1.4550 -0.6392  0.1527
 7161SOL    HW232943   2.192   4.143   5.795 -1.2018  1.6659  1.7480
 7162SOL     OW32944   0.089   1.264  15.144 -0.0943 -0.8507 -0.1599
 7162SOL    HW132945   0.036   1.230  15.216 -0.7666 -0.2866 -0.3876
 7162SOL    HW232946   0.013   1.287  15.090  0.7432 -0.8460 -1.3367
 7163SOL     OW32947   1.661   0.604   0.747 -0.3387 -0.7658  0.3540
 7163SOL    HW132948   1.728   0.670   0.764 -2.3513  1.6635 -1.0986
 7163SOL    HW232949   1.715   0.526   0.761  0.5093  0.0262  1.5637
 7164SOL     OW32950   3.523   4.290  11.211 -0.1873 -0.4424 -0.3230
 7164SOL    HW132951   3.543   4.250  11.295 -0.5793  2.8228  1.3373
 7164SOL    HW232952   3.598   4.349  11.200 -0.3844 -0.1455 -0.0715
 7165SOL     OW32953   0.805   1.731   9.574  0.1672  0.2006  0.7875
 7165SOL    HW132954   0.761   1.677   9.640  0.0597 -2.4111 -1.4192
 7165SOL    HW232955   0.742   1.803   9.562 -1.7531 -1.8089 -1.1121
 7166SOL     OW32956   4.211   2.459   3.731 -0.1340  0.0438  0.0065
 7166SOL    HW132957   4.235   2.370   3.704  0.6560 -0.1997  1.4620
 7166SOL    HW232958   4.116   2.463   3.742 -0.1662 -3.7388  1.1414
 7167SOL     OW32959   1.454   4.172  13.572  0.2502 -0.7914 -0.3894
 7167SOL    HW132960   1.428   4.181  13.481  0.4731 -2.4589 -0.6063
 7167SOL    HW232961   1.385   4.216  13.622 -1.0789 -1.2790 -1.8025
 7168SOL     OW32962   0.318   0.850   3.472  0.7212  0.0831 -0.2854
 7168SOL    HW132963   0.336   0.931   3.423  0.7782  0.0116 -0.3854
 7168SOL    HW232964   0.408   0.818   3.478  0.0280 -2.1630 -1.8371
 7169SOL     OW32965   1.332   0.664  13.489  0.0339 -0.1306 -0.6081
 7169SOL    HW132966   1.375   0.742  13.453  3.0033 -1.0178  1.0585
 7169SOL    HW232967   1.347   0.591  13.429 -1.2028  0.1833 -1.2984
 7170SOL     OW32968   4.291   2.527   3.994  0.6359 -0.0063 -0.3902
 7170SOL    HW132969   4.255   2.499   3.910 -0.2759 -2.2009  0.7307
 7170SOL    HW232970   4.378   2.488   4.006  0.8728  0.8152  0.5535
 7171SOL     OW32971   2.762   1.690   9.051  0.6037  0.5735  0.3785
 7171SOL    HW132972   2.678   1.650   9.073  1.0809  0.9264  2.8541
 7171SOL    HW232973   2.733   1.779   9.030  1.8387  1.2027  1.2976
 7172SOL     OW32974   0.322   1.819   2.448 -0.0497  0.3652  0.2956
 7172SOL    HW132975   0.241   1.822   2.398 -0.7734  1.0926  1.5012
 7172SOL    HW232976   0.298   1.777   2.531 -1.5064  1.8594  0.6285
 7173SOL     OW32977   1.004   0.807   1.213  0.3084 -0.3097 -0.3893
 7173SOL    HW132978   0.909   0.806   1.221  0.3262  2.3664  0.1258
 7173SOL    HW232979   1.026   0.753   1.288 -1.2232  0.0420  0.3207
 7174SOL     OW32980   4.059   3.777   5.504 -0.1774 -0.2468  0.6130
 7174SOL    HW132981   4.048   3.714   5.432  2.4108 -0.3881  0.3705
 7174SOL    HW232982   3.975   3.822   5.496  0.4691  0.9910  0.7875
 7175SOL     OW32983   0.694   2.247   1.859  0.0021 -0.8693 -0.0441
 7175SOL    HW132984   0.703   2.340   1.841  1.6584 -1.1538 -0.6754
 7175SOL    HW232985   0.686   2.217   1.768 -0.1195 -1.5622  0.1911
 7176SOL     OW32986   3.103   3.722   6.520  0.2338 -0.9950  0.0357
 7176SOL    HW132987   3.066   3.693   6.603 -1.9064  0.6296 -0.3612
 7176SOL    HW232988   3.023   3.728   6.468 -0.5289 -0.8163  1.2228
 7177SOL     OW32989   1.696   3.736   7.856  0.2618  0.2355  0.2627
 7177SOL    HW132990   1.717   3.826   7.832  0.0326  0.1232 -0.3455
 7177SOL    HW232991   1.652   3.746   7.941  2.1384 -0.8768  1.3619
 7178SOL     OW32992   2.789   0.277  12.170 -0.4385  0.0994  0.0378
 7178SOL    HW132993   2.758   0.307  12.085  1.4122  1.0054 -0.3304
 7178SOL    HW232994   2.836   0.200  12.135 -2.8687 -2.4479  2.3670
 7179SOL     OW32995   3.876   4.095  16.948 -0.0698  0.4350  0.2216
 7179SOL    HW132996   3.873   4.004  16.978 -2.0508  0.3642 -0.1815
 7179SOL    HW232997   3.890   4.079  16.854 -0.5700 -2.4817  0.6290
 7180SOL     OW32998   0.643   2.736   7.676  0.0683 -0.0678  0.0756
 7180SOL    HW132999   0.677   2.651   7.706 -0.9706 -0.3632  0.4213
 7180SOL    HW233000   0.556   2.735   7.715 -0.5375 -3.2319 -1.3816
 7181SOL     OW33001   4.129   3.357   0.844 -0.4838 -0.2805  0.1247
 7181SOL    HW133002   4.089   3.305   0.913  2.7375 -0.8843  1.5272
 7181SOL    HW233003   4.108   3.305   0.767  0.3135 -0.4631  0.0322
 7182SOL     OW33004   0.601   0.969  10.124 -0.0282 -0.1509 -0.2988
 7182SOL    HW133005   0.619   0.904  10.056  1.6652  0.6486 -0.6251
 7182SOL    HW233006   0.582   0.915  10.200 -0.6815  0.1475 -0.2510
 7183SOL     OW33007   0.150   3.714   3.133 -0.4469 -0.3924 -0.0297
 7183SOL    HW133008   0.153   3.747   3.044 -0.5021 -0.7548 -0.1669
 7183SOL    HW233009   0.065   3.746   3.164 -0.5158 -1.6970  1.1540
 7184SOL     OW33010   0.501   2.155   6.269 -0.8393 -0.2270 -0.0098
 7184SOL    HW133011   0.420   2.176   6.222 -1.6966 -4.9329 -0.6186
 7184SOL    HW233012   0.485   2.067   6.305 -1.3106  0.3510  1.1874
 7185SOL     OW33013   2.448   1.889   2.983  0.1446 -0.0385  0.0054
 7185SOL    HW133014   2.532   1.933   2.997  0.7920 -0.7585 -1.5908
 7185SOL    HW233015   2.450   1.824   3.053  0.1551 -1.4561 -1.3261
 7186SOL     OW33016   1.543   4.239   6.650  0.0957 -0.6688 -0.1240
 7186SOL    HW133017   1.545   4.160   6.596  1.2736  1.6506 -3.5329
 7186SOL    HW233018   1.531   4.310   6.587 -0.3532 -0.4458  0.2183
 7187SOL     OW33019   0.653   1.902   6.074  0.1174 -0.1211 -0.1095
 7187SOL    HW133020   0.600   1.962   6.022  0.5841 -0.4183 -0.9365
 7187SOL    HW233021   0.612   1.918   6.159  1.1768 -2.1770  0.7830
 7188SOL     OW33022   1.171   0.634   8.019  0.4841  0.2862 -0.1213
 7188SOL    HW133023   1.159   0.728   8.004  1.0866  0.1731 -1.2951
 7188SOL    HW233024   1.136   0.599   7.936  0.4911 -2.7305  1.1476
 7189SOL     OW33025   1.311   1.797   4.771  0.5603 -0.2893 -0.4817
 7189SOL    HW133026   1.271   1.858   4.833  2.3603  1.4875 -1.0473
 7189SOL    HW233027   1.259   1.815   4.693 -0.1565  1.0299  0.2922
 7190SOL     OW33028   2.072   0.211  16.632 -0.0172 -0.2239  0.4156
 7190SOL    HW133029   2.111   0.132  16.594 -1.3288  0.5479 -2.5530
 7190SOL    HW233030   2.019   0.239  16.558  1.3602 -0.7202 -0.7769
 7191SOL     OW33031   4.349   2.904   2.783 -0.6919 -0.3663 -0.3582
 7191SOL    HW133032   4.283   2.865   2.725  0.8046 -0.0174 -2.2934
 7191SOL    HW233033   4.427   2.856   2.755 -1.1116 -1.2553  0.0071
 7192SOL     OW33034   4.140   0.992   6.100  0.3271  0.3277 -0.1657
 7192SOL    HW133035   4.226   0.996   6.057 -0.0256  0.6767 -0.8278
 7192SOL    HW233036   4.076   0.987   6.029 -0.0471  0.4816  0.1605
 7193SOL     OW33037   4.400   0.843  10.886  0.1305 -0.0744 -0.1816
 7193SOL    HW133038   4.410   0.929  10.927  1.9179 -0.0423 -0.7017
 7193SOL    HW233039   4.459   0.855  10.812  0.4967  0.2523  0.1635
 7194SOL     OW33040   3.959   2.662  15.364  0.0066  0.3732 -0.3437
 7194SOL    HW133041   3.870   2.686  15.338 -0.0448 -1.1997 -1.6465
 7194SOL    HW233042   4.011   2.725  15.313  0.6405 -0.3236 -0.5665
 7195SOL     OW33043   3.494   3.261   7.416 -0.3382  0.3570  0.2912
 7195SOL    HW133044   3.488   3.339   7.361 -0.7691  1.2135  1.5596
 7195SOL    HW233045   3.417   3.213   7.386  0.1601 -0.5677  0.4710
 7196SOL     OW33046   4.589   0.897   0.682  0.1671  0.0775 -0.1326
 7196SOL    HW133047   4.573   0.985   0.647 -1.7549  0.6174  2.0985
 7196SOL    HW233048   4.679   0.895   0.649  0.8393  1.8399  1.6197
 7197SOL     OW33049   3.125   1.164  14.960 -0.2244 -0.1467 -0.3464
 7197SOL    HW133050   3.126   1.231  15.028  2.2213 -0.8412  0.2945
 7197SOL    HW233051   3.081   1.093  15.006 -1.8862  0.3707 -1.1295
 7198SOL     OW33052   4.211   0.684   7.038  0.4932  0.0251  0.4124
 7198SOL    HW133053   4.166   0.699   7.121  1.0500 -1.9391  1.0718
 7198SOL    HW233054   4.252   0.769   7.021 -0.1389 -0.0543 -1.5550
 7199SOL     OW33055   3.649   2.781  13.928  0.1570  0.4120  0.3584
 7199SOL    HW133056   3.740   2.776  13.959  0.1573  1.7124  0.5632
 7199SOL    HW233057   3.666   2.786  13.834 -0.6469  2.4485  0.3261
 7200SOL     OW33058   0.004   3.926   7.989  0.3881  0.5032 -0.3014
 7200SOL    HW133059   0.089   3.901   7.951  0.0014 -0.6042 -0.4506
 7200SOL    HW233060   4.661   3.888   7.931  0.2830 -1.4876  1.1391
 7201SOL     OW33061   2.289   3.451   3.475  0.1844  0.1568  0.2146
 7201SOL    HW133062   2.341   3.530   3.458 -0.2274  0.6142  1.0842
 7201SOL    HW233063   2.199   3.479   3.454 -0.4301 -1.0325  1.2906
 7202SOL     OW33064   2.796   2.973   9.481 -0.7772  0.2941 -0.6237
 7202SOL    HW133065   2.778   3.066   9.465 -0.3108  0.1593 -1.8857
 7202SOL    HW233066   2.720   2.932   9.440 -1.0278 -0.3664  0.4919
 7203SOL     OW33067   0.402   3.157  10.348  0.3967 -0.5214 -0.0095
 7203SOL    HW133068   0.393   3.228  10.284  0.0921  0.0660  0.6929
 7203SOL    HW233069   0.448   3.211  10.412 -1.0863  1.5505 -0.6775
 7204SOL     OW33070   4.082   3.645   7.052 -0.2905 -0.0816  0.2181
 7204SOL    HW133071   4.062   3.623   6.961 -0.4316 -4.3772  1.3146
 7204SOL    HW233072   4.121   3.730   7.033 -0.1250 -0.0884  0.5356
 7205SOL     OW33073   4.173   2.470   2.896 -0.3699  0.3390 -0.3119
 7205SOL    HW133074   4.202   2.527   2.967 -0.3083 -0.3581  0.2294
 7205SOL    HW233075   4.254   2.461   2.845 -1.9087 -0.0004 -2.6750
 7206SOL     OW33076   2.109   2.666   6.546 -0.1331 -0.3227 -0.6534
 7206SOL    HW133077   2.117   2.736   6.480  1.5536 -0.1830 -0.3063
 7206SOL    HW233078   2.040   2.699   6.603  1.1207 -0.1197  0.7274
 7207SOL     OW33079   0.281   1.219  10.823 -0.2388 -0.6940  0.3804
 7207SOL    HW133080   0.342   1.265  10.764  1.4891 -1.1478  1.8108
 7207SOL    HW233081   0.228   1.172  10.758 -0.2062 -0.9764  0.5607
 7208SOL     OW33082   4.600   1.101   0.484 -0.2752 -0.5111  0.3312
 7208SOL    HW133083   4.509   1.124   0.465  0.0302  1.4922  1.2637
 7208SOL    HW233084   4.649   1.182   0.498 -1.3890  0.3269 -0.5251
 7209SOL     OW33085   1.075   3.369   7.685  0.4124 -0.3063 -0.1968
 7209SOL    HW133086   1.082   3.455   7.644  1.3407 -0.8148 -1.0940
 7209SOL    HW233087   1.113   3.310   7.621 -0.1216 -3.1993  2.1561
 7210SOL     OW33088   1.037   0.070  12.490 -0.0503 -0.5929  0.2596
 7210SOL    HW133089   1.100   0.028  12.549  0.4003 -1.3625 -0.7665
 7210SOL    HW233090   1.083   0.154  12.492 -1.1137  0.0109 -0.7220
 7211SOL     OW33091   2.529   4.595   2.905  0.0117 -0.1127 -0.9185
 7211SOL    HW133092   2.445   4.639   2.917 -0.0146  0.0942 -1.8404
 7211SOL    HW233093   2.585   4.671   2.891  1.0251 -1.2050 -2.7999
 7212SOL     OW33094   2.082   3.629  17.064  0.3970  0.2305  0.1684
 7212SOL    HW133095   1.988   3.629  17.085  0.3637 -1.4612  0.0526
 7212SOL    HW233096   2.108   3.554  17.117  1.7825 -0.6514 -1.7817
 7213SOL     OW33097   0.884   2.720   4.911 -0.1157 -0.1548  0.0718
 7213SOL    HW133098   0.821   2.791   4.902  0.9149  0.8238  0.6278
 7213SOL    HW233099   0.823   2.646   4.898  0.6079 -0.6014 -0.7531
 7214SOL     OW33100   2.092   3.600   5.461 -0.0868  0.4492  0.0649
 7214SOL    HW133101   2.047   3.575   5.541 -0.0412 -1.8391 -0.6187
 7214SOL    HW233102   2.046   3.540   5.402 -0.9378  1.4049 -0.2265
 7215SOL     OW33103   1.546   1.938   8.531  0.2797 -0.0788 -0.1642
 7215SOL    HW133104   1.562   2.018   8.582 -1.0589  0.2309 -0.2432
 7215SOL    HW233105   1.461   1.965   8.499 -0.1982 -1.9066 -0.4333
 7216SOL     OW33106   0.153   3.898  14.755  0.1026  0.1616 -0.4602
 7216SOL    HW133107   0.176   3.989  14.777  2.5204 -0.4313 -0.4856
 7216SOL    HW233108   0.074   3.880  14.805 -0.5060  2.3069 -0.6591
 7217SOL     OW33109   0.440   3.904   8.917  0.0061  0.2882 -0.0623
 7217SOL    HW133110   0.474   3.815   8.909 -1.0618 -0.0558 -0.8771
 7217SOL    HW233111   0.436   3.922   8.823 -0.4745  0.8354  0.0608
 7218SOL     OW33112   0.699   2.604   4.118  0.7279 -0.3379  0.2724
 7218SOL    HW133113   0.700   2.625   4.025 -2.6458 -1.8072 -0.1041
 7218SOL    HW233114   0.766   2.663   4.153  0.1719  2.0561 -2.6849
 7219SOL     OW33115   1.977   1.108   7.697  0.3823  0.1254 -0.4855
 7219SOL    HW133116   1.916   1.157   7.642  1.4806 -1.7539 -3.4095
 7219SOL    HW233117   2.053   1.161   7.673  1.6029 -1.7300 -0.7026
 7220SOL     OW33118   0.870   0.448   4.411  0.0830  0.4664  0.6123
 7220SOL    HW133119   0.828   0.500   4.480 -1.8707 -1.0106  0.4979
 7220SOL    HW233120   0.881   0.520   4.348  0.0144 -0.7786 -0.8108
 7221SOL     OW33121   0.314   3.726  16.966 -0.0450 -0.1222  0.4091
 7221SOL    HW133122   0.345   3.652  16.913 -1.2798 -1.4933  1.5887
 7221SOL    HW233123   0.266   3.776  16.900  1.5770  1.0797  0.1373
 7222SOL     OW33124   0.320   1.320   3.906 -0.1662  0.0125 -0.3640
 7222SOL    HW133125   0.346   1.286   3.992 -2.7254  2.0608  1.2653
 7222SOL    HW233126   0.381   1.265   3.857 -2.7979 -2.4504 -0.9175
 7223SOL     OW33127   3.195   2.721  15.895 -0.2697  0.3381  0.1263
 7223SOL    HW133128   3.154   2.805  15.910 -0.0345  0.4538  0.1270
 7223SOL    HW233129   3.196   2.722  15.800  0.3274  0.3928  0.1277
 7224SOL     OW33130   3.270   2.277  17.202  0.0565 -0.1419  0.0174
 7224SOL    HW133131   3.292   2.354  17.150  0.3008  0.5071  1.0737
 7224SOL    HW233132   3.249   2.217  17.131  1.6966 -3.2487  2.1075
 7225SOL     OW33133   1.878   2.491   6.022 -0.0622 -0.1030  0.2079
 7225SOL    HW133134   1.953   2.551   6.024 -0.1900  0.0877 -0.4505
 7225SOL    HW233135   1.810   2.526   6.079  0.5041  0.5750  0.4741
 7226SOL     OW33136   0.614   1.995  12.629  0.4629  0.4022 -0.0051
 7226SOL    HW133137   0.560   1.942  12.688 -0.7776  3.2026  1.3730
 7226SOL    HW233138   0.673   1.921  12.616  1.5054  1.0877  0.8878
 7227SOL     OW33139   1.711   4.307  15.966 -0.3784 -0.1484 -0.2819
 7227SOL    HW133140   1.755   4.223  15.980 -1.2449 -0.8080 -1.5306
 7227SOL    HW233141   1.644   4.297  16.033  2.1168  2.8790  2.7098
 7228SOL     OW33142   1.725   2.170   4.790  0.1017  1.0462 -0.3001
 7228SOL    HW133143   1.690   2.092   4.833  0.3042  1.0519 -0.1285
 7228SOL    HW233144   1.655   2.229   4.818 -0.7141  0.3634 -0.8985
 7229SOL     OW33145   3.014   4.504   6.559  0.9154 -0.0197  0.3669
 7229SOL    HW133146   3.065   4.482   6.482  1.4594  1.1203  0.3918
 7229SOL    HW233147   2.925   4.528   6.533  0.8989 -2.1811 -1.5038
 7230SOL     OW33148   0.076   3.853   2.907  0.3127  0.3297  0.0752
 7230SOL    HW133149   0.050   3.805   2.829  1.2479 -1.1280  0.6577
 7230SOL    HW233150   4.720   3.906   2.912  0.0850 -0.0467  0.4128
 7231SOL     OW33151   3.854   0.826   2.462 -0.3248  0.0553 -0.0915
 7231SOL    HW133152   3.895   0.912   2.464 -0.4142  0.1029 -0.2517
 7231SOL    HW233153   3.925   0.787   2.411  0.4439 -1.1678  1.9038
 7232SOL     OW33154   1.371   4.190   7.031 -0.3572 -0.0317  0.0944
 7232SOL    HW133155   1.427   4.268   7.035  1.3463 -1.3015  0.9227
 7232SOL    HW233156   1.386   4.145   7.115 -1.5574  1.8221  1.3129
 7233SOL     OW33157   3.272   0.058   5.426 -0.2823  0.6355  0.2670
 7233SOL    HW133158   3.354   0.101   5.402  0.3913 -0.1677  1.0915
 7233SOL    HW233159   3.300   4.691   5.444  0.9008  0.8500 -0.5218
 7234SOL     OW33160   2.256   0.172   1.044 -0.2154  0.1694 -0.0632
 7234SOL    HW133161   2.297   0.156   0.960  0.9740 -0.0033  0.5528
 7234SOL    HW233162   2.331   0.178   1.104 -0.5278 -0.6642  0.4217
 7235SOL     OW33163   1.313   4.313   1.976 -0.0860 -0.4249  0.3988
 7235SOL    HW133164   1.267   4.277   2.052 -3.9570  2.5037 -0.5535
 7235SOL    HW233165   1.371   4.243   1.946  1.2809  0.2674  1.3701
 7236SOL     OW33166   2.276   3.870   1.098  0.5247  0.1172  0.5017
 7236SOL    HW133167   2.184   3.890   1.085 -0.0348 -2.4298  0.6307
 7236SOL    HW233168   2.315   3.901   1.017  2.9947  0.5100  1.8269
 7237SOL     OW33169   0.070   3.981   5.348 -0.2100 -0.0381 -0.3482
 7237SOL    HW133170   0.027   3.938   5.423  0.0466  0.6810  0.2109
 7237SOL    HW233171   0.062   4.070   5.381  1.1999  0.3736 -1.1308
 7238SOL     OW33172   2.228   2.228   7.366  0.3008 -0.3453  0.7729
 7238SOL    HW133173   2.223   2.230   7.461  0.7331 -1.5492  0.8288
 7238SOL    HW233174   2.320   2.239   7.344  0.1698  2.4239  1.6115
 7239SOL     OW33175   0.912   1.872   5.239  0.5710 -0.2021  0.2606
 7239SOL    HW133176   0.929   1.822   5.319  0.0835 -0.8168 -0.0226
 7239SOL    HW233177   0.846   1.824   5.189 -1.3111  1.1513  1.4655
 7240SOL     OW33178   3.558   2.813   9.038 -0.1962 -0.0965 -0.5117
 7240SOL    HW133179   3.498   2.742   9.014 -0.2664  0.2347 -1.3092
 7240SOL    HW233180   3.635   2.765   9.068  1.2851  2.8968  0.4982
 7241SOL     OW33181   3.385   2.195   2.557 -0.3651  0.1372 -0.2772
 7241SOL    HW133182   3.320   2.248   2.604 -1.6691 -2.4811  0.8658
 7241SOL    HW233183   3.408   2.137   2.630  1.2249  0.9578 -0.1406
 7242SOL     OW33184   3.584   3.420   8.120 -0.1753 -0.0874 -0.5680
 7242SOL    HW133185   3.616   3.442   8.207  0.2552  1.1949 -1.0467
 7242SOL    HW233186   3.663   3.422   8.067  1.4016  1.9339  1.8488
 7243SOL     OW33187   4.651   1.833   1.064  0.5358  0.1199  0.1255
 7243SOL    HW133188   4.584   1.847   1.131  0.8689 -3.1381  1.1436
 7243SOL    HW233189   4.719   1.878   1.116  1.8610 -0.3449 -1.2117
 7244SOL     OW33190   2.154   1.804   1.364 -0.0443  0.1006 -0.4605
 7244SOL    HW133191   2.060   1.820   1.373 -0.1277 -0.1758 -0.8475
 7244SOL    HW233192   2.169   1.759   1.448  3.7351 -0.4025 -1.4205
 7245SOL     OW33193   3.793   2.250   3.085  0.2750  0.0314  0.1443
 7245SOL    HW133194   3.718   2.309   3.088  1.8297  1.7987  4.2140
 7245SOL    HW233195   3.874   2.296   3.106  0.3153  0.2593 -0.5237
 7246SOL     OW33196   0.144   1.167   5.299 -0.0764  0.0567 -0.3269
 7246SOL    HW133197   0.066   1.130   5.256 -0.5051 -0.3080  0.7526
 7246SOL    HW233198   0.180   1.213   5.224  1.1264 -0.1320  0.1352
 7247SOL     OW33199   0.133   4.326   8.319 -0.5066  0.7305 -0.3159
 7247SOL    HW133200   0.101   4.351   8.406  1.3454 -1.8068  1.0887
 7247SOL    HW233201   0.191   4.401   8.308 -1.0212  1.0807 -0.6353
 7248SOL     OW33202   3.866   2.309   6.178 -0.4287 -0.3227 -0.4083
 7248SOL    HW133203   3.800   2.259   6.131 -1.7239  3.2406 -2.4151
 7248SOL    HW233204   3.888   2.379   6.116 -1.5197 -1.2344 -1.7963
 7249SOL     OW33205   3.561   4.129  11.663 -0.1384 -0.2435  0.6836
 7249SOL    HW133206   3.595   4.132  11.574 -2.5530 -3.4987 -0.3708
 7249SOL    HW233207   3.604   4.200  11.710 -0.4270  0.1524  0.3490
 7250SOL     OW33208   3.251   3.600  17.218 -0.1827 -0.2215  0.3084
 7250SOL    HW133209   3.222   3.560  17.136  0.3887  0.2804 -0.1377
 7250SOL    HW233210   3.192   3.558  17.280  0.9480 -2.1665  0.0751
 7251SOL     OW33211   4.394   3.207   7.604 -0.8818 -0.5040  0.0329
 7251SOL    HW133212   4.325   3.141   7.608 -3.6141  2.2387 -1.8124
 7251SOL    HW233213   4.345   3.276   7.647  2.9147  2.0449  0.2953
 7252SOL     OW33214   0.029   1.592   8.640 -0.4395 -0.0226 -0.0159
 7252SOL    HW133215   4.696   1.563   8.569  1.8172 -1.4960 -1.1999
 7252SOL    HW233216   4.688   1.637   8.695 -1.7344 -2.3249  0.3306
 7253SOL     OW33217   3.734   4.436   7.017 -0.4353  0.3424  0.1594
 7253SOL    HW133218   3.678   4.491   6.962  1.1220  1.1112 -0.6351
 7253SOL    HW233219   3.729   4.482   7.101  0.3379  0.9171 -0.1243
 7254SOL     OW33220   1.791   0.483   8.322  0.4840 -0.1026 -0.4557
 7254SOL    HW133221   1.735   0.546   8.276  1.1307  0.2110 -0.8044
 7254SOL    HW233222   1.728   0.448   8.386  0.5917  1.5732  0.5755
 7255SOL     OW33223   2.424   4.209   1.243  0.0111  0.0720  0.5207
 7255SOL    HW133224   2.345   4.167   1.210  0.3433  1.7082 -2.3536
 7255SOL    HW233225   2.440   4.279   1.179  1.3610 -0.2152  0.5460
 7256SOL     OW33226   3.699   0.754  16.409  0.3225  0.3090 -0.1051
 7256SOL    HW133227   3.728   0.789  16.493  2.8507 -0.2240 -0.7662
 7256SOL    HW233228   3.665   0.666  16.426  0.6109  0.3157  0.5187
 7257SOL     OW33229   3.409   3.690   9.107  0.0486 -0.4714 -0.2769
 7257SOL    HW133230   3.456   3.659   9.031 -0.4182  0.3884 -0.9189
 7257SOL    HW233231   3.409   3.785   9.094  0.9724 -0.3487  0.6233
 7258SOL     OW33232   3.276   3.642   8.244  0.4077  0.0809  0.0902
 7258SOL    HW133233   3.196   3.674   8.202  0.8002  0.0133 -0.7174
 7258SOL    HW233234   3.345   3.646   8.178 -0.8665  0.9300 -1.1814
 7259SOL     OW33235   2.499   1.462   4.330  0.2743 -0.3147  0.2733
 7259SOL    HW133236   2.526   1.443   4.241 -0.1282  1.8315 -0.2919
 7259SOL    HW233237   2.550   1.397   4.378 -1.1877 -0.3140  1.8382
 7260SOL     OW33238   4.384   3.014   4.940 -0.1066  0.4809  0.1183
 7260SOL    HW133239   4.419   3.103   4.926  0.8477  0.2041  0.7524
 7260SOL    HW233240   4.350   3.017   5.029  1.1400  1.8995  0.5561
 7261SOL     OW33241   2.552   0.063   5.557  0.0671  0.0168  0.4792
 7261SOL    HW133242   2.591   0.145   5.589  0.2133  0.4200 -0.7317
 7261SOL    HW233243   2.627   0.006   5.539  0.5915  0.4030  1.3893
 7262SOL     OW33244   0.846   2.895   3.567  0.1215 -0.4103  0.0786
 7262SOL    HW133245   0.757   2.917   3.539  0.2926  0.4739  0.2285
 7262SOL    HW233246   0.879   2.845   3.492  2.4017  1.1112  0.0473
 7263SOL     OW33247   4.240   2.056   9.736  0.3506 -0.6122 -0.1872
 7263SOL    HW133248   4.318   2.095   9.774 -0.0860  0.5107 -0.4342
 7263SOL    HW233249   4.276   1.968   9.745  0.3356 -0.6114 -0.1244
 7264SOL     OW33250   3.882   2.664  14.047  0.0278  0.1326  0.4714
 7264SOL    HW133251   3.968   2.622  14.041 -0.1764 -0.2417  0.1374
 7264SOL    HW233252   3.822   2.595  14.073 -0.6578  0.2415 -0.7850
 7265SOL     OW33253   2.062   4.283   3.425  0.1995  0.1389  0.4712
 7265SOL    HW133254   2.080   4.247   3.338 -2.1091  2.7992 -1.1384
 7265SOL    HW233255   1.980   4.239   3.448  0.8820 -1.5488 -0.3094
 7266SOL     OW33256   3.011   2.959   8.011  0.1368  0.4533 -0.2380
 7266SOL    HW133257   2.933   2.999   8.050 -0.8055 -0.8481 -0.7468
 7266SOL    HW233258   3.009   3.002   7.925  1.1190  0.1587 -0.4023
 7267SOL     OW33259   3.460   0.288  16.002  0.9633 -0.2167  0.2150
 7267SOL    HW133260   3.547   0.302  15.965 -0.0120  0.0148 -2.0447
 7267SOL    HW233261   3.415   0.313  15.921 -0.5425  1.8111  1.6822
 7268SOL     OW33262   4.012   2.805   4.522  0.5005 -0.0558 -0.9249
 7268SOL    HW133263   4.077   2.780   4.589  0.8789  0.5713 -1.0609
 7268SOL    HW233264   3.960   2.868   4.572  0.6333  0.4749 -1.4628
 7269SOL     OW33265   2.743   3.323  14.357 -0.1674  0.6494  0.2966
 7269SOL    HW133266   2.653   3.294  14.371 -0.4704  1.9668  1.0679
 7269SOL    HW233267   2.756   3.291  14.267 -0.2773  1.1405  0.1092
 7270SOL     OW33268   1.628   0.924   7.758  0.1172  0.0103 -0.6053
 7270SOL    HW133269   1.708   0.875   7.778  0.6335  1.8660  1.8702
 7270SOL    HW233270   1.613   0.888   7.671  2.5380 -2.1106 -0.1197
 7271SOL     OW33271   0.796   3.022   4.291 -0.3132 -0.6121  0.2693
 7271SOL    HW133272   0.790   3.055   4.201 -0.4694 -1.0948  0.1034
 7271SOL    HW233273   0.813   3.106   4.333  0.8990 -0.6694 -0.1078
 7272SOL     OW33274   4.474   2.778  17.583 -0.7075  0.4396 -0.1989
 7272SOL    HW133275   4.541   2.716  17.554 -0.6234 -0.5602  2.0488
 7272SOL    HW233276   4.501   2.864  17.552 -1.7336  0.3961 -1.1937
 7273SOL     OW33277   0.493   0.993   1.356 -0.4437  0.1053  0.0147
 7273SOL    HW133278   0.511   1.082   1.388  3.2794 -0.0982 -1.5009
 7273SOL    HW233279   0.491   1.006   1.261 -1.6215  0.8031  0.1405
 7274SOL     OW33280   0.525   4.381   2.916  0.0292 -0.1616 -0.3312
 7274SOL    HW133281   0.513   4.347   3.005  0.6577  0.6700  0.0791
 7274SOL    HW233282   0.443   4.349   2.879 -0.5443  1.1360 -0.1923
 7275SOL     OW33283   4.680   2.584  12.102  0.4130  0.4504  0.1934
 7275SOL    HW133284   4.604   2.641  12.096 -0.5209 -0.9286 -1.1350
 7275SOL    HW233285   4.692   2.577  12.197  0.6562  2.2719  0.2830
 7276SOL     OW33286   0.941   3.225   8.348  0.1347  0.0452 -0.3653
 7276SOL    HW133287   0.968   3.305   8.303  1.1113  0.4783  0.9927
 7276SOL    HW233288   0.919   3.176   8.269 -1.7372 -1.6755  1.2090
 7277SOL     OW33289   2.915   0.420   8.131  0.6304  0.1226  0.0014
 7277SOL    HW133290   2.926   0.474   8.209 -0.3430 -2.5152  1.9593
 7277SOL    HW233291   2.997   0.371   8.133  0.3111 -0.2274  3.4505
 7278SOL     OW33292   0.224   3.880  12.823 -0.4193  0.3330  0.2299
 7278SOL    HW133293   0.247   3.928  12.903  0.4507 -2.2372  1.5344
 7278SOL    HW233294   0.301   3.833  12.791 -1.1447 -2.0085  1.8861
 7279SOL     OW33295   2.088   0.075   3.185  0.6779  0.6471 -0.2438
 7279SOL    HW133296   2.068   0.156   3.233 -3.2762  0.0449 -0.8431
 7279SOL    HW233297   2.067   0.010   3.251  1.9217 -0.3332 -0.8299
 7280SOL     OW33298   0.652   3.746   4.830  0.2577  0.8713 -0.1183
 7280SOL    HW133299   0.712   3.806   4.875  1.8949  0.7865 -2.2048
 7280SOL    HW233300   0.717   3.690   4.788  1.0380  1.6619  0.0475
 7281SOL     OW33301   4.274   0.445   2.771 -0.7871  0.2152 -0.5123
 7281SOL    HW133302   4.298   0.368   2.719 -1.4809  1.9958 -3.4302
 7281SOL    HW233303   4.264   0.513   2.705  0.3089  1.4946  0.6325
 7282SOL     OW33304   0.143   2.454  13.635 -0.3999 -0.3096 -0.1349
 7282SOL    HW133305   0.176   2.438  13.724 -0.1546  0.3646 -0.1063
 7282SOL    HW233306   0.175   2.543  13.622  1.9952 -1.0843  0.2979
 7283SOL     OW33307   2.205   3.274   5.292 -0.4553 -0.0178 -0.4978
 7283SOL    HW133308   2.171   3.193   5.253 -0.1836 -0.3614 -0.0142
 7283SOL    HW233309   2.124   3.313   5.324 -1.8807 -0.4424 -3.5873
 7284SOL     OW33310   2.112   1.480   0.819 -0.4666  0.7346 -0.4605
 7284SOL    HW133311   2.166   1.548   0.858  1.9061 -1.8357  0.7438
 7284SOL    HW233312   2.064   1.431   0.886  0.8387  0.0284 -0.0436
 7285SOL     OW33313   4.539   2.583   9.409  0.5059  0.2713  0.0305
 7285SOL    HW133314   4.613   2.528   9.384 -1.4270 -2.8874  1.2496
 7285SOL    HW233315   4.474   2.546   9.350 -0.2946  2.5959 -0.5298
 7286SOL     OW33316   4.029   4.662   1.755  0.2778  0.3845  0.0187
 7286SOL    HW133317   4.058   0.019   1.799 -0.3729  0.1328  0.8867
 7286SOL    HW233318   3.945   4.639   1.794  0.0164  0.9577 -0.2010
 7287SOL     OW33319   4.330   1.419  10.521  0.2831 -0.1182  0.6257
 7287SOL    HW133320   4.351   1.412  10.428  0.0970  1.2392  0.4786
 7287SOL    HW233321   4.254   1.475  10.510  0.5329 -0.2244 -1.6003
 7288SOL     OW33322   4.654   0.584   3.123  0.0983  0.2702  0.6114
 7288SOL    HW133323   4.718   0.648   3.092  2.7465 -1.5960  2.2322
 7288SOL    HW233324   4.580   0.638   3.152 -0.1672 -0.1869  0.7909
 7289SOL     OW33325   2.609   2.772   9.197 -0.6177  0.0628 -0.1458
 7289SOL    HW133326   2.596   2.796   9.288 -0.0674  1.1733 -0.3655
 7289SOL    HW233327   2.665   2.848   9.181  0.7790 -0.6291  1.4528
 7290SOL     OW33328   0.042   0.980   4.995  0.7330 -0.5087  0.2809
 7290SOL    HW133329   0.067   0.957   4.906 -1.7577 -0.4540 -0.4364
 7290SOL    HW233330   0.057   1.075   4.990 -1.3656 -0.1903 -0.0268
 7291SOL     OW33331   2.106   3.480   6.368 -0.5139  0.4107 -0.2894
 7291SOL    HW133332   2.016   3.454   6.388 -0.0200  0.9554  2.6195
 7291SOL    HW233333   2.090   3.525   6.285 -0.6336 -1.2324 -1.1542
 7292SOL     OW33334   2.871   0.549   9.884 -0.0187 -0.7273 -0.1629
 7292SOL    HW133335   2.854   0.490   9.957 -3.1613 -0.0952 -0.3990
 7292SOL    HW233336   2.884   0.492   9.809  0.4969  1.5322 -1.7848
 7293SOL     OW33337   2.546   2.115   0.321 -0.2841 -0.9289 -0.3274
 7293SOL    HW133338   2.536   2.021   0.309 -2.8012 -0.7556  0.5380
 7293SOL    HW233339   2.517   2.121   0.412  1.6333 -0.0190  0.2314
 7294SOL     OW33340   0.680   0.517   9.151  0.2286 -0.9544  0.7876
 7294SOL    HW133341   0.756   0.562   9.188  0.7154  0.5019 -1.9078
 7294SOL    HW233342   0.612   0.577   9.181 -0.0415 -1.3805  1.0191
 7295SOL     OW33343   2.761   0.486   9.221  0.8604 -0.1480 -0.5407
 7295SOL    HW133344   2.680   0.449   9.258  0.8725  1.4552  1.0791
 7295SOL    HW233345   2.738   0.579   9.217 -0.1923 -0.4323 -1.1873
 7296SOL     OW33346   2.256   1.306   1.143  0.9560 -0.1600  0.7980
 7296SOL    HW133347   2.212   1.391   1.135  0.0368 -0.5421  1.8844
 7296SOL    HW233348   2.345   1.325   1.112  0.2657  0.4827 -0.7789
 7297SOL     OW33349   0.549   1.258   8.258 -0.4328 -0.6932  0.2181
 7297SOL    HW133350   0.481   1.307   8.305  0.8187  0.6720  0.5812
 7297SOL    HW233351   0.502   1.176   8.245 -0.1274 -0.7308 -0.6280
 7298SOL     OW33352   2.326   2.322   9.228  0.0467  0.3143  0.2034
 7298SOL    HW133353   2.289   2.284   9.149  1.8528  0.2399 -0.6014
 7298SOL    HW233354   2.289   2.258   9.289 -1.9542  2.0959  0.8600
 7299SOL     OW33355   2.642   1.447   7.112  0.5568 -0.3062  0.0084
 7299SOL    HW133356   2.579   1.518   7.120  0.5157 -0.3327 -0.0759
 7299SOL    HW233357   2.625   1.397   7.192  1.4934  0.4758  0.6953
 7300SOL     OW33358   4.471   2.399   1.387 -0.1744  0.0553 -0.1758
 7300SOL    HW133359   4.449   2.321   1.335  1.7841 -0.7219  0.1672
 7300SOL    HW233360   4.390   2.449   1.381 -0.3061  0.0191  1.2305
 7301SOL     OW33361   4.190   1.205  14.933  0.4902 -0.5325  0.0760
 7301SOL    HW133362   4.234   1.289  14.946  1.6767 -0.9391 -1.2543
 7301SOL    HW233363   4.193   1.172  15.022 -1.7412  0.8374  0.6406
 7302SOL     OW33364   3.873   2.596   0.120  0.2205 -0.1408  0.0539
 7302SOL    HW133365   3.889   2.548   0.039 -2.2677 -1.6157  0.4370
 7302SOL    HW233366   3.850   2.520   0.174 -1.2011 -0.2492 -0.7071
 7303SOL     OW33367   3.288   0.803   2.265  0.3104 -0.2066  0.7628
 7303SOL    HW133368   3.228   0.809   2.339 -0.7659  0.7436 -0.1982
 7303SOL    HW233369   3.363   0.851   2.301  1.4357 -0.5924 -1.0480
 7304SOL     OW33370   3.777   2.855   1.237 -0.8047  0.2916 -0.5247
 7304SOL    HW133371   3.768   2.766   1.272  1.2147  0.9896  1.7785
 7304SOL    HW233372   3.828   2.826   1.162  1.3949 -0.8029  1.3907
 7305SOL     OW33373   3.880   0.087   6.828 -0.4707  0.3399  0.2936
 7305SOL    HW133374   3.929   0.158   6.870  0.2874 -0.2885  0.4709
 7305SOL    HW233375   3.952   0.025   6.822 -0.0284  0.9184 -0.3932
 7306SOL     OW33376   2.920   4.342   7.461  1.0769 -0.7317 -0.1320
 7306SOL    HW133377   2.843   4.289   7.482  0.9300  0.0195  1.2559
 7306SOL    HW233378   2.964   4.274   7.410  3.2103  0.3315  0.2886
 7307SOL     OW33379   3.794   1.810   7.958 -0.2597  0.3167  0.3150
 7307SOL    HW133380   3.811   1.878   8.024  0.2259  1.0675 -0.5795
 7307SOL    HW233381   3.724   1.859   7.914  0.3685 -1.1925 -2.3695
 7308SOL     OW33382   0.734   3.864  12.864  0.6189 -0.0654  0.1750
 7308SOL    HW133383   0.653   3.845  12.912 -0.3215  2.3213 -0.4399
 7308SOL    HW233384   0.739   3.779  12.822 -1.7631  1.0850 -2.4427
 7309SOL     OW33385   2.794   2.712   3.785  1.0330 -0.3705  0.6362
 7309SOL    HW133386   2.781   2.782   3.849  0.1881 -2.2156  2.4871
 7309SOL    HW233387   2.767   2.633   3.831 -2.2172 -0.6180 -1.7003
 7310SOL     OW33388   3.629   1.538  14.076  0.4079 -0.1214  0.1693
 7310SOL    HW133389   3.707   1.492  14.107  1.0174  0.0040 -1.2155
 7310SOL    HW233390   3.663   1.596  14.008  2.6287 -1.0060  0.5392
 7311SOL     OW33391   0.081   2.216   5.205 -0.1960 -0.1181 -0.1662
 7311SOL    HW133392   0.126   2.232   5.122  1.0133 -0.2931  0.4583
 7311SOL    HW233393   4.711   2.227   5.184 -0.7286 -0.4428  2.0154
 7312SOL     OW33394   2.668   3.229  16.955 -0.5831  0.3715 -0.0080
 7312SOL    HW133395   2.586   3.195  16.918 -1.2671  1.6758  0.3360
 7312SOL    HW233396   2.643   3.314  16.989 -0.0051  0.4168  0.3062
 7313SOL     OW33397   0.105   2.436   2.449  0.3978  0.7225 -0.0651
 7313SOL    HW133398   0.182   2.474   2.406 -2.5941  2.2098 -4.0757
 7313SOL    HW233399   0.035   2.430   2.385 -0.1975  1.5949  0.5169
 7314SOL     OW33400   1.274   1.335   0.030 -0.3522  0.4894  0.0424
 7314SOL    HW133401   1.289   1.372   0.117  3.2884 -1.0040  0.0620
 7314SOL    HW233402   1.363   1.342  17.690  0.4991 -1.9931  1.6596
 7315SOL     OW33403   3.655   4.029   5.631 -0.0810 -0.0702 -0.1228
 7315SOL    HW133404   3.690   4.118   5.640  0.2631 -0.1925 -0.2598
 7315SOL    HW233405   3.591   4.041   5.560  0.7263 -0.7994 -0.9670
 7316SOL     OW33406   2.146   3.171   6.385  0.0541 -0.1745  0.5613
 7316SOL    HW133407   2.126   3.260   6.355  0.8023  0.3471  1.6064
 7316SOL    HW233408   2.213   3.183   6.452  1.8508 -0.7952 -1.1253
 7317SOL     OW33409   0.647   1.795  13.313  0.1651  0.0117  0.0815
 7317SOL    HW133410   0.570   1.849  13.299 -0.9822 -1.7802 -0.5360
 7317SOL    HW233411   0.680   1.773  13.226  0.3152  1.0297 -0.1162
 7318SOL     OW33412   3.533   4.627   6.190 -0.1563 -0.0404  0.2523
 7318SOL    HW133413   3.559   4.541   6.222 -1.1351 -1.0475 -1.6085
 7318SOL    HW233414   3.541   4.690   6.261  2.1770 -1.3954  1.1580
 7319SOL     OW33415   3.526   0.787   2.839  0.2124 -0.4382 -0.3649
 7319SOL    HW133416   3.574   0.724   2.893  0.2657  0.9457  1.2058
 7319SOL    HW233417   3.449   0.740   2.806  0.3059  1.1509 -2.8486
 7320SOL     OW33418   0.361   4.511   5.685 -0.8226 -0.0589  0.1246
 7320SOL    HW133419   0.412   4.571   5.739  1.4095 -0.2192 -1.8129
 7320SOL    HW233420   0.353   4.438   5.747  0.6377  0.0145  0.3823
 7321SOL     OW33421   2.676   0.513  13.113 -0.0591  0.5204 -0.1061
 7321SOL    HW133422   2.602   0.540  13.167  1.7800  0.1488  2.5742
 7321SOL    HW233423   2.743   0.550  13.170 -0.9805  0.2252  1.1651
 7322SOL     OW33424   3.808   2.847   8.523  0.2047  0.5603  0.2531
 7322SOL    HW133425   3.832   2.925   8.473 -0.2410  0.2334 -0.4825
 7322SOL    HW233426   3.888   2.845   8.575  0.3225  0.4873  0.0675
 7323SOL     OW33427   2.821   1.500  13.710  0.0200 -0.1433 -0.7714
 7323SOL    HW133428   2.871   1.544  13.642  4.2290 -0.3379  2.2367
 7323SOL    HW233429   2.836   1.562  13.782  0.5841  0.0654 -1.0669
 7324SOL     OW33430   1.793   3.758   7.070  0.2020  0.2586  0.5491
 7324SOL    HW133431   1.745   3.738   6.990  1.2921  0.9481 -0.2759
 7324SOL    HW233432   1.800   3.853   7.068 -0.1577  0.2364 -1.4615
 7325SOL     OW33433   0.948   1.335   2.993 -0.1705 -0.2174 -0.4199
 7325SOL    HW133434   1.003   1.310   2.919  0.3188 -1.9605  0.5224
 7325SOL    HW233435   1.010   1.312   3.063  0.0429 -2.2781 -1.2890
 7326SOL     OW33436   2.682   3.692   7.571 -0.0473 -0.3519  0.0888
 7326SOL    HW133437   2.606   3.738   7.536 -0.1188  0.0437  0.7813
 7326SOL    HW233438   2.719   3.756   7.631 -1.0577  1.9841 -1.7715
 7327SOL     OW33439   1.401   3.815  17.273  0.4146 -0.3742 -0.1202
 7327SOL    HW133440   1.329   3.824  17.210  1.3108  2.2542 -0.7554
 7327SOL    HW233441   1.430   3.905  17.285 -2.0700  0.2763  1.0212
 7328SOL     OW33442   4.294   2.583   5.385 -0.5346  0.0527 -0.1799
 7328SOL    HW133443   4.206   2.581   5.422 -1.1452  0.0042 -1.6368
 7328SOL    HW233444   4.279   2.648   5.316  0.5671 -0.4039 -0.8576
 7329SOL     OW33445   1.162   1.276   4.952 -0.1970  0.7326 -0.0729
 7329SOL    HW133446   1.221   1.349   4.940 -2.1725  2.4281  0.5236
 7329SOL    HW233447   1.208   1.206   4.906 -1.1744 -1.2492  1.9097
 7330SOL     OW33448   0.873   3.091   8.111  0.1792 -0.3324 -0.0587
 7330SOL    HW133449   0.786   3.055   8.095 -0.3193  0.3497  1.0698
 7330SOL    HW233450   0.912   3.093   8.024 -2.6528 -1.3510 -1.3586
 7331SOL     OW33451   0.618   3.471   8.661 -0.0216  0.1696 -0.0240
 7331SOL    HW133452   0.618   3.450   8.754 -2.0205  0.4407  0.0379
 7331SOL    HW233453   0.713   3.481   8.648  0.2251 -1.2431  0.6911
 7332SOL     OW33454   0.041   1.670   5.658 -0.3540 -0.2111  0.1208
 7332SOL    HW133455   4.698   1.629   5.603  0.7866 -2.0252  0.1120
 7332SOL    HW233456   0.083   1.590   5.687  0.6061  0.8030  1.5356
 7333SOL     OW33457   0.193   0.115  10.189 -0.4820 -0.4533  0.1581
 7333SOL    HW133458   0.139   0.120  10.110  0.9840 -1.3122 -0.8998
 7333SOL    HW233459   0.144   0.061  10.251  1.1577 -1.9109  0.2019
 7334SOL     OW33460   4.396   2.662   0.692  0.0971 -0.4318  0.0159
 7334SOL    HW133461   4.316   2.692   0.735  2.0203  4.6260  0.0562
 7334SOL    HW233462   4.405   2.575   0.731 -3.2718 -0.0789  1.5779
 7335SOL     OW33463   0.666   2.790   6.218 -0.1861 -0.1647  0.0723
 7335SOL    HW133464   0.631   2.728   6.154 -0.2433 -0.3980  0.3317
 7335SOL    HW233465   0.740   2.748   6.260 -0.9865 -1.5099  0.1214
 7336SOL     OW33466   0.668   2.659   5.229 -0.3169 -0.5318 -0.8381
 7336SOL    HW133467   0.572   2.656   5.226 -0.3667 -0.3240  0.3312
 7336SOL    HW233468   0.700   2.584   5.279 -0.0732  0.7559  0.9313
 7337SOL     OW33469   2.509   3.144  16.107 -0.3265 -0.2527 -0.2060
 7337SOL    HW133470   2.522   3.064  16.158 -0.8240  0.6826  1.3945
 7337SOL    HW233471   2.555   3.213  16.155  0.4693  0.5722 -2.1584
 7338SOL     OW33472   1.221   4.036   3.032 -0.3134  0.5388  0.1821
 7338SOL    HW133473   1.133   4.009   3.006 -0.1632  0.1307  0.0932
 7338SOL    HW233474   1.257   3.956   3.070 -1.0280  0.0527 -0.1762
 7339SOL     OW33475   2.570   4.456   0.218  0.1150 -0.1947  0.0322
 7339SOL    HW133476   2.645   4.499   0.259  0.7640  0.6289 -2.0107
 7339SOL    HW233477   2.522   4.538   0.206 -0.3633 -0.8688 -2.7512
 7340SOL     OW33478   2.044   2.356  11.821 -0.8061  0.0234  0.1928
 7340SOL    HW133479   2.120   2.331  11.768 -0.5319  0.2891  0.4651
 7340SOL    HW233480   2.060   2.447  11.843  0.8669  0.1895 -1.7012
 7341SOL     OW33481   2.123   3.897   8.315 -0.1435  0.2582 -0.0091
 7341SOL    HW133482   2.097   3.841   8.242  0.6997  0.5161 -0.4981
 7341SOL    HW233483   2.076   3.977   8.289  0.7945 -0.3821 -3.6704
 7342SOL     OW33484   0.111   0.723   1.045  0.3368  0.7905  0.2621
 7342SOL    HW133485   0.133   0.807   1.085 -4.5014  1.6842  1.0154
 7342SOL    HW233486   0.117   0.661   1.119 -1.5851 -0.0864 -0.3236
 7343SOL     OW33487   2.964   0.089   8.814  0.3293  0.3489 -0.4237
 7343SOL    HW133488   2.895   0.023   8.820  0.2999  0.2882 -1.5177
 7343SOL    HW233489   2.943   0.133   8.897 -3.2303  1.1895 -1.7446
 7344SOL     OW33490   4.582   1.939  13.878 -0.0775 -0.1005  0.4659
 7344SOL    HW133491   4.614   2.028  13.892 -2.9015  1.0444 -0.3862
 7344SOL    HW233492   4.602   1.917  13.787  0.7054  0.2946  0.5407
 7345SOL     OW33493   3.371   1.152  13.509  0.3291 -0.5182 -0.5385
 7345SOL    HW133494   3.284   1.116  13.524  0.6285 -0.2690  1.8018
 7345SOL    HW233495   3.419   1.099  13.446 -2.0869 -1.3273 -1.6839
 7346SOL     OW33496   2.627   2.677  11.437  0.0868 -0.2259  0.5042
 7346SOL    HW133497   2.640   2.654  11.529 -1.9175  0.2630  0.9094
 7346SOL    HW233498   2.559   2.615  11.409 -1.1414  0.6201  1.6136
 7347SOL     OW33499   0.621   0.081   5.742 -0.1464  0.7278 -0.0445
 7347SOL    HW133500   0.699   0.133   5.722  0.9525  0.6281  3.9140
 7347SOL    HW233501   0.579   0.089   5.656  1.4493 -1.9467 -1.0712
 7348SOL     OW33502   0.227   2.410   2.898  0.0184 -0.0688  0.2013
 7348SOL    HW133503   0.161   2.357   2.854 -0.9923  1.1439  0.2645
 7348SOL    HW233504   0.225   2.485   2.839  0.0565  0.4420  0.8442
 7349SOL     OW33505   0.848   3.306  16.699  0.0085  0.2173 -0.0141
 7349SOL    HW133506   0.797   3.383  16.674  0.9430  0.9822  0.4257
 7349SOL    HW233507   0.837   3.304  16.794 -0.3123  3.7940  0.0443
 7350SOL     OW33508   1.239   1.681   8.068  0.6300 -0.2275  0.3754
 7350SOL    HW133509   1.284   1.706   8.148  0.6935 -0.0689  0.2912
 7350SOL    HW233510   1.147   1.690   8.094  1.4027 -0.1329  2.9975
 7351SOL     OW33511   2.110   4.034   4.667 -0.3979 -0.2747 -0.2262
 7351SOL    HW133512   2.196   4.000   4.642 -1.8512 -1.3506 -3.7673
 7351SOL    HW233513   2.049   3.969   4.631 -1.7625  1.9400 -1.8882
 7352SOL     OW33514   4.201   0.579   3.023 -0.1386  0.3132  0.5030
 7352SOL    HW133515   4.233   0.658   2.980 -1.1494 -0.7629 -2.2476
 7352SOL    HW233516   4.182   0.538   2.938 -1.8385  0.0157  1.0361
 7353SOL     OW33517   4.391   4.438   1.146 -0.1299  0.2059 -0.7648
 7353SOL    HW133518   4.412   4.522   1.187  1.0308 -0.3241 -0.2797
 7353SOL    HW233519   4.297   4.450   1.129  0.2760  1.3743 -2.1760
 7354SOL     OW33520   4.014   0.037   6.102 -0.4117 -0.4153  0.2247
 7354SOL    HW133521   3.965   0.118   6.093  1.8734  0.9019 -0.4233
 7354SOL    HW233522   4.105   0.055   6.077  0.0187 -1.9232  0.6620
 7355SOL     OW33523   0.475   2.526   6.266  0.3654  0.0662  0.3490
 7355SOL    HW133524   0.436   2.612   6.252  3.3413  1.0870 -1.7460
 7355SOL    HW233525   0.513   2.497   6.183 -1.8791 -0.3293 -0.5507
 7356SOL     OW33526   3.724   0.233  10.994 -0.2920 -0.1727  0.1578
 7356SOL    HW133527   3.701   0.321  10.964  3.5343  0.5870 -0.4785
 7356SOL    HW233528   3.699   0.170  10.927 -2.5420  1.3105 -0.4161
 7357SOL     OW33529   0.959   4.138   8.308  0.1465  0.3462  0.0829
 7357SOL    HW133530   0.953   4.218   8.360 -1.0315 -0.2899  0.9290
 7357SOL    HW233531   0.917   4.157   8.224 -0.2476 -1.4017 -0.1323
 7358SOL     OW33532   3.143   1.623   9.367 -0.3283  0.1107 -0.5369
 7358SOL    HW133533   3.186   1.549   9.409 -0.2605  0.5543  0.1602
 7358SOL    HW233534   3.177   1.595   9.282 -0.0802  1.8619 -1.0192
 7359SOL     OW33535   3.803   0.191   0.867 -0.3939 -0.3424  0.5000
 7359SOL    HW133536   3.770   0.184   0.778 -2.1959 -1.1270  1.2171
 7359SOL    HW233537   3.740   0.238   0.921  1.0389  1.0304  0.9677
 7360SOL     OW33538   2.918   1.477   7.065 -0.3682  0.0910  0.2620
 7360SOL    HW133539   2.828   1.445   7.067  0.1342 -1.4352 -2.3338
 7360SOL    HW233540   2.936   1.488   7.159  0.7922  0.4583 -0.0108
 7361SOL     OW33541   4.594   1.420   8.970  0.0166 -0.4623  0.5084
 7361SOL    HW133542   4.605   1.496   9.027 -1.4039  0.6641 -0.6946
 7361SOL    HW233543   4.609   1.349   9.032  3.7673 -0.1273 -0.0455
 7362SOL     OW33544   3.545   1.342   1.367  0.1475 -0.3371 -0.0152
 7362SOL    HW133545   3.563   1.263   1.419  0.3119 -1.0720 -1.1853
 7362SOL    HW233546   3.571   1.299   1.286  0.7467  2.9301 -1.5511
 7363SOL     OW33547   3.091   2.213   7.802 -0.2372 -0.3450  0.1410
 7363SOL    HW133548   3.000   2.187   7.810  0.2131 -1.8478  0.3376
 7363SOL    HW233549   3.074   2.300   7.839 -1.3211 -0.9366  1.0233
 7364SOL     OW33550   4.059   4.032  13.361 -0.4132  0.1439 -0.2128
 7364SOL    HW133551   4.089   3.961  13.418  2.5017  2.2450  0.9012
 7364SOL    HW233552   3.966   4.013  13.376  0.0582  0.0720  2.6436
 7365SOL     OW33553   2.148   3.712   0.754  0.0590  0.6922 -0.2884
 7365SOL    HW133554   2.115   3.683   0.669 -2.8169  1.0920  0.6856
 7365SOL    HW233555   2.243   3.711   0.747 -0.0434 -0.6587 -1.4639
 7366SOL     OW33556   1.844   1.484   2.486 -0.5016 -0.1270 -0.3447
 7366SOL    HW133557   1.837   1.392   2.509  1.4613 -0.9547 -2.9792
 7366SOL    HW233558   1.933   1.490   2.450 -0.4921 -0.5813 -0.3954
 7367SOL     OW33559   0.770   0.089  12.406 -0.3019 -0.1755  0.1624
 7367SOL    HW133560   0.865   0.090  12.418 -0.4373 -0.2403  1.2763
 7367SOL    HW233561   0.736   0.049  12.487 -2.0157  0.7713 -0.0821
 7368SOL     OW33562   1.953   0.653  14.373 -0.3755  0.1048  0.3686
 7368SOL    HW133563   2.045   0.652  14.348 -0.1365 -0.1212  1.2490
 7368SOL    HW233564   1.933   0.611  14.289 -1.1588  1.8210 -0.2956
 7369SOL     OW33565   0.897   1.895  13.825 -0.4047  0.3061  0.1174
 7369SOL    HW133566   0.839   1.855  13.761 -1.2962  0.6447  0.7140
 7369SOL    HW233567   0.856   1.869  13.908  0.9893  1.6928  1.2515
 7370SOL     OW33568   1.682   0.630   4.938  0.0804 -0.5215 -0.4899
 7370SOL    HW133569   1.627   0.631   5.017  0.8270 -0.9345  0.0441
 7370SOL    HW233570   1.617   0.591   4.880  0.2092  0.6022 -1.3876
 7371SOL     OW33571   3.836   4.263  12.738  0.0665 -0.5124  0.3348
 7371SOL    HW133572   3.757   4.303  12.702  0.3488  0.3982  0.7303
 7371SOL    HW233573   3.812   4.172  12.758 -0.6246 -0.2047  0.8801
 7372SOL     OW33574   1.554   4.010   6.490 -0.2531  0.6389  0.3037
 7372SOL    HW133575   1.627   4.044   6.438 -0.9700  2.0459  0.2152
 7372SOL    HW233576   1.492   4.011   6.417 -1.0857 -0.0345  0.9996
 7373SOL     OW33577   4.179   4.096  10.228 -0.0393  0.8251 -0.0391
 7373SOL    HW133578   4.106   4.151  10.200 -0.3968 -0.2349 -1.2109
 7373SOL    HW233579   4.245   4.162  10.250  1.0191  0.3235 -1.6993
 7374SOL     OW33580   1.821   2.610   2.761 -0.3891 -0.3845 -0.1337
 7374SOL    HW133581   1.910   2.638   2.784 -1.4616  0.9216  2.4386
 7374SOL    HW233582   1.766   2.688   2.762 -1.9696 -1.4996  1.6507
 7375SOL     OW33583   2.045   2.350   4.628 -0.8171 -0.6207 -0.2972
 7375SOL    HW133584   2.082   2.431   4.664  0.5610 -1.6181  0.5119
 7375SOL    HW233585   2.060   2.288   4.699 -1.4798 -1.4634 -0.8954
 7376SOL     OW33586   0.726   4.007  16.503 -0.3628  0.6056 -0.2577
 7376SOL    HW133587   0.683   4.023  16.419 -1.9141 -1.2729  0.1896
 7376SOL    HW233588   0.736   3.912  16.511  1.1972  0.9368  1.6728
 7377SOL     OW33589   0.184   3.098  10.187  0.5103  0.3264 -0.5284
 7377SOL    HW133590   0.252   3.071  10.249  0.5209 -0.2151 -0.7778
 7377SOL    HW233591   0.113   3.038  10.210  2.5614 -1.4374  1.2106
 7378SOL     OW33592   0.897   1.989  16.511 -0.5717 -0.1528  0.4561
 7378SOL    HW133593   0.841   1.949  16.444  1.3957  1.0841 -1.9214
 7378SOL    HW233594   0.835   2.052  16.546  0.3399  1.0603 -0.0984
 7379SOL     OW33595   4.552   3.896  13.331 -0.2378 -0.4022 -0.1225
 7379SOL    HW133596   4.522   3.806  13.316  0.3306 -0.7251  0.6857
 7379SOL    HW233597   4.473   3.950  13.332 -0.6795 -1.0549  0.2591
 7380SOL     OW33598   1.260   2.477   4.793 -0.5012 -0.1665  0.5076
 7380SOL    HW133599   1.221   2.559   4.821 -0.8286 -0.4912  1.0117
 7380SOL    HW233600   1.218   2.418   4.857  2.1942 -2.6503 -0.0024
 7381SOL     OW33601   1.071   3.008  13.244  0.3071 -0.0026  0.0098
 7381SOL    HW133602   1.108   2.922  13.223  0.7220  0.5983 -1.7407
 7381SOL    HW233603   1.035   3.029  13.157 -0.6251  0.2527  0.4564
 7382SOL     OW33604   4.717   0.111  15.495  0.2568 -0.2866 -0.0630
 7382SOL    HW133605   0.076   0.114  15.446  0.8892  1.2155  1.1010
 7382SOL    HW233606   0.031   0.097  15.582  2.3148 -1.5564 -1.1533
 7383SOL     OW33607   0.856   3.453  15.183 -0.4156 -0.4024 -0.7105
 7383SOL    HW133608   0.767   3.426  15.207 -0.8104  1.8245  0.3301
 7383SOL    HW233609   0.901   3.439  15.266 -1.2734  1.2108  0.0223
 7384SOL     OW33610   4.461   1.038   7.517  0.2857  0.4712  0.3653
 7384SOL    HW133611   4.459   0.979   7.441  1.6346 -0.7415  1.2713
 7384SOL    HW233612   4.437   1.122   7.478 -1.7102 -0.4778 -0.4972
 7385SOL     OW33613   0.260   3.383   1.334  0.4635 -0.1557 -0.3054
 7385SOL    HW133614   0.346   3.423   1.347  0.3581  0.4100 -1.3535
 7385SOL    HW233615   0.250   3.315   1.401 -0.5715  0.0939 -0.2140
 7386SOL     OW33616   1.456   0.703   8.027  0.3506 -0.0460 -0.2319
 7386SOL    HW133617   1.460   0.650   8.106  0.6492 -1.6542 -1.3187
 7386SOL    HW233618   1.364   0.731   8.027  0.7882  1.4020 -0.4914
 7387SOL     OW33619   2.679   1.392   4.043  0.1121  0.0628  0.3606
 7387SOL    HW133620   2.699   1.329   3.974 -2.0308 -3.3371  2.7864
 7387SOL    HW233621   2.726   1.350   4.116  1.0616  0.2437 -0.1462
 7388SOL     OW33622   4.279   0.998  12.782  0.4116  0.1535 -0.0071
 7388SOL    HW133623   4.221   1.067  12.815 -1.0152 -0.3097 -1.5343
 7388SOL    HW233624   4.341   1.047  12.729 -0.9179  1.1391 -0.6485
 7389SOL     OW33625   1.122   2.833   2.849  0.5208 -0.2718  0.1933
 7389SOL    HW133626   1.118   2.744   2.815  1.9174  0.3627 -1.6381
 7389SOL    HW233627   1.140   2.818   2.942  0.0282  1.2432  0.5390
 7390SOL     OW33628   1.510   4.639   0.029 -0.0345 -0.4755  0.5604
 7390SOL    HW133629   1.457   4.622   0.107  1.0268  2.6727  1.9682
 7390SOL    HW233630   1.436   4.658  17.665 -2.3051 -0.4268  3.4017
 7391SOL     OW33631   3.027   2.635  11.067  0.8748  0.0601 -0.2769
 7391SOL    HW133632   3.017   2.691  10.990 -1.1384  1.0433  0.6844
 7391SOL    HW233633   3.106   2.677  11.101 -0.2148  1.5936  0.3760
 7392SOL     OW33634   1.925   0.600  12.531  0.3559 -0.3574 -0.0358
 7392SOL    HW133635   1.952   0.552  12.452  1.7063  1.8683 -0.9123
 7392SOL    HW233636   1.943   0.692  12.515  0.6518 -0.0779  1.9661
 7393SOL     OW33637   4.433   0.572   9.424 -0.2171 -0.2829 -0.2026
 7393SOL    HW133638   4.420   0.487   9.381  0.5352 -1.4122  1.7773
 7393SOL    HW233639   4.518   0.590   9.384 -0.4016  2.1188  0.5441
 7394SOL     OW33640   2.221   2.228   8.949  0.3797 -0.1195  0.2010
 7394SOL    HW133641   2.131   2.259   8.951 -0.7078 -3.3745  1.4324
 7394SOL    HW233642   2.250   2.225   8.857  0.5462  0.3301  0.2392
 7395SOL     OW33643   4.722   1.638   2.963  0.1037  0.1225 -0.2239
 7395SOL    HW133644   4.692   1.548   2.975  0.5569  0.0839  0.5934
 7395SOL    HW233645   4.714   1.676   3.051  0.4157 -0.2891 -0.0171
 7396SOL     OW33646   3.847   4.136   7.716  0.3658  0.4109 -0.4381
 7396SOL    HW133647   3.867   4.042   7.723  1.4477  0.7412  0.7866
 7396SOL    HW233648   3.905   4.174   7.781 -0.1790 -2.1945  1.5705
 7397SOL     OW33649   3.685   2.627   5.882  0.2868 -0.5898 -0.2253
 7397SOL    HW133650   3.659   2.662   5.796 -0.2553  0.4726  0.3625
 7397SOL    HW233651   3.715   2.540   5.856 -0.4297 -0.8160 -0.2976
 7398SOL     OW33652   2.636   2.091   4.200 -0.9663  0.3634 -0.8690
 7398SOL    HW133653   2.679   2.145   4.266 -0.1272 -0.9130 -0.3738
 7398SOL    HW233654   2.547   2.087   4.236 -0.5466  2.6021  0.4092
 7399SOL     OW33655   3.218   0.405   5.583 -0.1003  0.2655  0.6580
 7399SOL    HW133656   3.277   0.446   5.646  2.1132 -1.2303 -0.4399
 7399SOL    HW233657   3.283   0.363   5.526 -0.2429  0.9606 -0.0041
 7400SOL     OW33658   4.399   3.666  15.101  0.1518 -0.5248 -0.2808
 7400SOL    HW133659   4.322   3.701  15.145  0.0665 -0.0670 -0.8010
 7400SOL    HW233660   4.441   3.750  15.085 -1.4105  0.2799 -0.0679
 7401SOL     OW33661   3.131   3.748   2.158  0.2222 -0.4691 -0.3914
 7401SOL    HW133662   3.066   3.679   2.147  2.1329 -1.7431 -3.5480
 7401SOL    HW233663   3.110   3.799   2.079  0.2639 -1.0430 -0.7747
 7402SOL     OW33664   4.039   4.140   6.044  0.5906 -0.3550 -0.1421
 7402SOL    HW133665   3.970   4.080   6.017 -1.2099  0.7016  2.1405
 7402SOL    HW233666   3.999   4.226   6.028  1.8585  0.2253 -0.2195
 7403SOL     OW33667   0.357   1.339   0.477 -0.3921  0.1350  0.1301
 7403SOL    HW133668   0.392   1.274   0.538  1.8015 -0.1884 -1.4847
 7403SOL    HW233669   0.298   1.386   0.537  1.3597  0.5104  1.5558
 7404SOL     OW33670   3.800   3.623   7.402 -0.1572  0.6273 -0.4500
 7404SOL    HW133671   3.892   3.598   7.393 -0.0828  0.6702  0.1874
 7404SOL    HW233672   3.795   3.687   7.331  3.3061  1.3114 -0.0717
 7405SOL     OW33673   4.686   2.696   5.619 -0.1213 -0.1159  0.0366
 7405SOL    HW133674   4.611   2.637   5.628 -0.0822  0.1022  1.8082
 7405SOL    HW233675   4.722   2.692   5.708 -0.7819  0.9784  0.3438
 7406SOL     OW33676   1.842   2.269   7.621  0.1924  0.2128  0.4632
 7406SOL    HW133677   1.927   2.308   7.600 -0.5935  1.8221  0.3502
 7406SOL    HW233678   1.844   2.199   7.555  0.4688 -1.0394  1.7910
 7407SOL     OW33679   1.878   1.831  15.235  0.2893  0.3628 -0.1732
 7407SOL    HW133680   1.797   1.873  15.205 -0.2638  0.0021  0.8232
 7407SOL    HW233681   1.862   1.737  15.225  2.2864  0.1153 -1.0946
 7408SOL     OW33682   0.625   2.552  16.464  0.1617 -0.2312 -0.2963
 7408SOL    HW133683   0.637   2.498  16.386 -1.8123 -0.3750 -0.5230
 7408SOL    HW233684   0.653   2.488  16.529  3.1467  2.6955  1.2672
 7409SOL     OW33685   0.202   2.387  15.165  0.2532 -0.3606 -0.3322
 7409SOL    HW133686   0.168   2.350  15.083 -4.6682 -2.3444  2.6041
 7409SOL    HW233687   0.122   2.398  15.216  1.3868 -0.1201  1.4153
 7410SOL     OW33688   2.350   2.567   5.583  0.7692 -0.1054 -0.0258
 7410SOL    HW133689   2.394   2.626   5.644  0.9894 -0.8421  0.5253
 7410SOL    HW233690   2.258   2.587   5.603  1.2362  0.7113  1.2744
 7411SOL     OW33691   4.584   2.761   2.785  0.3959 -0.0761  0.0400
 7411SOL    HW133692   4.609   2.708   2.709 -2.2805  0.2862 -1.0912
 7411SOL    HW233693   4.609   2.700   2.854 -0.1789 -1.3052 -0.8442
 7412SOL     OW33694   0.586   4.292   9.917 -0.9079  0.2991  0.0749
 7412SOL    HW133695   0.615   4.308  10.007 -0.3189  1.5852 -0.3300
 7412SOL    HW233696   0.498   4.329   9.918 -0.4731  1.3266  0.5324
 7413SOL     OW33697   2.067   4.504   9.512  0.5308 -0.6002 -0.3495
 7413SOL    HW133698   2.079   4.413   9.488  2.1413  0.1941 -2.4947
 7413SOL    HW233699   1.971   4.505   9.514  0.5938  0.6397  3.0080
 7414SOL     OW33700   4.072   2.742   6.107  0.3800 -0.3172 -0.4935
 7414SOL    HW133701   4.101   2.722   6.196 -0.4764  0.2518 -0.0770
 7414SOL    HW233702   4.007   2.810   6.126  1.2896  0.0363  1.2946
 7415SOL     OW33703   2.290   0.223   0.182  0.2295  0.2233  0.6509
 7415SOL    HW133704   2.321   0.268   0.104 -0.0931 -1.1819 -0.2784
 7415SOL    HW233705   2.202   0.261   0.182  0.7586  1.4639 -0.2806
 7416SOL     OW33706   1.195   3.437   3.411  0.2581  0.3235 -0.2157
 7416SOL    HW133707   1.102   3.451   3.429 -0.0718  1.1064 -2.4704
 7416SOL    HW233708   1.203   3.426   3.316  2.4786  2.4328 -0.2751
 7417SOL     OW33709   4.160   1.693   6.923  0.4935  0.0242  0.1975
 7417SOL    HW133710   4.143   1.600   6.906 -2.1415  0.7839 -1.3013
 7417SOL    HW233711   4.238   1.705   6.869 -0.9923  0.4537 -1.8215
 7418SOL     OW33712   3.355   1.066   5.146  0.1738 -0.2271  0.6219
 7418SOL    HW133713   3.278   1.112   5.179 -0.0063  0.4786 -0.7776
 7418SOL    HW233714   3.355   1.083   5.052  2.1673 -0.6677  0.5468
 7419SOL     OW33715   4.363   1.207   9.931  0.1647  0.0652 -0.6532
 7419SOL    HW133716   4.346   1.205  10.026 -2.8809  0.3468 -1.1864
 7419SOL    HW233717   4.448   1.249   9.923 -0.3960  1.5105  0.7259
 7420SOL     OW33718   3.730   2.140   6.632  0.3364  0.1017  0.2440
 7420SOL    HW133719   3.714   2.047   6.646  0.0517  0.0866 -0.1921
 7420SOL    HW233720   3.804   2.136   6.572 -0.9466 -0.4570 -1.2849
 7421SOL     OW33721   3.279   1.490   4.508 -0.1547  0.0464 -0.0126
 7421SOL    HW133722   3.287   1.516   4.599  0.6154  1.9146 -0.6134
 7421SOL    HW233723   3.349   1.540   4.466  1.1102  0.9440  3.2492
 7422SOL     OW33724   2.287   1.470   1.810  0.1420  0.6673  0.0037
 7422SOL    HW133725   2.298   1.405   1.741 -0.8635 -0.9296  1.3514
 7422SOL    HW233726   2.281   1.414   1.887 -0.8934  2.3669  1.1762
 7423SOL     OW33727   1.966   4.371   3.802  0.4866 -0.6206  0.0121
 7423SOL    HW133728   1.901   4.330   3.747  1.1723 -1.3833 -0.2269
 7423SOL    HW233729   2.038   4.384   3.740  1.5204  0.2046  1.3700
 7424SOL     OW33730   2.050   3.766   8.540  0.4167  0.0364 -0.2329
 7424SOL    HW133731   2.057   3.800   8.450  1.1740  1.8548  0.5075
 7424SOL    HW233732   2.004   3.683   8.534  1.2297 -0.4731  0.6149
 7425SOL     OW33733   2.028   0.412   2.578  0.1359 -0.4814 -0.0996
 7425SOL    HW133734   1.957   0.402   2.514  0.8546 -0.7538 -0.8612
 7425SOL    HW233735   1.978   0.412   2.660 -0.0572 -1.3270 -0.2123
 7426SOL     OW33736   1.524   1.087   2.179  0.0152 -0.3642  0.4998
 7426SOL    HW133737   1.619   1.099   2.176  0.1074 -1.4294 -0.7679
 7426SOL    HW233738   1.516   1.053   2.090 -0.4149  0.5913  0.1766
 7427SOL     OW33739   3.439   3.773   5.368  0.0688 -0.5352  0.0173
 7427SOL    HW133740   3.348   3.747   5.353  0.3193 -0.9324 -0.8419
 7427SOL    HW233741   3.438   3.789   5.462 -0.3050  1.6511 -0.3561
 7428SOL     OW33742   3.020   2.375   8.202  0.2050  0.2017  0.5913
 7428SOL    HW133743   3.080   2.420   8.261  1.1470 -0.8994  0.4761
 7428SOL    HW233744   2.956   2.352   8.270  0.5876 -1.8782  0.2461
 7429SOL     OW33745   3.766   1.781  10.650 -0.1050  0.1720 -0.2941
 7429SOL    HW133746   3.822   1.786  10.572  0.6862  1.6689  0.3698
 7429SOL    HW233747   3.690   1.834  10.625 -1.2263 -1.2781  0.0733
 7430SOL     OW33748   4.472   1.033   5.005 -0.0498 -0.6486  0.7102
 7430SOL    HW133749   4.498   0.946   5.035 -0.2259 -0.7555  0.5499
 7430SOL    HW233750   4.541   1.079   5.053 -1.1463  0.7080  0.9994
 7431SOL     OW33751   1.548   4.238   0.548  0.1772 -0.7675 -0.4200
 7431SOL    HW133752   1.627   4.213   0.597  0.1108  0.4508  0.3230
 7431SOL    HW233753   1.571   4.208   0.460 -0.8522  0.7036 -1.1927
 7432SOL     OW33754   0.051   1.087   8.179  0.1602 -0.4651 -0.1956
 7432SOL    HW133755   4.703   1.100   8.241  1.4880  0.8593  1.0371
 7432SOL    HW233756   0.073   0.996   8.196  0.9916 -0.2724 -0.2367
 7433SOL     OW33757   2.397   4.163   4.295  0.7277  0.3533 -0.0851
 7433SOL    HW133758   2.337   4.169   4.221  0.2151 -0.0125  0.2966
 7433SOL    HW233759   2.469   4.225   4.282  0.1107  1.5912  2.2383
 7434SOL     OW33760   3.672   3.039   4.006  0.0922  0.2591  0.5380
 7434SOL    HW133761   3.596   3.080   4.046 -1.8528 -2.3420 -0.4400
 7434SOL    HW233762   3.655   3.071   3.917  2.1744  0.3361  0.1673
 7435SOL     OW33763   2.186   2.299   3.121 -1.6377  0.2017 -0.5883
 7435SOL    HW133764   2.166   2.389   3.092  1.9850  0.7082 -1.4803
 7435SOL    HW233765   2.279   2.313   3.138 -1.5931  0.8643 -1.3515
 7436SOL     OW33766   4.460   1.632   1.677  0.0422  0.2060 -0.1428
 7436SOL    HW133767   4.534   1.571   1.668 -2.1476 -2.0505 -2.7810
 7436SOL    HW233768   4.390   1.582   1.637  1.4959 -1.1903 -0.9594
 7437SOL     OW33769   2.240   1.426   3.441 -0.1676 -0.3316  0.0866
 7437SOL    HW133770   2.176   1.354   3.438  0.3982 -0.9880  4.0539
 7437SOL    HW233771   2.271   1.428   3.351  0.9211 -0.9326  0.4444
 7438SOL     OW33772   3.943   4.358   2.132 -0.0554  0.1675 -0.1940
 7438SOL    HW133773   3.972   4.447   2.112  0.4284  0.2288  0.7867
 7438SOL    HW233774   3.950   4.317   2.046 -0.0820 -0.0939 -0.0739
 7439SOL     OW33775   3.352   2.229   0.543  0.3748  0.0128  0.2388
 7439SOL    HW133776   3.444   2.209   0.563 -0.2300 -1.2333  1.7007
 7439SOL    HW233777   3.353   2.301   0.606 -1.1245  0.8433 -0.6844
 7440SOL     OW33778   3.108   3.210   5.516 -0.1075  0.1311  0.4221
 7440SOL    HW133779   3.110   3.195   5.421  1.6408 -2.6019  0.8908
 7440SOL    HW233780   3.199   3.232   5.538  0.5579 -0.1261 -2.0746
 7441SOL     OW33781   3.271   2.262   2.276  0.1169  0.2024  0.0493
 7441SOL    HW133782   3.297   2.211   2.353  1.6885  1.2973  0.2345
 7441SOL    HW233783   3.177   2.245   2.273  0.6527 -3.1941  2.1867
 7442SOL     OW33784   2.559   4.670  12.143  0.1425 -0.3237 -0.1700
 7442SOL    HW133785   2.649   4.641  12.162 -0.3423 -1.5674  0.2592
 7442SOL    HW233786   2.546   4.713  12.228 -0.7727  0.3794 -0.6693
 7443SOL     OW33787   1.385   0.913   4.959  0.4913  0.1055 -0.2863
 7443SOL    HW133788   1.442   0.893   5.033 -1.2977  1.4528  1.4745
 7443SOL    HW233789   1.300   0.938   4.997  1.8192 -0.9963  3.3762
 7444SOL     OW33790   3.308   0.144  10.904 -0.9485 -0.6319  0.2439
 7444SOL    HW133791   3.275   0.225  10.941  4.2599  1.3010  0.6121
 7444SOL    HW233792   3.229   0.117  10.857 -1.0469  2.1891 -1.1739
 7445SOL     OW33793   3.628   3.615  14.805 -0.6838 -0.3975 -0.3769
 7445SOL    HW133794   3.560   3.647  14.864  0.2844 -0.3479  0.7126
 7445SOL    HW233795   3.585   3.610  14.720 -2.7731 -3.0226  0.8557
 7446SOL     OW33796   4.674   4.107   8.241 -0.2869  0.1242 -0.3274
 7446SOL    HW133797   0.021   4.170   8.257 -0.7749  0.6654 -0.3165
 7446SOL    HW233798   4.710   4.046   8.177  1.1871  0.1409  0.4778
 7447SOL     OW33799   1.555   0.313   0.483  0.2489  0.6024 -0.5939
 7447SOL    HW133800   1.490   0.270   0.427 -1.4329 -0.7077  2.3210
 7447SOL    HW233801   1.520   0.314   0.573  1.5098 -0.8160 -0.0969
 7448SOL     OW33802   4.038   0.661   7.936  0.2751  0.7583  0.6236
 7448SOL    HW133803   4.107   0.715   7.895  0.0027 -0.2201 -1.1218
 7448SOL    HW233804   4.008   0.729   7.996  1.6399  1.2465  0.7610
 7449SOL     OW33805   2.537   1.613   9.224  0.8783  0.2932  0.3291
 7449SOL    HW133806   2.517   1.519   9.220  1.6251  0.0548  2.3401
 7449SOL    HW233807   2.600   1.616   9.296 -0.5068 -0.2142  1.5447
 7450SOL     OW33808   3.064   2.728   4.422 -0.1291 -0.0571 -0.1324
 7450SOL    HW133809   2.991   2.749   4.481 -0.6989  0.0733 -0.8950
 7450SOL    HW233810   3.033   2.731   4.332  2.5134  1.2394 -1.0085
 7451SOL     OW33811   3.951   2.092   1.821 -0.2551  0.1653 -0.5783
 7451SOL    HW133812   3.941   2.112   1.914  1.0887  2.7724 -0.9918
 7451SOL    HW233813   4.044   2.073   1.809 -0.2891 -0.2610 -0.1580
 7452SOL     OW33814   3.418   2.899   1.100 -0.3257 -0.6667 -0.2277
 7452SOL    HW133815   3.325   2.891   1.077 -0.6912 -1.8305  1.6694
 7452SOL    HW233816   3.454   2.953   1.029 -0.7726 -0.4575 -0.2937
 7453SOL     OW33817   3.112   2.503   5.056  0.3728 -0.0579 -0.0425
 7453SOL    HW133818   3.159   2.567   5.110 -1.0492 -0.4037  1.5892
 7453SOL    HW233819   3.022   2.535   5.053  0.3280 -0.3533 -2.0564
 7454SOL     OW33820   2.996   1.293   3.982 -0.2379 -0.1755  0.5604
 7454SOL    HW133821   3.058   1.283   3.910  0.3676  0.7057  0.9575
 7454SOL    HW233822   2.912   1.268   3.944 -1.1510  3.0425  0.5008
 7455SOL     OW33823   2.820   1.231   5.504  0.6058 -0.1664 -0.1487
 7455SOL    HW133824   2.885   1.161   5.499  1.2173  0.3890  0.0468
 7455SOL    HW233825   2.863   1.306   5.463  0.4312  0.4576  0.8070
 7456SOL     OW33826   1.934   4.636  17.088 -0.7649 -0.0295 -0.1162
 7456SOL    HW133827   2.017   4.675  17.116 -1.7765 -0.1018  2.8974
 7456SOL    HW233828   1.951   4.593  17.004 -0.2161  0.2502 -0.1455
 7457SOL     OW33829   3.283   0.286   4.988 -0.4236  0.4129 -0.5380
 7457SOL    HW133830   3.340   0.360   4.968 -1.5639  1.4442  0.0123
 7457SOL    HW233831   3.268   0.306   5.081 -0.6234  0.6062 -0.6118
 7458SOL     OW33832   2.377   1.182   2.431 -0.4092 -0.3164 -0.0519
 7458SOL    HW133833   2.304   1.131   2.467 -0.6408  0.8107  1.0680
 7458SOL    HW233834   2.349   1.272   2.450 -1.8616 -0.8803  0.4691
 7459SOL     OW33835   0.078   3.296   6.733  0.5206  0.5227  0.0976
 7459SOL    HW133836   0.035   3.335   6.810 -2.2590 -1.2354 -0.6016
 7459SOL    HW233837   0.143   3.364   6.714 -0.5907  1.4577 -0.3365
 7460SOL     OW33838   3.039   3.817   1.605 -0.5841 -0.0956  0.7206
 7460SOL    HW133839   3.133   3.809   1.589 -0.8819  0.3207 -1.2332
 7460SOL    HW233840   3.007   3.730   1.583 -0.9719 -0.0306  1.0335
 7461SOL     OW33841   2.734   3.302   6.791 -0.2543  0.2490  0.3334
 7461SOL    HW133842   2.718   3.338   6.878  0.5135  0.1353  0.5136
 7461SOL    HW233843   2.644   3.288   6.759  0.0257  0.1625 -0.4193
 7462SOL     OW33844   0.989   3.937   2.936 -0.6606  0.3022 -0.2136
 7462SOL    HW133845   1.001   3.914   2.844  0.6006  0.3287 -0.0565
 7462SOL    HW233846   0.947   3.859   2.973  0.7717 -1.0360 -1.4128
 7463SOL     OW33847   1.388   3.475   7.429  0.5104 -0.4702  0.2095
 7463SOL    HW133848   1.340   3.418   7.489 -0.1173  0.9483  1.0740
 7463SOL    HW233849   1.376   3.424   7.350  0.7233 -0.9373  0.4816
 7464SOL     OW33850   2.463   1.321  12.034  0.0004 -0.3501  0.6487
 7464SOL    HW133851   2.492   1.396  12.086 -0.4486  1.2073 -1.3580
 7464SOL    HW233852   2.467   1.348  11.942 -1.3497 -0.6029  0.5181
 7465SOL     OW33853   2.342   1.662  12.974  0.0180 -0.1783  0.4298
 7465SOL    HW133854   2.257   1.623  12.952 -0.6572  2.9862 -2.5651
 7465SOL    HW233855   2.391   1.606  12.915 -1.0461 -1.0983  0.4224
 7466SOL     OW33856   1.127   3.075   3.072 -0.2750 -0.3175  0.1735
 7466SOL    HW133857   1.187   3.028   3.014  1.6145  2.1037  0.1459
 7466SOL    HW233858   1.109   3.152   3.017 -0.1790 -1.1317 -0.9895
 7467SOL     OW33859   1.289   3.794   6.956  0.7391 -0.7677 -0.6463
 7467SOL    HW133860   1.274   3.728   6.888 -2.6218 -0.3841 -0.2777
 7467SOL    HW233861   1.213   3.852   6.950 -0.2028 -1.9444 -0.2866
 7468SOL     OW33862   0.659   3.387   2.481  0.2816  0.6283 -0.2350
 7468SOL    HW133863   0.604   3.371   2.404  3.1376 -1.5691 -1.7941
 7468SOL    HW233864   0.594   3.436   2.531  0.1373  1.3843 -1.1584
 7469SOL     OW33865   1.113   0.011   1.022  0.3391  0.6217  0.1643
 7469SOL    HW133866   1.188   4.674   1.028  2.0674  2.6264 -1.1822
 7469SOL    HW233867   1.046   4.669   1.002 -1.3178  1.6758  2.3885
 7470SOL     OW33868   1.691   4.351  17.322  0.0208 -0.2480 -0.1599
 7470SOL    HW133869   1.631   4.276  17.316  0.8010 -0.8898  0.0311
 7470SOL    HW233870   1.696   4.366  17.416  2.8076 -1.4579 -0.1114
 7471SOL     OW33871   2.073   2.787   5.970  0.2914  0.3558 -0.0673
 7471SOL    HW133872   2.136   2.744   6.027  1.0648  0.4544 -0.8309
 7471SOL    HW233873   2.058   2.861   6.029  0.6902 -0.6701  1.2998
 7472SOL     OW33874   0.202   0.423   1.014 -0.2636  0.4329 -0.0847
 7472SOL    HW133875   0.241   0.469   1.089  2.4889 -3.6600  0.9501
 7472SOL    HW233876   0.181   0.351   1.074  0.2496 -0.7207 -1.3103
 7473SOL     OW33877   0.363   2.959   9.207 -0.1216  0.0869 -0.2452
 7473SOL    HW133878   0.317   2.976   9.289  0.4311 -1.7515  0.4396
 7473SOL    HW233879   0.388   2.867   9.198  0.0875  0.3271 -2.2173
 7474SOL     OW33880   2.776   4.149   8.451  0.2621 -0.7210  0.4666
 7474SOL    HW133881   2.859   4.149   8.499  0.0896  0.2649  0.7521
 7474SOL    HW233882   2.746   4.235   8.480  1.3889 -0.3030  0.3876
 7475SOL     OW33883   2.567   4.493   8.280 -0.2596 -0.2973 -0.2514
 7475SOL    HW133884   2.609   4.544   8.211  0.6894 -0.1035  0.4647
 7475SOL    HW233885   2.580   4.409   8.236  2.7902 -1.0882  2.1675
 7476SOL     OW33886   3.942   3.156   4.813 -0.5341 -0.6778  0.0976
 7476SOL    HW133887   4.002   3.229   4.830  0.2414 -1.1333 -0.7573
 7476SOL    HW233888   4.002   3.092   4.776 -0.6914  0.1229 -1.5373
 7477SOL     OW33889   3.407   2.859   3.684  0.4114 -0.1823  0.0779
 7477SOL    HW133890   3.396   2.916   3.608  0.4387  0.5406  0.6175
 7477SOL    HW233891   3.368   2.911   3.754 -0.6377 -2.1237  0.9437
 7478SOL     OW33892   0.808   0.827  17.216  0.0303 -0.3786 -0.3151
 7478SOL    HW133893   0.796   0.744  17.170  0.6083 -0.9666  0.5674
 7478SOL    HW233894   0.787   0.798  17.305  0.1799  0.1209 -0.1142
 7479SOL     OW33895   3.869   1.875  17.165  0.2282  0.3034  0.3174
 7479SOL    HW133896   3.804   1.815  17.202  0.2396 -1.1836 -2.0688
 7479SOL    HW233897   3.930   1.870  17.238  0.0098 -0.8439  0.4236
 7480SOL     OW33898   3.384   3.066   8.099 -0.4481 -0.2037 -0.4729
 7480SOL    HW133899   3.408   3.060   8.007 -1.2487 -0.3261 -0.6724
 7480SOL    HW233900   3.378   3.160   8.116 -1.0366 -0.2750 -0.2839
 7481SOL     OW33901   4.341   1.874  10.630  0.3060  0.1565  0.3171
 7481SOL    HW133902   4.252   1.881  10.594  0.6720 -1.5618 -0.8957
 7481SOL    HW233903   4.370   1.800  10.577  1.1561  0.8294 -0.1594
 7482SOL     OW33904   1.014   2.578   7.298  0.3672 -0.3533  0.2877
 7482SOL    HW133905   0.976   2.515   7.237  1.4352  1.8402 -2.6506
 7482SOL    HW233906   0.932   2.621   7.324  0.8174  0.7550 -0.1253
 7483SOL     OW33907   2.613   1.889   7.480  0.0473  0.1012 -0.0692
 7483SOL    HW133908   2.666   1.966   7.459 -1.6803  1.0614 -0.9869
 7483SOL    HW233909   2.525   1.926   7.467  0.6632  0.9057 -2.0056
 7484SOL     OW33910   1.243   1.012  17.484 -0.2772 -0.2626 -0.1914
 7484SOL    HW133911   1.325   1.039  17.525 -1.3694 -1.3550  2.6611
 7484SOL    HW233912   1.279   0.964  17.410  0.3462 -0.6656  0.3711
 7485SOL     OW33913   2.888   1.525   2.985  0.6605 -0.1035  0.2058
 7485SOL    HW133914   2.853   1.437   2.998  0.8930 -0.1495  0.5115
 7485SOL    HW233915   2.835   1.589   3.032 -0.8546 -0.1377 -1.4393
 7486SOL     OW33916   4.180   3.626   3.236  0.2185 -0.0766 -0.3257
 7486SOL    HW133917   4.181   3.554   3.172  1.2389 -0.5050  0.1701
 7486SOL    HW233918   4.087   3.616   3.256 -0.1685  1.1936 -1.5481
 7487SOL     OW33919   3.366   3.189   2.780 -0.1100  0.6466 -0.0099
 7487SOL    HW133920   3.307   3.137   2.835 -1.4579 -0.1179 -2.2071
 7487SOL    HW233921   3.448   3.140   2.783 -0.1648  0.7469  3.0603
 7488SOL     OW33922   1.349   2.916  16.884 -0.2676 -0.5576 -0.1292
 7488SOL    HW133923   1.401   2.902  16.963  0.1314 -3.4218 -0.9147
 7488SOL    HW233924   1.375   3.006  16.863 -0.4215 -0.1824  1.3079
 7489SOL     OW33925   0.926   1.518   6.645  0.8001 -0.1341 -0.2627
 7489SOL    HW133926   0.963   1.534   6.558  0.0217  0.1651 -0.5432
 7489SOL    HW233927   0.909   1.609   6.668  0.2996 -0.2629 -0.1196
 7490SOL     OW33928   0.548   2.488  17.230 -0.3547 -0.2208  0.6242
 7490SOL    HW133929   0.513   2.507  17.317  1.3220  1.2574  0.9684
 7490SOL    HW233930   0.594   2.406  17.250 -0.0329 -0.8589 -2.6302
 7491SOL     OW33931   1.310   1.871   8.991  0.3464  0.2369 -0.0333
 7491SOL    HW133932   1.366   1.939   9.028 -0.0343  0.5183  0.0314
 7491SOL    HW233933   1.318   1.784   9.030 -1.3467 -0.5124 -1.3509
 7492SOL     OW33934   0.961   1.207   8.731 -0.3367  0.2414  0.0959
 7492SOL    HW133935   1.027   1.219   8.663 -0.3022  0.7848  0.2266
 7492SOL    HW233936   0.895   1.272   8.707  2.9436  2.3180 -3.2116
 7493SOL     OW33937   3.958   1.910   4.419 -0.2981  0.2729  0.3048
 7493SOL    HW133938   3.920   1.914   4.331 -1.4365  2.7026  0.9019
 7493SOL    HW233939   4.014   1.985   4.400  0.3127 -0.0586  0.7965
 7494SOL     OW33940   0.149   0.175   0.084 -0.4695  0.8782 -0.3182
 7494SOL    HW133941   0.164   0.228   0.163  1.1135  0.8747 -0.6189
 7494SOL    HW233942   0.088   0.228   0.033  0.0847 -0.3218 -2.2336
 7495SOL     OW33943   3.595   0.565   5.164  0.8018 -0.2742  0.2265
 7495SOL    HW133944   3.564   0.519   5.086  0.9661  0.7690 -0.4541
 7495SOL    HW233945   3.542   0.645   5.172  2.6851  0.9668  0.3530
 7496SOL     OW33946   3.191   3.507   3.331 -0.3551  0.0806 -0.5745
 7496SOL    HW133947   3.210   3.560   3.254 -2.7228  1.0430 -0.4822
 7496SOL    HW233948   3.281   3.489   3.360  0.3478  1.4652 -1.8708
 7497SOL     OW33949   2.862   2.653   0.289  0.3212 -0.1042  0.5447
 7497SOL    HW133950   2.880   2.634   0.382  2.6338 -0.0550  0.1261
 7497SOL    HW233951   2.814   2.735   0.290 -2.4341 -1.7315  1.2306
 7498SOL     OW33952   2.218   2.894   7.749 -0.4210 -0.7350 -0.0881
 7498SOL    HW133953   2.162   2.967   7.777 -0.9518 -0.3449 -2.1806
 7498SOL    HW233954   2.156   2.860   7.684 -0.8160 -0.2332  0.0276
 7499SOL     OW33955   1.830   4.703  12.352 -0.2135 -0.3166  0.4230
 7499SOL    HW133956   1.817   0.034  12.430 -2.9955 -0.4862  0.0711
 7499SOL    HW233957   1.905   4.650  12.380  0.3412 -0.4783 -1.3649
 7500SOL     OW33958   2.903   1.112   4.970  0.1495 -0.0799  0.0622
 7500SOL    HW133959   2.861   1.051   4.909  1.8772 -2.4093  1.2012
 7500SOL    HW233960   2.876   1.072   5.053  2.2632 -0.0448  0.7767
 7501SOL     OW33961   2.721   2.752   7.944 -0.4305  0.0460 -0.1251
 7501SOL    HW133962   2.646   2.722   7.892 -0.7918  1.4758 -0.4115
 7501SOL    HW233963   2.800   2.714   7.905 -1.2358  0.0117 -1.7454
 7502SOL     OW33964   3.779   3.583   9.768  0.6559 -0.4085  0.0616
 7502SOL    HW133965   3.800   3.528   9.693  0.7441 -1.7418  1.0586
 7502SOL    HW233966   3.711   3.644   9.739  0.1163 -1.3966 -0.7217
 7503SOL     OW33967   3.089   3.046  17.432  0.2643  0.1138  0.1440
 7503SOL    HW133968   3.147   3.122  17.431 -0.0036  0.3245  0.4539
 7503SOL    HW233969   3.082   3.034  17.527  0.2326 -3.9411 -0.4022
 7504SOL     OW33970   3.751   1.684   7.063 -0.2002  0.1157 -0.9626
 7504SOL    HW133971   3.665   1.709   7.097 -0.2021  0.5101 -1.2455
 7504SOL    HW233972   3.808   1.747   7.107  0.0704  0.9596 -2.5301
 7505SOL     OW33973   2.662   0.551   2.586 -0.0470  0.4679 -0.0289
 7505SOL    HW133974   2.687   0.489   2.654 -0.1245  1.5353  0.9747
 7505SOL    HW233975   2.717   0.506   2.521  0.0271 -1.2292  1.2030
 7506SOL     OW33976   0.252   4.526   5.425  0.2366  0.5268  0.2340
 7506SOL    HW133977   0.300   4.506   5.505 -1.0266  0.5846  1.0075
 7506SOL    HW233978   0.316   4.516   5.354 -1.7522  2.1908 -1.8106
 7507SOL     OW33979   1.230   0.495  16.857 -0.9744 -0.2428  0.0769
 7507SOL    HW133980   1.184   0.577  16.876  0.6848  0.6548  0.2092
 7507SOL    HW233981   1.318   0.529  16.845 -0.2098 -2.2083  0.1671
 7508SOL     OW33982   4.198   0.406   1.864 -0.2405 -0.2266 -0.0552
 7508SOL    HW133983   4.138   0.479   1.846 -0.0215 -0.1455 -0.4414
 7508SOL    HW233984   4.285   0.444   1.872  0.1525 -1.4030  1.1701
 7509SOL     OW33985   0.371   0.009   1.921 -0.8155  0.6390 -0.0301
 7509SOL    HW133986   0.365   0.100   1.894  0.4288  0.4864 -0.8009
 7509SOL    HW233987   0.407   4.685   1.846  0.9816 -0.2908  1.4070
 7510SOL     OW33988   1.480   1.680   4.195 -0.3245 -0.2516  0.3703
 7510SOL    HW133989   1.574   1.680   4.178 -0.4333  1.0723 -0.2099
 7510SOL    HW233990   1.474   1.669   4.290  1.5238  0.6971  0.5924
 7511SOL     OW33991   1.796   2.143  12.397 -1.1665 -0.9894  0.1136
 7511SOL    HW133992   1.739   2.102  12.461 -2.8284 -2.7299 -2.4792
 7511SOL    HW233993   1.882   2.127  12.435  0.5073  3.3794 -1.7432
 7512SOL     OW33994   3.636   2.032   3.522  0.4180 -0.4601  0.2782
 7512SOL    HW133995   3.583   1.952   3.516  0.8008 -0.8651  2.3835
 7512SOL    HW233996   3.683   2.013   3.602 -1.0854  0.6584  1.4200
 7513SOL     OW33997   3.928   2.280   3.990  0.0483 -0.0695  0.2396
 7513SOL    HW133998   3.937   2.352   4.052  1.4318 -0.0352  0.0001
 7513SOL    HW233999   3.874   2.310   3.917  1.8028 -1.6732 -1.7178
 7514SOL     OW34000   3.095   4.479   3.077  0.4716 -0.5581  0.4652
 7514SOL    HW134001   3.101   4.545   3.146  1.7895 -0.4017  0.2034
 7514SOL    HW234002   3.135   4.402   3.118 -0.0554 -0.5810  0.9363
 7515SOL     OW34003   1.563   1.091   8.192 -0.2223 -0.5247 -0.7284
 7515SOL    HW134004   1.551   1.147   8.115 -0.8961  1.4427  0.8004
 7515SOL    HW234005   1.470   1.084   8.211  0.1035 -1.2469  0.5959
 7516SOL     OW34006   0.206   3.945   9.092  0.1963  0.0654 -0.3781
 7516SOL    HW134007   0.215   3.980   9.181 -0.3742  0.1326 -0.3462
 7516SOL    HW234008   0.296   3.940   9.060 -0.4368  0.6104 -2.2473
 7517SOL     OW34009   3.045   2.293   0.691  0.7326  0.2680  0.5408
 7517SOL    HW134010   3.125   2.293   0.744  1.6846 -0.4964 -0.9163
 7517SOL    HW234011   3.054   2.384   0.662 -2.1235  1.2656  2.7657
 7518SOL     OW34012   1.160   2.625   8.189 -0.0981  0.3953  0.4174
 7518SOL    HW134013   1.248   2.588   8.196 -0.5148 -0.2909  2.1457
 7518SOL    HW234014   1.161   2.672   8.273 -3.0130 -0.6356  1.0310
 7519SOL     OW34015   0.110   0.782   0.601 -0.3128  0.1518 -0.4084
 7519SOL    HW134016   0.094   0.706   0.657 -2.2090  0.0134 -1.1231
 7519SOL    HW234017   0.058   0.753   0.526  0.0957 -0.7387 -0.3479
 7520SOL     OW34018   2.362   4.622  15.610  0.2228 -0.1798  0.1484
 7520SOL    HW134019   2.453   4.633  15.581 -0.9196  3.5167 -2.0235
 7520SOL    HW234020   2.373   4.629  15.705  0.4006  0.8186  0.0511
 7521SOL     OW34021   1.336   0.953  14.640 -0.3369  0.8929 -0.5600
 7521SOL    HW134022   1.306   1.038  14.607 -1.4066  0.7232 -0.0508
 7521SOL    HW234023   1.312   0.968  14.732  2.9285  0.5072  0.3508
 7522SOL     OW34024   3.001   3.708   0.272 -0.3374 -0.3395 -0.2398
 7522SOL    HW134025   3.094   3.721   0.252 -0.0475 -0.2163  1.2036
 7522SOL    HW234026   2.967   3.788   0.231  1.5113  0.7955  0.4366
 7523SOL     OW34027   2.454   4.385   1.699 -0.0769  0.3403 -0.0996
 7523SOL    HW134028   2.401   4.423   1.628  0.9460  1.4246 -0.2880
 7523SOL    HW234029   2.475   4.302   1.656 -0.1976 -2.1540  4.6854
 7524SOL     OW34030   2.232   0.060   8.872  0.0437 -0.2408 -0.0024
 7524SOL    HW134031   2.293   0.059   8.798  1.2858  0.0879  1.0161
 7524SOL    HW234032   2.160   0.006   8.839 -0.1719  0.5172 -0.7872
 7525SOL     OW34033   3.311   3.894  13.707 -0.0279  0.4830  0.1596
 7525SOL    HW134034   3.292   3.811  13.751  0.9194  0.3774  0.3737
 7525SOL    HW234035   3.321   3.967  13.768 -0.1058 -1.3087  2.3210
 7526SOL     OW34036   3.258   4.070  14.393 -0.4238 -0.0472 -0.2088
 7526SOL    HW134037   3.327   4.017  14.352 -0.6206 -1.2117  0.9354
 7526SOL    HW234038   3.246   4.137  14.327  2.0942 -0.3246 -0.9603
 7527SOL     OW34039   0.279   3.628   7.812 -0.1139  0.5752  0.3155
 7527SOL    HW134040   0.278   3.721   7.835 -1.7025  0.8111 -0.7501
 7527SOL    HW234041   0.360   3.619   7.762 -0.3943  2.5829 -0.5093
 7528SOL     OW34042   3.262   0.651   2.879  0.2555 -1.0021  0.5050
 7528SOL    HW134043   3.297   0.601   2.953 -1.5490  2.1431  3.4515
 7528SOL    HW234044   3.203   0.710   2.926 -0.0061 -1.1663  0.3825
 7529SOL     OW34045   1.822   1.561   6.315  0.4477  0.0433 -0.0246
 7529SOL    HW134046   1.821   1.649   6.353 -1.9726  0.0543 -0.1236
 7529SOL    HW234047   1.882   1.568   6.240  0.2196  1.0353 -0.1051
 7530SOL     OW34048   1.484   2.335   4.763  0.0838 -0.4564 -0.0120
 7530SOL    HW134049   1.523   2.379   4.839  0.7274 -0.3582 -0.4032
 7530SOL    HW234050   1.411   2.395   4.746  0.6091 -0.5646 -2.6248
 7531SOL     OW34051   4.079   3.617  14.492 -0.7710 -0.0395  0.3107
 7531SOL    HW134052   4.045   3.604  14.580  0.4675 -2.4656  0.4348
 7531SOL    HW234053   4.003   3.625  14.435 -0.4271  2.4609  0.2072
 7532SOL     OW34054   1.875   1.023  17.606  0.3821  0.2385  0.3315
 7532SOL    HW134055   1.936   0.975  17.662  1.3158  0.2563 -0.6941
 7532SOL    HW234056   1.929   1.063  17.538  3.3934 -1.2833  1.8230
 7533SOL     OW34057   1.209   2.125   6.230  0.0930 -0.2836  0.0498
 7533SOL    HW134058   1.298   2.154   6.208  0.4528 -0.5598  1.1326
 7533SOL    HW234059   1.158   2.198   6.195 -0.5485 -0.1066  1.3471
 7534SOL     OW34060   4.311   1.579   4.336 -0.0404 -0.0219  0.1681
 7534SOL    HW134061   4.253   1.505   4.354  0.4155  0.0420  1.9151
 7534SOL    HW234062   4.264   1.651   4.380  2.5658  1.1963  0.9533
 7535SOL     OW34063   0.593   3.382   1.635  0.3263  0.9498 -0.3117
 7535SOL    HW134064   0.542   3.316   1.681  2.3360  0.6124  1.4588
 7535SOL    HW234065   0.655   3.399   1.706 -1.7394 -1.7401  2.1317
 7536SOL     OW34066   3.498   1.505   4.118 -0.0737 -0.6713  0.0922
 7536SOL    HW134067   3.525   1.448   4.046  0.0379 -0.9925  0.3817
 7536SOL    HW234068   3.553   1.583   4.110 -4.3846  2.3428  0.1917
 7537SOL     OW34069   4.476   3.782   0.593 -0.1153 -0.4213 -0.1343
 7537SOL    HW134070   4.544   3.849   0.589 -0.1532 -0.3486  0.4082
 7537SOL    HW234071   4.400   3.831   0.624 -0.0733 -0.9783  0.8712
 7538SOL     OW34072   1.539   2.200  10.483  0.3558  0.9251 -0.0251
 7538SOL    HW134073   1.592   2.129  10.449  1.5999  1.4207  0.8997
 7538SOL    HW234074   1.458   2.159  10.515  1.1297  0.2797  1.0998
 7539SOL     OW34075   1.057   0.051   8.193 -0.2811  0.8264  0.4215
 7539SOL    HW134076   1.140   0.083   8.157  0.2937 -0.3959  0.6467
 7539SOL    HW234077   1.023   0.123   8.246 -1.2239 -1.3471  2.7905
 7540SOL     OW34078   4.296   2.448  10.646 -0.1153  0.0810  0.0849
 7540SOL    HW134079   4.272   2.378  10.585 -3.7901  1.0756  0.3667
 7540SOL    HW234080   4.240   2.429  10.722  0.6792  0.4695  0.7776
 7541SOL     OW34081   1.361   4.164   4.712  0.3229  0.6047 -0.4430
 7541SOL    HW134082   1.335   4.101   4.644  0.3515  1.1850 -0.9949
 7541SOL    HW234083   1.445   4.125   4.736 -0.9821 -1.2130  1.1589
 7542SOL     OW34084   4.003   2.365  16.363  0.0177  0.1740  0.7641
 7542SOL    HW134085   3.993   2.301  16.433 -1.2707  3.9532  4.0332
 7542SOL    HW234086   3.945   2.434  16.393 -0.4310  0.5932 -1.0921
 7543SOL     OW34087   0.047   3.550   1.306  0.5327  0.4699 -0.1419
 7543SOL    HW134088   0.117   3.485   1.301 -0.9241 -1.1941  0.9322
 7543SOL    HW234089   0.098   3.628   1.327  1.8035 -0.3549 -0.1840
 7544SOL     OW34090   1.040   1.926  17.120 -0.2050  0.2333  0.2874
 7544SOL    HW134091   1.135   1.936  17.120 -0.2902  1.0997  0.3456
 7544SOL    HW234092   1.030   1.869  17.196 -1.0552 -1.6484 -1.2227
 7545SOL     OW34093   0.825   3.316  13.496 -0.2044 -0.4458  0.0440
 7545SOL    HW134094   0.893   3.286  13.557 -1.0558 -2.2216  0.1493
 7545SOL    HW234095   0.761   3.357  13.554 -0.3784 -0.0799 -0.4124
 7546SOL     OW34096   3.691   1.103   5.908 -0.4098 -0.4153 -0.1973
 7546SOL    HW134097   3.697   1.091   5.814 -0.5132 -1.3321 -0.0906
 7546SOL    HW234098   3.716   1.194   5.921  1.3402 -1.0575  0.9615
 7547SOL     OW34099   3.611   1.468   2.997  0.2885 -0.5923  0.1279
 7547SOL    HW134100   3.608   1.560   3.025  0.6473 -0.9993  1.5007
 7547SOL    HW234101   3.635   1.479   2.905  2.7973  2.3094  1.1034
 7548SOL     OW34102   0.799   2.331   7.694  0.1080  0.4723  0.3425
 7548SOL    HW134103   0.832   2.309   7.607 -1.0927 -1.5973  0.3943
 7548SOL    HW234104   0.705   2.311   7.685 -0.0675  1.2289  0.4978
 7549SOL     OW34105   2.036   1.274   2.702  0.1930  0.7199 -0.1500
 7549SOL    HW134106   2.025   1.341   2.769  0.1012  1.1502 -0.5958
 7549SOL    HW234107   1.946   1.272   2.668  0.0118  2.1870  0.2478
 7550SOL     OW34108   4.102   3.316   8.041  0.2262  0.7523 -0.4602
 7550SOL    HW134109   4.121   3.344   8.131 -0.2369  0.2283 -0.2050
 7550SOL    HW234110   4.067   3.401   8.014  1.1586  1.0537 -0.7501
 7551SOL     OW34111   4.215   0.230  14.631  0.1479 -0.2048  0.0898
 7551SOL    HW134112   4.208   0.236  14.536 -0.6126 -0.4720  0.1317
 7551SOL    HW234113   4.256   0.143  14.636 -1.3123 -1.0563 -2.6814
 7552SOL     OW34114   4.011   4.236  17.493  0.9271 -0.1673  0.0665
 7552SOL    HW134115   4.097   4.241  17.453  0.4733 -0.0887 -0.8931
 7552SOL    HW234116   4.011   4.142  17.513  1.5375 -0.2347 -0.2688
 7553SOL     OW34117   0.266   0.460  12.038 -0.0363 -0.0530  0.3169
 7553SOL    HW134118   0.224   0.488  11.956  1.5331  0.5857 -0.2598
 7553SOL    HW234119   0.339   0.407  12.007 -1.3543 -1.6784 -0.0641
 7554SOL     OW34120   2.479   3.607   4.007  0.0920 -0.2401  0.2052
 7554SOL    HW134121   2.560   3.658   4.005 -0.0990  0.1116  1.3137
 7554SOL    HW234122   2.422   3.684   4.014  1.1846  0.5176  0.7380
 7555SOL     OW34123   3.494   1.887  11.806  0.9746 -0.5383  0.0514
 7555SOL    HW134124   3.583   1.853  11.799  0.8972 -0.4317 -1.3203
 7555SOL    HW234125   3.468   1.879  11.898  0.3956 -1.5955 -0.2121
 7556SOL     OW34126   1.701   2.667   6.523 -0.2579  0.3785  0.1509
 7556SOL    HW134127   1.644   2.675   6.600 -0.3312 -0.8299  0.2142
 7556SOL    HW234128   1.730   2.576   6.530 -2.8817 -0.3159  1.9377
 7557SOL     OW34129   3.112   0.138   9.302  0.5318  0.2236  0.0933
 7557SOL    HW134130   3.113   0.227   9.266  1.2379  0.7429  1.4072
 7557SOL    HW234131   3.177   0.135   9.372 -1.3432 -3.7964  1.6796
 7558SOL     OW34132   1.874   0.357   2.096  0.1209 -0.5795 -0.3885
 7558SOL    HW134133   1.954   0.364   2.042  0.6594  0.8608  0.5963
 7558SOL    HW234134   1.897   0.278   2.146  0.4103 -0.2980 -0.0767
 7559SOL     OW34135   1.640   2.757   4.822 -0.1418 -0.1883  0.5562
 7559SOL    HW134136   1.667   2.777   4.912  0.2997 -0.8064  0.5632
 7559SOL    HW234137   1.643   2.662   4.831  1.7426 -0.2941 -1.0638
 7560SOL     OW34138   2.631   4.174   5.923 -0.3891 -0.1129  0.9981
 7560SOL    HW134139   2.650   4.084   5.951 -0.7694 -0.4377  0.1907
 7560SOL    HW234140   2.716   4.217   5.910 -0.5786  0.1427  0.5987
 7561SOL     OW34141   3.101   3.242  16.652  0.3808  0.2319 -0.6906
 7561SOL    HW134142   3.070   3.326  16.619  0.8499  0.8827  0.5139
 7561SOL    HW234143   3.183   3.245  16.602  3.8743 -0.1904  4.9047
 7562SOL     OW34144   4.649   0.045   2.310  0.0049 -0.3689  0.0346
 7562SOL    HW134145   0.019   0.061   2.296  0.1665  0.3173  1.9163
 7562SOL    HW234146   4.643   0.016   2.401 -1.9426 -2.3860 -0.7325
 7563SOL     OW34147   0.652   4.069   7.319 -0.6915 -0.0295 -0.3777
 7563SOL    HW134148   0.562   4.036   7.323 -1.1321  1.1304 -0.7248
 7563SOL    HW234149   0.653   4.150   7.371  3.2699  0.8579 -1.7653
 7564SOL     OW34150   1.532   1.216  16.140  0.0567  0.1552 -0.4705
 7564SOL    HW134151   1.451   1.219  16.191  1.2548 -2.4876  1.5371
 7564SOL    HW234152   1.516   1.137  16.089  0.1363 -0.2994  0.2061
 7565SOL     OW34153   0.622   3.564   3.776  0.1326  0.1705  0.0398
 7565SOL    HW134154   0.543   3.548   3.724  1.0588 -1.4209 -0.8274
 7565SOL    HW234155   0.689   3.582   3.711 -0.4821 -0.8383 -0.8625
 7566SOL     OW34156   4.052   4.674   3.599  0.6590  0.5933  0.2466
 7566SOL    HW134157   4.101   4.593   3.613  0.2188  0.3138  0.1808
 7566SOL    HW234158   3.965   4.639   3.582  0.7858  0.6809 -0.5943
 7567SOL     OW34159   1.901   0.167  13.963 -0.0718  0.6106 -0.3441
 7567SOL    HW134160   1.888   0.220  13.884 -0.4235  2.3724  0.9039
 7567SOL    HW234161   1.896   0.075  13.936  1.1680  0.4005  0.1378
 7568SOL     OW34162   1.979   1.089   7.978  0.5738 -0.0963 -0.3706
 7568SOL    HW134163   2.073   1.102   7.989  0.7675 -2.3502  0.6379
 7568SOL    HW234164   1.968   1.068   7.885  2.7404  1.7261 -1.0329
 7569SOL     OW34165   3.812   3.160  14.195  0.3675 -0.0676 -0.3526
 7569SOL    HW134166   3.729   3.143  14.239 -0.0520  0.6598 -0.8597
 7569SOL    HW234167   3.865   3.187  14.270  0.5777  1.3120 -0.9823
 7570SOL     OW34168   3.199   0.298  14.789 -0.1993 -0.1768 -0.5504
 7570SOL    HW134169   3.227   0.365  14.726 -0.7566  0.7276  0.1766
 7570SOL    HW234170   3.211   0.338  14.875 -0.7129 -2.4750  0.5874
 7571SOL     OW34171   3.496   3.262   4.687  0.0103 -0.4887  0.0140
 7571SOL    HW134172   3.575   3.255   4.741 -0.2409 -0.6797  0.3607
 7571SOL    HW234173   3.438   3.213   4.747 -1.2606  2.6347  1.3181
 7572SOL     OW34174   4.625   2.202   0.857  0.1007 -0.3074 -0.2267
 7572SOL    HW134175   4.684   2.204   0.782 -0.2437 -0.5618 -0.5072
 7572SOL    HW234176   4.685   2.163   0.920  0.0801  1.5850  0.9661
 7573SOL     OW34177   1.299   1.065   6.014  0.6915 -0.4968 -0.1122
 7573SOL    HW134178   1.297   1.107   6.100  0.9504  2.8093 -1.7259
 7573SOL    HW234179   1.324   1.142   5.962 -1.4323  0.5090  0.3384
 7574SOL     OW34180   0.878   4.532  12.477  0.3498 -0.0211 -0.1898
 7574SOL    HW134181   0.915   4.606  12.429 -0.3182 -0.8153 -1.9517
 7574SOL    HW234182   0.825   4.576  12.543  0.2450  0.3337 -0.5115
 7575SOL     OW34183   2.385   0.423   4.494 -0.1585 -0.0067 -0.1453
 7575SOL    HW134184   2.364   0.353   4.432 -2.0292 -0.2142  0.7193
 7575SOL    HW234185   2.426   0.384   4.571  1.1193 -0.0075 -0.8332
 7576SOL     OW34186   1.049   4.167  15.231  0.2875 -0.2172 -0.2641
 7576SOL    HW134187   1.126   4.223  15.239 -1.5822  2.1418  1.2978
 7576SOL    HW234188   0.990   4.228  15.187 -0.1760  0.8856  1.8494
 7577SOL     OW34189   2.370   2.831  12.192 -0.0321  0.4534 -0.3078
 7577SOL    HW134190   2.371   2.902  12.256  0.5456 -1.2155  1.5323
 7577SOL    HW234191   2.457   2.802  12.220  0.1913  0.8249 -0.6102
 7578SOL     OW34192   4.283   0.650  12.711  0.4612 -0.3157  0.0766
 7578SOL    HW134193   4.321   0.689  12.790 -0.3774 -1.3515  0.9898
 7578SOL    HW234194   4.321   0.708  12.645 -1.0405  1.2777  0.5879
 7579SOL     OW34195   2.933   3.604   9.787  0.3510 -0.0916  0.3709
 7579SOL    HW134196   2.986   3.583   9.710  0.9295  2.9612 -0.0612
 7579SOL    HW234197   2.870   3.657   9.738 -0.6493 -1.7920 -0.1811
 7580SOL     OW34198   2.400   3.790   2.351 -0.1862  0.1829  0.1385
 7580SOL    HW134199   2.486   3.762   2.381 -0.6288  1.0607  2.1962
 7580SOL    HW234200   2.360   3.797   2.437 -0.9802 -2.4237 -0.0303
 7581SOL     OW34201   0.861   4.623   2.314  0.3579  0.8523  0.0249
 7581SOL    HW134202   0.855   4.709   2.274  2.0745  0.6321 -0.7441
 7581SOL    HW234203   0.829   4.650   2.400  0.5981 -2.9657  1.3496
 7582SOL     OW34204   4.446   1.890   6.993 -0.4350  0.3078  0.3433
 7582SOL    HW134205   4.539   1.891   6.971 -0.4663  0.0160  0.1971
 7582SOL    HW234206   4.407   1.837   6.923  2.2217 -2.0146  0.6168
 7583SOL     OW34207   2.238   0.208  10.916  0.3130 -0.4031  0.5007
 7583SOL    HW134208   2.231   0.195  11.011  2.4512  0.7425  0.8084
 7583SOL    HW234209   2.154   0.252  10.903  1.4612  1.5984 -0.1723
 7584SOL     OW34210   2.739   3.155   6.491  0.5362 -0.2413  0.3837
 7584SOL    HW134211   2.770   3.143   6.580  1.9366  0.2352 -0.0344
 7584SOL    HW234212   2.799   3.090   6.455  0.4454 -0.2133  0.1829
 7585SOL     OW34213   3.905   3.920   4.708  0.1446  0.2795  0.1728
 7585SOL    HW134214   3.953   3.992   4.668 -1.2159  0.0961 -1.8286
 7585SOL    HW234215   3.816   3.936   4.677 -0.0247 -1.3495 -0.1871
 7586SOL     OW34216   3.357   0.570  13.196  0.0194 -0.1470 -0.2232
 7586SOL    HW134217   3.375   0.640  13.133 -1.3268 -0.5903 -1.1087
 7586SOL    HW234218   3.442   0.568  13.239  0.2126  1.0047 -0.5668
 7587SOL     OW34219   1.732   3.911   2.025  0.3332  0.5495  0.1792
 7587SOL    HW134220   1.747   3.856   2.102  0.6865  0.6965  0.2140
 7587SOL    HW234221   1.780   3.990   2.048 -0.1685  1.4979 -2.0821
 7588SOL     OW34222   3.820   2.199  15.838  0.5185  0.4154 -0.1263
 7588SOL    HW134223   3.832   2.203  15.933  0.1564  2.6932 -0.1862
 7588SOL    HW234224   3.725   2.208  15.839  0.4435 -0.5676  2.4122
 7589SOL     OW34225   2.556   1.814   9.974 -0.1321  0.4567 -0.3206
 7589SOL    HW134226   2.579   1.740   9.917  1.9180  1.7261 -1.1132
 7589SOL    HW234227   2.481   1.848   9.925  0.1564  1.6494  0.0627
 7590SOL     OW34228   2.028   0.666   8.239 -0.1744  0.0501 -0.2526
 7590SOL    HW134229   2.115   0.625   8.245 -0.7967 -0.9626  1.8669
 7590SOL    HW234230   1.980   0.595   8.282 -0.3904  0.8068  0.7509
 7591SOL     OW34231   3.918   3.067  10.317 -0.1330 -0.0780  0.2611
 7591SOL    HW134232   3.976   3.001  10.353 -0.1359 -0.0222  0.3692
 7591SOL    HW234233   3.864   3.015  10.257  0.0258  0.1317 -0.0607
 7592SOL     OW34234   2.999   2.559   6.870  0.0377 -0.0549 -0.7216
 7592SOL    HW134235   2.965   2.610   6.944  0.2863 -3.0993  1.4877
 7592SOL    HW234236   2.925   2.570   6.810 -0.3458 -0.4142 -0.3138
 7593SOL     OW34237   2.506   4.509  15.364  0.3876  0.1131 -0.4190
 7593SOL    HW134238   2.518   4.424  15.406 -3.1787 -0.6221 -0.8902
 7593SOL    HW234239   2.506   4.489  15.271  1.6917  1.0878 -0.6337
 7594SOL     OW34240   2.624   1.017   2.492  0.0917 -0.0021  0.0809
 7594SOL    HW134241   2.593   0.929   2.472 -0.2369  0.5740 -1.9939
 7594SOL    HW234242   2.537   1.046   2.520 -0.5482 -0.4495 -1.4762
 7595SOL     OW34243   1.463   0.249  17.491 -0.1863  0.1617 -0.0259
 7595SOL    HW134244   1.374   0.276  17.465 -0.8550 -0.6154  1.4881
 7595SOL    HW234245   1.464   0.157  17.466  2.1597  0.8216 -2.3467
 7596SOL     OW34246   2.324   4.351  15.578 -0.8149  0.3381  0.1004
 7596SOL    HW134247   2.313   4.446  15.579  0.4746  0.5144 -2.7760
 7596SOL    HW234248   2.264   4.325  15.508  0.6833  0.9080 -1.4024
 7597SOL     OW34249   3.088   2.895  12.589 -0.1623 -0.5505 -0.1425
 7597SOL    HW134250   3.095   2.800  12.578 -1.3463 -0.5717 -0.6711
 7597SOL    HW234251   3.140   2.895  12.669  1.2842  1.6576 -1.0673
 7598SOL     OW34252   1.663   0.414   4.510  0.5579  0.0636 -0.0750
 7598SOL    HW134253   1.655   0.344   4.446  0.2775  1.9517 -2.1131
 7598SOL    HW234254   1.596   0.478   4.485  1.6224  1.4898  0.7053
 7599SOL     OW34255   2.308   1.023   6.748  0.3450  0.3924 -0.2587
 7599SOL    HW134256   2.376   1.069   6.699  2.3440 -2.2062  0.0625
 7599SOL    HW234257   2.303   1.079   6.825  2.7453 -0.4494  0.4989
 7600SOL     OW34258   1.528   1.693  17.297 -0.6125  0.0997 -0.1017
 7600SOL    HW134259   1.536   1.784  17.267 -0.6758  0.2662  0.3754
 7600SOL    HW234260   1.605   1.677  17.352 -1.0255 -2.1453 -0.1806
 7601SOL     OW34261   2.999   1.611   2.341 -0.6241  0.1807  0.2594
 7601SOL    HW134262   2.983   1.520   2.317  2.6228 -0.5519  0.9299
 7601SOL    HW234263   3.078   1.641   2.296 -0.5596 -1.3864 -0.6676
 7602SOL     OW34264   0.844   4.552  11.342  0.4588  0.1484  0.2889
 7602SOL    HW134265   0.910   4.496  11.301  0.3968 -1.2129  2.0355
 7602SOL    HW234266   0.772   4.556  11.279 -0.1650 -3.7539  0.7956
 7603SOL     OW34267   4.510   3.948   6.698 -0.1929 -0.0608  0.1154
 7603SOL    HW134268   4.472   3.968   6.613 -1.1420  0.6003  0.6896
 7603SOL    HW234269   4.429   3.912   6.736 -0.6012  0.1691 -0.5469
 7604SOL     OW34270   2.792   1.553   5.584 -0.3283 -0.0332  0.2130
 7604SOL    HW134271   2.763   1.584   5.670 -0.6343  0.8290 -0.2033
 7604SOL    HW234272   2.813   1.634   5.538  1.3932 -1.7220 -1.9723
 7605SOL     OW34273   3.907   1.916   1.552  0.7109  0.1411 -0.1673
 7605SOL    HW134274   3.878   1.979   1.618  2.5977  0.2119  0.5910
 7605SOL    HW234275   3.831   1.863   1.529 -1.9019  4.3013 -1.3150
 7606SOL     OW34276   3.318   4.125   9.831 -0.5923  0.3705  0.3849
 7606SOL    HW134277   3.321   4.170   9.915 -4.7836 -0.8694  1.2248
 7606SOL    HW234278   3.405   4.093   9.810 -0.3118  1.9591 -0.8772
 7607SOL     OW34279   4.453   3.721   2.596  0.2947  0.1660 -0.3384
 7607SOL    HW134280   4.461   3.817   2.595  0.3771  0.1772  1.1679
 7607SOL    HW234281   4.429   3.701   2.687 -1.6601  0.8985 -0.6768
 7608SOL     OW34282   2.568   0.160   4.049 -0.0620  0.0090 -0.3277
 7608SOL    HW134283   2.488   0.111   4.069  0.9908 -1.7640 -0.4899
 7608SOL    HW234284   2.538   0.223   3.983 -0.3674 -0.5499 -0.7168
 7609SOL     OW34285   2.913   2.413   5.509  0.4600  0.4310 -0.6595
 7609SOL    HW134286   2.957   2.451   5.585 -0.8628  0.1933  0.2162
 7609SOL    HW234287   2.862   2.487   5.475 -0.4583  0.8242  1.6103
 7610SOL     OW34288   1.688   3.639   2.445 -0.7126  0.7094  0.1588
 7610SOL    HW134289   1.716   3.676   2.361  1.0657  0.9078  0.8295
 7610SOL    HW234290   1.745   3.562   2.452 -2.0717 -0.3980 -0.9328
 7611SOL     OW34291   1.165   3.875   7.762  0.5351 -0.0159 -0.2402
 7611SOL    HW134292   1.257   3.901   7.753  1.3199 -2.7308  0.0695
 7611SOL    HW234293   1.150   3.798   7.707 -1.4910  0.3822 -0.2423
 7612SOL     OW34294   0.457   2.150   4.980  0.0964  0.1054 -0.0619
 7612SOL    HW134295   0.516   2.079   4.954 -1.2742 -1.1311  0.2150
 7612SOL    HW234296   0.484   2.227   4.930  0.8587  0.3449  0.7191
 7613SOL     OW34297   3.477   0.655   5.547  0.1320  0.1249  0.0539
 7613SOL    HW134298   3.392   0.637   5.587 -0.8481  2.2449 -1.1019
 7613SOL    HW234299   3.447   0.675   5.458 -0.8278 -0.8612  0.1554
 7614SOL     OW34300   2.772   3.262   5.420 -0.6474 -0.5010  0.0305
 7614SOL    HW134301   2.831   3.338   5.415 -1.0358 -0.2005  0.0020
 7614SOL    HW234302   2.699   3.294   5.367 -1.0513 -1.1372  0.2107
 7615SOL     OW34303   3.693   2.239   4.979 -0.2347 -0.6052 -0.0344
 7615SOL    HW134304   3.742   2.258   4.899  0.0047 -0.2784  0.1850
 7615SOL    HW234305   3.606   2.216   4.947  0.7000 -0.7584 -2.4341
 7616SOL     OW34306   4.543   2.374   4.063 -0.1612  0.6653  0.3215
 7616SOL    HW134307   4.552   2.279   4.054  1.1848  0.9583 -1.4264
 7616SOL    HW234308   4.548   2.391   4.157  2.2018  2.4820 -0.1437
 7617SOL     OW34309   1.381   0.461   2.855  0.1649 -0.1333 -0.0623
 7617SOL    HW134310   1.372   0.462   2.760 -0.2871  1.2141 -0.0012
 7617SOL    HW234311   1.340   0.382   2.891 -0.6643  0.2213 -0.2355
 7618SOL     OW34312   1.729   1.699   5.050 -0.1263  0.0655  0.3763
 7618SOL    HW134313   1.778   1.657   5.121  1.5703  1.6726  0.1674
 7618SOL    HW234314   1.762   1.645   4.978 -1.0948  0.6103 -0.4704
 7619SOL     OW34315   0.330   1.618  15.464 -0.3209 -0.2168  0.2226
 7619SOL    HW134316   0.275   1.693  15.443  0.7952  0.3378 -0.6975
 7619SOL    HW234317   0.264   1.552  15.442 -0.6943 -0.0197  0.7361
 7620SOL     OW34318   0.288   2.960   5.018  0.2334 -0.0225 -0.0437
 7620SOL    HW134319   0.238   3.042   5.017 -1.2935 -0.9454 -0.6050
 7620SOL    HW234320   0.372   2.986   5.055  0.0919 -0.0489  0.2951
 7621SOL     OW34321   0.500   3.128   3.680  0.2315 -0.3284  0.0278
 7621SOL    HW134322   0.474   3.040   3.654  0.9533 -0.3119 -0.7475
 7621SOL    HW234323   0.595   3.128   3.666  0.4397  0.1157  1.3997
 7622SOL     OW34324   3.116   4.078   9.664  0.3535 -0.3153  0.2660
 7622SOL    HW134325   3.063   4.159   9.661 -0.9006 -1.2655 -2.7834
 7622SOL    HW234326   3.193   4.102   9.715  0.0995  1.0783 -0.0055
 7623SOL     OW34327   3.414   2.886  10.232  0.2429  0.2304 -0.1194
 7623SOL    HW134328   3.358   2.949  10.188  0.4044 -0.1190 -0.8289
 7623SOL    HW234329   3.357   2.887  10.309  1.1259  1.3714  0.5113
 7624SOL     OW34330   0.536   1.665  10.594  0.3160  0.0353 -0.7225
 7624SOL    HW134331   0.554   1.710  10.676 -0.2725  0.5506 -0.8807
 7624SOL    HW234332   0.541   1.738  10.533 -0.6940  1.2804  0.6942
 7625SOL     OW34333   2.161   3.389  14.406 -0.1372 -0.7208 -0.2692
 7625SOL    HW134334   2.110   3.470  14.406 -0.9737 -1.2523 -2.0995
 7625SOL    HW234335   2.178   3.369  14.314  0.0736 -0.6982 -0.2357
 7626SOL     OW34336   4.116   4.388  14.188  0.3513 -0.5493 -0.7534
 7626SOL    HW134337   4.067   4.464  14.156  1.4486  0.7220  0.6210
 7626SOL    HW234338   4.159   4.447  14.249  0.0245  1.4168 -2.3988
 7627SOL     OW34339   4.214   0.214   5.065 -0.2535  0.6718  0.1893
 7627SOL    HW134340   4.185   0.195   5.154  2.7545  1.1007  1.2531
 7627SOL    HW234341   4.146   0.172   5.012  0.8810 -0.8967 -0.0081
 7628SOL     OW34342   0.185   3.298   3.453 -0.5439 -0.0683  0.2715
 7628SOL    HW134343   0.177   3.340   3.368  0.6385  0.3068  0.3420
 7628SOL    HW234344   0.210   3.208   3.434  0.3819  0.3186 -0.3580
 7629SOL     OW34345   0.873   0.757   3.185 -0.2420 -0.2662  0.3538
 7629SOL    HW134346   0.941   0.693   3.163  1.1699  1.4613 -0.3482
 7629SOL    HW234347   0.798   0.698   3.178 -2.5360  2.5050  1.4061
 7630SOL     OW34348   2.201   0.089  15.487 -0.1303  0.6419  0.2875
 7630SOL    HW134349   2.162   0.011  15.448 -0.1662  1.0256 -0.4550
 7630SOL    HW234350   2.276   0.051  15.533  0.0147  0.2102 -0.3157
 7631SOL     OW34351   3.194   3.324   6.464  0.1502 -0.5086  0.2263
 7631SOL    HW134352   3.245   3.399   6.497 -0.8039 -0.2174  1.0266
 7631SOL    HW234353   3.106   3.362   6.464  0.8219  1.0245 -0.8542
 7632SOL     OW34354   3.130   1.564   7.859 -0.4772  0.3005 -0.7619
 7632SOL    HW134355   3.199   1.597   7.800 -0.0294  2.1847  0.8013
 7632SOL    HW234356   3.122   1.479   7.816 -0.6455 -0.8979  1.6494
 7633SOL     OW34357   0.172   0.622   3.826  0.1149  0.0487  0.3464
 7633SOL    HW134358   0.248   0.564   3.822  0.5109  0.5110  1.1323
 7633SOL    HW234359   0.222   0.702   3.843 -0.2147 -0.0915  1.9438
 7634SOL     OW34360   3.322   3.067  10.850  0.2005  0.1990  0.2226
 7634SOL    HW134361   3.388   3.081  10.918 -1.3970  2.0195  1.4342
 7634SOL    HW234362   3.250   3.031  10.902  0.2017  0.3435  0.3244
 7635SOL     OW34363   2.372   0.621   3.284 -0.5186  0.2764 -0.7065
 7635SOL    HW134364   2.362   0.649   3.193 -1.2067  1.2356 -0.3360
 7635SOL    HW234365   2.451   0.567   3.280  0.5728  1.7527  0.6443
 7636SOL     OW34366   4.615   4.178   5.651 -0.4097 -0.7329 -0.5346
 7636SOL    HW134367   4.641   4.251   5.707  0.9581 -1.3933 -0.2907
 7636SOL    HW234368   4.536   4.150   5.696  0.3215 -0.6566  0.8107
 7637SOL     OW34369   4.329   2.075   8.457 -0.2109  0.3400 -0.3880
 7637SOL    HW134370   4.372   2.159   8.476  0.6161  0.0407 -0.9076
 7637SOL    HW234371   4.240   2.097   8.431 -0.6697 -0.9939  0.0475
 7638SOL     OW34372   0.502   1.247   7.110  0.3265  0.5506  0.6298
 7638SOL    HW134373   0.495   1.289   7.025  3.7144 -0.4502 -0.1199
 7638SOL    HW234374   0.559   1.172   7.095 -1.1825 -0.5030  0.1820
 7639SOL     OW34375   2.323   3.398   2.056 -0.7512  0.6064 -0.2290
 7639SOL    HW134376   2.314   3.473   2.115  1.5936 -0.5389  1.5634
 7639SOL    HW234377   2.281   3.333   2.112 -0.5294 -0.2436 -1.0562
 7640SOL     OW34378   3.510   3.489   9.435  0.1439  0.4749  0.5075
 7640SOL    HW134379   3.546   3.446   9.513  1.3584 -0.0108 -0.3111
 7640SOL    HW234380   3.531   3.432   9.361 -2.1655  0.0521  0.1799
 7641SOL     OW34381   2.971   1.595   9.576  0.2134  0.0468  0.4434
 7641SOL    HW134382   3.034   1.609   9.505  0.4214  1.7429  0.9507
 7641SOL    HW234383   2.975   1.681   9.617 -0.7951 -1.3023  3.3872
 7642SOL     OW34384   2.919   0.657   8.922 -0.1884  0.4863 -0.9139
 7642SOL    HW134385   2.992   0.671   8.982 -0.8947  0.3017 -0.0106
 7642SOL    HW234386   2.908   0.562   8.924  0.4837  0.4361  0.3549
 7643SOL     OW34387   2.778   4.379  16.697  0.1207  0.6490 -0.3526
 7643SOL    HW134388   2.713   4.379  16.768 -0.6650 -0.8402 -1.0729
 7643SOL    HW234389   2.850   4.426  16.739 -0.5927 -1.1798  2.9380
 7644SOL     OW34390   1.513   0.275   5.131 -0.1628 -0.1408  0.3642
 7644SOL    HW134391   1.474   0.225   5.203  0.0024 -2.1099 -0.9164
 7644SOL    HW234392   1.604   0.286   5.160 -0.1320  0.9008 -0.1299
 7645SOL     OW34393   1.721   2.061   7.961 -0.0161  0.2461 -0.6150
 7645SOL    HW134394   1.668   2.042   8.038  0.7935  2.3350  0.4654
 7645SOL    HW234395   1.803   2.017   7.984  0.1094  0.4213 -0.7288
 7646SOL     OW34396   0.774   1.321   0.731 -0.1023 -0.3621  0.3394
 7646SOL    HW134397   0.862   1.357   0.714 -0.4916 -0.1683 -1.3342
 7646SOL    HW234398   0.784   1.227   0.745  0.1883 -0.7929 -2.7766
 7647SOL     OW34399   3.753   4.247   1.546 -0.4440  0.5576  0.0804
 7647SOL    HW134400   3.779   4.320   1.603 -0.6820 -0.0455  0.9636
 7647SOL    HW234401   3.838   4.211   1.521  0.1385  1.6179  0.5608
 7648SOL     OW34402   3.826   2.844   5.518 -0.0665  0.3437  0.6838
 7648SOL    HW134403   3.822   2.883   5.606 -0.2663  0.7975  0.4730
 7648SOL    HW234404   3.761   2.776   5.533  1.5255 -1.6913 -1.7139
 7649SOL     OW34405   2.392   3.487   4.535  0.3446  0.1678 -0.0884
 7649SOL    HW134406   2.437   3.571   4.531 -0.9170  0.8209 -0.6163
 7649SOL    HW234407   2.325   3.506   4.470 -2.3158 -0.7303  2.4091
 7650SOL     OW34408   0.736   1.159   6.542 -0.1276 -0.2298 -0.4365
 7650SOL    HW134409   0.676   1.217   6.495  0.7658  1.6525  0.7494
 7650SOL    HW234410   0.696   1.168   6.629  1.2598 -0.7517  0.2455
 7651SOL     OW34411   3.646   3.964   8.478 -0.5792 -0.1766  0.1335
 7651SOL    HW134412   3.653   4.045   8.527  0.1390  0.2229 -0.6428
 7651SOL    HW234413   3.552   3.962   8.461 -1.0966  1.8796  2.7504
 7652SOL     OW34414   3.325   4.621   8.764  0.0436  0.3564  0.3579
 7652SOL    HW134415   3.294   4.548   8.818 -0.7078  0.6971  0.3833
 7652SOL    HW234416   3.418   4.605   8.781  0.5451  1.1914 -1.6748
 7653SOL     OW34417   3.828   0.925   4.449 -0.8849  0.8742 -0.5331
 7653SOL    HW134418   3.886   0.940   4.375  0.2063 -0.1441  0.1130
 7653SOL    HW234419   3.750   0.938   4.395 -1.3699 -2.9859 -0.7271
 7654SOL     OW34420   0.264   0.453   3.126 -0.0398  0.1603  0.2997
 7654SOL    HW134421   0.296   0.379   3.075  0.4614  0.4222  0.2304
 7654SOL    HW234422   0.335   0.481   3.184  0.0480  2.0421 -0.7106
 7655SOL     OW34423   2.791   0.574   6.528 -0.5757  0.5050 -0.1289
 7655SOL    HW134424   2.779   0.634   6.603  0.1766  0.3617  0.1037
 7655SOL    HW234425   2.711   0.585   6.477 -1.0926  0.1385  0.6023
 7656SOL     OW34426   1.161   2.604   6.788  0.6970 -0.1061  0.0993
 7656SOL    HW134427   1.241   2.614   6.839 -0.4354  1.0529  1.6482
 7656SOL    HW234428   1.108   2.666   6.839  0.5424 -1.5873  1.7460
 7657SOL     OW34429   1.557   1.734  14.563  0.1024 -0.2311 -0.1163
 7657SOL    HW134430   1.623   1.719  14.495 -0.2654  2.3301 -1.0295
 7657SOL    HW234431   1.508   1.801  14.516 -2.7492 -1.6694  0.7905
 7658SOL     OW34432   4.595   4.478  16.321  0.1961  0.1799 -0.1629
 7658SOL    HW134433   4.522   4.481  16.259  0.4999 -1.0843 -0.5859
 7658SOL    HW234434   4.585   4.558  16.372 -0.4843  1.4205 -2.2446
 7659SOL     OW34435   1.722   3.747  11.075  0.3232 -0.2874  0.6151
 7659SOL    HW134436   1.775   3.679  11.117  0.6299  0.7340  1.8706
 7659SOL    HW234437   1.654   3.764  11.139 -1.8115 -0.7399 -1.5453
 7660SOL     OW34438   4.038   3.441   5.498 -0.3199 -0.1605 -0.1981
 7660SOL    HW134439   4.091   3.458   5.576 -1.7665 -1.2831  1.0219
 7660SOL    HW234440   3.951   3.441   5.538  0.4520  1.4275  1.5156
 7661SOL     OW34441   1.499   4.079   3.069 -0.0924  0.3637 -0.7195
 7661SOL    HW134442   1.537   4.049   2.986  0.4414  0.0155 -0.3537
 7661SOL    HW234443   1.414   4.034   3.064 -0.0896  0.4445 -1.6097
 7662SOL     OW34444   4.431   4.130   9.402 -0.1637  0.3244  0.1785
 7662SOL    HW134445   4.379   4.174   9.335  3.0013 -0.5836 -2.8620
 7662SOL    HW234446   4.518   4.154   9.369 -0.4716  0.0007 -0.8839
 7663SOL     OW34447   2.781   0.396   4.924  0.3039  0.1514  0.4298
 7663SOL    HW134448   2.873   0.417   4.939 -0.0160  1.6276  0.3472
 7663SOL    HW234449   2.759   0.392   5.017 -0.6978  0.7778  0.2211
 7664SOL     OW34450   0.025   2.603   1.592  0.4333  0.0876  0.1280
 7664SOL    HW134451   4.704   2.614   1.676 -0.3279 -2.7982  0.1183
 7664SOL    HW234452   0.097   2.665   1.594 -1.1265  1.9207 -0.5499
 7665SOL     OW34453   1.353   1.478   2.316 -0.2039 -0.0765  0.0560
 7665SOL    HW134454   1.293   1.528   2.371 -0.1616  0.5112 -0.4367
 7665SOL    HW234455   1.358   1.537   2.241 -1.1370 -1.6729 -1.2534
 7666SOL     OW34456   1.266   0.673   1.920  0.6444 -0.2031 -0.6146
 7666SOL    HW134457   1.241   0.764   1.907  0.3560  0.0324  1.6708
 7666SOL    HW234458   1.291   0.665   1.828  0.0543  1.2158 -0.8927
 7667SOL     OW34459   2.914   3.740  17.231  0.6198 -0.2583 -0.3292
 7667SOL    HW134460   2.958   3.748  17.315  0.3211 -1.9622 -0.0025
 7667SOL    HW234461   2.922   3.645  17.221 -0.0760 -0.5090  1.6352
 7668SOL     OW34462   0.253   2.572   7.557 -0.0936  0.2622  0.3716
 7668SOL    HW134463   0.262   2.654   7.606  1.9849 -0.4954  1.2300
 7668SOL    HW234464   0.160   2.550   7.568 -0.2682  1.2238  0.8146
 7669SOL     OW34465   4.315   3.366  11.825  0.1346  0.3843 -0.1547
 7669SOL    HW134466   4.340   3.350  11.734 -1.5796  0.9314 -0.7250
 7669SOL    HW234467   4.285   3.456  11.816  2.4556  1.1476 -0.3046
 7670SOL     OW34468   0.762   1.055   0.166  0.4064 -0.4666  0.4544
 7670SOL    HW134469   0.802   0.979   0.124  0.8323  1.5358 -2.7564
 7670SOL    HW234470   0.729   1.022   0.250 -1.6895 -2.3232 -1.0978
 7671SOL     OW34471   3.059   2.933   3.734 -0.6116  0.0570  0.6563
 7671SOL    HW134472   3.033   2.994   3.665 -1.5971 -1.7175 -0.5265
 7671SOL    HW234473   3.003   2.856   3.732 -1.2647  0.6112 -2.6586
 7672SOL     OW34474   2.820   4.231   6.550  0.1720  0.3839  0.1547
 7672SOL    HW134475   2.833   4.141   6.519  0.3346  0.3231  0.3997
 7672SOL    HW234476   2.827   4.216   6.644 -1.3612  1.5428  0.4592
 7673SOL     OW34477   2.955   2.281   6.729 -0.1131 -0.0396  0.1951
 7673SOL    HW134478   2.981   2.302   6.639 -1.9012 -0.6367 -0.4679
 7673SOL    HW234479   2.885   2.345   6.740  1.0370  0.9797  1.5473
 7674SOL     OW34480   0.869   0.818   0.072 -0.0264 -0.1713 -0.1895
 7674SOL    HW134481   0.940   0.770   0.115 -0.5684 -2.2424 -1.5917
 7674SOL    HW234482   0.794   0.774   0.111  0.2708  0.1444  0.7331
 7675SOL     OW34483   0.014   3.924   5.790 -0.0039  0.4144 -0.4461
 7675SOL    HW134484   4.650   3.954   5.765 -0.3465  0.0027  0.2795
 7675SOL    HW234485   4.723   3.894   5.879  1.1773 -0.6960 -0.6377
 7676SOL     OW34486   0.711   1.160  14.079 -0.4824  0.1730  0.0906
 7676SOL    HW134487   0.786   1.174  14.136 -0.4471  0.6296 -0.0650
 7676SOL    HW234488   0.650   1.097  14.119 -0.6834  0.6619  0.5547
 7677SOL     OW34489   2.932   1.925  13.146  0.1834 -0.1782  0.2683
 7677SOL    HW134490   2.884   1.845  13.125 -0.8184  0.4495  0.1695
 7677SOL    HW234491   2.874   1.998  13.123  0.6770  0.5591  1.3737
 7678SOL     OW34492   1.696   3.456   5.704 -0.3656 -0.5792  0.0152
 7678SOL    HW134493   1.703   3.375   5.652  0.9209  0.2479 -1.1041
 7678SOL    HW234494   1.602   3.465   5.722 -0.5722 -0.5273 -1.0913
 7679SOL     OW34495   3.941   0.839   8.125 -0.3695 -0.5361  0.0806
 7679SOL    HW134496   3.914   0.911   8.182  1.9287  0.0307  0.4631
 7679SOL    HW234497   3.980   0.785   8.193 -0.5680 -0.8172 -0.0305
 7680SOL     OW34498   0.488   4.593  17.049  0.2187  0.1318 -0.5163
 7680SOL    HW134499   0.443   4.537  16.985 -0.2432 -0.5928  0.4428
 7680SOL    HW234500   0.511   4.537  17.124  0.8807  1.5643  0.3345
 7681SOL     OW34501   3.754   4.719   3.747 -0.6231 -0.0530  0.3167
 7681SOL    HW134502   3.803   0.008   3.828 -1.6470 -1.0459  1.0947
 7681SOL    HW234503   3.669   4.692   3.784 -1.8543  0.5639 -2.0598
 7682SOL     OW34504   3.494   3.669   6.186  0.2638 -0.3454  0.1049
 7682SOL    HW134505   3.544   3.737   6.140 -1.4438 -0.2972 -1.6782
 7682SOL    HW234506   3.418   3.715   6.219  0.0914 -0.6983  0.2016
 7683SOL     OW34507   2.322   4.340   7.734  0.0828 -0.3456  0.2946
 7683SOL    HW134508   2.292   4.401   7.802  0.9110  1.4456 -0.9328
 7683SOL    HW234509   2.240   4.331   7.687 -0.0479 -3.3068  1.1347
 7684SOL     OW34510   3.021   3.134   4.765 -0.6186 -0.3272  0.5090
 7684SOL    HW134511   2.966   3.056   4.772 -0.8117 -0.2441 -0.1051
 7684SOL    HW234512   3.010   3.177   4.849  1.0195  2.1798 -0.5573
 7685SOL     OW34513   0.645   4.530   1.471  0.8380  0.4810 -1.0640
 7685SOL    HW134514   0.587   4.492   1.406  0.4123 -0.6752 -0.0044
 7685SOL    HW234515   0.720   4.560   1.418  1.0576  2.4782  0.3383
 7686SOL     OW34516   2.974   4.103   4.795 -0.2768  0.4328 -0.4363
 7686SOL    HW134517   2.999   4.012   4.779 -2.3570  0.0815 -1.7642
 7686SOL    HW234518   2.952   4.129   4.706  1.1217 -3.0778 -1.8055
 7687SOL     OW34519   3.553   4.311   3.413  0.3722  0.3112  0.4337
 7687SOL    HW134520   3.590   4.400   3.418  0.7948  0.1871 -0.5990
 7687SOL    HW234521   3.500   4.322   3.334  0.1935 -1.4762  0.3124
 7688SOL     OW34522   1.899   3.830   0.115  0.0275 -0.2300  0.2380
 7688SOL    HW134523   1.947   3.841   0.197 -0.8103  1.3454  0.5123
 7688SOL    HW234524   1.811   3.840   0.151  0.4441  1.5160  0.7600
 7689SOL     OW34525   0.850   2.293  13.551  0.3618 -0.2789 -0.2655
 7689SOL    HW134526   0.844   2.333  13.465  2.8159 -0.5444 -0.5532
 7689SOL    HW234527   0.780   2.230  13.534 -1.2363  1.4353  0.0163
 7690SOL     OW34528   0.389   2.196   5.748 -0.5048  0.2410  0.4517
 7690SOL    HW134529   0.310   2.147   5.727  0.2484 -1.2906  1.2004
 7690SOL    HW234530   0.445   2.191   5.670 -1.6141 -0.5101 -0.2866
 7691SOL     OW34531   1.804   4.434  10.161  0.1539 -0.4813 -0.7169
 7691SOL    HW134532   1.773   4.518  10.193  0.9455 -0.4662  0.0252
 7691SOL    HW234533   1.899   4.432  10.169 -0.1491  1.2052  3.6520
 7692SOL     OW34534   0.572   0.224   1.769  0.4259  0.5813  0.2578
 7692SOL    HW134535   0.482   0.243   1.793  0.0339 -1.7632  0.6198
 7692SOL    HW234536   0.568   0.135   1.734  0.8751  0.8185 -0.4050
 7693SOL     OW34537   1.196   2.180   9.031  0.0198 -0.1733 -0.0071
 7693SOL    HW134538   1.158   2.095   9.055 -1.3369  0.7185  0.9680
 7693SOL    HW234539   1.232   2.211   9.114  0.3889 -1.1728  0.2139
 7694SOL     OW34540   4.595   4.619  15.809 -0.0270 -0.2317  0.4949
 7694SOL    HW134541   4.668   4.681  15.806  0.7652 -1.0424  3.0173
 7694SOL    HW234542   4.604   4.583  15.721 -1.1239  0.3622  0.1336
 7695SOL     OW34543   4.142   2.640   2.541 -0.3777  0.4984  0.0943
 7695SOL    HW134544   4.083   2.642   2.616 -0.4240  0.7793  0.0514
 7695SOL    HW234545   4.091   2.600   2.470 -0.3144 -0.0743  0.3687
 7696SOL     OW34546   0.981   2.497  13.842  0.2993  0.1207 -0.4342
 7696SOL    HW134547   1.034   2.523  13.917 -0.7977 -1.3799  0.8437
 7696SOL    HW234548   0.968   2.405  13.863 -0.2193 -0.1046 -1.7241
 7697SOL     OW34549   4.318   1.250  10.238 -0.2715 -0.5740 -0.5363
 7697SOL    HW134550   4.325   1.213  10.325 -1.6572 -0.5855 -0.4209
 7697SOL    HW234551   4.396   1.305  10.231 -1.0574  0.6961  0.6135
 7698SOL     OW34552   0.760   3.504   9.725  0.2723  0.5423 -0.1216
 7698SOL    HW134553   0.829   3.569   9.742  0.7895 -0.3924  1.3893
 7698SOL    HW234554   0.797   3.451   9.654  0.9209  0.7308  0.0710
 7699SOL     OW34555   0.045   0.287   8.626  0.2121 -0.1236 -0.4727
 7699SOL    HW134556   0.096   0.208   8.645  2.0696  1.0318 -0.7106
 7699SOL    HW234557   4.699   0.285   8.692  1.3455  0.6981  0.7451
 7700SOL     OW34558   0.532   3.562   4.982 -0.0812 -0.8594  0.2782
 7700SOL    HW134559   0.583   3.626   4.932  0.6907 -0.6593  1.3179
 7700SOL    HW234560   0.576   3.477   4.984  1.2431 -0.1868 -0.1735
 7701SOL     OW34561   2.341   4.528   7.280 -0.1813 -0.0398  0.3704
 7701SOL    HW134562   2.262   4.497   7.236 -1.3242  2.5158  0.5819
 7701SOL    HW234563   2.296   4.573   7.352 -0.3295  0.9656 -0.3432
 7702SOL     OW34564   4.031   4.614   2.049  0.5216 -0.1540 -0.1575
 7702SOL    HW134565   4.027   4.708   2.035  0.2713  0.2494  2.6971
 7702SOL    HW234566   4.109   4.581   2.004  0.6996 -1.6537  1.2380
 7703SOL     OW34567   2.663   0.866   5.462  0.1604  0.3895 -0.1378
 7703SOL    HW134568   2.710   0.833   5.538  2.3543  2.1370 -0.7359
 7703SOL    HW234569   2.617   0.791   5.426  1.3494 -0.1872 -0.4543
 7704SOL     OW34570   1.378   1.923  13.496  0.4307  0.3894  0.4708
 7704SOL    HW134571   1.327   1.844  13.480 -0.4778  1.3209 -1.2845
 7704SOL    HW234572   1.302   1.964  13.536  1.0198  0.7896  1.1941
 7705SOL     OW34573   0.619   0.526   7.969 -0.1095  0.3735 -0.4041
 7705SOL    HW134574   0.619   0.497   7.878 -2.2406  2.3090 -1.0219
 7705SOL    HW234575   0.535   0.569   7.985 -0.3395 -0.2167 -0.0337
 7706SOL     OW34576   1.526   0.465  11.183 -0.3964  0.0791  0.0119
 7706SOL    HW134577   1.443   0.511  11.196 -0.0596  0.8382 -0.5355
 7706SOL    HW234578   1.594   0.526  11.209 -0.0866  1.0227 -3.0165
 7707SOL     OW34579   1.300   3.925   1.779  0.0455  0.2937  0.3387
 7707SOL    HW134580   1.215   3.882   1.793 -0.3117  0.4846 -1.2274
 7707SOL    HW234581   1.308   3.984   1.854 -0.8495  1.0858 -0.1823
 7708SOL     OW34582   3.106   1.332   2.073  0.3288  0.4176 -0.2288
 7708SOL    HW134583   3.144   1.346   2.159  0.2298  0.7188 -0.2329
 7708SOL    HW234584   3.191   1.344   2.031  1.6218 -0.3469  2.1652
 7709SOL     OW34585   1.941   3.372   4.094  0.5076  0.1698  0.0876
 7709SOL    HW134586   2.029   3.409   4.095 -0.2512  1.9946 -0.2639
 7709SOL    HW234587   1.889   3.434   4.042 -1.1566 -0.8443  0.5264
 7710SOL     OW34588   2.931   0.535   3.989  0.3823 -0.2139 -0.4148
 7710SOL    HW134589   3.002   0.598   3.999  0.8814 -0.7931 -0.2936
 7710SOL    HW234590   2.951   0.495   3.905  1.1974  1.5734 -1.0742
 7711SOL     OW34591   1.854   3.761  14.598 -0.3778 -0.4315 -0.0676
 7711SOL    HW134592   1.923   3.718  14.549 -0.9633 -4.2734  2.4502
 7711SOL    HW234593   1.781   3.720  14.552  0.1934 -2.3443  0.7160
 7712SOL     OW34594   1.164   0.209   7.193  0.3257  0.8830  0.4831
 7712SOL    HW134595   1.138   0.295   7.160  0.6278  0.5277 -0.6797
 7712SOL    HW234596   1.078   0.184   7.227  0.4007 -0.5457 -0.3834
 7713SOL     OW34597   2.013   3.293   6.166 -0.0844  0.4386 -0.0020
 7713SOL    HW134598   1.943   3.270   6.227  0.2069 -1.4384 -0.3809
 7713SOL    HW234599   1.979   3.369   6.118  2.9218  2.6358  1.2937
 7714SOL     OW34600   2.367   2.633   6.832 -0.0609 -0.3120 -0.1102
 7714SOL    HW134601   2.432   2.684   6.880  1.3035 -1.3659 -0.8364
 7714SOL    HW234602   2.302   2.629   6.902 -1.9159  1.7405 -1.7301
 7715SOL     OW34603   3.292   3.412  12.433  0.6297  0.4676  0.5920
 7715SOL    HW134604   3.338   3.358  12.370  0.7013 -0.3653  1.3633
 7715SOL    HW234605   3.333   3.495  12.409 -0.5546  0.5399 -1.1374
 7716SOL     OW34606   2.345   1.392  15.342  0.5644  0.5034 -0.5561
 7716SOL    HW134607   2.286   1.457  15.304 -1.7672 -1.7689 -0.8447
 7716SOL    HW234608   2.422   1.417  15.292 -0.0233 -0.2018 -1.8227
 7717SOL     OW34609   0.934   1.438   1.536  0.2734  0.4723 -0.7236
 7717SOL    HW134610   0.889   1.505   1.485  0.3860  0.6721 -0.5604
 7717SOL    HW234611   0.892   1.353   1.522 -1.8513  1.4595 -0.4198
 7718SOL     OW34612   3.978   3.078   8.109 -0.0762 -0.5570 -0.7077
 7718SOL    HW134613   3.993   3.168   8.082  0.7714 -1.0072 -1.7547
 7718SOL    HW234614   4.037   3.023   8.057  0.5065 -1.2284  0.6596
 7719SOL     OW34615   0.113   4.266   8.854  0.3237 -0.1071  0.6641
 7719SOL    HW134616   0.101   4.267   8.949  0.7863 -0.4246  0.7283
 7719SOL    HW234617   0.208   4.255   8.847  0.2660 -1.5127  2.1833
 7720SOL     OW34618   3.052   1.154   3.717 -0.2270 -0.4955 -0.2597
 7720SOL    HW134619   2.993   1.209   3.665  0.8974  2.3652  1.5220
 7720SOL    HW234620   3.109   1.117   3.649  0.1448  0.2875 -0.3791
 7721SOL     OW34621   2.910   2.837   5.459 -0.6654  0.0048  0.2953
 7721SOL    HW134622   2.856   2.856   5.536 -0.7387  0.2305  0.1885
 7721SOL    HW234623   2.994   2.829   5.506  0.2059  0.9563 -1.1154
 7722SOL     OW34624   4.106   0.117   5.620  0.7136  0.0920  0.1505
 7722SOL    HW134625   4.114   0.042   5.680  0.0497 -1.4037 -1.6296
 7722SOL    HW234626   4.173   0.174   5.659  2.0194  0.2728 -2.3441
 7723SOL     OW34627   2.123   3.891  14.313  0.0278 -0.3527 -0.6536
 7723SOL    HW134628   2.115   3.986  14.324  1.3910 -0.3111 -0.0981
 7723SOL    HW234629   2.157   3.892  14.223  1.4216  1.7187 -0.0875
 7724SOL     OW34630   4.284   0.575  11.422  0.2407  0.3950 -0.1648
 7724SOL    HW134631   4.370   0.552  11.456 -0.3964 -0.3840  0.8923
 7724SOL    HW234632   4.244   0.604  11.504 -1.0228 -0.8692 -0.3410
 7725SOL     OW34633   4.187   2.572  16.329 -0.0292  0.3388 -0.5372
 7725SOL    HW134634   4.131   2.648  16.309  1.6024  1.3542 -1.2644
 7725SOL    HW234635   4.134   2.494  16.315 -0.3427  0.5350 -0.4593
 7726SOL     OW34636   4.149   1.956   5.913  0.0845  0.4712  0.0402
 7726SOL    HW134637   4.092   2.031   5.900  0.4997  0.4467 -1.9433
 7726SOL    HW234638   4.196   1.955   5.830 -0.5396 -1.3563 -0.2904
 7727SOL     OW34639   0.121   1.308   9.203 -0.2527  0.1969  0.2297
 7727SOL    HW134640   0.176   1.386   9.200  0.2475 -0.2244 -1.6432
 7727SOL    HW234641   0.191   1.244   9.197  0.4555  1.0919 -1.1314
 7728SOL     OW34642   3.179   1.520   8.127 -0.3143 -0.4507  0.0882
 7728SOL    HW134643   3.160   1.511   8.034  0.4760  1.2321 -0.2463
 7728SOL    HW234644   3.273   1.505   8.128 -0.4959 -1.6038 -0.8080
 7729SOL     OW34645   1.633   1.255  11.883 -0.0849  0.0159  0.1890
 7729SOL    HW134646   1.616   1.304  11.802  0.9237 -0.3165 -0.2272
 7729SOL    HW234647   1.630   1.167  11.846  0.5902  0.4693 -0.9369
 7730SOL     OW34648   0.655   3.445   5.759  0.4894  0.8043  0.2880
 7730SOL    HW134649   0.643   3.538   5.740 -0.3433  0.7298  0.4473
 7730SOL    HW234650   0.564   3.415   5.757  0.7198  0.2266 -1.1396
 7731SOL     OW34651   1.982   3.808  13.823  0.0801  0.1103 -0.1114
 7731SOL    HW134652   2.019   3.763  13.899 -0.5469 -2.2900 -1.2247
 7731SOL    HW234653   2.026   3.893  13.823 -2.4683  1.4110 -1.6881
 7732SOL     OW34654   1.074   2.433   2.194 -0.2608 -0.3885  0.0489
 7732SOL    HW134655   1.110   2.348   2.220 -0.5177 -0.0739  1.4386
 7732SOL    HW234656   1.133   2.450   2.120 -1.0739  2.2690  0.0219
 7733SOL     OW34657   0.926   0.197   6.493 -0.8078  0.3531  0.2677
 7733SOL    HW134658   0.895   0.185   6.403  0.1913 -0.0501 -0.0193
 7733SOL    HW234659   0.857   0.257   6.522 -1.1853  0.6486 -1.2512
 7734SOL     OW34660   3.276   3.126   3.801  0.0756 -0.4140  0.3164
 7734SOL    HW134661   3.305   3.148   3.712 -3.0050 -1.1873 -0.8695
 7734SOL    HW234662   3.188   3.094   3.780  1.0848 -1.4789 -2.2394
 7735SOL     OW34663   2.914   0.384   9.006 -0.5533  0.5364  0.5280
 7735SOL    HW134664   2.935   0.293   9.028 -0.5948  0.2861 -0.4811
 7735SOL    HW234665   2.860   0.417   9.078 -1.5381  0.1985 -0.0578
 7736SOL     OW34666   1.628   3.024   2.956 -0.0078  0.3639  0.1430
 7736SOL    HW134667   1.652   2.966   2.884  0.5992  0.5486  0.1952
 7736SOL    HW234668   1.534   3.036   2.949 -0.0608  0.1033  0.3726
 7737SOL     OW34669   1.650   0.246   2.646  0.1174 -0.2035  0.5634
 7737SOL    HW134670   1.566   0.205   2.661 -0.6862  0.8784 -0.9810
 7737SOL    HW234671   1.671   0.279   2.733 -1.0808 -1.6443  1.3777
 7738SOL     OW34672   1.452   3.042  11.407  0.4559  0.2152  0.1151
 7738SOL    HW134673   1.387   3.085  11.352 -0.9114 -1.3260  0.5096
 7738SOL    HW234674   1.450   2.957  11.362 -1.3172  0.1484  0.3077
 7739SOL     OW34675   2.032   2.423   8.715 -0.0241 -0.1890 -0.8442
 7739SOL    HW134676   2.112   2.406   8.666 -0.0351  0.6411 -1.1473
 7739SOL    HW234677   2.036   2.342   8.766  0.4478  0.1047 -0.4137
 7740SOL     OW34678   3.637   1.862   3.183  0.1733  0.2905 -0.1226
 7740SOL    HW134679   3.632   1.853   3.088 -0.6900 -1.3384  0.0844
 7740SOL    HW234680   3.720   1.910   3.188 -0.1568  0.8373  0.1231
 7741SOL     OW34681   3.150   3.755   5.340  0.4756 -0.1874 -0.3077
 7741SOL    HW134682   3.056   3.758   5.323  0.1671  1.9609  1.6629
 7741SOL    HW234683   3.173   3.665   5.316  2.2307  0.2377 -0.2122
 7742SOL     OW34684   2.351   0.948   9.862 -0.3844 -0.1148  0.7292
 7742SOL    HW134685   2.262   0.971   9.886 -0.0139  0.4464  1.5529
 7742SOL    HW234686   2.357   0.854   9.882 -0.8072 -0.5031 -0.9374
 7743SOL     OW34687   4.695   0.221   3.852  0.2083  0.0784  0.1565
 7743SOL    HW134688   0.019   0.221   3.936  2.6961 -1.2396 -1.2538
 7743SOL    HW234689   4.694   0.128   3.830 -0.0174  0.0022  0.4877
 7744SOL     OW34690   3.283   1.991   5.541  0.3092 -0.1504 -0.0129
 7744SOL    HW134691   3.325   1.989   5.456 -0.8063 -0.3877 -0.5644
 7744SOL    HW234692   3.245   2.079   5.539 -0.7600 -0.6171 -0.2448
 7745SOL     OW34693   2.987   1.210   6.889  0.1791  0.3934  0.5136
 7745SOL    HW134694   3.019   1.255   6.967  3.8813 -1.4434  0.0529
 7745SOL    HW234695   2.899   1.175   6.905 -0.1715  1.0611  0.0456
 7746SOL     OW34696   1.015   4.312   5.254 -0.6337  0.0061 -0.0934
 7746SOL    HW134697   0.920   4.308   5.243 -0.8909  1.3954  1.6056
 7746SOL    HW234698   1.018   4.341   5.346  0.8274  0.4549 -0.2816
 7747SOL     OW34699   0.481   3.130   8.960  0.1063  0.3777 -0.3660
 7747SOL    HW134700   0.491   3.139   9.055  1.6687  1.5653 -0.6427
 7747SOL    HW234701   0.551   3.067   8.947  0.7632  0.6557  1.7321
 7748SOL     OW34702   0.663   3.707   2.298 -0.2804 -0.3014 -0.1876
 7748SOL    HW134703   0.744   3.757   2.303 -0.2020 -0.5842  1.4229
 7748SOL    HW234704   0.618   3.741   2.375  1.5910  1.3105  0.1772
 7749SOL     OW34705   4.151   3.264   1.915 -0.0536 -0.5585 -0.4082
 7749SOL    HW134706   4.097   3.292   1.989  0.3818  1.7333 -0.9772
 7749SOL    HW234707   4.132   3.170   1.908  1.0176 -0.5373 -3.3113
 7750SOL     OW34708   0.194   1.619   9.024  0.1474 -0.1831 -0.2010
 7750SOL    HW134709   0.188   1.532   8.984  0.3817  0.1636 -0.9922
 7750SOL    HW234710   0.202   1.676   8.947  0.5145 -0.0584 -0.0719
 7751SOL     OW34711   0.706   0.155   8.804  0.3317  0.5958 -0.6092
 7751SOL    HW134712   0.664   0.220   8.861 -1.1559 -0.1048 -0.9060
 7751SOL    HW234713   0.742   0.116   8.883 -1.8132  0.1853  0.1789
 7752SOL     OW34714   3.637   3.444  14.468 -0.7016 -0.3202 -0.2205
 7752SOL    HW134715   3.714   3.500  14.474  0.6542 -2.3362  1.3308
 7752SOL    HW234716   3.564   3.497  14.501 -0.4992  0.1928 -0.6005
 7753SOL     OW34717   3.701   1.911  14.667 -0.0937  0.0337 -0.0139
 7753SOL    HW134718   3.635   1.972  14.635  0.2063  1.4961  2.1607
 7753SOL    HW234719   3.647   1.871  14.735  0.2463 -0.2175  0.1067
 7754SOL     OW34720   1.376   1.866  12.262 -0.6259  0.0733 -0.4551
 7754SOL    HW134721   1.459   1.906  12.239 -0.7242  0.5193 -0.0120
 7754SOL    HW234722   1.397   1.773  12.248 -2.7844 -0.0280 -3.1222
 7755SOL     OW34723   2.223   2.376  17.069  0.0122 -0.2907  0.0003
 7755SOL    HW134724   2.180   2.293  17.089 -0.6870  0.1754  0.4020
 7755SOL    HW234725   2.312   2.350  17.044  0.3555 -2.2330  3.2590
 7756SOL     OW34726   4.341   3.490   8.950 -0.7012  0.2618 -0.1208
 7756SOL    HW134727   4.417   3.453   8.995 -1.3605 -1.1318 -0.1603
 7756SOL    HW234728   4.368   3.481   8.859  2.1959  0.1314  0.7467
 7757SOL     OW34729   3.211   3.510   9.187  0.8596 -0.4555 -0.2780
 7757SOL    HW134730   3.190   3.473   9.101  0.8058  2.1671 -1.3879
 7757SOL    HW234731   3.291   3.559   9.169  0.9621 -0.9694 -1.1927
 7758SOL     OW34732   4.451   2.411   1.668 -0.2358 -0.2579  0.4388
 7758SOL    HW134733   4.447   2.384   1.576  0.8029  0.0308  0.3075
 7758SOL    HW234734   4.530   2.370   1.702 -0.9731 -0.6554  1.6562
 7759SOL     OW34735   4.232   0.292   5.781  0.4987  0.5732 -0.0423
 7759SOL    HW134736   4.209   0.385   5.769  1.1527  0.4677 -2.1438
 7759SOL    HW234737   4.212   0.280   5.873 -2.1312 -0.8041 -0.8066
 7760SOL     OW34738   1.025   1.471   9.734  0.1805 -0.2893  0.3949
 7760SOL    HW134739   0.987   1.413   9.668 -0.9296 -2.3666  2.8832
 7760SOL    HW234740   1.104   1.506   9.692  0.6833 -1.0709  0.6884
 7761SOL     OW34741   3.003   2.704   7.896  0.0149  0.4668  0.5579
 7761SOL    HW134742   3.011   2.786   7.946  1.1198  0.0770  1.0260
 7761SOL    HW234743   3.056   2.732   7.822 -2.9598 -0.0270 -1.7376
 7762SOL     OW34744   2.911   2.691   4.162  0.5618  0.0367 -0.2565
 7762SOL    HW134745   2.859   2.764   4.127  1.9160  1.2052  0.1963
 7762SOL    HW234746   2.841   2.628   4.182 -0.3226  0.9054 -0.6121
 7763SOL     OW34747   0.574   3.180  15.862 -0.8819  0.0550  0.1085
 7763SOL    HW134748   0.571   3.097  15.815  0.0344  0.1293 -0.0955
 7763SOL    HW234749   0.578   3.240  15.787  2.7789 -0.8425 -0.4166
 7764SOL     OW34750   2.768   0.449  12.845 -0.7056 -0.2172  0.1069
 7764SOL    HW134751   2.717   0.483  12.918  1.6413  0.9372  1.2054
 7764SOL    HW234752   2.727   0.496  12.772  2.5877  1.2424 -0.8240
 7765SOL     OW34753   0.356   1.742  16.772  0.6332  0.0453  0.2572
 7765SOL    HW134754   0.448   1.728  16.796  1.0813 -0.4249 -1.7191
 7765SOL    HW234755   0.366   1.743  16.676 -1.6711 -1.7005  0.0022
 7766SOL     OW34756   1.344   2.929   8.840  0.1490 -0.3457 -0.3381
 7766SOL    HW134757   1.431   2.950   8.875  0.2854 -2.0628  0.3727
 7766SOL    HW234758   1.341   2.833   8.841  1.6720 -0.3876 -0.5229
 7767SOL     OW34759   4.103   4.686   8.952  0.5024  0.3111 -0.1907
 7767SOL    HW134760   4.178   4.634   8.980  0.0746  1.6600  3.4061
 7767SOL    HW234761   4.106   4.651   8.862  3.5279  0.3601 -0.1150
 7768SOL     OW34762   0.163   3.432   8.379 -0.4139  0.8245  0.3463
 7768SOL    HW134763   0.189   3.469   8.294  0.4073 -1.8757 -0.6069
 7768SOL    HW234764   0.238   3.424   8.438  0.2627 -2.4420 -0.9184
 7769SOL     OW34765   3.288   3.382   6.744  0.2332  0.5189 -0.0691
 7769SOL    HW134766   3.299   3.404   6.837 -1.5655 -1.9947  0.7473
 7769SOL    HW234767   3.206   3.331   6.743 -1.0382  2.5090  1.1297
 7770SOL     OW34768   2.128   0.509  10.179 -0.0603  0.2043  0.6184
 7770SOL    HW134769   2.074   0.446  10.132  1.1705  0.6426 -1.3989
 7770SOL    HW234770   2.163   0.554  10.102  0.9427  0.7007  1.3632
 7771SOL     OW34771   3.803   2.379   0.273  0.5024 -0.3773 -0.1312
 7771SOL    HW134772   3.731   2.328   0.236 -0.2785  1.3136 -0.9995
 7771SOL    HW234773   3.834   2.312   0.333 -0.7782  0.5067  1.5300
 7772SOL     OW34774   1.496   4.413   4.286 -0.1868 -0.0644  0.4700
 7772SOL    HW134775   1.416   4.419   4.233  0.0934  1.8269  0.2774
 7772SOL    HW234776   1.510   4.507   4.297 -0.6220  0.2024 -1.2499
 7773SOL     OW34777   1.227   1.898   5.507  0.7047  0.4540 -0.6000
 7773SOL    HW134778   1.134   1.922   5.514  1.1660  1.4738  1.9657
 7773SOL    HW234779   1.230   1.803   5.502  1.6813  0.4428  0.3310
 7774SOL     OW34780   1.701   2.142   3.893  0.4549 -0.0082  0.0389
 7774SOL    HW134781   1.634   2.211   3.888 -0.4285 -1.0331 -2.2549
 7774SOL    HW234782   1.742   2.170   3.975  0.5465 -1.6639  0.5588
 7775SOL     OW34783   3.066   3.618  12.907 -0.0046  0.2936 -0.2933
 7775SOL    HW134784   3.032   3.567  12.833  0.9815 -2.0177  0.8260
 7775SOL    HW234785   3.128   3.670  12.858 -0.1319 -1.1410 -1.9856
 7776SOL     OW34786   3.103   0.351   6.764 -0.3545 -0.1569 -0.6064
 7776SOL    HW134787   3.059   0.362   6.679  1.4174 -1.7294 -1.7189
 7776SOL    HW234788   3.127   0.441   6.785 -1.8132 -0.2953  1.6246
 7777SOL     OW34789   2.166   0.870   6.400 -0.4520  0.2046 -0.0507
 7777SOL    HW134790   2.104   0.885   6.329 -2.7775 -2.0520  1.5151
 7777SOL    HW234791   2.156   0.777   6.424 -0.8691  0.6715  1.6108
 7778SOL     OW34792   2.698   3.200  14.103  0.1156 -0.0106  0.3332
 7778SOL    HW134793   2.657   3.139  14.042  0.6998 -1.2359  1.1581
 7778SOL    HW234794   2.620   3.237  14.144 -0.8162 -0.5516 -0.9636
 7779SOL     OW34795   4.437   3.136  12.777 -0.1934 -0.2801  0.1914
 7779SOL    HW134796   4.527   3.152  12.750 -0.5132 -0.3992 -0.9724
 7779SOL    HW234797   4.442   3.190  12.856  2.0721  0.1536 -0.2662
 7780SOL     OW34798   4.103   0.241   3.713 -0.1163  0.5085 -0.0469
 7780SOL    HW134799   4.118   0.149   3.690  0.3713  0.1950  1.5179
 7780SOL    HW234800   4.188   0.257   3.753  0.4319  1.7608 -1.7308
 7781SOL     OW34801   1.986   2.169  16.305 -0.4276 -0.3608  0.3144
 7781SOL    HW134802   2.035   2.115  16.367 -1.0318 -1.7336 -0.3942
 7781SOL    HW234803   2.051   2.237  16.288  0.0829 -1.0755 -0.6114
 7782SOL     OW34804   4.044   2.979  15.506 -0.6262  0.6823  0.6282
 7782SOL    HW134805   3.971   3.030  15.470  1.8720  0.6898 -4.4780
 7782SOL    HW234806   3.999   2.896  15.521  0.1264  0.1414 -0.0858
 7783SOL     OW34807   4.095   0.729   4.642  0.1666  0.1089 -0.3697
 7783SOL    HW134808   4.190   0.728   4.643  0.1553 -0.8651 -0.3250
 7783SOL    HW234809   4.064   0.645   4.608  1.5540 -0.2857 -0.6608
 7784SOL     OW34810   1.781   2.659  12.319 -0.3100  0.2374  0.8767
 7784SOL    HW134811   1.805   2.658  12.412 -0.1757  1.7466  0.8571
 7784SOL    HW234812   1.857   2.631  12.269 -1.1187 -1.1137  0.3910
 7785SOL     OW34813   0.536   1.893   6.340 -0.0611  0.5531 -0.0299
 7785SOL    HW134814   0.515   1.922   6.429  0.2665 -0.6525  0.4314
 7785SOL    HW234815   0.502   1.804   6.344  0.3568  0.3942 -0.0216
 7786SOL     OW34816   1.521   0.433   5.842  0.0548  0.6101  0.2472
 7786SOL    HW134817   1.435   0.457   5.876  0.3152  0.7486  0.8081
 7786SOL    HW234818   1.573   0.505   5.877 -0.9061  0.9923  0.8540
 7787SOL     OW34819   4.549   3.533   7.426  0.6545  0.0908 -0.5371
 7787SOL    HW134820   4.550   3.611   7.370 -2.2375 -0.0700 -0.8224
 7787SOL    HW234821   4.514   3.572   7.507  0.0984 -2.5256  0.4859
 7788SOL     OW34822   1.021   4.213  13.433  0.0413 -0.0400  0.0623
 7788SOL    HW134823   1.011   4.122  13.404 -0.0227 -0.1100  0.3026
 7788SOL    HW234824   0.965   4.250  13.365 -0.8015 -0.4448  0.5396
 7789SOL     OW34825   2.100   2.042  11.717  0.6016 -0.1603 -0.1257
 7789SOL    HW134826   2.047   2.086  11.783  0.9779 -0.5126  0.4113
 7789SOL    HW234827   2.188   2.045  11.756  0.7795 -1.1933 -0.4252
 7790SOL     OW34828   1.470   3.419   6.772 -0.1862 -0.7179 -0.3381
 7790SOL    HW134829   1.376   3.434   6.781 -0.1305 -0.5639 -0.0024
 7790SOL    HW234830   1.471   3.342   6.828 -0.7845 -0.3232  0.2179
 7791SOL     OW34831   0.975   3.633  13.519 -0.2313 -0.4641  0.1120
 7791SOL    HW134832   0.885   3.633  13.488 -0.2857 -1.1875  0.2795
 7791SOL    HW234833   0.961   3.584  13.600 -0.1026 -0.0722  0.3713
 7792SOL     OW34834   4.229   4.191   9.884 -0.2942 -0.3494 -0.2894
 7792SOL    HW134835   4.232   4.167   9.792 -0.0494  2.7716 -1.1010
 7792SOL    HW234836   4.226   4.287   9.889  0.3503 -0.3456 -0.0738
 7793SOL     OW34837   0.785   1.426   5.462 -0.5158 -0.1629  0.1184
 7793SOL    HW134838   0.763   1.388   5.547  1.6889 -1.4550  0.1088
 7793SOL    HW234839   0.701   1.426   5.416  0.3548  0.0516 -1.4685
 7794SOL     OW34840   4.240   2.981   3.031 -0.0587 -0.0715 -0.2888
 7794SOL    HW134841   4.242   2.987   2.935  0.1486  0.6270 -0.2434
 7794SOL    HW234842   4.323   2.935   3.049  0.7289  1.0161 -1.1464
 7795SOL     OW34843   0.192   0.891   6.052  0.4343  0.3351 -0.3543
 7795SOL    HW134844   0.105   0.917   6.023  0.7654  2.6951  0.7827
 7795SOL    HW234845   0.185   0.796   6.067 -0.8620  0.4643 -0.1434
 7796SOL     OW34846   1.141   1.821   1.497 -0.3786 -0.6600  0.4520
 7796SOL    HW134847   1.133   1.912   1.468  0.6829 -0.2106  1.5887
 7796SOL    HW234848   1.207   1.832   1.565 -0.5604 -0.7860  0.6495
 7797SOL     OW34849   0.769   0.129   3.327  0.0390  0.2944 -0.2389
 7797SOL    HW134850   0.761   0.198   3.261 -1.0399 -0.5935 -1.0373
 7797SOL    HW234851   0.861   0.113   3.311  0.4019  1.5015  0.6430
 7798SOL     OW34852   0.630   4.133   7.854 -0.3732 -0.0911 -0.1253
 7798SOL    HW134853   0.538   4.117   7.876 -0.0705  1.8733  2.7225
 7798SOL    HW234854   0.654   4.059   7.798 -0.9539  0.1603 -0.7028
 7799SOL     OW34855   0.823   1.243  12.306  0.1579 -0.5036 -0.2697
 7799SOL    HW134856   0.837   1.148  12.304  1.5688 -0.2707 -1.2217
 7799SOL    HW234857   0.884   1.271  12.238 -1.1107 -0.2923 -1.3142
 7800SOL     OW34858   4.442   4.416   4.634 -0.4576 -0.1513 -0.0449
 7800SOL    HW134859   4.521   4.400   4.685 -2.0818  0.1431  2.6194
 7800SOL    HW234860   4.462   4.399   4.542 -0.7862 -2.1926  0.2464
 7801SOL     OW34861   1.639   0.217   3.896 -0.4754 -0.4013  0.5481
 7801SOL    HW134862   1.717   0.255   3.857 -1.0380 -1.5989 -1.7143
 7801SOL    HW234863   1.578   0.235   3.825  0.9128  0.5834 -0.3807
 7802SOL     OW34864   1.457   2.645   7.387  0.0775  0.2903  0.1771
 7802SOL    HW134865   1.376   2.643   7.439 -0.4929  1.4430 -0.6718
 7802SOL    HW234866   1.413   2.614   7.308 -1.0261 -0.2176  0.9890
 7803SOL     OW34867   4.272   2.849   7.388  0.7597  0.0504 -0.1712
 7803SOL    HW134868   4.274   2.754   7.379 -0.0165  0.3349 -3.6020
 7803SOL    HW234869   4.178   2.868   7.395  0.3446 -2.2720  0.3435
 7804SOL     OW34870   0.956   1.112   5.877  0.1122  0.5268 -0.2867
 7804SOL    HW134871   0.961   1.091   5.970 -1.6968 -0.3335 -0.3856
 7804SOL    HW234872   0.882   1.058   5.849 -0.1370  1.3560 -1.2200
 7805SOL     OW34873   1.217   0.882   8.199  0.8682 -0.6092  0.3782
 7805SOL    HW134874   1.195   0.959   8.147  1.5127  0.1463  1.2330
 7805SOL    HW234875   1.268   0.919   8.270  1.3191 -0.2854 -0.1126
 7806SOL     OW34876   2.550   2.469   2.935 -0.2946 -0.5504 -0.7443
 7806SOL    HW134877   2.610   2.421   2.992 -0.7799 -0.4218 -0.1249
 7806SOL    HW234878   2.475   2.478   2.994 -0.8882 -0.1712 -1.5683
 7807SOL     OW34879   3.502   0.717   3.333  0.3066 -0.3431  0.4909
 7807SOL    HW134880   3.441   0.663   3.384 -2.3860  1.6653 -0.6250
 7807SOL    HW234881   3.450   0.791   3.302 -0.1638 -1.1263 -0.5600
 7808SOL     OW34882   0.557   0.787  10.338 -0.1642  0.1740 -0.3056
 7808SOL    HW134883   0.610   0.719  10.296 -0.8320 -0.4201 -0.1914
 7808SOL    HW234884   0.574   0.760  10.428  0.6292 -0.4074 -0.6255
 7809SOL     OW34885   0.458   2.382   7.050  0.5788 -0.3227  0.5461
 7809SOL    HW134886   0.466   2.469   7.010 -0.5627 -0.6263 -0.3434
 7809SOL    HW234887   0.424   2.338   6.972  2.8249 -0.8783 -0.1344
 7810SOL     OW34888   3.987   0.391   6.650  1.0899  0.1615 -0.2429
 7810SOL    HW134889   3.967   0.445   6.727  1.5310 -2.0619  1.4606
 7810SOL    HW234890   4.072   0.431   6.632  0.6712  0.9170 -0.4920
 7811SOL     OW34891   3.271   2.180   6.234 -0.1725  0.1368 -0.0925
 7811SOL    HW134892   3.221   2.105   6.202  0.7339 -0.1398 -0.8403
 7811SOL    HW234893   3.338   2.195   6.168  2.4651  1.5619  2.8849
 7812SOL     OW34894   3.809   1.195   8.745 -0.3535 -0.1524  0.2497
 7812SOL    HW134895   3.752   1.208   8.669 -1.9985 -3.4727  0.9355
 7812SOL    HW234896   3.818   1.100   8.747 -3.4466 -0.4024  1.3872
 7813SOL     OW34897   0.484   0.353  11.948 -0.4212  0.0325 -0.4322
 7813SOL    HW134898   0.457   0.277  11.896  0.1707  0.1914 -0.9763
 7813SOL    HW234899   0.541   0.313  12.014 -1.8370 -1.2247  0.0323
 7814SOL     OW34900   2.286   2.643   8.184  0.0333  0.2820  0.7597
 7814SOL    HW134901   2.301   2.650   8.089 -3.3410 -1.5687  0.0893
 7814SOL    HW234902   2.345   2.570   8.202  1.5317  0.9487 -1.4007
 7815SOL     OW34903   1.267   4.443   5.641  0.4185 -0.8429  0.2956
 7815SOL    HW134904   1.190   4.500   5.633  0.8682 -0.3574 -0.6260
 7815SOL    HW234905   1.303   4.461   5.554 -1.0421  0.5257 -0.0307
 7816SOL     OW34906   0.865   1.145   1.513 -0.1784 -0.5955 -0.3475
 7816SOL    HW134907   0.855   1.053   1.535 -0.6220 -0.7705 -1.2656
 7816SOL    HW234908   0.906   1.142   1.427  1.3534 -0.1017  0.3564
 7817SOL     OW34909   2.757   1.784   4.870  0.4964 -0.7633  0.1349
 7817SOL    HW134910   2.764   1.807   4.963 -2.3941  0.2835  0.1174
 7817SOL    HW234911   2.684   1.838   4.839  0.6279 -0.0402  1.0793
 7818SOL     OW34912   4.266   4.233   5.738  0.4067  0.3139 -0.5765
 7818SOL    HW134913   4.251   4.152   5.690 -1.2993  0.5980 -0.5165
 7818SOL    HW234914   4.296   4.196   5.822  1.6300 -1.3623 -1.7597
 7819SOL     OW34915   0.038   3.178  11.373  0.2790 -0.5678 -0.3554
 7819SOL    HW134916   0.025   3.272  11.388 -0.6307 -0.7200 -0.1538
 7819SOL    HW234917   0.074   3.173  11.285 -0.3419  0.6750 -0.6776
 7820SOL     OW34918   0.242   2.293   4.985  0.0532  0.2164 -0.4787
 7820SOL    HW134919   0.307   2.222   4.984  0.3524  0.4512  2.1333
 7820SOL    HW234920   0.297   2.371   4.995 -0.0891  0.4724 -1.6985
 7821SOL     OW34921   4.040   1.103   6.970  0.4047  0.2402 -0.0439
 7821SOL    HW134922   4.131   1.075   6.978  0.7068  0.8298 -1.4561
 7821SOL    HW234923   3.979   1.031   6.990 -2.0938  2.5226  0.5738
 7822SOL     OW34924   4.584   2.515   8.640  0.1474  0.7160  0.0393
 7822SOL    HW134925   4.521   2.582   8.612 -0.3879  0.6601  1.1313
 7822SOL    HW234926   4.663   2.527   8.586 -0.7045 -2.1775 -1.8548
 7823SOL     OW34927   0.166   2.338   2.167 -0.0147  0.5691 -0.3772
 7823SOL    HW134928   0.105   2.406   2.192  0.2914  0.3630  0.9374
 7823SOL    HW234929   0.123   2.258   2.198  0.1398 -0.2128 -2.2010
 7824SOL     OW34930   3.678   1.170  15.624 -0.5716 -0.0391  0.2646
 7824SOL    HW134931   3.715   1.252  15.659  0.4374 -0.6663  0.6488
 7824SOL    HW234932   3.588   1.186  15.655  0.0882  1.6148  1.3548
 7825SOL     OW34933   0.640   0.416   0.151 -0.6462  0.5086  0.1962
 7825SOL    HW134934   0.672   0.506   0.155  0.4202  0.0739  1.3669
 7825SOL    HW234935   0.573   0.421   0.218 -1.4791  0.6849 -0.6535
 7826SOL     OW34936   0.630   3.322  15.285  0.1852 -0.3268 -0.7081
 7826SOL    HW134937   0.539   3.347  15.302 -0.3327 -2.7569  0.0732
 7826SOL    HW234938   0.618   3.240  15.236 -2.1577 -1.0085  0.9758
 7827SOL     OW34939   4.260   1.832   4.988  0.4115  0.4132  0.4081
 7827SOL    HW134940   4.239   1.840   5.081 -1.3389  0.1741  0.0324
 7827SOL    HW234941   4.350   1.866   4.979  1.3186 -1.8060  1.2357
 7828SOL     OW34942   3.612   4.030   3.369 -0.7982  0.1950  0.2104
 7828SOL    HW134943   3.547   4.013   3.301  1.5257 -0.8330 -1.7897
 7828SOL    HW234944   3.561   4.075   3.437 -2.7939 -1.3227 -0.2845
 7829SOL     OW34945   4.075   3.883  13.600  0.0202 -0.4399  0.0231
 7829SOL    HW134946   4.128   3.871  13.679  0.1290  1.1712  0.1983
 7829SOL    HW234947   4.015   3.810  13.611  1.7903 -2.2354 -2.2142
 7830SOL     OW34948   0.784   4.230   3.864 -0.0740  0.0515  0.3284
 7830SOL    HW134949   0.717   4.203   3.801  2.9835  1.2897 -3.3815
 7830SOL    HW234950   0.811   4.314   3.828 -2.1131  0.6135  0.0760
 7831SOL     OW34951   0.491   0.931   9.699 -0.0180  0.7652 -0.1987
 7831SOL    HW134952   0.501   0.845   9.739 -0.0688  0.8037 -0.1041
 7831SOL    HW234953   0.569   0.980   9.725  1.0673 -0.5492 -0.9740
 7832SOL     OW34954   1.211   0.457   7.583 -0.2282  0.1154 -0.1778
 7832SOL    HW134955   1.297   0.421   7.606 -0.2121 -0.0522 -0.5081
 7832SOL    HW234956   1.234   0.481   7.493  3.9789 -0.9453  0.6033
 7833SOL     OW34957   1.099   0.650   8.361  0.2374 -0.9141  0.0120
 7833SOL    HW134958   1.130   0.570   8.317 -0.7516 -0.5730 -1.2915
 7833SOL    HW234959   1.110   0.710   8.287  2.8255 -1.6414 -0.2110
 7834SOL     OW34960   4.388   4.147   3.445  0.0566 -0.0599  0.1436
 7834SOL    HW134961   4.375   4.064   3.400 -0.8011  0.7861 -1.1555
 7834SOL    HW234962   4.399   4.126   3.538  1.6769  1.0821  0.2029
 7835SOL     OW34963   3.478   2.509   4.921 -0.4841 -0.3987 -0.0436
 7835SOL    HW134964   3.493   2.570   4.849  0.4669  0.0848  0.5604
 7835SOL    HW234965   3.552   2.522   4.980 -0.5503 -1.2761  0.2387
 7836SOL     OW34966   0.322   1.245   7.299  0.1607 -0.6102 -0.2993
 7836SOL    HW134967   0.384   1.255   7.227 -1.0532 -0.7339 -1.3615
 7836SOL    HW234968   0.339   1.153   7.321  1.2919  0.1006  1.8860
 7837SOL     OW34969   0.556   0.574   5.067 -0.1201 -0.3819 -0.7083
 7837SOL    HW134970   0.583   0.518   5.139  0.0845  1.0861  0.3672
 7837SOL    HW234971   0.570   0.664   5.097 -0.8677  0.2459 -2.2466
 7838SOL     OW34972   2.362   2.540  11.395  0.1881  0.2149 -0.0814
 7838SOL    HW134973   2.340   2.449  11.375 -1.3263  0.5068  0.3020
 7838SOL    HW234974   2.333   2.588  11.316  0.1054  1.4638  0.7012
 7839SOL     OW34975   2.182   1.536   9.041 -0.2159  0.1163  0.2212
 7839SOL    HW134976   2.203   1.500   8.955  1.8406 -0.0982  0.8159
 7839SOL    HW234977   2.211   1.627   9.040  1.2531 -0.3553  0.2522
 7840SOL     OW34978   2.099   0.876   3.863  0.5079  0.1440 -0.4120
 7840SOL    HW134979   2.107   0.877   3.767  0.0233  0.5716 -0.4477
 7840SOL    HW234980   2.184   0.847   3.898 -0.6555  2.5791  4.4118
 7841SOL     OW34981   3.539   2.406   3.894  0.1096 -0.4478 -0.5445
 7841SOL    HW134982   3.457   2.409   3.943  0.8692 -0.9807  0.7663
 7841SOL    HW234983   3.551   2.499   3.873 -0.0100 -0.5923 -1.2221
 7842SOL     OW34984   1.440   3.365  11.208  0.8433 -0.1310  0.4140
 7842SOL    HW134985   1.396   3.358  11.293 -0.0946  1.9740  0.0904
 7842SOL    HW234986   1.393   3.444  11.180  3.6552  1.2379 -0.4525
 7843SOL     OW34987   3.922   2.186  16.561  0.7188  0.5640 -0.2121
 7843SOL    HW134988   3.844   2.152  16.604  0.5620  0.9339 -0.2010
 7843SOL    HW234989   3.933   2.267  16.612  1.2705 -0.1383  0.7855
 7844SOL     OW34990   2.242   1.902   4.127 -0.3742 -0.0646  0.2311
 7844SOL    HW134991   2.188   1.959   4.071  2.8206  1.5681 -1.1774
 7844SOL    HW234992   2.181   1.850   4.179 -0.6256 -2.0389 -2.0274
 7845SOL     OW34993   2.611   2.688   7.248 -0.0457 -0.2511 -0.4187
 7845SOL    HW134994   2.571   2.601   7.246  0.8469 -0.7282  1.9845
 7845SOL    HW234995   2.697   2.655   7.276  0.2767  0.5476 -0.4760
 7846SOL     OW34996   3.099   4.011   6.269 -0.6419 -0.1367  0.7116
 7846SOL    HW134997   3.179   4.062   6.256  1.0874 -2.8244  0.9136
 7846SOL    HW234998   3.067   4.067   6.340  0.4044 -1.1335  1.9534
 7847SOL     OW34999   3.342   2.055  13.221  0.0381  0.2820  0.1541
 7847SOL    HW135000   3.357   2.149  13.236  1.7775  0.2080 -1.1121
 7847SOL    HW235001   3.430   2.018  13.214  0.2272  0.2189  2.8195
 7848SOL     OW35002   4.071   4.591   3.186  0.1795 -0.8088 -0.7154
 7848SOL    HW135003   4.059   4.523   3.120 -1.0534 -2.0741  0.8278
 7848SOL    HW235004   4.034   4.547   3.262  1.6053 -0.9184 -0.0772
 7849SOL     OW35005   2.991   2.530   4.684 -0.4434 -0.8695  0.0311
 7849SOL    HW135006   2.927   2.576   4.629  1.2886  0.3634 -0.9514
 7849SOL    HW235007   2.956   2.441   4.678 -0.2792 -0.8565 -1.2321
 7850SOL     OW35008   4.411   4.322   7.101  0.3546  1.0065 -0.1899
 7850SOL    HW135009   4.505   4.304   7.110 -0.0205 -1.5835 -1.5676
 7850SOL    HW235010   4.397   4.287   7.013  0.1273  0.2435  0.1531
 7851SOL     OW35011   1.493   0.957   8.616  0.2970 -0.3918  0.1003
 7851SOL    HW135012   1.484   0.893   8.545  0.4768  1.5633 -1.6891
 7851SOL    HW235013   1.404   0.959   8.651  0.4496 -1.3987  0.5522
 7852SOL     OW35014   3.176   0.158   4.287 -0.3823 -0.6856 -0.1754
 7852SOL    HW135015   3.188   0.247   4.319  1.5472 -0.8844 -0.3764
 7852SOL    HW235016   3.118   0.125   4.356 -0.8197 -2.7799 -1.5399
 7853SOL     OW35017   0.715   1.101  16.131  0.1986 -0.4495 -0.4664
 7853SOL    HW135018   0.738   1.140  16.215 -0.3349 -1.0196 -0.0547
 7853SOL    HW235019   0.776   1.145  16.072 -1.0893 -0.4421 -1.7782
 7854SOL     OW35020   1.610   4.402   7.875  0.3166 -0.8267  0.5066
 7854SOL    HW135021   1.674   4.473   7.867 -1.0040  0.2641 -0.2789
 7854SOL    HW235022   1.526   4.439   7.850 -0.4578 -2.6880  0.3302
 7855SOL     OW35023   2.788   3.846   4.125 -0.0738  0.3846  0.0195
 7855SOL    HW135024   2.716   3.886   4.076 -0.4473  1.0452  1.1031
 7855SOL    HW235025   2.737   3.795   4.187 -1.5259  0.5521 -1.0412
 7856SOL     OW35026   3.853   1.166   1.463 -0.1329 -0.2153 -0.4118
 7856SOL    HW135027   3.924   1.159   1.399 -0.7772  0.1901 -1.1814
 7856SOL    HW235028   3.783   1.118   1.418 -0.2582  0.9799 -1.5201
 7857SOL     OW35029   2.069   0.923  14.749 -0.1168 -0.0611  0.3895
 7857SOL    HW135030   2.013   0.890  14.679  0.8925 -2.6319  0.7812
 7857SOL    HW235031   2.010   0.939  14.822 -0.6599 -1.6541  0.2941
 7858SOL     OW35032   0.672   0.609   1.673  0.1224 -0.9191  0.2323
 7858SOL    HW135033   0.638   0.674   1.735  0.9447 -1.1020  0.8787
 7858SOL    HW235034   0.722   0.556   1.735  0.7744 -0.3997  0.1441
 7859SOL     OW35035   0.008   2.171   3.752 -0.4781 -0.4678  0.0282
 7859SOL    HW135036   4.717   2.101   3.688  0.8609 -0.1973 -0.5617
 7859SOL    HW235037   0.043   2.247   3.706 -1.9587 -0.5806 -1.2976
 7860SOL     OW35038   0.553   0.637   5.751  0.0786  0.2826  0.2512
 7860SOL    HW135039   0.513   0.582   5.684 -0.2267  0.4089  0.3330
 7860SOL    HW235040   0.474   0.672   5.793  0.8401 -1.1716  2.9361
 7861SOL     OW35041   2.565   4.205  13.037  0.2725 -0.1056  0.3742
 7861SOL    HW135042   2.658   4.183  13.041  0.7952  1.7810 -1.4428
 7861SOL    HW235043   2.524   4.120  13.053 -0.4816  0.4405  1.3242
 7862SOL     OW35044   1.318   4.078   8.691 -0.1067 -0.2371  0.0109
 7862SOL    HW135045   1.390   4.142   8.684  0.9323 -1.2637  1.2450
 7862SOL    HW235046   1.356   4.000   8.651  0.1217 -0.0268 -0.1890
 7863SOL     OW35047   3.934   1.675   2.603 -0.2742 -0.0916 -0.1387
 7863SOL    HW135048   3.882   1.663   2.524 -1.8721 -0.9932  1.0268
 7863SOL    HW235049   3.996   1.740   2.574 -0.6070  0.6003  0.6922
 7864SOL     OW35050   4.675   3.842   4.337 -0.2128 -0.1276 -0.3468
 7864SOL    HW135051   4.628   3.879   4.413  0.5535  1.2449 -0.5284
 7864SOL    HW235052   4.685   3.751   4.365  0.8640  0.4230  1.1217
 7865SOL     OW35053   3.542   3.517   8.899  0.5723 -0.0748  0.4904
 7865SOL    HW135054   3.518   3.429   8.869 -0.0657 -0.0340  0.8662
 7865SOL    HW235055   3.523   3.564   8.818  1.2200 -1.8442 -0.7048
 7866SOL     OW35056   1.659   2.910  16.693  0.3360  0.5584  0.7301
 7866SOL    HW135057   1.599   2.839  16.671  1.8735  0.3131 -2.6838
 7866SOL    HW235058   1.661   2.893  16.787 -0.6551 -2.6897  0.1486
 7867SOL     OW35059   3.890   0.300   0.475  0.6011  0.4870 -0.3019
 7867SOL    HW135060   3.932   0.323   0.557 -3.1773  0.1297  1.7084
 7867SOL    HW235061   3.920   0.366   0.413 -0.1603 -0.7275 -1.9783
 7868SOL     OW35062   3.297   0.705   4.954 -0.1217  0.0957  0.1877
 7868SOL    HW135063   3.360   0.766   4.992 -0.4296  0.7592 -0.3711
 7868SOL    HW235064   3.227   0.765   4.927  1.6754  1.2973 -1.7964
 7869SOL     OW35065   0.377   2.691   1.351 -0.5223 -0.1172  0.4485
 7869SOL    HW135066   0.442   2.738   1.403  0.3168 -0.9746  0.1824
 7869SOL    HW235067   0.295   2.737   1.363 -0.7373 -0.0667 -1.2433
 7870SOL     OW35068   2.995   4.569   3.310  0.0841  0.2675 -0.5907
 7870SOL    HW135069   3.022   4.656   3.337  1.4962 -1.1155  2.4960
 7870SOL    HW235070   2.900   4.579   3.313 -0.0312 -0.9693 -0.0457
 7871SOL     OW35071   1.679   0.940   1.030 -0.3615 -0.5670 -0.1915
 7871SOL    HW135072   1.680   0.887   1.110  0.4136 -0.4972 -0.1499
 7871SOL    HW235073   1.774   0.941   1.017 -0.7615 -0.8533 -3.1869
 7872SOL     OW35074   2.798   1.672  14.372  0.0912 -0.5180 -0.3939
 7872SOL    HW135075   2.716   1.629  14.348 -1.0689  0.3342  2.0349
 7872SOL    HW235076   2.763   1.718  14.448  0.2750 -0.2975 -0.4434
 7873SOL     OW35077   3.449   1.665   3.245 -0.0933  0.0541  0.0247
 7873SOL    HW135078   3.479   1.741   3.194 -3.0739  1.4023  0.2819
 7873SOL    HW235079   3.356   1.664   3.224 -0.4412  1.2681  1.5355
 7874SOL     OW35080   1.821   1.640  17.011  0.1862  0.1379  0.1837
 7874SOL    HW135081   1.731   1.672  17.007  0.3525  0.3713 -1.8688
 7874SOL    HW235082   1.863   1.654  17.096  2.4276 -2.5526 -0.4483
 7875SOL     OW35083   2.504   3.270   8.108  0.0969 -0.6558  0.8338
 7875SOL    HW135084   2.590   3.306   8.132  0.1269 -0.1852  0.0245
 7875SOL    HW235085   2.496   3.309   8.021  1.7149  1.0809  1.4570
 7876SOL     OW35086   1.908   1.350  10.477 -0.5295  0.2916 -0.0945
 7876SOL    HW135087   1.980   1.378  10.420  1.6142 -2.3469  1.3325
 7876SOL    HW235088   1.955   1.358  10.560 -0.0832 -0.2793 -0.2954
 7877SOL     OW35089   2.293   4.148   8.240 -0.5021 -0.0203 -0.3295
 7877SOL    HW135090   2.199   4.147   8.222 -0.8198 -0.2624  1.3560
 7877SOL    HW235091   2.287   4.190   8.326 -0.5861  0.8504 -0.7533
 7878SOL     OW35092   1.623   2.587   1.003  0.1685  0.4385 -0.6310
 7878SOL    HW135093   1.571   2.659   0.968  1.0005  0.5954 -1.5146
 7878SOL    HW235094   1.560   2.519   1.028  2.0924 -0.7712  0.9178
 7879SOL     OW35095   4.690   1.343   7.483  0.6175 -0.0440  0.0039
 7879SOL    HW135096   4.690   1.340   7.579  0.1580 -0.0218  0.0086
 7879SOL    HW235097   4.596   1.330   7.466  0.4053  1.0518  0.3386
 7880SOL     OW35098   2.407   0.529   4.186 -0.3423 -0.3023  0.1733
 7880SOL    HW135099   2.397   0.511   4.093  1.4320 -0.9744  0.0931
 7880SOL    HW235100   2.348   0.464   4.224 -2.0208  0.4350 -1.2254
 7881SOL     OW35101   0.037   2.188   1.491  0.5132  0.1641  0.4576
 7881SOL    HW135102   0.023   2.273   1.449  1.2048  1.5429  3.0197
 7881SOL    HW235103   4.679   2.151   1.456 -1.1132  3.3527  0.8712
 7882SOL     OW35104   0.614   0.278   9.300 -0.4224 -0.2151  0.2971
 7882SOL    HW135105   0.665   0.268   9.381 -0.2678  2.2427  0.5321
 7882SOL    HW235106   0.652   0.353   9.254 -2.0497 -0.2806 -1.1535
 7883SOL     OW35107   4.594   4.668   2.071 -0.2255  0.4413 -0.3291
 7883SOL    HW135108   4.614   4.718   2.150 -0.2124 -0.5605  0.3020
 7883SOL    HW235109   4.548   4.596   2.115 -1.2196  0.5673 -1.1724
 7884SOL     OW35110   0.151   1.773   8.426  0.0278 -0.1711 -0.7262
 7884SOL    HW135111   0.135   1.867   8.411 -1.8035 -0.5703 -1.2293
 7884SOL    HW235112   0.101   1.773   8.508  1.0412 -0.5614 -0.1032
 7885SOL     OW35113   1.855   2.227  14.796  0.5659 -0.4361  0.1180
 7885SOL    HW135114   1.944   2.252  14.774  0.2660  0.2040 -0.3585
 7885SOL    HW235115   1.834   2.171  14.721  0.0230  0.1617 -0.1751
 7886SOL     OW35116   1.522   0.154   8.423 -0.4901 -0.1394 -0.1600
 7886SOL    HW135117   1.531   0.062   8.398  0.2967 -0.4361  1.2169
 7886SOL    HW235118   1.460   0.188   8.359  1.1907  1.0856 -1.1420
 7887SOL     OW35119   3.547   2.727   6.585  0.1836  0.4381  0.2355
 7887SOL    HW135120   3.619   2.766   6.534 -0.2204  2.1007  0.9448
 7887SOL    HW235121   3.560   2.760   6.674  2.0560 -1.0023  0.5229
 7888SOL     OW35122   3.200   4.208  11.939 -0.2769  0.2305  0.5792
 7888SOL    HW135123   3.268   4.169  11.883  1.6625 -0.1877  3.2044
 7888SOL    HW235124   3.159   4.136  11.987  0.3913 -0.2675  0.4050
 7889SOL     OW35125   4.471   4.534   6.095 -0.1922  0.2685 -0.3119
 7889SOL    HW135126   4.401   4.500   6.039  0.9227 -0.3258 -1.3457
 7889SOL    HW235127   4.542   4.535   6.032  0.3543 -0.5414  0.2882
 7890SOL     OW35128   3.333   1.289  11.174 -0.4854  0.2779 -0.0834
 7890SOL    HW135129   3.297   1.330  11.095 -1.5653  1.0473  0.8327
 7890SOL    HW235130   3.402   1.351  11.197  0.7774 -0.4699 -1.8428
 7891SOL     OW35131   0.757   3.889   2.645 -0.0516 -1.0314 -0.0219
 7891SOL    HW135132   0.732   3.980   2.634  2.7162 -0.5273 -2.2752
 7891SOL    HW235133   0.853   3.889   2.652 -0.0119  1.6936 -0.8587
 7892SOL     OW35134   2.540   2.740   7.724 -0.1694  0.2089 -0.0044
 7892SOL    HW135135   2.625   2.765   7.687 -0.2124 -0.1162 -0.3267
 7892SOL    HW235136   2.483   2.770   7.654 -0.3386  0.8654  0.4192
 7893SOL     OW35137   0.697   0.812  15.022  0.3301 -0.1062 -0.3543
 7893SOL    HW135138   0.667   0.897  15.054  3.2046  0.5751  0.5770
 7893SOL    HW235139   0.631   0.810  14.954  1.0826  2.0719 -1.1515
 7894SOL     OW35140   2.460   1.144   3.953 -0.8320  0.5648 -0.5268
 7894SOL    HW135141   2.534   1.144   4.013 -0.5773 -1.9956 -0.8442
 7894SOL    HW235142   2.400   1.205   3.997 -0.3252  1.0066 -0.4446
 7895SOL     OW35143   3.481   3.301   0.775  0.3923 -0.6594 -1.0034
 7895SOL    HW135144   3.533   3.362   0.827  0.3173 -0.6251 -0.9679
 7895SOL    HW235145   3.458   3.359   0.703  0.0602  0.3778 -0.0766
 7896SOL     OW35146   0.828   3.860   7.273  0.3724 -0.5721 -0.2305
 7896SOL    HW135147   0.765   3.930   7.292  0.6519 -0.9652  2.0813
 7896SOL    HW235148   0.893   3.881   7.339 -0.8391 -2.1486  1.4479
 7897SOL     OW35149   4.252   1.415   3.471  0.6840 -0.1945 -0.2026
 7897SOL    HW135150   4.316   1.407   3.401 -1.6593  0.2728 -2.4086
 7897SOL    HW235151   4.312   1.443   3.541  1.0909 -0.6535 -0.3731
 7898SOL     OW35152   0.324   0.196   6.352  0.2331 -0.2090 -0.7219
 7898SOL    HW135153   0.234   0.221   6.333  1.0001  1.9080 -1.4632
 7898SOL    HW235154   0.378   0.273   6.335 -0.5600  0.2835 -0.9931
 7899SOL     OW35155   2.277   3.201   4.278 -0.6091 -0.5925 -0.0322
 7899SOL    HW135156   2.307   3.252   4.203  0.4045  0.0549  0.8093
 7899SOL    HW235157   2.329   3.121   4.276 -0.6730 -0.6766  2.1489
 7900SOL     OW35158   1.756   4.117  10.525 -0.3656 -0.0665  0.0168
 7900SOL    HW135159   1.722   4.103  10.614 -0.7459  0.2211 -0.0816
 7900SOL    HW235160   1.733   4.210  10.518  2.4372  0.4377 -2.3407
 7901SOL     OW35161   0.066   3.836   0.054  0.0352 -0.2469  0.1769
 7901SOL    HW135162   0.094   3.748   0.031 -1.1305 -0.3490 -0.7824
 7901SOL    HW235163   0.043   3.858  17.659 -1.5859 -0.1017  0.6278
 7902SOL     OW35164   2.084   4.550   7.184 -0.0331 -0.5500  0.0993
 7902SOL    HW135165   2.033   4.541   7.264 -2.2952 -0.5212 -1.3261
 7902SOL    HW235166   2.052   4.632   7.147 -0.8417 -0.6473  0.5909
 7903SOL     OW35167   3.480   3.447   0.560 -0.6215  0.1838 -0.4833
 7903SOL    HW135168   3.516   3.535   0.551  0.1839 -0.3069 -2.0589
 7903SOL    HW235169   3.416   3.449   0.489 -0.0403  1.8708 -0.9628
 7904SOL     OW35170   1.446   4.269   2.597 -0.3562  0.2149 -0.4041
 7904SOL    HW135171   1.378   4.318   2.643  0.5904  0.9467  0.2327
 7904SOL    HW235172   1.526   4.288   2.647 -0.7074  2.0965 -0.5243
 7905SOL     OW35173   1.192   2.899   7.471  0.1597 -0.0991 -0.2466
 7905SOL    HW135174   1.211   2.944   7.554 -2.6373 -1.7112  1.2454
 7905SOL    HW235175   1.117   2.841   7.485 -1.0528  1.5955  0.2115
 7906SOL     OW35176   2.125   2.943   1.537 -0.5825  0.3687  0.1071
 7906SOL    HW135177   2.062   2.992   1.589 -1.0409 -0.6651  0.5040
 7906SOL    HW235178   2.177   3.016   1.502 -2.6983  2.1319  0.6037
 7907SOL     OW35179   1.451   3.383  12.205 -0.1973 -1.0179  0.0155
 7907SOL    HW135180   1.397   3.311  12.240 -0.1476 -1.1630 -0.2073
 7907SOL    HW235181   1.389   3.440  12.161 -1.4002 -4.6573 -3.0304
 7908SOL     OW35182   4.461   0.981   2.579 -0.6901  0.2627  0.5593
 7908SOL    HW135183   4.396   1.028   2.527 -1.8088 -0.8353  0.9830
 7908SOL    HW235184   4.516   1.057   2.599 -0.6686 -0.4168  2.9632
 7909SOL     OW35185   0.883   3.157   2.200  1.0639  0.0302 -0.2085
 7909SOL    HW135186   0.964   3.191   2.237  0.5304  2.6594 -1.4548
 7909SOL    HW235187   0.894   3.164   2.106 -3.1348  0.0008 -0.7158
 7910SOL     OW35188   4.636   0.900  15.721 -0.0666  0.5371  0.0291
 7910SOL    HW135189   4.585   0.833  15.766 -1.0976  2.0948  1.1594
 7910SOL    HW235190   4.568   0.959  15.689 -0.5234  0.2981  0.5703
 7911SOL     OW35191   4.381   2.661  12.833 -0.4921 -0.3857 -0.3565
 7911SOL    HW135192   4.411   2.599  12.767 -0.5919 -1.9465  1.0782
 7911SOL    HW235193   4.458   2.687  12.883 -0.8044 -1.6959  0.7905
 7912SOL     OW35194   3.093   0.073   5.176  0.1194 -0.0778  0.0734
 7912SOL    HW135195   3.100   0.145   5.238 -0.8620 -0.7889  0.9867
 7912SOL    HW235196   3.187   0.054   5.163  0.8788  4.5290 -1.2105
 7913SOL     OW35197   4.260   1.213   9.030 -0.2784 -0.6705 -0.1167
 7913SOL    HW135198   4.241   1.147   9.097 -0.2982  0.4756  0.9966
 7913SOL    HW235199   4.270   1.293   9.081 -1.6769 -1.1393  0.8707
 7914SOL     OW35200   3.458   0.317   0.716  0.4406  0.3930  0.3558
 7914SOL    HW135201   3.454   0.356   0.629  0.5951  1.9022  1.0203
 7914SOL    HW235202   3.469   0.227   0.688  1.2998  0.8311 -0.6590
 7915SOL     OW35203   1.282   1.024   5.624  0.0035  0.2711 -0.3502
 7915SOL    HW135204   1.224   0.965   5.671  1.5593 -0.3426  0.8068
 7915SOL    HW235205   1.226   1.036   5.547 -1.5005  0.9180  0.8540
 7916SOL     OW35206   0.318   2.134   2.931  0.4136  0.2522  0.1118
 7916SOL    HW135207   0.345   2.151   2.841  1.9254  1.8198  0.8451
 7916SOL    HW235208   0.277   2.217   2.955  2.0717  1.1343 -0.0912
 7917SOL     OW35209   1.939   4.264   0.304 -0.0135  0.0448  0.7171
 7917SOL    HW135210   1.899   4.321   0.238 -0.5375 -0.7875  0.3097
 7917SOL    HW235211   1.866   4.202   0.307 -1.0220  1.3616  3.1990
 7918SOL     OW35212   4.217   4.158   8.627  0.1304  0.1829  0.5475
 7918SOL    HW135213   4.289   4.218   8.609  2.2894 -3.0109 -1.3861
 7918SOL    HW235214   4.239   4.126   8.714 -1.2092 -1.9426  0.1068
 7919SOL     OW35215   0.597   4.570   9.453 -0.2601 -0.8215  0.3639
 7919SOL    HW135216   0.527   4.634   9.451 -0.8019 -1.3576  1.9523
 7919SOL    HW235217   0.631   4.589   9.541 -0.9531 -1.2283  0.7198
 7920SOL     OW35218   1.678   0.068   8.643 -0.2321  0.1754 -0.5942
 7920SOL    HW135219   1.618   0.108   8.580  0.5443  1.6304 -0.4097
 7920SOL    HW235220   1.705   0.147   8.691 -2.2127 -0.2854  1.2684
 7921SOL     OW35221   0.945   0.311   5.839  0.3481  0.4043  0.5007
 7921SOL    HW135222   1.016   0.321   5.776  0.3172  1.9888  0.7206
 7921SOL    HW235223   0.966   0.383   5.898  0.9911  1.3026 -0.8306
 7922SOL     OW35224   3.744   2.096   2.549  0.1401  0.4552 -0.0484
 7922SOL    HW135225   3.683   2.162   2.516  1.2237  2.3223  1.6696
 7922SOL    HW235226   3.758   2.053   2.465 -0.4966  1.4262 -0.6493
 7923SOL     OW35227   0.645   0.772  17.480 -0.2524 -0.4660  0.2748
 7923SOL    HW135228   0.565   0.751  17.432  1.1175  3.4322 -3.7021
 7923SOL    HW235229   0.595   0.813  17.551  1.2273  0.3192  0.8536
 7924SOL     OW35230   1.124   0.525   5.261  0.4738 -0.3151  0.2074
 7924SOL    HW135231   1.086   0.454   5.314  3.0258 -1.0831  1.0052
 7924SOL    HW235232   1.139   0.595   5.324  4.2436  0.2082 -1.2526
 7925SOL     OW35233   4.345   2.547   2.386  0.6256 -0.8420  0.4898
 7925SOL    HW135234   4.390   2.487   2.446  1.5033 -0.1062  0.5740
 7925SOL    HW235235   4.268   2.557   2.441  0.3434 -2.9287  0.4923
 7926SOL     OW35236   0.149   0.150   7.358 -0.3031  0.5815  0.5005
 7926SOL    HW135237   0.187   0.085   7.298  0.4892 -0.2316  1.8759
 7926SOL    HW235238   0.064   0.164   7.319  0.2593 -1.5790 -1.5370
 7927SOL     OW35239   0.772   1.017   7.961 -0.1233  0.0071 -0.7520
 7927SOL    HW135240   0.817   0.986   8.040  1.8915 -0.2072 -1.9709
 7927SOL    HW235241   0.707   1.075   8.000  1.6921  2.1656 -0.9020
 7928SOL     OW35242   0.124   3.766  17.459 -0.1192  0.0449  0.0264
 7928SOL    HW135243   0.079   3.848  17.438  1.1964  1.1538  1.5517
 7928SOL    HW235244   0.189   3.769  17.389  0.8407 -0.3593  0.9064
 7929SOL     OW35245   1.612   2.860   7.456 -0.3803 -0.0286 -0.1594
 7929SOL    HW135246   1.699   2.874   7.418 -0.4932  1.0941 -0.0055
 7929SOL    HW235247   1.581   2.779   7.413 -2.2403  0.9033 -0.5776
 7930SOL     OW35248   2.282   4.017   6.953  0.0053  0.2445 -0.1519
 7930SOL    HW135249   2.351   3.987   7.012  0.4488 -1.2051 -1.4161
 7930SOL    HW235250   2.307   3.966   6.876 -1.9816 -0.8078 -0.0929
 7931SOL     OW35251   2.116   2.753   9.682  0.1193  0.3570 -0.1567
 7931SOL    HW135252   2.064   2.708   9.747  1.3787 -0.6472  0.1402
 7931SOL    HW235253   2.078   2.714   9.603  0.1886 -0.2456  0.1081
 7932SOL     OW35254   4.310   4.384   2.061  0.3902  0.1025 -0.2603
 7932SOL    HW135255   4.271   4.435   2.131  0.4883 -0.9074  0.5307
 7932SOL    HW235256   4.228   4.377   2.011  1.2826 -0.8436 -1.5795
 7933SOL     OW35257   4.654   0.041   5.386 -0.8604 -0.6365  0.4262
 7933SOL    HW135258   4.579   0.074   5.337 -1.0968 -0.4291  0.9282
 7933SOL    HW235259   4.723   0.105   5.366 -3.1369  0.8771 -2.6204
 7934SOL     OW35260   2.772   0.869   3.554 -0.3151  0.3372 -0.0327
 7934SOL    HW135261   2.743   0.887   3.465 -1.6062 -0.5312  0.2174
 7934SOL    HW235262   2.866   0.884   3.547 -0.5979  1.7328 -0.6671
 7935SOL     OW35263   2.611   2.042   0.050 -0.6870 -0.9361 -0.0732
 7935SOL    HW135264   2.602   2.089   0.132  1.1417 -2.4888  1.0209
 7935SOL    HW235265   2.687   1.984   0.059 -0.4885 -0.6983 -0.2155
 7936SOL     OW35266   1.111   4.265   7.393  0.7039  0.3598  0.5234
 7936SOL    HW135267   1.049   4.337   7.401  1.3204  0.9489  0.0225
 7936SOL    HW235268   1.084   4.230   7.308  0.5751  0.3008  0.5880
 7937SOL     OW35269   0.186   1.423   5.445 -0.5771  0.3330  0.0280
 7937SOL    HW135270   0.187   1.424   5.541  0.2506 -0.9140  0.0287
 7937SOL    HW235271   0.142   1.341   5.423 -0.8375  0.9673 -1.7778
 7938SOL     OW35272   3.492   1.262   4.234 -0.2778 -0.4247 -0.2178
 7938SOL    HW135273   3.513   1.354   4.217  0.8204 -0.2254  2.3104
 7938SOL    HW235274   3.411   1.278   4.283  0.6884  0.0497  1.2106
 7939SOL     OW35275   2.140   3.229   3.004 -0.6219 -0.3134 -0.6835
 7939SOL    HW135276   2.206   3.170   3.040  1.2720  2.4872  0.3511
 7939SOL    HW235277   2.146   3.298   3.069 -3.5305  1.1900 -1.9884
 7940SOL     OW35278   1.598   1.785   2.698 -0.3540 -0.5603  0.1598
 7940SOL    HW135279   1.683   1.823   2.673 -1.0210  0.4523 -0.5852
 7940SOL    HW235280   1.594   1.712   2.636  0.0601 -0.3445 -0.1253
 7941SOL     OW35281   1.054   3.267   8.998 -0.4952  0.4852  0.1381
 7941SOL    HW135282   1.044   3.228   9.085  2.3352 -1.7501 -0.5554
 7941SOL    HW235283   1.046   3.189   8.944 -1.1353  0.6148  0.0349
 7942SOL     OW35284   3.716   4.472   4.610  0.5122 -0.2548 -0.6424
 7942SOL    HW135285   3.686   4.453   4.699 -0.3515  0.7254 -0.7119
 7942SOL    HW235286   3.644   4.447   4.551  2.3750 -0.5989 -2.7601
 7943SOL     OW35287   1.123   0.836   5.746  0.0284  0.4507 -0.5245
 7943SOL    HW135288   1.030   0.849   5.759 -0.1594 -0.2682 -1.1144
 7943SOL    HW235289   1.152   0.824   5.836 -0.3561  0.0620 -0.4536
 7944SOL     OW35290   0.188   3.151   8.108  0.3986  0.6371 -0.8594
 7944SOL    HW135291   0.250   3.185   8.173  0.0095  1.0577 -0.7073
 7944SOL    HW235292   0.239   3.150   8.027  2.8338 -1.1962  0.6940
 7945SOL     OW35293   3.800   4.189  11.847  0.0635 -0.0145  0.1338
 7945SOL    HW135294   3.866   4.182  11.778 -0.1291 -0.7897  0.0308
 7945SOL    HW235295   3.799   4.096  11.871 -0.7119  0.0579  0.3953
 7946SOL     OW35296   1.496   0.400   3.453  0.7838  0.2154  0.0094
 7946SOL    HW135297   1.450   0.333   3.401  0.7906  0.8348 -0.8065
 7946SOL    HW235298   1.525   0.455   3.380  0.8770  0.3883  0.1770
 7947SOL     OW35299   2.264   3.104   5.481  0.8683 -0.3376 -0.1448
 7947SOL    HW135300   2.310   3.162   5.541  1.5907  0.1693 -1.1786
 7947SOL    HW235301   2.239   3.161   5.408  0.7169  2.8601  2.4260
 7948SOL     OW35302   4.637   1.906   3.874  0.0517 -0.6192  0.2970
 7948SOL    HW135303   4.638   1.874   3.965  0.0747  0.3214  0.6255
 7948SOL    HW235304   4.612   1.997   3.892 -2.1218 -1.2010  0.1959
 7949SOL     OW35305   2.415   2.348   2.554  0.0298  0.3526 -0.2008
 7949SOL    HW135306   2.458   2.283   2.609  1.3109  1.1428 -0.2749
 7949SOL    HW235307   2.429   2.326   2.462  1.0183 -0.5813  0.1736
 7950SOL     OW35308   0.819   0.550   5.517 -0.0030 -0.4279 -0.3696
 7950SOL    HW135309   0.863   0.635   5.520  1.9036 -1.4612  0.3038
 7950SOL    HW235310   0.747   0.569   5.577  0.2125 -2.1518  0.4281
 7951SOL     OW35311   1.976   0.719   4.632 -0.2784  0.2102  0.2896
 7951SOL    HW135312   2.029   0.761   4.564  2.1310 -0.7219  1.5924
 7951SOL    HW235313   1.991   0.631   4.599 -1.0613 -0.1871  0.9908
 7952SOL     OW35314   0.930   4.549   0.939  0.3223 -0.7456 -0.2875
 7952SOL    HW135315   0.872   4.514   0.871 -1.8210  0.1139  1.0788
 7952SOL    HW235316   1.008   4.508   0.902  1.0834  1.5568 -1.2258
 7953SOL     OW35317   0.419   2.293   4.081 -0.2968  0.1711 -0.2435
 7953SOL    HW135318   0.452   2.345   4.008 -0.1462 -1.7479 -1.5561
 7953SOL    HW235319   0.349   2.241   4.042  0.7075 -1.4749  0.1527
 7954SOL     OW35320   4.679   2.613   0.442  0.0026  0.2824  0.0732
 7954SOL    HW135321   0.022   2.562   0.395 -0.7167 -0.4541 -0.1471
 7954SOL    HW235322   4.625   2.545   0.482  0.9916 -0.4745  0.1333
 7955SOL     OW35323   4.657   1.139   6.183  0.3415  0.1642  0.4413
 7955SOL    HW135324   4.660   1.220   6.131  1.5876 -1.2024 -1.6029
 7955SOL    HW235325   4.664   1.183   6.268  0.9704  0.4516  0.2408
 7956SOL     OW35326   4.205   0.980   9.865 -0.3614  0.0442 -0.0399
 7956SOL    HW135327   4.201   0.940   9.952  0.0867 -0.1036 -0.0882
 7956SOL    HW235328   4.237   1.069   9.881 -0.0386 -0.3585  1.5673
 7957SOL     OW35329   0.517   4.535   1.822  0.1848  0.2486 -0.1244
 7957SOL    HW135330   0.604   4.562   1.851  0.9011  0.4598 -2.5055
 7957SOL    HW235331   0.493   4.480   1.897  0.8829  0.9395  0.5972
 7958SOL     OW35332   2.854   2.250   8.389  0.1488  0.5123 -0.1620
 7958SOL    HW135333   2.844   2.199   8.469  1.0700  1.3917  0.5127
 7958SOL    HW235334   2.797   2.324   8.411 -0.2633 -0.0550  0.6610
 7959SOL     OW35335   1.148   2.703   9.791 -0.1172 -0.0192  0.1997
 7959SOL    HW135336   1.069   2.656   9.817 -0.2448  0.9229  1.4765
 7959SOL    HW235337   1.159   2.673   9.701 -0.2692 -1.0721  0.5313
 7960SOL     OW35338   1.795   3.196   3.623 -0.2007 -0.6941 -0.1338
 7960SOL    HW135339   1.888   3.197   3.600 -0.1394 -0.2275  0.1256
 7960SOL    HW235340   1.784   3.137   3.697 -0.9996  0.6350  0.8201
 7961SOL     OW35341   1.739   3.880  16.713  0.7843 -0.2446  0.0631
 7961SOL    HW135342   1.725   3.823  16.789  1.5283  1.9098  1.7934
 7961SOL    HW235343   1.816   3.831  16.683  0.0712 -1.9151  0.9131
 7962SOL     OW35344   4.176   4.424   4.692 -0.0860 -0.3385 -0.0470
 7962SOL    HW135345   4.271   4.436   4.682 -0.1699  0.5617  0.2738
 7962SOL    HW235346   4.172   4.397   4.784 -1.6143 -0.1378 -0.0653
 7963SOL     OW35347   0.869   3.466   9.085 -0.3663 -0.6873  0.1574
 7963SOL    HW135348   0.918   3.384   9.088  2.1729  0.8072 -0.4334
 7963SOL    HW235349   0.939   3.530   9.097 -2.4978  1.6254  0.4338
 7964SOL     OW35350   2.849   2.393   3.300 -0.1329  0.7417 -0.3138
 7964SOL    HW135351   2.813   2.478   3.328 -0.9312 -0.0162  0.9880
 7964SOL    HW235352   2.845   2.354   3.388 -1.6399 -0.5362 -0.9464
 7965SOL     OW35353   0.537   1.884  12.899  0.7245  0.3654 -0.0867
 7965SOL    HW135354   0.457   1.843  12.866 -0.0429  2.0608 -0.3645
 7965SOL    HW235355   0.516   1.876  12.993  0.5592  1.3997 -0.0355
 7966SOL     OW35356   3.057   4.635   9.525 -0.1877  0.1843  0.1237
 7966SOL    HW135357   3.067   4.599   9.613  1.7115  0.8438  0.1699
 7966SOL    HW235358   3.137   4.688   9.526 -0.0821  0.0192  0.3534
 7967SOL     OW35359   2.127   0.902   2.246 -0.5969 -0.2350 -0.1707
 7967SOL    HW135360   2.180   0.966   2.199 -0.6929  0.5363  0.7856
 7967SOL    HW235361   2.091   0.857   2.169 -1.1574 -0.1060  0.0117
 7968SOL     OW35362   3.146   0.518   6.048  0.0744  0.5471 -0.4006
 7968SOL    HW135363   3.215   0.573   6.012 -0.5838  1.0643 -0.8706
 7968SOL    HW235364   3.072   0.576   6.063 -0.2647  0.5303 -2.0050
 7969SOL     OW35365   0.980   3.920  15.338  0.5091  0.2681 -0.0584
 7969SOL    HW135366   1.012   4.005  15.309  1.4614  0.5262  1.7600
 7969SOL    HW235367   0.950   3.896  15.250 -1.7605  0.8907  0.5576
 7970SOL     OW35368   2.963   2.294  12.101 -0.3347 -0.5627  0.3233
 7970SOL    HW135369   3.012   2.268  12.179 -1.3349 -3.4108  0.0001
 7970SOL    HW235370   2.880   2.251  12.119  0.2761 -1.5923  0.7091
 7971SOL     OW35371   4.565   2.829   4.808  0.2573  0.3030  0.0495
 7971SOL    HW135372   4.513   2.865   4.880 -1.2449  1.2137 -1.5052
 7971SOL    HW235373   4.652   2.849   4.843 -0.0829  3.4073 -0.9413
 7972SOL     OW35374   2.735   2.319   3.032  0.2806  0.3602  0.6461
 7972SOL    HW135375   2.760   2.328   3.124  1.1408  2.6032  0.2045
 7972SOL    HW235376   2.810   2.344   2.977 -0.7487 -0.9317 -1.3587
 7973SOL     OW35377   2.590   4.506   3.938  0.1636 -0.5439 -0.3679
 7973SOL    HW135378   2.587   4.531   4.030 -0.5667 -1.2606 -0.1932
 7973SOL    HW235379   2.531   4.430   3.929 -0.4796 -0.3491  2.1868
 7974SOL     OW35380   3.394   2.828  15.059 -0.1981 -0.1732  0.6455
 7974SOL    HW135381   3.357   2.866  14.979  0.1503  2.2529  1.6366
 7974SOL    HW235382   3.484   2.860  15.051 -1.8244  4.0267 -1.0701
 7975SOL     OW35383   4.467   2.572   6.109 -0.1828  0.5970  0.2282
 7975SOL    HW135384   4.421   2.523   6.041 -0.2980 -1.5782  1.8489
 7975SOL    HW235385   4.441   2.661   6.084  1.7944  1.1211  0.0121
 7976SOL     OW35386   2.575   3.460  12.451  0.3189 -0.1809  0.9464
 7976SOL    HW135387   2.480   3.448  12.458  0.1029  1.0333  0.0066
 7976SOL    HW235388   2.589   3.554  12.466  0.7706 -0.1988  0.6301
 7977SOL     OW35389   2.457   4.380   5.966  0.4108 -0.1847  0.5420
 7977SOL    HW135390   2.508   4.301   5.952 -0.6803 -0.4292 -2.1165
 7977SOL    HW235391   2.447   4.417   5.878  0.3331 -0.3764  0.4723
 7978SOL     OW35392   3.998   0.392   9.114 -0.3520  0.2907 -0.0516
 7978SOL    HW135393   3.974   0.306   9.149 -0.8371  0.4167 -0.0735
 7978SOL    HW235394   3.918   0.414   9.066 -0.3067  2.2938  0.8041
 7979SOL     OW35395   4.277   3.301  14.790 -0.2002  0.2430  0.0031
 7979SOL    HW135396   4.282   3.284  14.696  1.1049  1.6986 -0.1862
 7979SOL    HW235397   4.341   3.243  14.831  1.6748  2.2007 -0.1423
 7980SOL     OW35398   3.113   1.059   2.114  0.2150  0.2881  0.7182
 7980SOL    HW135399   3.084   1.148   2.092  1.7456  0.1223 -1.9983
 7980SOL    HW235400   3.209   1.070   2.111  0.2840 -0.3307  0.5411
 7981SOL     OW35401   0.362   3.110   4.558  0.0611  0.2242  0.2153
 7981SOL    HW135402   0.375   3.173   4.486  1.3762  0.7767  0.9369
 7981SOL    HW235403   0.376   3.163   4.637  0.2657 -0.9641  0.9687
 7982SOL     OW35404   3.823   2.304   7.537  0.2399 -0.0819  0.3046
 7982SOL    HW135405   3.828   2.374   7.472  3.1706 -1.7339 -1.2132
 7982SOL    HW235406   3.768   2.346   7.603  0.5149  1.8544 -0.7012
 7983SOL     OW35407   3.460   0.142   4.775  0.3200  0.2001 -0.4294
 7983SOL    HW135408   3.447   0.048   4.775  0.4422  0.1551  2.5597
 7983SOL    HW235409   3.404   0.164   4.850  0.1800  0.3188 -0.5703
 7984SOL     OW35410   1.323   1.371  13.461 -0.1264  0.7880  0.1533
 7984SOL    HW135411   1.255   1.304  13.449  0.1707  0.7372 -1.2981
 7984SOL    HW235412   1.395   1.324  13.502  0.4848  0.1615 -1.6159
 7985SOL     OW35413   1.302   4.416   1.707  0.0887 -0.3872 -0.3547
 7985SOL    HW135414   1.208   4.418   1.691  0.3318 -0.2596 -1.7635
 7985SOL    HW235415   1.318   4.374   1.791 -0.8638  1.9418  1.0098
 7986SOL     OW35416   2.814   4.411   3.852  0.2518 -0.1248 -0.4704
 7986SOL    HW135417   2.736   4.441   3.898  1.2229  2.0608 -0.2671
 7986SOL    HW235418   2.792   4.423   3.760 -2.0470 -0.9741 -0.0454
 7987SOL     OW35419   3.975   2.313   7.060 -0.4454  0.1856  0.4727
 7987SOL    HW135420   3.901   2.304   7.000 -0.3029 -1.6043  0.5840
 7987SOL    HW235421   3.952   2.260   7.136 -0.0844  0.5343  0.8188
 7988SOL     OW35422   0.727   4.348  15.609  0.4731 -0.6742  0.2068
 7988SOL    HW135423   0.742   4.272  15.552  1.2021 -2.2610  2.5221
 7988SOL    HW235424   0.631   4.348  15.612  0.4858 -2.5470  0.7775
 7989SOL     OW35425   2.767   1.286   4.306  0.4055 -0.1331  0.3627
 7989SOL    HW135426   2.862   1.295   4.308 -0.0317  4.5426 -0.4362
 7989SOL    HW235427   2.753   1.261   4.397  1.4136 -1.9178  0.0405
 7990SOL     OW35428   0.989   1.878   3.036  0.2892  0.3992  0.4249
 7990SOL    HW135429   0.951   1.955   2.994  0.1890 -0.9658 -1.9571
 7990SOL    HW235430   1.084   1.892   3.026 -0.2192  1.3198 -3.0652
 7991SOL     OW35431   2.939   3.810   7.500  0.0572 -0.0121 -0.0624
 7991SOL    HW135432   2.873   3.741   7.499  0.5831 -0.4890 -2.9049
 7991SOL    HW235433   3.020   3.766   7.526  1.8127  2.4334 -1.4155
 7992SOL     OW35434   2.013   1.964   5.667  0.3157 -0.2664 -0.5160
 7992SOL    HW135435   1.945   1.950   5.601 -0.0024  0.8872 -0.4423
 7992SOL    HW235436   2.074   1.891   5.655 -1.6284 -2.1838  1.2277
 7993SOL     OW35437   4.610   0.130   6.235 -0.4286  0.4826  0.2453
 7993SOL    HW135438   4.665   0.055   6.213 -1.4967  0.2886 -1.6619
 7993SOL    HW235439   4.630   0.186   6.160  2.2256  1.6372  1.7831
 7994SOL     OW35440   0.478   3.376   6.182 -0.0686  0.3587  0.0313
 7994SOL    HW135441   0.453   3.437   6.112  0.1854  2.0322  1.3912
 7994SOL    HW235442   0.479   3.292   6.136  0.9428 -0.2659  1.1941
 7995SOL     OW35443   0.548   2.028   2.312  0.0374  0.2043  0.4264
 7995SOL    HW135444   0.563   2.088   2.239  1.4393  0.8408  1.2331
 7995SOL    HW235445   0.497   1.956   2.276  0.1688  0.9516 -1.3074
 7996SOL     OW35446   2.684   0.345  12.422  0.5481  0.6092 -0.0455
 7996SOL    HW135447   2.715   0.292  12.350 -0.7231 -1.9272  1.2771
 7996SOL    HW235448   2.717   0.431  12.394 -1.0281  0.8506 -1.1792
 7997SOL     OW35449   4.208   2.614   8.269  0.2200  0.0653 -0.2492
 7997SOL    HW135450   4.301   2.616   8.250  0.3044 -0.8127  0.0681
 7997SOL    HW235451   4.180   2.692   8.221  0.1810  1.8622  2.7160
 7998SOL     OW35452   1.571   3.483   2.744 -0.5140  0.0313 -0.7728
 7998SOL    HW135453   1.619   3.400   2.747  1.2190  1.1775  2.6815
 7998SOL    HW235454   1.549   3.483   2.837  0.5024  0.8842 -0.5220
 7999SOL     OW35455   4.326   1.123   7.770 -0.6741 -0.2527  0.4690
 7999SOL    HW135456   4.389   1.087   7.708  0.2737  0.0251  1.2683
 7999SOL    HW235457   4.319   1.216   7.747  1.5532  0.5422  2.9330
 8000SOL     OW35458   2.961   3.218   5.000  0.7842  0.4782  0.2499
 8000SOL    HW135459   2.866   3.204   5.006  0.5968  1.9197  0.4542
 8000SOL    HW235460   2.975   3.154   5.070  2.0820  0.3757 -0.1170
 8001SOL     OW35461   2.654   0.165   7.616  0.1378  0.0347 -0.7406
 8001SOL    HW135462   2.612   0.106   7.555  0.2303  0.7388 -1.4876
 8001SOL    HW235463   2.630   0.125   7.699 -1.1026 -0.2507 -1.2436
 8002SOL     OW35464   1.227   3.219   7.487  0.1426 -0.7476  0.3883
 8002SOL    HW135465   1.313   3.177   7.480  0.1888 -0.7317  0.8692
 8002SOL    HW235466   1.181   3.194   7.407 -2.5914  2.2774  1.0085
 8003SOL     OW35467   1.069   2.432  15.081 -0.1325  0.1748  0.1551
 8003SOL    HW135468   0.984   2.411  15.043  0.1731  0.9894 -0.9641
 8003SOL    HW235469   1.100   2.500  15.022  0.9954 -0.5410 -0.0744
 8004SOL     OW35470   0.338   0.401   4.346 -0.2082 -0.1816  0.0254
 8004SOL    HW135471   0.404   0.471   4.351 -0.6465  0.2031  0.4227
 8004SOL    HW235472   0.361   0.358   4.429  2.1707  0.3847 -0.3342
 8005SOL     OW35473   0.154   4.632  16.049 -0.7789  0.1721  0.3320
 8005SOL    HW135474   0.138   4.714  16.097 -0.1087  0.5707 -0.1276
 8005SOL    HW235475   0.061   4.623  16.028  0.0262 -0.6582 -2.9093
 8006SOL     OW35476   1.067   0.890   0.950  0.7725  0.2640  0.0986
 8006SOL    HW135477   1.111   0.967   0.987 -0.1898  0.8484  0.0275
 8006SOL    HW235478   1.031   0.863   1.034 -0.3156 -1.2778 -0.8709
 8007SOL     OW35479   2.243   1.063   5.383 -0.0625 -0.3407  0.7266
 8007SOL    HW135480   2.151   1.064   5.358 -0.0210 -0.2449  0.5752
 8007SOL    HW235481   2.282   1.006   5.317 -1.0503 -0.1128 -0.0435
 8008SOL     OW35482   0.912   2.320   9.990  0.0873 -0.1234  0.2408
 8008SOL    HW135483   0.881   2.272  10.066 -0.3384 -2.6720 -1.5230
 8008SOL    HW235484   0.912   2.257   9.918  1.0026  1.5402 -1.2459
 8009SOL     OW35485   3.035   3.847   0.523 -0.0158  0.2752 -0.0666
 8009SOL    HW135486   3.000   3.820   0.439  2.0691 -0.7307 -0.6297
 8009SOL    HW235487   2.965   3.815   0.580  0.5762 -1.1629 -0.1461
 8010SOL     OW35488   0.252   4.516   7.728 -0.2388 -0.6267 -0.1143
 8010SOL    HW135489   0.282   4.603   7.703 -1.4581 -0.6896 -1.8282
 8010SOL    HW235490   0.303   4.494   7.806  0.1186 -0.4079 -0.2886
 8011SOL     OW35491   1.835   2.820   3.877  0.4454  0.2730  0.2673
 8011SOL    HW135492   1.751   2.781   3.899  0.6690  0.1422  0.8899
 8011SOL    HW235493   1.815   2.863   3.794  0.6922 -0.3538 -0.1161
 8012SOL     OW35494   3.905   3.460   6.604 -0.2744  0.3834  0.2389
 8012SOL    HW135495   3.864   3.482   6.520  1.4559  0.6660 -0.5405
 8012SOL    HW235496   3.828   3.430   6.652 -0.5171 -2.9016 -2.2171
 8013SOL     OW35497   1.882   1.543   5.217  0.4580 -0.7150 -0.0801
 8013SOL    HW135498   1.884   1.499   5.302 -1.9780 -1.7087 -0.5221
 8013SOL    HW235499   1.853   1.465   5.169  3.6603 -1.2593 -1.1365
 8014SOL     OW35500   2.520   1.906  12.594  0.0059 -0.7168  0.1492
 8014SOL    HW135501   2.591   1.849  12.565  1.4660  0.7005  0.9348
 8014SOL    HW235502   2.454   1.838  12.579 -1.1710  0.8081 -1.5628
 8015SOL     OW35503   3.822   0.760   5.312 -0.3179  0.1554 -0.0582
 8015SOL    HW135504   3.797   0.671   5.288 -1.7093  0.2736  0.9227
 8015SOL    HW235505   3.749   0.806   5.270 -0.5287  0.5878  0.7747
 8016SOL     OW35506   4.419   2.985   6.915  0.2970  0.4170 -0.7272
 8016SOL    HW135507   4.328   2.975   6.944  0.2407 -0.2309 -1.1223
 8016SOL    HW235508   4.417   2.919   6.845 -1.2731  0.4835 -0.7340
 8017SOL     OW35509   4.439   3.838   8.639 -0.5614 -0.2418  0.1221
 8017SOL    HW135510   4.487   3.821   8.720  0.7933 -1.4047 -0.9132
 8017SOL    HW235511   4.369   3.890   8.679 -0.1390  0.1220  0.3892
 8018SOL     OW35512   4.509   1.821   6.475  0.0977  0.5187  0.1819
 8018SOL    HW135513   4.441   1.754   6.480  0.0436  0.5388 -0.3026
 8018SOL    HW235514   4.583   1.761   6.490 -0.8510 -0.4871  0.8598
 8019SOL     OW35515   2.866   3.542   5.497 -0.1811 -0.6048  0.5599
 8019SOL    HW135516   2.945   3.555   5.549  0.4849  0.8765 -0.8333
 8019SOL    HW235517   2.844   3.630   5.468 -1.1745 -1.3383 -0.9091
 8020SOL     OW35518   2.199   1.003  14.439  0.0301 -0.0034 -0.1541
 8020SOL    HW135519   2.239   1.068  14.498 -0.4904 -1.7548  2.1240
 8020SOL    HW235520   2.105   1.021  14.439 -0.4238 -2.3912  0.8504
 8021SOL     OW35521   3.201   3.731   7.686 -0.4583  0.2307  0.1953
 8021SOL    HW135522   3.222   3.766   7.773 -1.0708 -0.1568  0.4971
 8021SOL    HW235523   3.236   3.801   7.631  0.0997 -0.9400 -0.9355
 8022SOL     OW35524   4.719   4.644   8.144 -0.2144 -0.1340 -0.6205
 8022SOL    HW135525   0.068   4.621   8.203 -0.8118 -0.9782 -0.2266
 8022SOL    HW235526   0.037   4.704   8.082  1.8742 -2.0601 -1.0854
 8023SOL     OW35527   1.286   0.539   9.765 -0.1617 -0.1858 -0.3919
 8023SOL    HW135528   1.298   0.576   9.678  0.9171 -0.2663 -0.2820
 8023SOL    HW235529   1.211   0.479   9.764 -0.3769  0.0287  1.6245
 8024SOL     OW35530   1.590   4.354  16.292 -0.0039  0.0874 -0.3640
 8024SOL    HW135531   1.615   4.346  16.384 -0.8169 -0.8972 -0.2271
 8024SOL    HW235532   1.505   4.311  16.280 -0.0355  0.6111 -1.9597
 8025SOL     OW35533   2.096   4.562  15.416  0.0325  0.0573  0.2814
 8025SOL    HW135534   2.138   4.477  15.425  0.9933  0.5364  0.3207
 8025SOL    HW235535   2.146   4.594  15.341  0.5445 -0.0048  0.5923
 8026SOL     OW35536   0.914   3.845   7.892  0.2349 -0.9186 -0.4056
 8026SOL    HW135537   0.918   3.791   7.971  0.2156  1.0956  0.9630
 8026SOL    HW235538   1.007   3.848   7.869 -0.2671  1.6720 -2.1011
 8027SOL     OW35539   0.899   0.482   2.521  0.3550 -0.3618  0.5291
 8027SOL    HW135540   0.975   0.495   2.578 -1.2038  0.5639  2.4251
 8027SOL    HW235541   0.937   0.524   2.444 -0.0603 -1.5759 -0.3340
 8028SOL     OW35542   0.785   4.128   8.083 -0.1883  0.8634  0.0557
 8028SOL    HW135543   0.853   4.149   8.019  0.7849  3.4011  1.9244
 8028SOL    HW235544   0.718   4.098   8.023 -1.8233  1.4252  1.5866
 8029SOL     OW35545   4.633   4.634   7.024 -0.3211 -0.4708 -0.1654
 8029SOL    HW135546   4.542   4.628   6.995 -0.2194  1.6707 -0.9139
 8029SOL    HW235547   4.669   4.704   6.969  2.6014 -0.9197  1.1465
 8030SOL     OW35548   4.592   2.398   0.577  0.4384 -0.1944 -0.2695
 8030SOL    HW135549   4.606   2.340   0.503 -1.1375 -0.1363 -0.6146
 8030SOL    HW235550   4.654   2.357   0.636 -1.1309  0.3255  1.7496
 8031SOL     OW35551   1.399   3.582  14.690 -0.2870  0.1730 -0.3808
 8031SOL    HW135552   1.459   3.633  14.636 -2.6501  0.7287 -2.4579
 8031SOL    HW235553   1.460   3.570  14.763  1.7929  1.3537 -1.9090
 8032SOL     OW35554   0.369   0.426   5.296 -0.8864  0.4362  0.9034
 8032SOL    HW135555   0.390   0.390   5.210 -0.7104  0.7183  0.8312
 8032SOL    HW235556   0.274   0.417   5.292 -0.8371 -0.4489  1.7014
 8033SOL     OW35557   3.228   1.670   2.540 -0.2816  0.2220 -0.0422
 8033SOL    HW135558   3.229   1.756   2.497 -2.0475 -0.0017 -0.5305
 8033SOL    HW235559   3.136   1.645   2.536 -1.0454  3.1744 -0.9622
 8034SOL     OW35560   3.565   1.636  10.241 -0.3018 -0.8572 -0.6824
 8034SOL    HW135561   3.606   1.553  10.263  0.8536 -0.4515 -1.2999
 8034SOL    HW235562   3.513   1.649  10.320  2.8440  1.8030  0.9168
 8035SOL     OW35563   4.390   0.205   9.752  0.6387 -0.5128  0.1234
 8035SOL    HW135564   4.363   0.290   9.788 -1.6789 -1.1428 -0.1119
 8035SOL    HW235565   4.373   0.227   9.660 -2.0165  0.6090  0.8628
 8036SOL     OW35566   4.551   2.345  13.619 -0.2296  0.1195  0.1345
 8036SOL    HW135567   4.577   2.435  13.600  1.8635 -0.7989 -1.2908
 8036SOL    HW235568   4.456   2.349  13.611 -0.0984  0.2811 -1.2912
 8037SOL     OW35569   1.124   1.928  13.604  0.1418  0.0403  0.1575
 8037SOL    HW135570   1.128   1.956  13.695  1.9787 -0.0593  0.1101
 8037SOL    HW235571   1.077   1.847  13.622 -2.0524  1.1745 -0.4774
 8038SOL     OW35572   1.509   3.230   3.222  0.0384  0.2523 -0.1414
 8038SOL    HW135573   1.565   3.257   3.295  0.0715  1.1387 -0.4976
 8038SOL    HW235574   1.505   3.135   3.231  0.4630  0.1892 -0.5644
 8039SOL     OW35575   1.902   0.063   1.681  0.6446 -0.4469  0.1648
 8039SOL    HW135576   1.850   4.706   1.680 -0.1507  0.0878 -1.4461
 8039SOL    HW235577   1.920   0.070   1.587  0.9149  0.1635  0.2615
 8040SOL     OW35578   4.592   0.467   7.329  0.4137  0.1426  0.1438
 8040SOL    HW135579   4.554   0.381   7.309 -0.4392  0.8558 -1.2947
 8040SOL    HW235580   4.680   0.450   7.362 -0.1277 -0.6586  1.1532
 8041SOL     OW35581   1.536   0.723   6.675  0.1324  0.0258  0.3503
 8041SOL    HW135582   1.608   0.683   6.724  2.1590  0.0557 -2.5674
 8041SOL    HW235583   1.551   0.818   6.674 -0.5056  0.1085 -0.7884
 8042SOL     OW35584   2.525   4.579   9.707 -0.3590  0.5227 -0.3147
 8042SOL    HW135585   2.615   4.577   9.739 -0.0394  2.9674 -1.0300
 8042SOL    HW235586   2.471   4.561   9.784  0.4770  0.2704  0.2031
 8043SOL     OW35587   2.271   4.208   0.906  0.2146 -0.2882 -0.1735
 8043SOL    HW135588   2.282   4.124   0.862  1.3605 -0.4398  0.4108
 8043SOL    HW235589   2.230   4.185   0.990 -0.7477  0.4429 -0.4414
 8044SOL     OW35590   0.839   4.328   7.675  0.2903 -0.0487  0.3186
 8044SOL    HW135591   0.746   4.336   7.695  0.0655 -1.8996 -0.0061
 8044SOL    HW235592   0.840   4.354   7.583 -1.2120 -0.8877  0.0633
 8045SOL     OW35593   3.874   1.990   8.140  0.2656  0.1917  0.1788
 8045SOL    HW135594   3.856   2.084   8.134 -0.1779  0.0425 -0.8217
 8045SOL    HW235595   3.968   1.992   8.124  0.4452 -0.8311  1.0784
 8046SOL     OW35596   1.710   1.257   4.450 -0.3778  0.4377 -0.7253
 8046SOL    HW135597   1.766   1.326   4.416 -0.3194  0.2138 -1.0865
 8046SOL    HW235598   1.626   1.301   4.450 -0.9458 -0.6180  2.1804
 8047SOL     OW35599   4.362   0.765  16.900 -0.3832 -0.0289  0.4532
 8047SOL    HW135600   4.372   0.847  16.947  1.0223 -0.2562  0.5598
 8047SOL    HW235601   4.358   0.707  16.976 -1.0417  0.1814  0.5761
 8048SOL     OW35602   1.403   3.277  10.067  0.7185  0.1959 -0.0525
 8048SOL    HW135603   1.481   3.234  10.031 -0.5462 -1.6798 -0.5527
 8048SOL    HW235604   1.349   3.200  10.087  2.5166 -1.0891 -0.0714
 8049SOL     OW35605   0.576   1.524   4.163  0.0735  0.4308  0.0622
 8049SOL    HW135606   0.610   1.457   4.221 -1.4004  0.7310  1.2626
 8049SOL    HW235607   0.661   1.562   4.140 -0.6832  1.4065 -1.1516
 8050SOL     OW35608   1.004   2.300   6.142 -1.2014  0.1446 -0.3369
 8050SOL    HW135609   0.926   2.348   6.113  0.0322 -0.2894 -4.3235
 8050SOL    HW235610   0.970   2.235   6.203 -0.3933 -1.3155 -1.4652
 8051SOL     OW35611   1.753   0.352  15.189 -0.4164 -0.5538  0.5213
 8051SOL    HW135612   1.730   0.297  15.115  0.4038  0.7164 -0.6773
 8051SOL    HW235613   1.826   0.308  15.232 -0.1108  0.5948  1.2105
 8052SOL     OW35614   0.457   0.298   3.511  0.0185 -0.9263  0.3772
 8052SOL    HW135615   0.445   0.329   3.601 -0.4771 -1.1679  0.3939
 8052SOL    HW235616   0.527   0.234   3.524  0.9640  0.1240  0.4557
 8053SOL     OW35617   0.924   0.218  13.051  1.0458 -0.1729 -0.2526
 8053SOL    HW135618   1.005   0.187  13.091  1.2380 -2.8603 -2.7012
 8053SOL    HW235619   0.860   0.155  13.084  0.6286  0.8949  0.9704
 8054SOL     OW35620   3.412   4.271   6.828  0.4304 -0.0886  0.5487
 8054SOL    HW135621   3.384   4.316   6.748  2.2109  0.3444  0.1681
 8054SOL    HW235622   3.417   4.349   6.885 -2.8067 -0.0242  0.6921
 8055SOL     OW35623   4.143   2.653   6.348  0.8043  0.2112  0.0755
 8055SOL    HW135624   4.077   2.605   6.399  2.5580 -2.0180  0.2147
 8055SOL    HW235625   4.204   2.584   6.327  1.0412  0.5231 -0.2551
 8056SOL     OW35626   0.625   0.004   6.654  0.5517 -0.0075 -0.1876
 8056SOL    HW135627   0.627   4.659   6.721 -0.8182  1.6927  1.5973
 8056SOL    HW235628   0.610   0.087   6.700 -2.1813 -1.7902  2.1933
 8057SOL     OW35629   3.781   3.367   4.639  0.4342  0.1252 -0.6574
 8057SOL    HW135630   3.866   3.362   4.682  0.2643 -1.1377 -0.4852
 8057SOL    HW235631   3.779   3.463   4.633 -0.2145  0.1497 -0.0153
 8058SOL     OW35632   0.775   4.482   4.811  0.3781 -0.4389  0.1104
 8058SOL    HW135633   0.799   4.531   4.890  1.1648 -2.7517  1.2805
 8058SOL    HW235634   0.734   4.557   4.767 -1.4141 -1.9721 -0.8356
 8059SOL     OW35635   2.795   3.442   8.412  0.5615  0.8663  0.6577
 8059SOL    HW135636   2.824   3.519   8.460 -1.9374  1.8502  0.6223
 8059SOL    HW235637   2.710   3.424   8.453  0.8269 -1.1850  0.3009
 8060SOL     OW35638   3.118   3.392   9.414 -0.5437  0.3042 -0.2321
 8060SOL    HW135639   3.133   3.456   9.345  1.3149 -1.0906 -1.1172
 8060SOL    HW235640   3.172   3.322   9.379 -0.0044  0.2591  0.6929
 8061SOL     OW35641   4.014   1.436   2.402 -0.0400 -0.3366 -0.0644
 8061SOL    HW135642   3.992   1.529   2.408 -1.1655 -0.5610 -0.7921
 8061SOL    HW235643   4.056   1.451   2.317 -1.5700 -3.4135 -1.3646
 8062SOL     OW35644   1.244   1.551   6.678  0.5312  0.7646  0.6115
 8062SOL    HW135645   1.157   1.552   6.718  0.1375 -0.4163 -0.2265
 8062SOL    HW235646   1.250   1.646   6.671 -2.1447  0.8143 -0.8338
 8063SOL     OW35647   3.608   2.477   8.845  0.6536  0.3636 -0.1937
 8063SOL    HW135648   3.692   2.481   8.891  0.3324 -0.6734  0.4788
 8063SOL    HW235649   3.625   2.527   8.765  0.3800  0.1819 -0.3630
 8064SOL     OW35650   4.301   0.923   6.939  0.3446 -0.2951  0.5690
 8064SOL    HW135651   4.330   0.918   6.848  0.8240 -0.2123  0.7134
 8064SOL    HW235652   4.317   1.018   6.940 -0.0002 -0.2354  0.4873
 8065SOL     OW35653   3.463   0.499   4.904 -0.2062  0.2750 -0.2311
 8065SOL    HW135654   3.495   0.535   4.821  0.0965  1.1410  0.2649
 8065SOL    HW235655   3.393   0.559   4.928 -1.0802 -0.2782 -1.3977
 8066SOL     OW35656   2.748   4.477   6.467  0.1100 -0.2996  0.0372
 8066SOL    HW135657   2.724   4.490   6.559  0.5301  0.5534  0.0289
 8066SOL    HW235658   2.760   4.382   6.465 -0.3250 -0.3588  0.1535
 8067SOL     OW35659   1.215   1.390   0.473 -0.2424  0.6515 -0.1687
 8067SOL    HW135660   1.296   1.359   0.512  1.1347  2.3510 -1.7031
 8067SOL    HW235661   1.244   1.439   0.397 -0.6686  0.0923 -0.6941
 8068SOL     OW35662   3.658   2.124  10.450 -0.0100 -0.7374 -0.5309
 8068SOL    HW135663   3.622   2.043  10.486 -0.1334 -1.6364 -2.6992
 8068SOL    HW235664   3.679   2.105  10.358  0.7939  0.8797 -0.6779
 8069SOL     OW35665   1.947   2.016  12.163  0.0325 -0.6176  0.0092
 8069SOL    HW135666   1.883   2.086  12.169  1.2820  0.3966  1.7947
 8069SOL    HW235667   1.953   2.020  12.068  0.5727  0.3554  0.0819
 8070SOL     OW35668   3.217   2.980  13.511  1.1413  0.0193 -0.8037
 8070SOL    HW135669   3.143   2.920  13.519  1.1312  0.1223 -0.1486
 8070SOL    HW235670   3.199   3.024  13.428  2.1081  0.3101 -0.8597
 8071SOL     OW35671   4.710   2.685  15.063  0.1388  0.1281 -0.6846
 8071SOL    HW135672   4.700   2.596  15.029 -0.6887 -0.1753  0.3323
 8071SOL    HW235673   4.713   2.683  15.158 -2.3138  0.6765 -0.5733
 8072SOL     OW35674   2.671   0.439   3.982 -0.2319 -0.7337 -0.4897
 8072SOL    HW135675   2.757   0.481   3.989 -0.3969 -0.3973 -0.4667
 8072SOL    HW235676   2.657   0.402   4.069  1.1670  0.5842  0.2912
 8073SOL     OW35677   0.393   4.237  15.092 -0.0848  0.1935  0.5576
 8073SOL    HW135678   0.450   4.231  15.169  0.8554  0.3454 -0.1180
 8073SOL    HW235679   0.339   4.309  15.124  0.9628  0.5458  1.5208
 8074SOL     OW35680   0.936   3.386   0.826 -0.1588  0.6509  0.1191
 8074SOL    HW135681   0.935   3.481   0.812 -0.9113  1.0901  3.1356
 8074SOL    HW235682   0.964   3.375   0.917 -1.0293 -0.3775  0.2709
 8075SOL     OW35683   1.064   3.110   7.906  0.1374 -0.4182  0.9841
 8075SOL    HW135684   1.108   3.194   7.899 -1.7246  0.5110  0.2892
 8075SOL    HW235685   1.122   3.055   7.853  1.6107  1.7725  0.3284
 8076SOL     OW35686   2.995   4.167   3.778  0.1476  0.1068 -0.5637
 8076SOL    HW135687   2.974   4.187   3.869 -0.9449 -1.8269 -0.3725
 8076SOL    HW235688   2.936   4.223   3.727  1.5434  0.4976 -1.7636
 8077SOL     OW35689   1.793   4.326  12.563  0.3541 -0.2143  0.0229
 8077SOL    HW135690   1.822   4.413  12.591 -3.8349  1.2080 -0.0670
 8077SOL    HW235691   1.705   4.326  12.600  1.7150  1.0131  3.3683
 8078SOL     OW35692   3.689   1.980   0.968  0.5208 -0.1257 -0.0556
 8078SOL    HW135693   3.626   1.921   0.926  0.2003  1.2222 -1.4757
 8078SOL    HW235694   3.683   1.962   1.062 -0.1867 -0.8582 -0.2399
 8079SOL     OW35695   3.253   0.543   8.086  0.2040  0.0298  0.2873
 8079SOL    HW135696   3.293   0.598   8.153  0.3273  1.9893 -1.3915
 8079SOL    HW235697   3.209   0.604   8.026 -1.2955  0.2456  1.6357
 8080SOL     OW35698   3.431   3.817   9.685  0.5309  0.1901  0.1417
 8080SOL    HW135699   3.464   3.905   9.667 -3.3310  1.0696 -2.8855
 8080SOL    HW235700   3.341   3.833   9.715  2.2883  3.4713  3.6432
 8081SOL     OW35701   1.571   0.420   8.495  0.1317 -0.0241 -0.2292
 8081SOL    HW135702   1.492   0.462   8.529  0.1732 -0.9429  0.9902
 8081SOL    HW235703   1.552   0.327   8.501  0.7298 -0.1892 -0.9197
 8082SOL     OW35704   3.439   2.109   4.947 -0.1770 -0.3032  0.0425
 8082SOL    HW135705   3.377   2.180   4.931  2.7033  1.4078 -3.4467
 8082SOL    HW235706   3.462   2.079   4.859 -0.4932  2.1164 -0.8575
 8083SOL     OW35707   1.406   3.270   4.556  0.2222  0.2119  0.0737
 8083SOL    HW135708   1.494   3.259   4.593  0.7515  0.3064 -1.1618
 8083SOL    HW235709   1.421   3.235   4.469  2.2719 -0.5828  0.7270
 8084SOL     OW35710   2.381   3.500   5.171  0.1021  0.2852  0.2572
 8084SOL    HW135711   2.361   3.407   5.175 -0.0583  0.2493 -1.2978
 8084SOL    HW235712   2.334   3.529   5.249 -1.6289  1.4563 -1.2082
 8085SOL     OW35713   0.218   2.763   8.804  0.0495  0.7253  0.5155
 8085SOL    HW135714   0.164   2.833   8.840  0.3820 -0.1351  2.6806
 8085SOL    HW235715   0.300   2.806   8.779 -0.8017  2.0474  0.0154
 8086SOL     OW35716   0.276   4.640   7.266 -0.3162 -0.0550  0.3469
 8086SOL    HW135717   0.200   4.583   7.256 -0.6733  0.3566  0.7648
 8086SOL    HW235718   0.332   4.609   7.337  1.4975  1.0452 -0.6051
 8087SOL     OW35719   0.145   2.184   6.716 -0.3424 -0.3010 -0.2659
 8087SOL    HW135720   0.092   2.217   6.788 -1.0070 -2.3539  0.1932
 8087SOL    HW235721   0.111   2.096   6.698 -1.3411 -0.0780  0.5577
 8088SOL     OW35722   1.500   1.055   3.425 -0.6035  0.0734  0.3672
 8088SOL    HW135723   1.474   1.116   3.494 -0.4034  1.3851 -0.7171
 8088SOL    HW235724   1.413   1.015   3.418  0.3443 -1.6602 -1.5481
 8089SOL     OW35725   1.767   4.678   6.509  0.6955 -0.2180  0.1751
 8089SOL    HW135726   1.676   4.700   6.529  0.6936  1.4199 -1.6281
 8089SOL    HW235727   1.792   0.043   6.535 -0.7218  0.1693  0.2363
 8090SOL     OW35728   3.369   4.639   4.319  0.8178 -0.0489 -0.0114
 8090SOL    HW135729   3.323   4.721   4.301  0.5302 -0.4034 -0.9237
 8090SOL    HW235730   3.303   4.571   4.306  0.5207  0.1856  0.2802
 8091SOL     OW35731   2.995   1.120   4.468  0.0941 -0.2912  0.1337
 8091SOL    HW135732   2.957   1.033   4.474  0.7205 -0.6329 -0.9404
 8091SOL    HW235733   2.999   1.137   4.562 -1.3363  3.4405 -0.4608
 8092SOL     OW35734   1.545   0.719  11.624 -0.7030  0.7296 -0.1636
 8092SOL    HW135735   1.529   0.741  11.532 -1.3046 -0.5725 -0.3773
 8092SOL    HW235736   1.630   0.675  11.622 -0.8554  0.4049  0.9899
 8093SOL     OW35737   2.898   4.119   2.617  0.5188  0.0692  0.5354
 8093SOL    HW135738   2.956   4.043   2.628  1.9979  1.2684  1.1553
 8093SOL    HW235739   2.862   4.098   2.531 -4.0627 -0.0142  2.5205
 8094SOL     OW35740   1.779   0.291  11.456 -0.8925 -0.2156 -0.0202
 8094SOL    HW135741   1.848   0.342  11.499 -0.4630  0.4689 -1.5246
 8094SOL    HW235742   1.704   0.315  11.511  0.5493  2.7203  0.6968
 8095SOL     OW35743   2.176   0.860   3.277  0.3203 -0.5064 -0.0569
 8095SOL    HW135744   2.212   0.786   3.326  0.1904  1.0723  2.4287
 8095SOL    HW235745   2.203   0.839   3.188  1.0930 -0.6425  0.2113
 8096SOL     OW35746   1.376   4.472   5.961  0.0485  0.3948 -0.0071
 8096SOL    HW135747   1.371   4.452   5.868  0.2740  1.6929 -0.2948
 8096SOL    HW235748   1.471   4.470   5.972  0.0491  1.8655  0.2825
 8097SOL     OW35749   3.746   0.777  14.397 -0.1713  0.0155 -0.1794
 8097SOL    HW135750   3.763   0.869  14.416 -1.5633  0.6560 -2.1258
 8097SOL    HW235751   3.828   0.747  14.438 -0.1647  1.3563  0.7933
 8098SOL     OW35752   2.719   0.865  17.581  0.8143  0.6694 -0.8548
 8098SOL    HW135753   2.665   0.935  17.543 -0.3393  0.3335  0.1560
 8098SOL    HW235754   2.691   0.870  17.672 -0.4754  3.4182 -1.3847
 8099SOL     OW35755   0.438   2.294   4.720  0.6761  0.0139 -0.2071
 8099SOL    HW135756   0.515   2.254   4.679  0.9916  1.6876 -1.2538
 8099SOL    HW235757   0.404   2.338   4.642 -0.0236  0.9644  0.6301
 8100SOL     OW35758   4.192   1.046  14.718  0.3943 -0.4943  0.1840
 8100SOL    HW135759   4.184   1.098  14.798  0.1995 -0.1201 -0.0744
 8100SOL    HW235760   4.239   1.114  14.670  0.4166  1.1364  2.5360
 8101SOL     OW35761   2.665   0.921  10.794  0.1815 -0.3017 -0.4596
 8101SOL    HW135762   2.692   0.873  10.873  1.0886  2.8386  1.1150
 8101SOL    HW235763   2.740   0.903  10.738  0.7150 -2.8476  1.0235
 8102SOL     OW35764   1.644   0.393  11.706  0.2093 -0.0034 -0.5273
 8102SOL    HW135765   1.557   0.410  11.744  0.3662 -2.0017  0.7465
 8102SOL    HW235766   1.683   0.480  11.707  1.3479 -0.5398  1.9817
 8103SOL     OW35767   0.622   2.219   4.486  0.3148  0.0834 -0.8946
 8103SOL    HW135768   0.601   2.198   4.395  0.8553 -0.9172 -0.7893
 8103SOL    HW235769   0.656   2.308   4.489  0.4673  0.0005  0.0016
 8104SOL     OW35770   4.591   0.639   8.816 -0.0135  0.4035 -0.0369
 8104SOL    HW135771   4.532   0.623   8.742  1.9085 -0.7900 -1.3048
 8104SOL    HW235772   4.531   0.685   8.875 -0.9908 -0.4380 -0.3500
 8105SOL     OW35773   2.939   3.670  16.639 -0.4691  0.1296 -0.0282
 8105SOL    HW135774   3.010   3.735  16.644 -0.7737  0.6366 -2.3930
 8105SOL    HW235775   2.992   3.594  16.616 -1.5257 -0.9650  1.1791
 8106SOL     OW35776   2.340   2.625   3.947  0.1275 -0.8727  0.2547
 8106SOL    HW135777   2.252   2.596   3.922 -0.6290 -0.7564  2.7535
 8106SOL    HW235778   2.346   2.704   3.893 -1.2245 -0.4956  0.6612
 8107SOL     OW35779   0.654   1.242   7.462 -0.0863 -0.6365 -0.1175
 8107SOL    HW135780   0.744   1.265   7.482  0.0930  0.3311 -2.0911
 8107SOL    HW235781   0.658   1.231   7.367  0.2366  0.5200 -0.2288
 8108SOL     OW35782   1.669   4.634   4.035  1.5573 -0.1340  0.2713
 8108SOL    HW135783   1.695   4.716   4.078 -0.2121  0.1430  0.8337
 8108SOL    HW235784   1.617   4.591   4.103  2.1238  0.7114  1.2397
 8109SOL     OW35785   2.382   2.522  17.640 -0.6552  0.2426 -0.0101
 8109SOL    HW135786   2.340   2.503  17.556  1.3718  1.6986 -1.3533
 8109SOL    HW235787   2.471   2.491  17.625 -1.2172 -1.5962  0.4842
 8110SOL     OW35788   4.039   3.793   1.821 -0.1722 -0.1487 -0.0929
 8110SOL    HW135789   4.065   3.719   1.766  0.2081  1.2204 -1.7578
 8110SOL    HW235790   4.102   3.788   1.893  0.0891  3.2471 -0.0976
 8111SOL     OW35791   3.732   4.215   8.592  0.0208  0.6378  0.0865
 8111SOL    HW135792   3.802   4.152   8.603 -0.5765 -0.2863 -1.4116
 8111SOL    HW235793   3.785   4.294   8.607  0.7226  0.0888  0.4729
 8112SOL     OW35794   0.602   3.361   6.765 -0.0357  0.2866  0.0951
 8112SOL    HW135795   0.561   3.447   6.769  0.0120  0.3277 -0.2918
 8112SOL    HW235796   0.553   3.312   6.699 -0.4896  1.2665 -0.2942
 8113SOL     OW35797   2.474   1.689   0.032  0.3620 -0.4061 -0.0691
 8113SOL    HW135798   2.515   1.684  17.641 -2.4118  1.6585 -1.4958
 8113SOL    HW235799   2.467   1.597   0.057  0.8155  0.6369  4.0114
 8114SOL     OW35800   1.663   1.462  14.570  0.5450  0.2515  0.0991
 8114SOL    HW135801   1.658   1.555  14.548  2.2066  0.3067 -0.0617
 8114SOL    HW235802   1.639   1.469  14.663  1.5388  2.7758  0.1405
 8115SOL     OW35803   0.238   0.670   4.729  0.2182 -0.0502  0.0151
 8115SOL    HW135804   0.239   0.578   4.702  1.9495 -0.0359  0.0233
 8115SOL    HW235805   0.286   0.656   4.811 -1.1701  1.4008  1.0922
 8116SOL     OW35806   0.025   4.197   3.142 -0.5759 -0.4088  0.4508
 8116SOL    HW135807   4.657   4.206   3.113 -0.9597 -0.9166  1.4792
 8116SOL    HW235808   0.022   4.230   3.232  0.3221 -0.4993  0.5140
 8117SOL     OW35809   0.120   3.215   4.024 -0.3384 -0.2233  0.3730
 8117SOL    HW135810   0.209   3.212   3.990  0.0275  1.8624  1.1286
 8117SOL    HW235811   0.105   3.121   4.029  1.3696 -0.4411  1.3389
 8118SOL     OW35812   0.779   4.146   2.430 -0.1285  0.0805 -0.1916
 8118SOL    HW135813   0.700   4.144   2.376  0.1482 -2.8837 -0.4858
 8118SOL    HW235814   0.838   4.098   2.373  1.0394  0.1299  0.9640
 8119SOL     OW35815   0.734   3.194  15.525  0.8426 -0.2746  0.6413
 8119SOL    HW135816   0.654   3.202  15.577 -0.0558  1.7910 -1.0466
 8119SOL    HW235817   0.710   3.238  15.443  0.2490 -2.5604 -0.4375
 8120SOL     OW35818   4.045   0.675   7.273 -0.4201 -0.0148  0.0247
 8120SOL    HW135819   4.050   0.580   7.260 -0.3834  0.0960 -0.7573
 8120SOL    HW235820   4.090   0.676   7.357  2.7134  3.4597 -1.7363
 8121SOL     OW35821   1.864   1.251  14.659  0.3006  0.4104 -0.0907
 8121SOL    HW135822   1.819   1.315  14.605 -2.8488 -1.1767  0.6068
 8121SOL    HW235823   1.870   1.177  14.598  2.3204  0.2140  0.3673
 8122SOL     OW35824   2.592   1.822   7.760  0.9516  0.4145  0.2975
 8122SOL    HW135825   2.653   1.834   7.686  0.0179  0.1299 -0.5159
 8122SOL    HW235826   2.651   1.828   7.835  1.6616 -0.3865 -0.2036
 8123SOL     OW35827   2.774   3.842   3.091 -0.3071  0.1631  0.3132
 8123SOL    HW135828   2.755   3.883   3.176  0.1268 -3.5385  2.2082
 8123SOL    HW235829   2.869   3.835   3.082 -0.3918  0.2767 -0.6122
 8124SOL     OW35830   2.446   3.072   7.702  0.5856 -0.2469 -0.0731
 8124SOL    HW135831   2.531   3.054   7.743  0.9990  0.5462 -0.5924
 8124SOL    HW235832   2.388   3.013   7.750  0.2132 -0.3766 -0.6825
 8125SOL     OW35833   0.952   1.483  14.061 -0.1865 -0.6633  0.2282
 8125SOL    HW135834   0.921   1.544  14.128 -2.0344 -1.2820 -0.0770
 8125SOL    HW235835   0.919   1.399  14.093 -0.3865  0.0710  1.9489
 8126SOL     OW35836   2.654   1.510   1.869  0.0494  0.2767  0.3564
 8126SOL    HW135837   2.575   1.485   1.917 -0.1139  0.4383  0.1682
 8126SOL    HW235838   2.719   1.454   1.910 -0.4191  0.4595  1.3531
 8127SOL     OW35839   0.209   1.885   2.909  0.6564 -0.4901  0.0260
 8127SOL    HW135840   0.233   1.978   2.911 -0.2818 -0.2465  0.2605
 8127SOL    HW235841   0.202   1.877   3.004  0.2706 -4.2951 -0.3226
 8128SOL     OW35842   0.339   0.785   5.822 -0.3214  0.4151  0.2947
 8128SOL    HW135843   0.304   0.860   5.871 -2.8095 -0.6144  0.0832
 8128SOL    HW235844   0.265   0.760   5.767  0.8217  2.0883 -1.9814
 8129SOL     OW35845   0.233   2.301   9.267  0.1317  0.1168  0.6740
 8129SOL    HW135846   0.312   2.350   9.290  0.1595  0.8677 -1.0166
 8129SOL    HW235847   0.165   2.369   9.271 -0.5394 -0.6484  2.0328
 8130SOL     OW35848   2.773   1.655  12.484 -0.0745  0.0210 -0.2523
 8130SOL    HW135849   2.772   1.564  12.515 -0.7686  0.4135  0.8730
 8130SOL    HW235850   2.853   1.655  12.431 -1.9619  2.3437 -3.0756
 8131SOL     OW35851   4.630   1.382   6.000  0.3293 -0.3670  0.3333
 8131SOL    HW135852   4.559   1.404   5.939  1.8645  0.8791 -1.0152
 8131SOL    HW235853   4.603   1.419   6.084 -0.8064 -0.4842  0.0166
 8132SOL     OW35854   2.926   1.357   2.324 -0.1914 -0.2151 -0.0307
 8132SOL    HW135855   2.928   1.288   2.389  1.2241 -0.4595 -0.3362
 8132SOL    HW235856   2.906   1.307   2.245  0.8722 -1.6941  0.6368
 8133SOL     OW35857   0.236   3.576   1.897 -0.3078 -0.7421  0.0952
 8133SOL    HW135858   0.318   3.594   1.851 -0.9950  0.4991 -0.6410
 8133SOL    HW235859   0.191   3.659   1.883  0.2335 -0.5138 -0.2644
 8134SOL     OW35860   1.412   1.124   0.941  0.0385  0.1786  0.4430
 8134SOL    HW135861   1.417   1.044   0.993  4.3914  0.1842  0.0715
 8134SOL    HW235862   1.501   1.160   0.947 -0.5381  1.4006  1.4447
 8135SOL     OW35863   4.313   2.831   3.876  0.4593  0.1880  1.1480
 8135SOL    HW135864   4.249   2.829   3.804  3.4048 -2.0928 -1.3960
 8135SOL    HW235865   4.294   2.744   3.910 -0.0534 -0.3816 -0.5687
 8136SOL     OW35866   3.878   2.719   4.309 -0.1762  0.2634 -0.1974
 8136SOL    HW135867   3.924   2.759   4.383  1.1678 -0.8436 -0.4581
 8136SOL    HW235868   3.793   2.749   4.341 -0.8523 -0.9756 -0.8409
 8137SOL     OW35869   1.451   4.329  14.765 -0.0969  0.3733 -0.7705
 8137SOL    HW135870   1.521   4.365  14.819  0.8027 -1.6492 -0.5712
 8137SOL    HW235871   1.485   4.358  14.681  0.9850  1.9450  0.2108
 8138SOL     OW35872   3.999   0.114  14.221 -0.1827  0.1738  0.3422
 8138SOL    HW135873   3.924   0.171  14.205 -0.9418 -0.7333  0.6867
 8138SOL    HW235874   3.992   0.060  14.142 -0.5887  1.7132 -0.6914
 8139SOL     OW35875   0.634   0.443   1.465 -0.1992  0.1669  0.9741
 8139SOL    HW135876   0.595   0.506   1.404  0.8437 -0.7459 -0.6195
 8139SOL    HW235877   0.632   0.505   1.538 -0.3286  0.4121  0.7646
 8140SOL     OW35878   4.152   0.750   7.573 -0.0544 -0.0113 -0.1405
 8140SOL    HW135879   4.078   0.763   7.633  1.7452 -1.5343  2.4010
 8140SOL    HW235880   4.148   0.839   7.537  0.8008 -0.6791 -1.8552
 8141SOL     OW35881   4.016   2.323  15.690 -0.0186 -0.0734 -0.1755
 8141SOL    HW135882   3.948   2.260  15.716 -0.9587  1.8829  2.1179
 8141SOL    HW235883   4.036   2.366  15.773 -2.1424 -0.5338  0.5674
 8142SOL     OW35884   0.029   1.032  13.731 -0.7773  0.0902  0.2958
 8142SOL    HW135885   4.684   1.022  13.664 -0.2123  0.2535 -0.3040
 8142SOL    HW235886   0.103   0.992  13.686  0.2981  1.7182  0.6108
 8143SOL     OW35887   2.042   1.043   6.202  0.3020 -0.5429  0.7210
 8143SOL    HW135888   2.029   0.999   6.118 -0.2337  0.8087  0.0867
 8143SOL    HW235889   2.070   1.134   6.186  0.1680 -0.5212  0.6137
 8144SOL     OW35890   4.649   1.457  10.908 -0.1176 -0.4625 -0.2479
 8144SOL    HW135891   4.679   1.402  10.980 -1.2200  0.8317  1.2065
 8144SOL    HW235892   4.719   1.522  10.910  2.5096 -3.3401  1.6148
 8145SOL     OW35893   3.819   0.819   1.339  0.0230  0.5716  0.0017
 8145SOL    HW135894   3.804   0.905   1.300  1.1118  0.9135  0.3252
 8145SOL    HW235895   3.896   0.789   1.290 -0.6435  0.7955 -1.1852
 8146SOL     OW35896   3.515   4.236   6.532 -0.1012 -0.3177  0.2634
 8146SOL    HW135897   3.583   4.303   6.534 -0.1827 -0.2765  1.6839
 8146SOL    HW235898   3.451   4.274   6.592  1.3912  2.2265  0.2355
 8147SOL     OW35899   3.737   2.853   7.013  0.1499  0.3709 -0.4318
 8147SOL    HW135900   3.801   2.903   7.064  1.9742 -2.7870  0.3932
 8147SOL    HW235901   3.660   2.834   7.066  0.8208  0.4691  0.5858
 8148SOL     OW35902   3.185   3.928   3.349 -0.4375 -0.1908  0.1951
 8148SOL    HW135903   3.244   3.931   3.425  0.0786 -1.6173 -0.1497
 8148SOL    HW235904   3.114   3.877   3.387 -0.3280  0.2511  0.9964
 8149SOL     OW35905   3.058   0.922  14.551  0.3048  0.1844 -0.3851
 8149SOL    HW135906   3.018   0.939  14.466  0.0608  2.4549  0.1835
 8149SOL    HW235907   3.009   0.987  14.602 -1.0238 -1.6612  0.6597
 8150SOL     OW35908   2.294   0.174   5.883 -0.0169 -0.6264  0.2219
 8150SOL    HW135909   2.293   0.144   5.792 -1.1136  3.3001 -1.0725
 8150SOL    HW235910   2.221   0.236   5.876  1.4203  0.8750 -1.4123
 8151SOL     OW35911   2.904   3.460   0.464 -0.7962  0.0636  0.2703
 8151SOL    HW135912   2.824   3.467   0.517 -2.0507  3.4132 -2.0362
 8151SOL    HW235913   2.965   3.412   0.519  1.3525  0.2335 -1.9716
 8152SOL     OW35914   2.639   3.081   8.331  0.4858  0.6588  0.3174
 8152SOL    HW135915   2.650   3.149   8.397 -0.4996  0.6001  0.5390
 8152SOL    HW235916   2.547   3.064   8.351  1.5015 -1.7121  2.8831
 8153SOL     OW35917   3.896   1.347  12.756 -0.0743  0.0697  0.5280
 8153SOL    HW135918   3.874   1.332  12.664  0.7320 -0.9517  0.5023
 8153SOL    HW235919   3.874   1.439  12.769  0.1630  0.3528 -1.1652
 8154SOL     OW35920   0.223   3.900  16.563  0.0757 -0.1966  0.1236
 8154SOL    HW135921   0.188   3.847  16.635 -0.6786 -1.1298 -0.9529
 8154SOL    HW235922   0.218   3.986  16.606 -1.8871  0.2128 -0.9182
 8155SOL     OW35923   3.721   2.601   5.543 -0.3015  0.2183  0.5497
 8155SOL    HW135924   3.682   2.519   5.572 -1.0396  0.9042  1.5045
 8155SOL    HW235925   3.719   2.591   5.448 -3.8005 -0.0343  0.6686
 8156SOL     OW35926   0.883   1.693   5.476 -0.7151 -0.0743  0.6804
 8156SOL    HW135927   0.959   1.717   5.529 -0.7286 -1.3845  1.3180
 8156SOL    HW235928   0.886   1.597   5.482 -2.9070 -0.1464  0.8066
 8157SOL     OW35929   2.905   1.961   8.218  0.6445  0.4197  0.4340
 8157SOL    HW135930   2.989   2.007   8.213 -0.3791  2.3681  1.2251
 8157SOL    HW235931   2.939   1.874   8.240 -0.8645 -0.0163  1.0287
 8158SOL     OW35932   1.557   1.921   0.169 -0.2170 -0.4875 -0.0941
 8158SOL    HW135933   1.584   2.013   0.169  1.3196 -0.9514  0.4792
 8158SOL    HW235934   1.466   1.923   0.199 -0.4063 -2.0897 -0.5702
 8159SOL     OW35935   3.379   1.658   8.420  0.2319  0.1358 -0.0769
 8159SOL    HW135936   3.395   1.729   8.483 -0.6443 -1.3320  1.8175
 8159SOL    HW235937   3.431   1.676   8.342  0.8192 -0.9323  0.0678
 8160SOL     OW35938   1.734   1.332   6.433  0.1007  0.5437 -0.2941
 8160SOL    HW135939   1.764   1.243   6.411 -0.6520 -0.0932  1.2118
 8160SOL    HW235940   1.791   1.395   6.389 -2.1593  2.0529 -1.0859
 8161SOL     OW35941   3.301   0.871   1.058 -0.6367 -0.0753  0.3705
 8161SOL    HW135942   3.222   0.824   1.033  0.4454 -2.1333  0.7828
 8161SOL    HW235943   3.339   0.903   0.976  0.9077 -0.0606  1.0815
 8162SOL     OW35944   2.616   1.861   5.189 -0.5206  0.4258 -0.8729
 8162SOL    HW135945   2.670   1.885   5.265 -3.0784  3.2427  0.0007
 8162SOL    HW235946   2.569   1.940   5.163 -1.3794 -0.0303 -0.6933
 8163SOL     OW35947   4.693   2.841   3.391  0.3465  0.7447  0.0635
 8163SOL    HW135948   0.025   2.888   3.454  1.2115 -1.9488  1.3104
 8163SOL    HW235949   0.033   2.844   3.320  1.0349  0.0696  0.6458
 8164SOL     OW35950   3.971   4.086   8.549 -0.1051  0.3619 -0.3476
 8164SOL    HW135951   3.997   3.996   8.568  0.4164  0.7743  0.9346
 8164SOL    HW235952   4.053   4.128   8.576 -0.4652  1.0983 -0.4055
 8165SOL     OW35953   0.647   0.239  12.206 -0.5642 -0.2741  0.6334
 8165SOL    HW135954   0.707   0.199  12.144  0.5605  2.5764 -0.1076
 8165SOL    HW235955   0.676   0.203  12.290  0.8039  0.9720  0.6953
 8166SOL     OW35956   4.540   0.411   4.405  0.4982  0.2800  0.6398
 8166SOL    HW135957   4.622   0.459   4.417  0.2426  0.6775  0.7994
 8166SOL    HW235958   4.561   0.318   4.393  1.2916  0.4145  1.0365
 8167SOL     OW35959   0.122   0.395   5.486  0.3637 -0.6237 -0.4797
 8167SOL    HW135960   0.169   0.317   5.458 -1.2275 -1.3031 -1.2406
 8167SOL    HW235961   0.069   0.425   5.412 -0.0593 -2.6670 -0.9956
 8168SOL     OW35962   3.378   0.233  12.980  0.8550  0.1662  0.1498
 8168SOL    HW135963   3.444   0.303  12.986  0.6572  0.3659 -0.0330
 8168SOL    HW235964   3.388   0.215  13.074 -1.6120  1.5717  0.6623
 8169SOL     OW35965   3.098   1.266   2.752 -0.4581 -0.4125 -0.4181
 8169SOL    HW135966   3.153   1.250   2.675  2.2640 -0.9778  1.6531
 8169SOL    HW235967   3.159   1.320   2.803 -0.1108 -2.9671  1.8245
 8170SOL     OW35968   0.063   0.705   6.231 -0.3611 -0.2896 -0.2024
 8170SOL    HW135969   4.700   0.664   6.223 -0.6145 -0.0665  1.3838
 8170SOL    HW235970   0.122   0.654   6.175 -0.0997  3.0372 -3.0085
 8171SOL     OW35971   2.609   0.240  16.986 -0.6578  0.4683  0.3117
 8171SOL    HW135972   2.632   0.187  17.062 -1.9277  2.0437  1.7827
 8171SOL    HW235973   2.689   0.292  16.974 -0.8807  0.4959 -1.0615
 8172SOL     OW35974   1.784   1.524   1.182 -0.2669  0.3244 -0.8550
 8172SOL    HW135975   1.787   1.512   1.277  0.0799  3.0506 -0.5228
 8172SOL    HW235976   1.746   1.611   1.171 -2.1953 -0.6364 -1.6389
 8173SOL     OW35977   3.842   3.310   0.643 -0.4966 -0.0198 -0.6823
 8173SOL    HW135978   3.913   3.248   0.656  0.1492  0.6032 -1.2073
 8173SOL    HW235979   3.848   3.365   0.722 -0.8412 -1.1991  0.1594
 8174SOL     OW35980   1.436   0.848   5.218  0.1079  0.1318  0.2008
 8174SOL    HW135981   1.524   0.877   5.241  0.2312 -0.1037  0.0243
 8174SOL    HW235982   1.456   0.755   5.225  1.5219  0.4448  0.2003
 8175SOL     OW35983   4.169   2.663   4.176  0.7692  0.2470  0.5470
 8175SOL    HW135984   4.181   2.604   4.250  2.7954 -0.0680 -0.0517
 8175SOL    HW235985   4.232   2.636   4.110  2.1176  3.0508  0.6802
 8176SOL     OW35986   3.303   3.688   5.070  1.0162  0.4178 -0.0343
 8176SOL    HW135987   3.309   3.749   5.142 -1.3811 -1.3151  1.6487
 8176SOL    HW235988   3.207   3.687   5.066  1.0377  1.0456 -0.5717
 8177SOL     OW35989   3.821   2.645   3.460 -0.0662  0.2488 -0.6141
 8177SOL    HW135990   3.777   2.605   3.384  0.5167 -1.4856 -0.0303
 8177SOL    HW235991   3.901   2.683   3.424  1.9571 -2.5738  0.8606
 8178SOL     OW35992   1.561   3.087   9.928 -0.1552 -0.4252  0.2307
 8178SOL    HW135993   1.488   3.051   9.878  0.1021  0.7211 -0.9631
 8178SOL    HW235994   1.599   3.004   9.957 -1.0523 -0.9302 -0.0261
 8179SOL     OW35995   0.841   1.497   7.793 -0.0024  0.2852  0.3278
 8179SOL    HW135996   0.862   1.530   7.881  0.4894  1.2264 -0.1445
 8179SOL    HW235997   0.931   1.475   7.765  1.1067  2.1183  2.4678
 8180SOL     OW35998   1.556   3.923   0.724  0.4527  0.6885 -0.4949
 8180SOL    HW135999   1.593   3.905   0.811 -0.4964  1.1454  0.0007
 8180SOL    HW236000   1.633   3.949   0.673  0.4707  3.5371  0.9994
 8181SOL     OW36001   2.543   0.551   9.585  0.0843  0.5237 -0.3030
 8181SOL    HW136002   2.515   0.506   9.505 -0.3839 -1.0183  0.7235
 8181SOL    HW236003   2.616   0.496   9.611  2.5681  3.1212 -1.7901
 8182SOL     OW36004   2.065   1.179  13.766  0.4712 -0.2807  0.0401
 8182SOL    HW136005   2.067   1.273  13.751  1.1624 -0.5622 -1.5797
 8182SOL    HW236006   1.986   1.166  13.819 -0.2996  0.1012 -1.0246
 8183SOL     OW36007   0.263   4.494  10.648  0.5671  0.0348  0.4556
 8183SOL    HW136008   0.314   4.521  10.724  1.2523 -0.8512  0.3077
 8183SOL    HW236009   0.199   4.432  10.685  1.3238 -2.1896 -1.9197
 8184SOL     OW36010   3.274   3.783   0.226 -0.0653  0.0161  0.1819
 8184SOL    HW136011   3.246   3.858   0.174 -0.1802 -0.9459 -1.1355
 8184SOL    HW236012   3.334   3.823   0.290  0.2013  0.5363 -0.3909
 8185SOL     OW36013   2.953   2.680   3.087 -0.1889  0.0322  0.1721
 8185SOL    HW136014   2.946   2.720   3.000  0.2068  0.0563  0.1504
 8185SOL    HW236015   2.859   2.672   3.106  0.3411 -0.4030  2.5837
 8186SOL     OW36016   4.704   3.736   2.288  0.2263  0.1338  0.5734
 8186SOL    HW136017   4.696   3.777   2.202  2.1264 -0.2819  0.2032
 8186SOL    HW236018   4.615   3.705   2.306 -0.7110  1.4697 -1.6744
 8187SOL     OW36019   2.172   3.402   1.339  0.3878  0.8188 -0.0386
 8187SOL    HW136020   2.244   3.432   1.395  0.6137  2.0257 -0.9811
 8187SOL    HW236021   2.222   3.363   1.267 -0.1671 -0.6040  0.3572
 8188SOL     OW36022   1.640   0.021   9.923 -0.3323  0.0780 -0.3410
 8188SOL    HW136023   1.666   0.107   9.956 -0.5986  0.1757 -0.3906
 8188SOL    HW236024   1.547   0.035   9.904 -0.3279 -0.2020 -0.5791
 8189SOL     OW36025   2.547   1.860   3.490  0.5009  0.3919  0.2537
 8189SOL    HW136026   2.454   1.843   3.498  0.6423  0.8997  3.2153
 8189SOL    HW236027   2.565   1.892   3.579  0.3727  0.3786  0.2843
 8190SOL     OW36028   2.843   3.357  16.762  0.0269  0.1001  0.2964
 8190SOL    HW136029   2.783   3.319  16.826  0.8989  0.1994  1.1769
 8190SOL    HW236030   2.801   3.338  16.678  2.3894 -0.3415 -0.7788
 8191SOL     OW36031   2.114   2.097  10.510 -0.0015  0.2733  0.5843
 8191SOL    HW136032   2.072   2.095  10.424  0.4896 -2.3091  0.3927
 8191SOL    HW236033   2.201   2.134  10.496  0.5713 -0.8379  1.1782
 8192SOL     OW36034   1.854   2.236  11.466  0.2112 -0.2493 -0.1092
 8192SOL    HW136035   1.824   2.276  11.547  0.4893 -4.8035  2.2048
 8192SOL    HW236036   1.836   2.146  11.492 -1.6448  1.1126  3.2798
 8193SOL     OW36037   4.639   3.302   3.519 -0.0874 -0.1308  0.2718
 8193SOL    HW136038   4.611   3.303   3.611  0.3778 -1.0028  0.4245
 8193SOL    HW236039   0.011   3.309   3.513 -0.0696 -0.7559 -0.1154
 8194SOL     OW36040   4.539   2.573   6.381  0.4150  0.2663 -0.2283
 8194SOL    HW136041   4.517   2.567   6.288  0.6522 -1.4859 -0.1564
 8194SOL    HW236042   4.481   2.506   6.416 -0.1486  2.1449  2.4942
 8195SOL     OW36043   0.209   1.860   7.126  0.1999 -0.4547 -0.1812
 8195SOL    HW136044   0.246   1.838   7.041  0.0195 -0.4138 -0.2695
 8195SOL    HW236045   0.186   1.777   7.168  1.6998 -0.8039 -0.0494
 8196SOL     OW36046   1.071   2.410   3.800  0.0016  0.3548  0.2133
 8196SOL    HW136047   1.118   2.413   3.717 -1.1121  2.9011 -0.3350
 8196SOL    HW236048   1.022   2.489   3.778  1.9665  1.6674  0.5858
 8197SOL     OW36049   2.702   0.556   2.237  0.2187  0.2025 -0.3825
 8197SOL    HW136050   2.646   0.633   2.238  1.0445  0.8059 -1.3031
 8197SOL    HW236051   2.635   0.490   2.219  0.8498 -0.1524 -1.4157
 8198SOL     OW36052   2.481   1.133   3.301 -0.3731  0.7517 -0.0102
 8198SOL    HW136053   2.421   1.124   3.227 -0.9522 -0.1873  0.5604
 8198SOL    HW236054   2.478   1.224   3.330 -1.1963  1.6807 -3.0534
 8199SOL     OW36055   1.361   4.608   1.098  0.2150  0.1486  0.0610
 8199SOL    HW136056   1.329   4.676   1.158 -0.3367  0.9441 -1.1168
 8199SOL    HW236057   1.427   4.566   1.152  0.5182  1.1565  0.4663
 8200SOL     OW36058   3.277   1.110  14.416  0.3881 -0.3522 -0.4074
 8200SOL    HW136059   3.241   1.195  14.391  1.6627 -0.2254 -1.7791
 8200SOL    HW236060   3.201   1.059  14.442  1.1866 -0.8487  0.9951
 8201SOL     OW36061   2.258   0.610   6.989 -0.0438 -0.4591 -0.3814
 8201SOL    HW136062   2.349   0.619   6.961  0.1003 -4.3680 -1.1847
 8201SOL    HW236063   2.260   0.534   7.047 -2.0611 -0.8164 -0.8105
 8202SOL     OW36064   2.614   2.490   5.588 -0.2064 -0.3113 -0.5240
 8202SOL    HW136065   2.521   2.512   5.576 -0.5701 -0.8998  1.1682
 8202SOL    HW236066   2.657   2.552   5.530  0.3887  0.2758  0.5397
 8203SOL     OW36067   1.046   1.627   6.938  0.1546  0.0294  0.2840
 8203SOL    HW136068   1.035   1.708   6.888 -0.3296  0.3396  0.8961
 8203SOL    HW236069   1.114   1.649   7.001 -0.7727  0.8401  0.9987
 8204SOL     OW36070   1.977   1.622   1.898  0.5441 -0.0549 -0.0204
 8204SOL    HW136071   1.902   1.563   1.891 -0.9041  2.2375 -3.1313
 8204SOL    HW236072   1.945   1.708   1.872  0.3725 -0.7029 -1.9469
 8205SOL     OW36073   1.074   4.302   6.888 -0.8430  0.3701  0.2906
 8205SOL    HW136074   1.123   4.298   6.806  0.8046 -0.3690  1.3123
 8205SOL    HW236075   1.008   4.235   6.873 -1.0375  0.2310  1.7835
 8206SOL     OW36076   2.343   1.748  15.142  0.0395 -0.3231  0.2678
 8206SOL    HW136077   2.285   1.695  15.198 -2.0466  2.5570  0.8630
 8206SOL    HW236078   2.289   1.827  15.146  0.3555 -0.0482 -1.2823
 8207SOL     OW36079   4.498   3.525   5.999  0.7391  0.5479 -0.3643
 8207SOL    HW136080   4.545   3.572   6.068  2.5510 -1.4676 -0.2155
 8207SOL    HW236081   4.564   3.458   5.981 -0.6547 -1.2891  1.4199
 8208SOL     OW36082   1.194   0.732  14.661  0.0732 -0.5577 -0.1280
 8208SOL    HW136083   1.261   0.801  14.658  1.5419 -1.9838  0.1926
 8208SOL    HW236084   1.140   0.740  14.582  1.1979 -0.4370 -0.8841
 8209SOL     OW36085   1.297   1.560   3.586  0.1318  0.1423  0.3868
 8209SOL    HW136086   1.319   1.608   3.506 -0.3016  1.3055  0.9723
 8209SOL    HW236087   1.332   1.626   3.646  1.4662  0.8101 -1.1188
 8210SOL     OW36088   1.517   3.703   4.522  0.7656  0.4695  0.3997
 8210SOL    HW136089   1.491   3.732   4.435 -0.2348  0.1673  0.5920
 8210SOL    HW236090   1.612   3.692   4.524  0.9931  2.7201  1.4629
 8211SOL     OW36091   0.879   1.020   3.114 -0.1553 -0.5572  0.1081
 8211SOL    HW136092   0.952   1.028   3.053  0.0340  0.3045  0.4395
 8211SOL    HW236093   0.878   0.927   3.138 -1.2005 -0.7205 -0.5755
 8212SOL     OW36094   3.308   4.426   2.141 -0.1065 -0.1461  0.2845
 8212SOL    HW136095   3.239   4.378   2.187 -0.6560 -0.7072 -1.1104
 8212SOL    HW236096   3.283   4.420   2.048 -0.5763 -0.3308  0.4245
 8213SOL     OW36097   0.319   1.403   0.131  0.1616  0.0963  0.2240
 8213SOL    HW136098   0.292   1.481   0.082 -0.7158  0.2268  0.9210
 8213SOL    HW236099   0.407   1.390   0.097  0.2062 -3.4599  1.6584
 8214SOL     OW36100   0.746   1.162   2.879  0.5425  0.2009  0.2580
 8214SOL    HW136101   0.775   1.209   2.801  1.9080 -1.0209  0.0346
 8214SOL    HW236102   0.809   1.194   2.945 -0.5085  2.4689  0.1613
 8215SOL     OW36103   3.421   1.112   2.738 -0.0631 -0.4994  0.2497
 8215SOL    HW136104   3.359   1.152   2.677  0.9180 -0.5664 -0.7936
 8215SOL    HW236105   3.445   1.035   2.686 -1.8878  0.5464 -2.1701
 8216SOL     OW36106   0.795   0.762   7.232  0.4715  0.5345 -0.4907
 8216SOL    HW136107   0.840   0.721   7.306  1.6106 -2.0952 -2.6517
 8216SOL    HW236108   0.718   0.796   7.277 -0.3299 -1.2902 -0.4903
 8217SOL     OW36109   3.666   3.965  17.385 -0.1192  0.2519 -0.2926
 8217SOL    HW136110   3.644   4.042  17.437  0.9032  0.4438 -0.1391
 8217SOL    HW236111   3.592   3.969  17.325 -1.5880  0.6178  1.5557
 8218SOL     OW36112   2.621   4.187  12.753  0.2113  0.3610 -0.8068
 8218SOL    HW136113   2.692   4.217  12.810  0.4242  0.9314 -1.3690
 8218SOL    HW236114   2.550   4.191  12.817  1.1752 -3.5719  0.5079
 8219SOL     OW36115   4.457   4.456   5.520  0.0006  0.0980 -0.0286
 8219SOL    HW136116   4.382   4.477   5.465 -0.8827  2.8230  2.2906
 8219SOL    HW236117   4.531   4.475   5.462 -1.3985 -0.8733 -2.1673
 8220SOL     OW36118   1.648   2.773   5.649  0.0868  0.3124 -0.2319
 8220SOL    HW136119   1.566   2.818   5.668 -1.1036 -1.2522 -1.6838
 8220SOL    HW236120   1.715   2.841   5.657  0.9266 -0.4446 -0.7549
 8221SOL     OW36121   2.888   4.521   9.915 -0.4604  0.1985 -0.2511
 8221SOL    HW136122   2.844   4.469   9.983 -2.2283  1.2269 -0.6250
 8221SOL    HW236123   2.838   4.602   9.926 -1.6164 -0.4465 -0.6936
 8222SOL     OW36124   0.270   2.388  13.910  0.0930  0.3119  0.1316
 8222SOL    HW136125   0.185   2.412  13.947  0.3289 -3.1992  2.9980
 8222SOL    HW236126   0.332   2.431  13.969 -0.6156  1.3938  0.0957
 8223SOL     OW36127   2.547   4.721   0.829  0.1459  0.5336  0.7530
 8223SOL    HW136128   2.594   0.065   0.878  0.3295  0.4863  0.6424
 8223SOL    HW236129   2.593   4.651   0.876 -0.9407  0.1344  1.2277
 8224SOL     OW36130   3.739   3.123   9.509  0.3510 -0.5137  0.4518
 8224SOL    HW136131   3.776   3.072   9.581  1.0785  1.3255  1.3759
 8224SOL    HW236132   3.724   3.052   9.447 -3.6086  0.8973 -0.1938
 8225SOL     OW36133   1.324   3.082   6.572 -0.2484  0.3728 -0.0708
 8225SOL    HW136134   1.268   3.107   6.499  0.0620  0.3622 -0.3109
 8225SOL    HW236135   1.410   3.075   6.532  0.4094  1.5843  1.1081
 8226SOL     OW36136   0.086   4.356  12.982  0.1277 -0.3374  0.1186
 8226SOL    HW136137   0.064   4.346  13.075 -1.2979 -0.8823 -0.2665
 8226SOL    HW236138   0.154   4.423  12.978 -0.1066  0.0614  2.4053
 8227SOL     OW36139   1.917   0.380   5.588  0.1010  0.3150  0.0796
 8227SOL    HW136140   1.901   0.451   5.649  0.2499  1.9541 -1.8028
 8227SOL    HW236141   1.993   0.422   5.548 -0.4576 -1.4649 -2.8634
 8228SOL     OW36142   1.988   1.413  16.762 -0.5119 -0.4886 -0.1984
 8228SOL    HW136143   2.018   1.409  16.852 -1.9596  2.0743  0.3953
 8228SOL    HW236144   2.073   1.399  16.719  0.9178  0.6623  2.2837
 8229SOL     OW36145   4.262   0.469  12.051 -0.0072 -0.7322 -0.7013
 8229SOL    HW136146   4.176   0.510  12.055 -0.2002 -1.3451  1.0787
 8229SOL    HW236147   4.245   0.380  12.019 -0.2144 -0.8901 -0.1462
 8230SOL     OW36148   1.252   4.411   2.732  0.0460  0.3297  0.1877
 8230SOL    HW136149   1.245   4.376   2.821  1.6970  0.3501  0.3329
 8230SOL    HW236150   1.175   4.388   2.681 -0.4675  3.5522 -0.5305
 8231SOL     OW36151   1.402   0.539  10.596 -0.2905  0.1372  0.2684
 8231SOL    HW136152   1.364   0.549  10.683 -0.2167 -3.3993  0.7102
 8231SOL    HW236153   1.351   0.603  10.546  1.2289  0.5031 -0.8078
 8232SOL     OW36154   0.214   3.185   9.091 -0.1849 -0.3062 -0.0823
 8232SOL    HW136155   0.266   3.110   9.120  1.3849  0.8811  0.2149
 8232SOL    HW236156   0.218   3.237   9.171  1.8945  0.7646 -0.8766
 8233SOL     OW36157   0.853   2.820  12.887 -0.2271 -0.2710  0.0503
 8233SOL    HW136158   0.863   2.838  12.793  1.7469  3.1410  0.8940
 8233SOL    HW236159   0.760   2.800  12.875 -0.3157  1.0757 -1.4888
 8234SOL     OW36160   1.341   2.306   2.594  0.8551 -0.3766 -0.3106
 8234SOL    HW136161   1.310   2.353   2.517 -1.5908 -0.8750  0.3508
 8234SOL    HW236162   1.399   2.236   2.565  1.1060 -0.0038 -0.7191
 8235SOL     OW36163   2.650   2.227   8.888 -0.5173 -0.3405  0.0065
 8235SOL    HW136164   2.724   2.211   8.828  0.0625 -1.3504  0.9804
 8235SOL    HW236165   2.610   2.146   8.921  0.3159 -1.2556 -1.2421
 8236SOL     OW36166   0.469   4.365   0.706  0.2499 -0.0707 -0.0982
 8236SOL    HW136167   0.396   4.331   0.655  0.5828 -1.5863  0.4383
 8236SOL    HW236168   0.541   4.346   0.645 -0.1127  1.3994 -0.9906
 8237SOL     OW36169   3.492   0.534   7.926 -0.1047 -0.3602  0.0388
 8237SOL    HW136170   3.417   0.536   7.986  0.8274  0.7519  1.1712
 8237SOL    HW236171   3.451   0.555   7.842 -0.1772  2.6028  0.7885
 8238SOL     OW36172   1.713   0.932   0.338 -0.2841  0.1347 -0.3574
 8238SOL    HW136173   1.719   0.852   0.287 -1.1827  0.7868 -1.4860
 8238SOL    HW236174   1.759   0.906   0.417  0.0199  0.4005 -0.4500
 8239SOL     OW36175   1.192   0.211   0.850  0.6846  0.1735  0.3210
 8239SOL    HW136176   1.170   0.141   0.911  2.6913 -1.6742 -1.0703
 8239SOL    HW236177   1.144   0.175   0.776  0.3824 -0.5765  0.8814
 8240SOL     OW36178   1.527   1.766   3.148  0.1191  0.2419  0.0782
 8240SOL    HW136179   1.503   1.768   3.055  0.7768 -0.6990 -0.1050
 8240SOL    HW236180   1.580   1.687   3.151  0.0503  0.2625  1.6186
 8241SOL     OW36181   1.822   0.290   4.936 -0.0076  0.2834  0.9871
 8241SOL    HW136182   1.855   0.338   4.860  0.8207  1.5118  2.1205
 8241SOL    HW236183   1.740   0.269   4.893 -1.0454 -1.3219  3.7326
 8242SOL     OW36184   1.653   2.539   5.382 -0.0901  0.1416 -0.3819
 8242SOL    HW136185   1.687   2.628   5.372 -0.7516  0.3422 -0.8625
 8242SOL    HW236186   1.558   2.539   5.367 -0.3674  1.7551  1.3836
 8243SOL     OW36187   2.118   0.970  15.645 -0.5952 -0.3801 -0.4789
 8243SOL    HW136188   2.072   0.888  15.625  0.0420 -0.7241 -0.5242
 8243SOL    HW236189   2.161   0.979  15.560 -1.8991  3.3565 -0.7330
 8244SOL     OW36190   1.052   2.872   1.605 -0.0915  0.1566  0.0959
 8244SOL    HW136191   1.068   2.965   1.587  0.6863 -0.3773 -1.9822
 8244SOL    HW236192   0.985   2.836   1.546  0.6041  0.4257 -0.8652
 8245SOL     OW36193   0.823   4.635   7.881  0.6912 -0.0014  0.1878
 8245SOL    HW136194   0.906   4.599   7.912 -0.2459 -1.1097  1.4597
 8245SOL    HW236195   0.854   4.665   7.796 -1.7097  2.1142  0.0391
 8246SOL     OW36196   3.474   3.279   8.793  0.4401  0.4659  0.3900
 8246SOL    HW136197   3.502   3.193   8.825 -0.6846 -0.4998 -1.2014
 8246SOL    HW236198   3.505   3.274   8.702  1.7289 -3.1616  1.0192
 8247SOL     OW36199   3.390   4.084  15.134 -0.0376  0.4728  0.2881
 8247SOL    HW136200   3.413   4.106  15.224  1.4467  0.8115 -0.1799
 8247SOL    HW236201   3.296   4.080  15.151 -0.1093 -0.0505 -0.2258
 8248SOL     OW36202   3.645   3.712   9.522 -0.1234  0.8517  0.2894
 8248SOL    HW136203   3.617   3.630   9.482  0.4237  0.1144  1.4160
 8248SOL    HW236204   3.561   3.758   9.531  0.3289  2.0302 -1.3955
 8249SOL     OW36205   2.268   0.749   2.413  0.4992  0.3328  0.3383
 8249SOL    HW136206   2.216   0.822   2.380 -0.7540  0.2988  2.2504
 8249SOL    HW236207   2.201   0.680   2.416  1.5821 -0.6817  1.1160
 8250SOL     OW36208   0.325   3.921  16.297 -0.4853 -0.0831 -0.3193
 8250SOL    HW136209   0.295   3.842  16.252  2.1978 -1.1754 -0.1741
 8250SOL    HW236210   0.276   3.906  16.378  1.2424  0.3636  0.8068
 8251SOL     OW36211   2.764   1.849   4.226  0.1127 -0.4757 -0.8167
 8251SOL    HW136212   2.721   1.928   4.194 -0.3845 -1.1777 -1.8749
 8251SOL    HW236213   2.708   1.780   4.192 -0.2823  0.1703 -1.4817
 8252SOL     OW36214   1.578   1.530  11.975 -0.3679 -0.5581  0.0982
 8252SOL    HW136215   1.609   1.443  11.952 -0.7421 -0.3657 -1.1445
 8252SOL    HW236216   1.662   1.573  11.987  0.4318 -2.0474 -0.2588
 8253SOL     OW36217   3.981   4.534   7.481  0.5209 -0.4251 -0.2005
 8253SOL    HW136218   3.969   4.445   7.448  0.9579 -0.4383 -0.3251
 8253SOL    HW236219   3.956   4.530   7.573  2.7607 -0.8849  0.3932
 8254SOL     OW36220   4.299   1.947   4.250  0.3851 -0.2537  0.3388
 8254SOL    HW136221   4.361   1.973   4.319  0.9150  0.9899 -0.6204
 8254SOL    HW236222   4.230   2.007   4.276  1.6001  0.1936  2.5930
 8255SOL     OW36223   2.072   4.333  10.198 -0.1015  0.3872  1.1314
 8255SOL    HW136224   2.112   4.249  10.174 -3.4562 -0.1396 -2.6881
 8255SOL    HW236225   2.110   4.344  10.285  0.6683  2.2969  0.5516
 8256SOL     OW36226   1.218   1.221  14.636 -0.0233 -0.0746 -0.1540
 8256SOL    HW136227   1.174   1.282  14.696 -1.3012 -0.5158 -0.6481
 8256SOL    HW236228   1.189   1.255  14.551 -1.0572 -1.3305 -0.3032
 8257SOL     OW36229   4.289   0.435   7.983 -0.1926  0.0227 -0.6578
 8257SOL    HW136230   4.217   0.436   7.920 -0.7329  0.8463 -0.0268
 8257SOL    HW236231   4.240   0.431   8.065 -0.7629  1.5938 -0.9328
 8258SOL     OW36232   1.239   3.226   2.754 -0.4450  0.3386 -0.3267
 8258SOL    HW136233   1.265   3.279   2.679 -0.4864  0.0863 -0.5193
 8258SOL    HW236234   1.156   3.188   2.725  0.4692 -0.1226 -2.3561
 8259SOL     OW36235   4.363   3.652   4.534 -0.0527  0.1541 -0.4916
 8259SOL    HW136236   4.372   3.699   4.451  0.3152  1.1584  0.1057
 8259SOL    HW236237   4.412   3.701   4.601  1.2752 -1.5412 -0.2401
 8260SOL     OW36238   4.682   2.835   4.413  0.2155  0.0675 -0.5260
 8260SOL    HW136239   0.014   2.796   4.345 -0.4345 -0.6587 -0.6373
 8260SOL    HW236240   0.024   2.864   4.477 -0.0267  1.0337 -0.7144
 8261SOL     OW36241   4.159   0.052  15.962  0.1439  0.7081 -0.1155
 8261SOL    HW136242   4.230   0.029  15.901  0.8555  1.2124  0.5324
 8261SOL    HW236243   4.206   0.060  16.044 -4.1872  3.7976  2.0529
 8262SOL     OW36244   1.994   1.795  16.092 -0.5042  0.2808  0.4611
 8262SOL    HW136245   1.956   1.803  16.179 -0.6136  2.2510  0.2377
 8262SOL    HW236246   1.933   1.838  16.033  0.3435 -1.1990 -1.4904
 8263SOL     OW36247   3.511   0.973   6.334 -0.6103  0.0035  0.1987
 8263SOL    HW136248   3.460   0.942   6.409 -1.1434  1.9432  0.6373
 8263SOL    HW236249   3.584   1.015   6.381  0.9155 -1.6829 -0.6818
 8264SOL     OW36250   1.396   3.957   5.533  0.3707  0.2301  0.1871
 8264SOL    HW136251   1.343   4.036   5.519  2.4338  1.1814 -2.3449
 8264SOL    HW236252   1.349   3.884   5.494 -0.7270  2.0741 -1.9580
 8265SOL     OW36253   1.721   0.760  17.292 -0.5685  0.0985 -0.4622
 8265SOL    HW136254   1.810   0.779  17.263 -0.4548 -0.3054 -0.3850
 8265SOL    HW236255   1.717   0.813  17.372  3.1460 -0.6235  0.2099
 8266SOL     OW36256   3.923   2.314   8.580  0.4258 -0.1910 -0.3462
 8266SOL    HW136257   3.988   2.381   8.562  1.3226 -0.7677  0.8041
 8266SOL    HW236258   3.920   2.324   8.675 -0.1091 -1.4485 -0.2181
 8267SOL     OW36259   0.456   1.271   1.184 -0.5164 -0.5916 -0.1258
 8267SOL    HW136260   0.528   1.226   1.139 -0.4529 -0.5496 -0.0662
 8267SOL    HW236261   0.499   1.287   1.269  0.1876 -0.7384 -0.4515
 8268SOL     OW36262   2.990   0.319   5.291 -0.1224  0.4705 -0.6591
 8268SOL    HW136263   2.990   0.407   5.329 -0.6590 -0.7720  2.2646
 8268SOL    HW236264   2.904   0.307   5.251 -1.0760 -1.4154  1.9719
 8269SOL     OW36265   0.490   0.619   1.278 -0.2445 -0.3275  0.4676
 8269SOL    HW136266   0.478   0.674   1.200  3.4355  0.8601  0.7473
 8269SOL    HW236267   0.413   0.633   1.334  0.9876  0.7851  1.8912
 8270SOL     OW36268   1.888   0.769  12.811  0.0103 -0.1457  0.2890
 8270SOL    HW136269   1.826   0.713  12.765  1.4248 -1.5358  0.0713
 8270SOL    HW236270   1.972   0.727  12.793  0.0130 -0.3243  0.7044
 8271SOL     OW36271   0.866   3.137  16.006  0.0831  0.1928  0.0277
 8271SOL    HW136272   0.949   3.177  16.031 -0.3865  1.1343  0.0971
 8271SOL    HW236273   0.807   3.198  16.051  3.6439  3.1913  0.7049
 8272SOL     OW36274   4.328   4.371   7.873 -0.1813  0.0259  0.0616
 8272SOL    HW136275   4.292   4.435   7.934  0.1903  0.0777  0.2268
 8272SOL    HW236276   4.411   4.350   7.916 -0.5009  0.8869  1.1169
 8273SOL     OW36277   4.564   0.613   4.165 -0.2949  0.4710 -0.5606
 8273SOL    HW136278   4.567   0.544   4.231  3.5251  1.1016 -0.0727
 8273SOL    HW236279   4.470   0.614   4.146 -0.7055 -1.2375  1.3856
 8274SOL     OW36280   3.436   1.105   3.024 -0.1163  0.2204 -0.2680
 8274SOL    HW136281   3.525   1.140   3.031  0.0927 -0.5631  1.0347
 8274SOL    HW236282   3.430   1.110   2.928  2.1591  1.1152 -0.3507
 8275SOL     OW36283   1.195   1.285   7.349 -0.0071 -0.2135  0.1373
 8275SOL    HW136284   1.187   1.380   7.338 -0.1686  0.0570  2.6173
 8275SOL    HW236285   1.240   1.246   7.274 -1.2857 -0.6811 -0.3832
 8276SOL     OW36286   0.871   1.837   3.967  1.0790  0.2570 -0.2426
 8276SOL    HW136287   0.811   1.903   4.002 -1.7522 -1.4746 -1.8994
 8276SOL    HW236288   0.951   1.872   4.007 -0.0691  0.2429  2.0987
 8277SOL     OW36289   4.491   1.521   0.244 -0.3219  0.0731 -0.6138
 8277SOL    HW136290   4.537   1.604   0.256 -1.6375  0.5228  1.5269
 8277SOL    HW236291   4.406   1.553   0.215 -0.2777  0.2182 -0.5849
 8278SOL     OW36292   2.111   3.763  14.766  0.4848 -0.2240  0.7069
 8278SOL    HW136293   2.195   3.808  14.769 -0.2315  1.1798 -0.9798
 8278SOL    HW236294   2.133   3.670  14.754 -2.0793 -0.9777  1.8866
 8279SOL     OW36295   1.386   2.155   3.971 -0.2970  0.2002  0.5104
 8279SOL    HW136296   1.394   2.243   3.933 -0.6853 -0.6916 -1.6210
 8279SOL    HW236297   1.361   2.105   3.893  1.8454  2.9829 -1.9917
 8280SOL     OW36298   1.093   4.691   5.122  0.1809  0.2991 -0.1907
 8280SOL    HW136299   1.162   0.023   5.087  0.1197 -0.5520 -1.6625
 8280SOL    HW236300   1.148   4.615   5.139 -1.6174 -0.6744  1.3213
 8281SOL     OW36301   4.191   0.274  11.218 -0.1738  0.0292  0.1297
 8281SOL    HW136302   4.127   0.342  11.198 -2.3461 -1.9137  0.5109
 8281SOL    HW236303   4.276   0.316  11.204 -0.7249  0.4085 -2.0454
 8282SOL     OW36304   3.557   2.693   5.113  0.1640 -0.1467  0.1041
 8282SOL    HW136305   3.476   2.680   5.161 -1.1785 -1.6391 -2.5549
 8282SOL    HW236306   3.551   2.786   5.091  1.6423  0.0704  0.6223
 8283SOL     OW36307   0.525   1.441   5.360 -0.3462 -0.0954  0.3246
 8283SOL    HW136308   0.457   1.502   5.330  1.2106  1.6627  0.4080
 8283SOL    HW236309   0.490   1.354   5.341 -0.1376 -0.1413  0.1510
 8284SOL     OW36310   0.009   3.629   4.482 -0.2597 -0.4963  0.2461
 8284SOL    HW136311   0.020   3.534   4.484  2.3727 -0.1981  0.4996
 8284SOL    HW236312   4.657   3.630   4.540 -0.1036  0.2823  0.4296
 8285SOL     OW36313   0.639   1.952   4.917 -0.0197 -0.2284  0.3539
 8285SOL    HW136314   0.735   1.946   4.924  0.1613  0.1359 -1.8850
 8285SOL    HW236315   0.617   1.864   4.947 -1.6455  0.3368  0.7870
 8286SOL     OW36316   1.425   1.182   5.194  0.2074 -0.2868 -0.5309
 8286SOL    HW136317   1.482   1.252   5.163 -0.8397  1.0795  0.6230
 8286SOL    HW236318   1.484   1.107   5.188 -0.2221 -0.8120  1.8447
 8287SOL     OW36319   1.795   3.529   3.910  0.3454  0.1396 -0.0915
 8287SOL    HW136320   1.850   3.523   3.833  0.3161 -0.5899 -0.0493
 8287SOL    HW236321   1.733   3.459   3.892  0.1722  0.3118 -0.1703
 8288SOL     OW36322   2.077   1.209  14.216  0.1108  0.3700  0.2536
 8288SOL    HW136323   2.060   1.139  14.152  2.1162  0.2279 -0.1262
 8288SOL    HW236324   2.026   1.175  14.289  1.4617  0.6114  1.3110
 8289SOL     OW36325   2.611   1.394   6.451 -0.5825  0.0786 -0.5875
 8289SOL    HW136326   2.552   1.421   6.380  0.2892  0.3798 -1.2008
 8289SOL    HW236327   2.656   1.477   6.462 -0.7486 -0.2105  2.1590
 8290SOL     OW36328   4.622   4.107  12.889  0.2456  1.0762  0.4500
 8290SOL    HW136329   4.679   4.043  12.932 -1.3211 -0.5791  0.0588
 8290SOL    HW236330   4.556   4.044  12.862  0.5604  0.0115  2.1435
 8291SOL     OW36331   4.064   0.868  10.897 -0.7625 -0.1122 -0.3348
 8291SOL    HW136332   4.081   0.911  10.980  2.9841 -1.3117 -0.4766
 8291SOL    HW236333   4.125   0.795  10.902 -2.4061 -1.5325 -1.0162
 8292SOL     OW36334   0.536   0.877   1.593 -1.1166  0.2117 -0.0027
 8292SOL    HW136335   0.466   0.928   1.633 -0.5589  1.1475 -0.1996
 8292SOL    HW236336   0.525   0.914   1.505 -2.7263  0.2038  0.2104
 8293SOL     OW36337   0.972   3.165   5.898  0.3271 -0.3147 -0.4106
 8293SOL    HW136338   0.927   3.105   5.838  0.1583 -0.0701 -0.5248
 8293SOL    HW236339   0.950   3.122   5.981  2.7899 -0.0344  0.3898
 8294SOL     OW36340   0.671   2.570   2.959 -0.4190  0.9903 -0.2690
 8294SOL    HW136341   0.714   2.640   2.910  0.1579 -0.1712 -1.4301
 8294SOL    HW236342   0.705   2.583   3.047 -0.3868  1.3144 -0.3310
 8295SOL     OW36343   0.642   4.427  12.757  0.6205  0.2676  0.6661
 8295SOL    HW136344   0.653   4.506  12.811  2.2678 -0.3339  1.2228
 8295SOL    HW236345   0.566   4.454  12.706  0.6194 -1.3601 -0.1733
 8296SOL     OW36346   4.067   1.533   3.309  0.8945  1.0989  0.4695
 8296SOL    HW136347   3.991   1.531   3.367  2.3018 -1.6803  2.2748
 8296SOL    HW236348   4.130   1.476   3.354 -0.5751  0.4959  1.7481
 8297SOL     OW36349   0.946   2.308   5.455  0.2905 -0.0850  0.1350
 8297SOL    HW136350   1.011   2.320   5.386  0.7681  0.7025  0.7338
 8297SOL    HW236351   0.932   2.213   5.457 -0.0567 -0.0237  0.8527
 8298SOL     OW36352   0.667   0.827   5.228  0.0623  0.1638 -0.1747
 8298SOL    HW136353   0.681   0.921   5.244 -2.0137  0.5248 -0.4641
 8298SOL    HW236354   0.752   0.788   5.206 -0.2167  0.9943 -2.8091
 8299SOL     OW36355   3.738   1.583   4.656 -0.3330 -0.0708  0.6141
 8299SOL    HW136356   3.740   1.676   4.630  0.3882 -0.3443 -0.3127
 8299SOL    HW236357   3.679   1.588   4.731 -2.1824  0.2911 -0.8553
 8300SOL     OW36358   3.930   2.711   7.673 -0.8586 -0.1560  0.1809
 8300SOL    HW136359   4.000   2.751   7.724  0.1492 -1.5045 -0.1642
 8300SOL    HW236360   3.927   2.763   7.593 -0.2698  1.4867  1.2291
 8301SOL     OW36361   0.822   0.735   6.785  0.2600  0.1809  0.0318
 8301SOL    HW136362   0.861   0.813   6.823 -0.4294  0.7610 -0.4600
 8301SOL    HW236363   0.795   0.774   6.702 -3.1823  0.8265  1.4271
 8302SOL     OW36364   4.047   1.021   9.629 -0.2213 -0.5422  0.0358
 8302SOL    HW136365   4.107   1.004   9.702 -2.0057 -1.4646  1.2801
 8302SOL    HW236366   4.097   0.986   9.555  0.3516 -0.3489  0.3344
 8303SOL     OW36367   1.065   2.072   7.648  0.2734  0.0559  0.3482
 8303SOL    HW136368   1.154   2.036   7.645 -0.0132 -0.6176 -0.2183
 8303SOL    HW236369   1.081   2.141   7.585  0.0529 -0.2310 -0.0246
 8304SOL     OW36370   2.472   1.795  11.879  0.2620 -0.0761 -0.1528
 8304SOL    HW136371   2.391   1.758  11.914  1.3103 -1.2666  1.0229
 8304SOL    HW236372   2.504   1.727  11.820 -0.9426 -0.4667 -0.3484
 8305SOL     OW36373   0.138   0.258  17.020 -0.3029  0.2054  0.3660
 8305SOL    HW136374   0.205   0.297  16.964 -0.0023 -2.0602 -0.8584
 8305SOL    HW236375   0.077   0.331  17.029 -1.8209 -1.1710  1.2253
 8306SOL     OW36376   1.739   2.412  16.013  0.0830  0.0766  0.7283
 8306SOL    HW136377   1.790   2.440  16.089 -1.4816 -1.2760  2.3036
 8306SOL    HW236378   1.807   2.397  15.948 -0.1721  0.1024  0.4565
 8307SOL     OW36379   3.316   0.112   2.200 -0.3527 -0.4794  0.3168
 8307SOL    HW136380   3.351   0.035   2.246 -0.8612  0.1933  1.8301
 8307SOL    HW236381   3.395   0.166   2.202 -1.7138  1.5514 -1.2630
 8308SOL     OW36382   3.830   2.926  10.763 -0.4533 -0.3094  0.0251
 8308SOL    HW136383   3.750   2.945  10.715  1.1339  0.8461 -2.1927
 8308SOL    HW236384   3.868   2.845  10.728 -1.3396  0.0534 -1.8027
 8309SOL     OW36385   4.694   4.364   6.783  0.7099 -0.5345 -0.4985
 8309SOL    HW136386   4.687   4.457   6.803  0.6118 -0.2881 -1.6944
 8309SOL    HW236387   0.061   4.357   6.814  0.0907 -0.5828  1.2748
 8310SOL     OW36388   3.812   4.714   5.678 -0.5117 -0.0004 -0.8759
 8310SOL    HW136389   3.731   0.035   5.703  0.6452  1.5574  0.1419
 8310SOL    HW236390   3.840   0.040   5.601 -0.4507 -0.6549 -1.2754
 8311SOL     OW36391   1.482   3.120   7.416 -0.2240 -0.3003  0.1567
 8311SOL    HW136392   1.536   3.052   7.457 -1.5007 -0.3319  1.7978
 8311SOL    HW236393   1.455   3.079   7.333 -0.5745 -0.7262  0.4815
 8312SOL     OW36394   3.313   0.451   8.422  0.2971 -0.2244  0.0236
 8312SOL    HW136395   3.230   0.488   8.394  1.6871  0.6641 -2.9397
 8312SOL    HW236396   3.317   0.478   8.514  1.7091  2.4334 -0.8018
 8313SOL     OW36397   2.592   1.114   5.594  0.4142 -0.4498  0.5303
 8313SOL    HW136398   2.587   1.024   5.563  0.7817  0.2397 -1.4959
 8313SOL    HW236399   2.670   1.135   5.543 -1.2169  4.4514  0.0922
 8314SOL     OW36400   1.860   1.925  10.050 -0.9323 -0.2106  0.0123
 8314SOL    HW136401   1.830   1.841  10.084  5.0962 -0.9803  3.3745
 8314SOL    HW236402   1.790   1.943   9.987  0.1898  1.0120 -0.8956
 8315SOL     OW36403   3.300   1.243   2.535  0.1383  0.5158  0.2561
 8315SOL    HW136404   3.247   1.254   2.456  0.6456  1.6060  0.0715
 8315SOL    HW236405   3.368   1.310   2.527  0.7284  0.0972  1.8407
 8316SOL     OW36406   2.035   4.569   7.710 -0.6127 -0.0152 -0.9172
 8316SOL    HW136407   2.006   4.586   7.620 -3.8316 -2.4606 -0.3166
 8316SOL    HW236408   1.952   4.579   7.756  0.0382 -0.1668  0.2869
 8317SOL     OW36409   1.349   1.392  14.887  0.1462 -0.7220  0.9689
 8317SOL    HW136410   1.276   1.417  14.831  1.3441  0.7909  0.0927
 8317SOL    HW236411   1.310   1.416  14.971 -0.2523 -0.1257  0.6125
 8318SOL     OW36412   3.377   3.189   5.548 -0.1216  0.7022  0.2026
 8318SOL    HW136413   3.418   3.180   5.462  0.8580  0.7408  0.6628
 8318SOL    HW236414   3.451   3.219   5.601  0.6959 -0.5313 -0.2369
 8319SOL     OW36415   4.257   2.986  16.364  0.1676 -0.4161 -0.4267
 8319SOL    HW136416   4.230   3.052  16.428  1.4143  0.0443 -0.3749
 8319SOL    HW236417   4.267   3.038  16.284  1.4685 -0.3197 -0.2003
 8320SOL     OW36418   4.649   2.969   5.540 -0.2111 -0.0618  0.1176
 8320SOL    HW136419   4.654   2.880   5.576 -0.3065  0.0567  0.4192
 8320SOL    HW236420   4.722   2.969   5.478  1.2058 -1.6439  1.7771
 8321SOL     OW36421   0.565   4.694  11.972  0.2723 -0.2917  0.3350
 8321SOL    HW136422   0.509   0.019  11.912  0.6185  0.0389  0.2756
 8321SOL    HW236423   0.641   0.029  11.964 -1.7408  2.2235 -0.5401
 8322SOL     OW36424   1.715   1.573  15.593  0.1468 -0.3595 -0.3286
 8322SOL    HW136425   1.625   1.562  15.624 -0.2948  1.5886 -0.9202
 8322SOL    HW236426   1.752   1.603  15.676 -0.1146 -2.9944  0.7326
 8323SOL     OW36427   2.679   0.239  13.066  0.8680 -0.0243 -0.2637
 8323SOL    HW136428   2.752   0.238  13.004  1.3136 -0.7469  0.2611
 8323SOL    HW236429   2.685   0.326  13.106  0.8437  0.7793 -2.0338
 8324SOL     OW36430   1.988   2.347   3.999 -0.1128 -0.3426  0.4092
 8324SOL    HW136431   2.035   2.408   4.055  1.7808 -2.0954  0.7394
 8324SOL    HW236432   1.919   2.314   4.056 -1.5141  1.0445 -0.4969
 8325SOL     OW36433   1.112   2.441  16.590  0.1645 -0.1087  0.3179
 8325SOL    HW136434   1.207   2.449  16.600 -0.3768  3.0855  2.8366
 8325SOL    HW236435   1.070   2.521  16.621  1.3664  0.0987  1.4013
 8326SOL     OW36436   0.049   1.641  16.591  0.2266 -0.3983  0.1737
 8326SOL    HW136437   0.100   1.637  16.672 -1.2152 -1.1000  1.0590
 8326SOL    HW236438   4.704   1.705  16.613 -0.6059 -1.3966  0.5620
 8327SOL     OW36439   2.976   3.740   3.428  0.4734  0.4870 -0.5730
 8327SOL    HW136440   2.957   3.701   3.513 -0.8691  0.4120 -0.9001
 8327SOL    HW236441   3.002   3.662   3.379  1.5869 -0.9438  2.3512
 8328SOL     OW36442   3.573   0.262   6.971 -0.0009 -0.7474  0.5424
 8328SOL    HW136443   3.604   0.349   6.948 -0.5803 -0.2930  1.4850
 8328SOL    HW236444   3.487   0.262   6.929 -0.0673  2.0416  0.6925
 8329SOL     OW36445   3.102   3.472  17.417  0.1313 -0.7563 -0.0927
 8329SOL    HW136446   3.091   3.496  17.509  1.6461 -0.4411  0.0090
 8329SOL    HW236447   3.010   3.459  17.395 -0.0103  2.8718 -1.6346
 8330SOL     OW36448   0.635   2.624   8.617 -0.0442 -0.6445  0.2970
 8330SOL    HW136449   0.700   2.583   8.560 -1.5787 -0.5988 -1.5046
 8330SOL    HW236450   0.573   2.552   8.624 -1.7964  0.8804  0.5020
 8331SOL     OW36451   1.876   2.462   3.785  0.5664  0.2853  0.2416
 8331SOL    HW136452   1.802   2.426   3.736  1.0179 -1.2258  0.6607
 8331SOL    HW236453   1.911   2.392   3.841  1.8069  0.1065 -0.7592
 8332SOL     OW36454   0.203   3.431   3.193  0.0653 -0.5559  0.0152
 8332SOL    HW136455   0.202   3.526   3.179 -0.6078 -0.8640 -2.0601
 8332SOL    HW236456   0.298   3.419   3.185 -0.1668 -2.1519 -0.2813
 8333SOL     OW36457   4.295   3.039   8.351  0.2506 -0.2468  0.1170
 8333SOL    HW136458   4.364   3.100   8.323 -1.2434  0.8099 -1.2694
 8333SOL    HW236459   4.277   2.985   8.273  0.2162  0.6182 -0.4693
 8334SOL     OW36460   0.676   2.020   9.585 -0.1284  0.1633  0.0179
 8334SOL    HW136461   0.759   2.065   9.570  1.6342 -2.8666  0.6287
 8334SOL    HW236462   0.655   2.054   9.672 -2.1102 -1.6040  0.2213
 8335SOL     OW36463   4.491   4.116   8.448  0.1518  0.2889 -0.5480
 8335SOL    HW136464   4.563   4.103   8.386 -1.0741  1.0503 -2.1244
 8335SOL    HW236465   4.532   4.102   8.534 -1.2884 -0.3060  0.0413
 8336SOL     OW36466   3.773   3.983   3.927  0.6359 -0.5483 -0.1768
 8336SOL    HW136467   3.784   4.075   3.950 -0.0464 -0.5262  0.0428
 8336SOL    HW236468   3.686   3.971   3.965  0.5105 -1.3976 -0.7153
 8337SOL     OW36469   1.914   3.288  16.855 -0.2112 -0.5754 -0.0748
 8337SOL    HW136470   1.885   3.276  16.946  2.0711  0.5462  0.7999
 8337SOL    HW236471   1.833   3.252  16.820 -0.6014  0.7554 -0.5380
 8338SOL     OW36472   1.454   4.275   0.935  0.0822 -0.4954 -0.3321
 8338SOL    HW136473   1.412   4.198   0.895 -0.5310 -1.1065  1.5039
 8338SOL    HW236474   1.473   4.239   1.022 -1.0569  0.1370  0.1807
 8339SOL     OW36475   0.280   4.150  16.979  0.1297 -0.0713 -0.1861
 8339SOL    HW136476   0.189   4.122  16.965 -0.0360  0.0507  0.5977
 8339SOL    HW236477   0.307   4.146  16.888  0.2538 -0.3924 -0.1361
 8340SOL     OW36478   2.512   0.057  15.075 -0.0541 -0.0734 -0.2507
 8340SOL    HW136479   2.590   0.106  15.099 -1.4395  2.2073 -0.4431
 8340SOL    HW236480   2.541   4.691  15.091  0.3385 -0.4106 -2.8158
 8341SOL     OW36481   2.286   2.037   3.209  0.2103  0.0562  0.1369
 8341SOL    HW136482   2.364   2.018   3.157 -0.0704 -0.6710 -0.0234
 8341SOL    HW236483   2.265   2.125   3.178  0.6378  0.4204  0.8823
 8342SOL     OW36484   3.073   3.452   2.890  0.4093  0.5581 -0.1749
 8342SOL    HW136485   3.036   3.430   2.804 -2.6949  2.1370  0.7601
 8342SOL    HW236486   3.053   3.545   2.895  0.6721  0.7356 -2.3947
 8343SOL     OW36487   1.014   0.852   4.009  0.2022 -0.1397  0.0620
 8343SOL    HW136488   1.013   0.931   4.063 -0.0154 -1.1380  1.5150
 8343SOL    HW236489   0.950   0.872   3.941  0.4930 -1.3573 -0.5568
 8344SOL     OW36490   1.066   2.002   3.364  0.0570 -0.1943 -0.2284
 8344SOL    HW136491   1.079   1.946   3.288  0.8596 -0.4873  0.1314
 8344SOL    HW236492   1.110   2.078   3.325 -1.1983 -0.0372 -1.3594
 8345SOL     OW36493   2.062   2.519   4.227  0.2544  0.1867 -0.1635
 8345SOL    HW136494   1.993   2.486   4.284  0.4077 -1.5867 -0.9947
 8345SOL    HW236495   2.078   2.603   4.270 -1.2437  0.0938  0.5681
 8346SOL     OW36496   1.194   3.340  15.813 -0.3746 -0.4991  0.9746
 8346SOL    HW136497   1.225   3.363  15.726  1.6356 -0.6509  1.6573
 8346SOL    HW236498   1.102   3.314  15.801  0.4839 -1.3869 -3.3584
 8347SOL     OW36499   2.736   2.156   4.983 -0.1934 -0.5142 -0.6325
 8347SOL    HW136500   2.751   2.215   5.057 -2.5549 -0.9555  0.1867
 8347SOL    HW236501   2.645   2.133   4.998  0.5751 -0.8178  3.6424
 8348SOL     OW36502   1.101   1.554   8.660 -0.5642  0.1573 -0.0366
 8348SOL    HW136503   1.032   1.610   8.623 -1.8762  0.1364  2.3670
 8348SOL    HW236504   1.093   1.484   8.596 -1.1187 -0.6797  0.9393
 8349SOL     OW36505   3.598   2.925   5.008 -0.1035 -0.0602  0.3085
 8349SOL    HW136506   3.682   2.940   5.052  1.3122 -1.3319 -1.9257
 8349SOL    HW236507   3.547   3.002   5.033  0.5007 -0.2313  2.0320
 8350SOL     OW36508   2.959   2.826  13.533  0.4770  0.1992 -0.2710
 8350SOL    HW136509   2.918   2.786  13.610  1.7731 -0.5815  0.0253
 8350SOL    HW236510   2.914   2.910  13.529 -0.7712 -0.4688 -0.2947
 8351SOL     OW36511   4.327   1.520   8.588 -0.0605 -0.0897 -0.1174
 8351SOL    HW136512   4.389   1.454   8.617  0.1319  0.3058  0.3685
 8351SOL    HW236513   4.381   1.549   8.514 -0.3007 -0.3866 -0.4091
 8352SOL     OW36514   2.254   4.654  13.093  0.1072  0.1279 -0.2803
 8352SOL    HW136515   2.333   4.684  13.048 -0.3318 -0.4972 -1.4868
 8352SOL    HW236516   2.278   4.654  13.185 -0.4012  1.2392 -0.1480
 8353SOL     OW36517   0.334   0.159   2.471 -0.3283  0.7532  0.7871
 8353SOL    HW136518   0.315   0.250   2.492  2.5969  1.9162 -1.6147
 8353SOL    HW236519   0.354   0.126   2.558 -0.3249 -1.3563 -0.0101
 8354SOL     OW36520   0.255   2.447  17.176  0.2714 -0.1136 -0.2743
 8354SOL    HW136521   0.325   2.511  17.163  1.3068 -1.2449 -0.2660
 8354SOL    HW236522   0.282   2.362  17.143  0.5750  0.1121 -0.6028
 8355SOL     OW36523   0.460   4.314   4.808 -0.2606  0.2641 -0.1040
 8355SOL    HW136524   0.510   4.249   4.858  1.3291  0.2216 -1.7303
 8355SOL    HW236525   0.394   4.330   4.875  0.5942 -0.6442  0.9624
 8356SOL     OW36526   3.341   3.406   2.928  0.2380 -0.4375 -0.0098
 8356SOL    HW136527   3.247   3.426   2.920 -0.0386 -0.5554  2.7689
 8356SOL    HW236528   3.340   3.338   2.862  1.3953 -1.7617  1.3403
 8357SOL     OW36529   0.869   2.796   9.221  0.4182  0.3553 -0.1902
 8357SOL    HW136530   0.937   2.803   9.287  1.6880 -1.9471 -1.2740
 8357SOL    HW236531   0.791   2.819   9.272  0.0271 -0.1119 -0.5842
 8358SOL     OW36532   4.195   3.439   3.562 -0.7579  0.4466 -0.0190
 8358SOL    HW136533   4.272   3.491   3.539 -1.8353  2.8763  1.8652
 8358SOL    HW236534   4.223   3.355   3.525 -2.7841 -0.0092 -0.5243
 8359SOL     OW36535   0.236   1.350   2.977 -0.5474  0.2214  0.2250
 8359SOL    HW136536   0.144   1.353   2.950  0.0146 -1.5770 -1.8789
 8359SOL    HW236537   0.285   1.302   2.910  0.6704 -0.2043  1.4351
 8360SOL     OW36538   2.471   4.420   5.321  0.1977 -0.0692  0.1313
 8360SOL    HW136539   2.556   4.453   5.351  0.5842  0.9340 -2.0596
 8360SOL    HW236540   2.501   4.390   5.235  0.6594  1.7516 -0.3574
 8361SOL     OW36541   0.269   4.680   3.532  0.2711  0.1722  0.1928
 8361SOL    HW136542   0.272   4.613   3.601  0.5404 -0.2366 -0.2129
 8361SOL    HW236543   0.234   0.032   3.579  0.3806  1.9224 -2.5522
 8362SOL     OW36544   0.963   2.419  11.887  0.1353  0.1994 -0.1466
 8362SOL    HW136545   0.923   2.354  11.945  0.4050 -0.1662 -0.3658
 8362SOL    HW236546   0.889   2.450  11.835 -0.3420 -0.6963 -0.0020
 8363SOL     OW36547   3.690   1.838   2.688 -0.2474  0.2967 -0.2884
 8363SOL    HW136548   3.779   1.822   2.721  0.3252 -0.0413 -2.0224
 8363SOL    HW236549   3.706   1.916   2.635 -0.3676  0.3672 -0.2205
 8364SOL     OW36550   3.968   3.015   8.365  0.3737 -0.2382 -0.0417
 8364SOL    HW136551   3.956   3.038   8.273 -1.0657 -0.1183  0.1845
 8364SOL    HW236552   4.060   2.989   8.373  1.1033  2.2598 -0.3872
 8365SOL     OW36553   3.317   2.556   2.161 -0.4396  0.3185  0.1784
 8365SOL    HW136554   3.292   2.464   2.171  1.5419 -0.0269  1.9539
 8365SOL    HW236555   3.298   2.571   2.069 -0.9541 -0.4304  0.1688
 8366SOL     OW36556   0.252   0.189   3.751  0.0621 -0.2029 -0.1784
 8366SOL    HW136557   0.307   0.267   3.749 -0.4842  0.1430 -1.7541
 8366SOL    HW236558   0.169   0.224   3.781 -0.6004 -2.8932  1.1392
 8367SOL     OW36559   2.565   0.299   3.535  0.0427  0.0480  0.0648
 8367SOL    HW136560   2.567   0.385   3.577 -1.0879 -1.1229  2.5553
 8367SOL    HW236561   2.656   0.282   3.559  0.1006 -0.2789 -0.3968
 8368SOL     OW36562   2.506   1.216   6.621  0.6329 -0.4034 -0.1161
 8368SOL    HW136563   2.436   1.226   6.555  0.7208 -1.8049 -0.4211
 8368SOL    HW236564   2.572   1.271   6.578 -2.6767  3.0005 -0.8614
 8369SOL     OW36565   0.512   2.163  10.819 -0.2139 -0.0474 -0.0554
 8369SOL    HW136566   0.447   2.094  10.826 -2.1764  1.6683 -1.2642
 8369SOL    HW236567   0.520   2.181  10.913 -1.0600  0.4235 -0.0774
 8370SOL     OW36568   4.306   0.837   5.915 -0.1836 -0.0130  0.0796
 8370SOL    HW136569   4.368   0.885   5.860  0.1071  1.1261  1.4235
 8370SOL    HW236570   4.235   0.830   5.851 -0.6344  0.6011  0.5155
 8371SOL     OW36571   4.096   4.429   2.443  0.2955  0.3401 -0.1755
 8371SOL    HW136572   4.069   4.337   2.439  2.2450 -0.3225  1.6578
 8371SOL    HW236573   4.017   4.477   2.468  1.1168  0.4678  2.2359
 8372SOL     OW36574   1.921   0.777  15.660 -0.4581 -0.2787  0.0345
 8372SOL    HW136575   1.967   0.753  15.740  1.2007 -0.5972 -1.0151
 8372SOL    HW236576   1.910   0.694  15.613  2.2489  0.1649 -1.4188
 8373SOL     OW36577   1.948   3.468   0.332  0.6578 -1.0783  0.0423
 8373SOL    HW136578   1.923   3.378   0.310 -0.6422 -0.2195 -1.9381
 8373SOL    HW236579   1.996   3.488   0.251 -0.2534 -1.2754 -0.5444
 8374SOL     OW36580   3.939   1.269   3.155  0.1350 -0.3456 -0.3958
 8374SOL    HW136581   3.980   1.340   3.205 -0.8070  0.4183 -0.7213
 8374SOL    HW236582   3.989   1.197   3.195 -0.3587 -0.2671  0.3541
 8375SOL     OW36583   3.788   1.880   9.120  0.4318 -0.2065 -0.8968
 8375SOL    HW136584   3.741   1.892   9.202  0.3311  0.4568 -1.0484
 8375SOL    HW236585   3.724   1.831   9.069  1.1820 -0.6966 -1.3626
 8376SOL     OW36586   1.110   1.410   0.993 -0.0474  0.0913 -0.3948
 8376SOL    HW136587   1.066   1.438   0.912  0.3153 -1.9383 -1.2929
 8376SOL    HW236588   1.176   1.479   0.985 -0.8621  0.7377 -1.5521
 8377SOL     OW36589   0.231   1.580   3.867  0.5469 -0.1691  0.6532
 8377SOL    HW136590   0.270   1.493   3.863  2.1936  0.5501  1.2029
 8377SOL    HW236591   0.307   1.627   3.832 -1.4870  2.7034  0.1030
 8378SOL     OW36592   1.723   4.308  11.154  0.3008  0.0738  0.1872
 8378SOL    HW136593   1.769   4.281  11.074  1.4228  0.7957  0.5778
 8378SOL    HW236594   1.792   4.306  11.221  0.0590  0.7526  0.4516
 8379SOL     OW36595   1.653   0.193  11.230  0.1542  0.1068 -0.1653
 8379SOL    HW136596   1.695   0.242  11.300  0.2266  2.1948 -1.6673
 8379SOL    HW236597   1.564   0.205  11.264  0.6438  3.6817 -0.1254
 8380SOL     OW36598   4.568   0.740   3.526 -0.3656  0.0730 -0.2090
 8380SOL    HW136599   4.653   0.782   3.544  0.0317 -1.3808  1.2823
 8380SOL    HW236600   4.524   0.801   3.467 -1.0055  0.6673  0.8904
 8381SOL     OW36601   2.083   0.685   6.620  0.1597 -0.1121 -0.1625
 8381SOL    HW136602   2.033   0.690   6.702 -0.3685 -3.1806 -0.2943
 8381SOL    HW236603   2.170   0.715   6.645 -0.0213 -0.0879  0.4368
 8382SOL     OW36604   4.176   0.625   6.410  0.2197  0.2076  0.2066
 8382SOL    HW136605   4.111   0.573   6.363  1.2692  0.3484 -1.3951
 8382SOL    HW236606   4.200   0.680   6.335 -2.2632  2.1525  0.8228
 8383SOL     OW36607   4.701   0.568   5.928 -0.0330  0.3820  0.2371
 8383SOL    HW136608   4.718   0.493   5.871 -0.9236  1.9548 -2.0661
 8383SOL    HW236609   4.612   0.538   5.951  0.2363 -0.8442 -0.2996
 8384SOL     OW36610   2.964   0.094   7.199 -0.6745  0.0160 -0.1579
 8384SOL    HW136611   2.933   0.113   7.288 -0.2278  0.9464 -0.1926
 8384SOL    HW236612   2.949   0.171   7.144 -1.6256 -0.0069  0.0630
 8385SOL     OW36613   0.211   3.947   7.176 -0.5043  0.2186 -0.9442
 8385SOL    HW136614   0.137   3.988   7.221 -0.3604  0.4886 -0.9479
 8385SOL    HW236615   0.198   3.853   7.176 -0.6164  0.2191  2.5093
 8386SOL     OW36616   2.520   0.705   9.229 -0.1111 -0.3269 -0.3982
 8386SOL    HW136617   2.535   0.788   9.184  0.7706  1.4303  3.1071
 8386SOL    HW236618   2.452   0.669   9.172  0.3137 -3.1633  0.9075
 8387SOL     OW36619   3.944   1.096   5.442  0.1988  0.0436  0.1509
 8387SOL    HW136620   3.974   1.052   5.362 -0.0070 -2.0413  1.2326
 8387SOL    HW236621   3.925   1.184   5.408  0.8525  0.0194 -0.2736
 8388SOL     OW36622   3.569   1.936   4.751 -0.2380 -0.1369  0.4505
 8388SOL    HW136623   3.623   1.905   4.678  1.4234  1.6425  0.9240
 8388SOL    HW236624   3.580   2.029   4.732 -2.6643  0.5938  2.6630
 8389SOL     OW36625   3.373   0.986   8.046  0.8100 -0.3428  0.2842
 8389SOL    HW136626   3.407   0.904   8.011  0.5904 -1.1786  2.0481
 8389SOL    HW236627   3.292   0.951   8.082  0.7743  0.2894  0.8155
 8390SOL     OW36628   1.866   2.820   8.290  0.6809  0.5808  0.4343
 8390SOL    HW136629   1.805   2.851   8.224  0.5933  0.9976  0.7109
 8390SOL    HW236630   1.862   2.724   8.284 -1.7092  0.6210  1.1062
 8391SOL     OW36631   1.823   4.490   4.530 -0.3635  0.3642  0.8226
 8391SOL    HW136632   1.771   4.540   4.592 -1.7545  0.8165 -0.7283
 8391SOL    HW236633   1.873   4.431   4.586 -1.8751 -1.2900  0.4258
 8392SOL     OW36634   2.683   2.462   0.527  0.2420  0.1451  0.1655
 8392SOL    HW136635   2.772   2.497   0.534  0.1781  0.1081  1.0957
 8392SOL    HW236636   2.630   2.503   0.595 -1.6197  0.2855 -1.3749
 8393SOL     OW36637   2.865   3.694   5.908  0.4719  0.5884  0.1246
 8393SOL    HW136638   2.784   3.723   5.864  0.4062  0.2771  0.0404
 8393SOL    HW236639   2.872   3.607   5.869 -2.1814  0.0578  0.8213
 8394SOL     OW36640   1.817   4.271   4.021  0.0222  0.3572  0.0196
 8394SOL    HW136641   1.782   4.354   4.053  2.5834  1.2466  0.4352
 8394SOL    HW236642   1.892   4.290   3.966 -0.9876 -0.9050 -1.7899
 8395SOL     OW36643   4.310   0.198   1.199  0.3099 -0.3343 -0.2439
 8395SOL    HW136644   4.247   0.131   1.170 -2.2938  2.4160 -0.9202
 8395SOL    HW236645   4.288   0.263   1.133 -0.7603 -0.5217 -0.0676
 8396SOL     OW36646   2.028   2.641   9.436 -0.3400 -0.2657  0.3855
 8396SOL    HW136647   2.112   2.616   9.396 -0.5159 -2.4873  1.4245
 8396SOL    HW236648   1.981   2.568   9.395  0.2353  0.7709 -2.1422
 8397SOL     OW36649   2.664   2.476  16.086 -0.7954 -0.0912  0.1446
 8397SOL    HW136650   2.656   2.522  16.002  0.9263 -0.4218 -0.1899
 8397SOL    HW236651   2.711   2.395  16.068 -1.8791 -0.4765 -1.0173
 8398SOL     OW36652   3.768   4.706  17.070  0.8305 -0.0753  0.1970
 8398SOL    HW136653   3.824   4.658  17.132  1.2075 -1.5679 -1.2962
 8398SOL    HW236654   3.758   0.068  17.111  0.3332  0.2136 -0.5290
 8399SOL     OW36655   0.685   1.335   4.318  0.1780 -0.2450 -0.1499
 8399SOL    HW136656   0.766   1.289   4.338  1.5118  2.1766  0.0741
 8399SOL    HW236657   0.621   1.264   4.320  1.4179 -1.2796  3.6755
 8400SOL     OW36658   3.100   3.444   0.654 -0.2728 -0.0666  0.4466
 8400SOL    HW136659   3.111   3.388   0.731  3.3907 -1.1319 -0.9048
 8400SOL    HW236660   3.092   3.529   0.697 -1.9780 -0.1813  0.3904
 8401SOL     OW36661   1.119   2.138  11.704  0.0993  0.7303  0.1330
 8401SOL    HW136662   1.119   2.086  11.623 -2.2327  1.8912 -0.6135
 8401SOL    HW236663   1.189   2.199  11.682 -1.6609  2.6677 -0.0671
 8402SOL     OW36664   1.788   1.912   3.032 -0.1532 -0.2745 -0.0341
 8402SOL    HW136665   1.850   1.951   2.970 -1.8077  1.2048 -0.7525
 8402SOL    HW236666   1.707   1.946   2.993  0.4233  2.0612  0.7811
 8403SOL     OW36667   2.670   1.663   5.811  0.4176  0.2385  0.1237
 8403SOL    HW136668   2.581   1.651   5.777  0.7030 -1.4023 -0.0694
 8403SOL    HW236669   2.655   1.662   5.906  0.1643 -0.5470  0.0749
 8404SOL     OW36670   1.195   0.947   1.820 -0.0393  0.2532  0.2924
 8404SOL    HW136671   1.246   1.012   1.870  1.1251 -0.3922 -0.0643
 8404SOL    HW236672   1.107   0.984   1.815 -0.2024  0.1034  1.8646
 8405SOL     OW36673   3.975   0.711   4.993 -0.5405  0.6017 -0.1096
 8405SOL    HW136674   3.990   0.637   5.052 -2.2329 -2.2627 -3.2956
 8405SOL    HW236675   4.065   0.727   4.965 -0.2774  0.3216  0.5753
 8406SOL     OW36676   4.668   4.550   5.100 -0.0205 -0.5940 -0.3955
 8406SOL    HW136677   4.690   4.479   5.160 -0.8732 -2.0258 -1.7808
 8406SOL    HW236678   4.574   4.552   5.118  0.2554  0.6022  0.9654
 8407SOL     OW36679   1.300   3.027   4.730 -0.4234 -0.5824  0.1302
 8407SOL    HW136680   1.387   3.007   4.697  0.4582  2.1218  0.7986
 8407SOL    HW236681   1.327   3.097   4.790 -1.5190 -1.0526  1.1754
 8408SOL     OW36682   2.718   0.413  14.636  0.1249  0.1536 -0.1315
 8408SOL    HW136683   2.761   0.473  14.575  0.3817 -1.1530 -1.2490
 8408SOL    HW236684   2.795   0.370  14.673  0.4323  1.4619  0.7425
 8409SOL     OW36685   0.599   0.484  17.036  0.2818  0.4531  0.1617
 8409SOL    HW136686   0.586   0.495  17.130  0.7344 -0.6390  0.3513
 8409SOL    HW236687   0.568   0.395  17.016  0.0535  0.2414  1.5002
 8410SOL     OW36688   3.376   3.106   3.547 -0.1586 -0.1494  0.3237
 8410SOL    HW136689   3.449   3.127   3.488  0.6441  0.1549  1.4296
 8410SOL    HW236690   3.309   3.085   3.481 -0.0135  0.2780  0.0414
 8411SOL     OW36691   4.060   2.923  10.515  0.4920  0.1080 -0.0337
 8411SOL    HW136692   4.131   2.865  10.545  0.1567  0.3435  1.2314
 8411SOL    HW236693   3.988   2.868  10.547 -0.8520  0.3659 -2.6497
 8412SOL     OW36694   2.336   0.141   3.383  0.0631  0.1148 -0.0878
 8412SOL    HW136695   2.427   0.155   3.357  0.1551  0.6527  0.5293
 8412SOL    HW236696   2.315   0.224   3.427  2.2398  1.0916 -0.8789
 8413SOL     OW36697   3.118   4.193   6.478 -0.0506 -0.0369 -0.1007
 8413SOL    HW136698   3.037   4.209   6.527 -2.7613 -1.4793 -4.0868
 8413SOL    HW236699   3.157   4.142   6.549  0.6268 -0.4821 -0.8059
 8414SOL     OW36700   0.649   4.532  11.145 -0.3036  0.2260 -0.2625
 8414SOL    HW136701   0.560   4.526  11.179 -0.0383  1.6664  0.7260
 8414SOL    HW236702   0.643   4.604  11.082  0.0228  1.6679  1.3396
 8415SOL     OW36703   3.485   4.541   8.202  0.0637 -0.2379  0.0985
 8415SOL    HW136704   3.399   4.523   8.242  0.6958  0.2332  1.6653
 8415SOL    HW236705   3.451   4.594   8.130  1.3672 -0.4644 -0.6704
 8416SOL     OW36706   3.505   1.531  13.209 -0.6642 -0.0942 -0.0667
 8416SOL    HW136707   3.535   1.613  13.249  0.1895 -0.0926 -0.7339
 8416SOL    HW236708   3.468   1.490  13.287  1.2175  0.1724  0.9740
 8417SOL     OW36709   2.968   1.343   7.479 -0.4695  0.2397 -0.2786
 8417SOL    HW136710   2.967   1.425   7.430  2.4787  0.3125 -0.2226
 8417SOL    HW236711   2.917   1.281   7.427  2.1379 -1.8899 -0.2788
 8418SOL     OW36712   3.612   3.546   4.186 -0.0648 -0.1788  0.4789
 8418SOL    HW136713   3.626   3.456   4.156  0.8306 -0.4169  1.5953
 8418SOL    HW236714   3.695   3.570   4.227 -0.7816  0.2255  1.6880
 8419SOL     OW36715   4.132   1.243  12.836  0.3672  0.3918 -0.0096
 8419SOL    HW136716   4.046   1.268  12.804  0.4038 -0.1505 -0.5383
 8419SOL    HW236717   4.131   1.273  12.927  0.0442  1.8315 -0.4841
 8420SOL     OW36718   0.913   4.313   8.847  0.0288  0.3263  0.1201
 8420SOL    HW136719   0.852   4.366   8.796 -2.8311 -0.4623  2.7163
 8420SOL    HW236720   0.976   4.290   8.779 -0.2565  1.0773 -0.3985
 8421SOL     OW36721   2.940   2.074   0.092 -0.4167  0.4804  0.3230
 8421SOL    HW136722   2.931   2.163   0.126  1.6887  0.2481  1.4236
 8421SOL    HW236723   3.015   2.048   0.145  0.7989  2.2230 -0.5382
 8422SOL     OW36724   1.240   1.722   6.421  0.0790  0.2251  0.0829
 8422SOL    HW136725   1.321   1.734   6.372  0.4081 -3.0099 -0.1899
 8422SOL    HW236726   1.260   1.783   6.492  0.3269  1.1319 -0.7728
 8423SOL     OW36727   1.689   0.885   6.063 -0.8121 -0.3691 -0.0148
 8423SOL    HW136728   1.677   0.913   6.154 -0.0793  1.8854 -0.6298
 8423SOL    HW236729   1.601   0.897   6.028  0.2059  1.3604 -1.9481
 8424SOL     OW36730   4.488   1.375   4.000 -0.4071 -0.2533  0.0778
 8424SOL    HW136731   4.479   1.347   4.091  0.2577 -1.2482 -0.1603
 8424SOL    HW236732   4.575   1.340   3.981 -0.3541 -0.9861  1.7053
 8425SOL     OW36733   0.787   3.948  12.559  0.1301 -0.2658  0.5931
 8425SOL    HW136734   0.875   3.957  12.523 -0.4518  2.7195 -0.0679
 8425SOL    HW236735   0.777   3.855  12.577 -0.9210 -0.1060  0.8663
 8426SOL     OW36736   4.046   1.567   3.007 -0.0588 -0.2082 -0.1600
 8426SOL    HW136737   4.079   1.598   3.091 -1.1786  0.1897  0.1289
 8426SOL    HW236738   4.130   1.567   2.960  0.8890 -1.3351  1.5467
 8427SOL     OW36739   1.084   0.921  13.074 -0.6099  0.3415 -0.3588
 8427SOL    HW136740   1.063   0.900  13.165  2.6044 -0.4212  0.2119
 8427SOL    HW236741   1.001   0.957  13.042  0.8720  2.4699 -1.7662
 8428SOL     OW36742   4.506   2.907   0.685 -0.2131 -0.0584  0.5643
 8428SOL    HW136743   4.491   2.818   0.717 -2.7015  0.7656  1.6734
 8428SOL    HW236744   4.425   2.949   0.713 -1.0799  0.2204 -2.3797
 8429SOL     OW36745   0.441   2.367   3.584  0.3736  1.0345  0.2541
 8429SOL    HW136746   0.420   2.344   3.494 -1.3849  0.4057  0.8226
 8429SOL    HW236747   0.530   2.332   3.593  0.7500  2.0539  0.4790
 8430SOL     OW36748   0.328   1.015   1.730 -0.4810 -0.4037  0.2772
 8430SOL    HW136749   0.280   0.943   1.690 -1.5812  0.5760 -0.1703
 8430SOL    HW236750   0.256   1.053   1.779  0.1777 -0.8489  1.5832
 8431SOL     OW36751   4.469   4.571  13.465 -0.4443  0.1395 -0.0841
 8431SOL    HW136752   4.505   4.615  13.388 -0.3131 -0.0818 -0.1521
 8431SOL    HW236753   4.527   4.494  13.460 -0.4103  0.1994 -0.6298
 8432SOL     OW36754   4.425   2.100   6.369  0.3231 -0.1642 -0.5514
 8432SOL    HW136755   4.377   2.077   6.289 -1.6090 -0.9125  0.8450
 8432SOL    HW236756   4.389   2.039   6.433  3.3878  1.8093  3.0601
 8433SOL     OW36757   4.357   0.653  17.171 -0.1297  0.2405  0.5491
 8433SOL    HW136758   4.429   0.626  17.228  0.0342  2.4788  1.3871
 8433SOL    HW236759   4.355   0.574  17.116  1.6897 -0.1988  1.1319
 8434SOL     OW36760   2.638   2.758   6.596  0.0640 -0.0921  0.3473
 8434SOL    HW136761   2.601   2.834   6.639 -0.8900 -1.6736  2.2944
 8434SOL    HW236762   2.559   2.739   6.545  0.9363  0.2793 -1.1566
 8435SOL     OW36763   0.039   0.243   3.118 -0.0985 -0.0077 -0.1825
 8435SOL    HW136764   0.005   0.154   3.105 -1.7844  0.6125 -0.0077
 8435SOL    HW236765   0.056   0.255   3.025  0.0243 -1.9789 -0.4208
 8436SOL     OW36766   2.354   1.730  16.053  0.0542 -0.3167  0.4495
 8436SOL    HW136767   2.377   1.742  15.961 -0.8401 -1.3753  0.0933
 8436SOL    HW236768   2.299   1.652  16.046  1.5735 -1.1384 -2.3588
 8437SOL     OW36769   4.174   0.540   5.744 -0.4209 -0.3126 -0.5052
 8437SOL    HW136770   4.117   0.552   5.819  0.9874  0.8878  0.3687
 8437SOL    HW236771   4.188   0.632   5.723 -0.0437 -0.2275  0.1321
 8438SOL     OW36772   2.254   3.166   2.183 -0.1940  0.3896 -0.0266
 8438SOL    HW136773   2.261   3.145   2.276 -3.2593  1.1789  0.3788
 8438SOL    HW236774   2.159   3.183   2.182 -0.3357 -0.3790  2.4210
 8439SOL     OW36775   1.377   2.647   5.374 -0.3992 -0.0922 -0.8661
 8439SOL    HW136776   1.297   2.696   5.356  0.1742  1.4710  0.7620
 8439SOL    HW236777   1.436   2.716   5.405 -1.4022  0.0190  0.8355
 8440SOL     OW36778   3.631   3.214   0.507 -0.4525 -0.1454 -0.0597
 8440SOL    HW136779   3.578   3.290   0.531 -1.2256 -0.6774 -0.0639
 8440SOL    HW236780   3.714   3.245   0.543 -1.8756  2.3787  1.0874
 8441SOL     OW36781   1.273   2.167   5.307  0.3056 -0.0758  0.3480
 8441SOL    HW136782   1.325   2.112   5.366 -0.8275  0.0918  1.5112
 8441SOL    HW236783   1.293   2.255   5.339 -0.6461  0.3798 -0.3160
 8442SOL     OW36784   4.331   2.311   7.042  0.0364 -0.0446  0.8019
 8442SOL    HW136785   4.328   2.222   7.077  0.4739 -0.2994  0.1869
 8442SOL    HW236786   4.380   2.355   7.112 -1.0142  1.5132  0.5603
 8443SOL     OW36787   0.667   0.017  14.479  0.1487 -0.2436  0.0665
 8443SOL    HW136788   0.630   4.673  14.422 -0.8880 -0.4416  0.9744
 8443SOL    HW236789   0.726   0.053  14.413  0.5160  2.5081  1.9180
 8444SOL     OW36790   1.534   3.434   3.016 -0.0777  0.3205  0.1076
 8444SOL    HW136791   1.455   3.388   3.045  0.1230 -0.5560 -0.7012
 8444SOL    HW236792   1.599   3.368   3.038  0.6165  0.5464 -1.2340
 8445SOL     OW36793   3.386   1.954   8.067  0.0713 -0.0831  0.6529
 8445SOL    HW136794   3.414   2.022   8.128 -2.9623  2.0612 -0.3424
 8445SOL    HW236795   3.295   1.983   8.065 -0.3195 -1.3169  0.4881
 8446SOL     OW36796   2.002   1.260   3.349 -0.8381 -0.0222 -0.0029
 8446SOL    HW136797   2.038   1.275   3.261 -0.8775 -0.2282 -0.0551
 8446SOL    HW236798   1.931   1.324   3.358 -1.7245 -1.3325  2.3614
 8447SOL     OW36799   1.593   1.113   8.810 -0.3425 -0.9567 -0.2132
 8447SOL    HW136800   1.567   1.047   8.746  3.7357 -1.2675 -1.5170
 8447SOL    HW236801   1.688   1.104   8.806 -0.1380  0.7893  0.6067
 8448SOL     OW36802   1.602   2.327   8.097 -0.0609  0.4817  0.6259
 8448SOL    HW136803   1.523   2.309   8.045 -0.5329 -1.7510  2.1152
 8448SOL    HW236804   1.669   2.276   8.052  0.6647  1.8211  0.1787
 8449SOL     OW36805   2.047   3.554   3.408 -0.0970 -0.0351 -0.0045
 8449SOL    HW136806   1.958   3.547   3.376 -0.6738 -0.1206  1.6119
 8449SOL    HW236807   2.054   3.648   3.423  0.6592  0.0371 -0.8151
 8450SOL     OW36808   2.037   3.206   4.426 -0.4245 -0.0736 -0.6579
 8450SOL    HW136809   2.116   3.200   4.371 -1.3003  0.1157 -1.9291
 8450SOL    HW236810   2.049   3.298   4.450 -1.7942 -0.4315  1.3148
 8451SOL     OW36811   4.245   2.584   7.411  0.6077 -0.5353 -0.3197
 8451SOL    HW136812   4.191   2.506   7.403 -4.0229  2.5031  1.6727
 8451SOL    HW236813   4.257   2.580   7.506 -1.6972 -1.8208 -0.0821
 8452SOL     OW36814   2.116   4.135   4.377 -0.3370 -0.1320  0.5449
 8452SOL    HW136815   2.072   4.052   4.357 -0.3710  0.3018 -1.2084
 8452SOL    HW236816   2.193   4.094   4.417 -0.9981 -2.2593 -0.3305
 8453SOL     OW36817   4.337   0.048  16.165 -0.8050  0.3170  0.9909
 8453SOL    HW136818   4.384   0.121  16.204 -0.4254  0.4175  0.3415
 8453SOL    HW236819   4.320   4.714  16.240 -0.5275  0.1512  0.9287
 8454SOL     OW36820   1.500   3.395   4.807  0.4789  0.1853  0.0447
 8454SOL    HW136821   1.458   3.315   4.837  5.5468 -1.5147  2.6878
 8454SOL    HW236822   1.577   3.360   4.761  0.6150 -0.8882  1.0878
 8455SOL     OW36823   3.785   1.763  10.166  0.0271 -0.5564  0.0435
 8455SOL    HW136824   3.696   1.735  10.187  0.1302 -2.3796 -1.9344
 8455SOL    HW236825   3.796   1.691  10.104 -1.2661 -0.5382 -0.2042
 8456SOL     OW36826   4.650   3.661   6.287 -0.4423  0.2366  0.7781
 8456SOL    HW136827   4.711   3.600   6.327  1.0156  1.5294  0.5426
 8456SOL    HW236828   4.572   3.647   6.341 -1.3183  2.0291  0.0057
 8457SOL     OW36829   2.738   4.029   5.378 -0.1689 -0.7031 -0.5859
 8457SOL    HW136830   2.748   4.097   5.445  1.1363 -0.9612 -0.5304
 8457SOL    HW236831   2.752   4.082   5.299  1.1581 -1.0634 -0.5878
 8458SOL     OW36832   0.900   2.006   8.476 -0.0770  0.1610 -0.6638
 8458SOL    HW136833   0.917   2.028   8.568  0.8147 -1.4084 -0.4514
 8458SOL    HW236834   0.808   1.981   8.489  0.2858 -1.0538 -0.3805
 8459SOL     OW36835   0.262   2.155   6.117 -0.0857 -0.2638 -0.0995
 8459SOL    HW136836   0.226   2.086   6.062  1.9132 -0.9771 -0.5147
 8459SOL    HW236837   0.194   2.221   6.104 -1.0771 -0.8841  2.0451
 8460SOL     OW36838   2.083   1.590   8.182  0.7886  0.4370  0.2353
 8460SOL    HW136839   2.030   1.520   8.220  2.2786 -1.2956 -0.8928
 8460SOL    HW236840   2.087   1.638   8.265  0.0075 -2.6828  2.0917
 8461SOL     OW36841   2.686   3.998   3.657 -0.0157  0.1452  0.3970
 8461SOL    HW136842   2.725   4.079   3.625 -0.1842  0.3192  0.6295
 8461SOL    HW236843   2.662   3.961   3.572 -2.1711  0.8165  0.6969
 8462SOL     OW36844   3.915   3.528   4.245 -0.6781  0.0622 -0.3894
 8462SOL    HW136845   3.888   3.444   4.284  2.7537 -0.9411 -0.2172
 8462SOL    HW236846   4.006   3.514   4.219 -0.8371  0.5913 -1.2157
 8463SOL     OW36847   3.214   2.626   1.897  0.1848 -0.3020  0.2016
 8463SOL    HW136848   3.302   2.611   1.863  0.2557  1.1596 -0.2612
 8463SOL    HW236849   3.188   2.700   1.842 -0.4440  0.8354  2.0377
 8464SOL     OW36850   2.614   0.874   3.070  0.2131 -0.0651  0.0751
 8464SOL    HW136851   2.538   0.929   3.051  0.3953  1.0622  2.5306
 8464SOL    HW236852   2.600   0.798   3.014 -2.1223  0.0439  0.5094
 8465SOL     OW36853   4.432   0.630   6.844 -0.7430  0.1453 -0.8334
 8465SOL    HW136854   4.377   0.685   6.787 -0.5299 -0.5553 -1.7047
 8465SOL    HW236855   4.423   0.660   6.935 -1.0304 -0.5679 -0.6325
 8466SOL     OW36856   4.093   1.680   8.215 -0.2026  0.0912 -0.5806
 8466SOL    HW136857   4.101   1.627   8.136  0.6535  0.3649 -0.6830
 8466SOL    HW236858   4.151   1.753   8.192  1.6570 -1.1828  0.1481
 8467SOL     OW36859   4.257   0.301   3.104 -0.0859 -0.1621  0.1973
 8467SOL    HW136860   4.320   0.288   3.175  1.0996 -0.7540 -0.9732
 8467SOL    HW236861   4.259   0.397   3.112  0.0670 -0.1791  0.3631
 8468SOL     OW36862   1.174   4.493   9.238 -0.5553  0.3525  0.3363
 8468SOL    HW136863   1.242   4.496   9.170  0.4065 -1.9185  1.2059
 8468SOL    HW236864   1.184   4.400   9.258  1.3076  0.0242 -2.0872
 8469SOL     OW36865   4.132   4.059   9.077 -0.4575  0.1548 -0.0476
 8469SOL    HW136866   4.182   3.993   9.126 -0.0762  0.5382  0.0798
 8469SOL    HW236867   4.207   4.117   9.069 -0.8574  0.8953  1.5249
 8470SOL     OW36868   0.511   1.271   0.723  0.0938 -0.1528  0.1179
 8470SOL    HW136869   0.475   1.358   0.740  0.4924  0.3552 -1.7075
 8470SOL    HW236870   0.601   1.295   0.701  0.1273  2.1484  2.7345
 8471SOL     OW36871   2.063   3.349  15.483 -0.1044  0.3708  0.0727
 8471SOL    HW136872   2.125   3.279  15.464  0.6215  0.8435  0.7061
 8471SOL    HW236873   2.125   3.414  15.517  2.7812 -2.2226 -0.2739
 8472SOL     OW36874   4.005   2.496   2.322  0.5031 -0.8226  0.4358
 8472SOL    HW136875   3.910   2.507   2.327  1.1021  3.5513  2.1224
 8472SOL    HW236876   4.021   2.484   2.228  2.3514  0.5975  0.5580
 8473SOL     OW36877   4.121   2.811   6.700 -0.4043 -0.4125  0.1057
 8473SOL    HW136878   4.119   2.863   6.620  2.5658 -0.3626  0.0753
 8473SOL    HW236879   4.215   2.809   6.718  0.1584  0.7788 -2.7793
 8474SOL     OW36880   3.595   4.172   1.337 -0.4695  0.0952 -0.0539
 8474SOL    HW136881   3.643   4.182   1.420 -0.3267  1.1251 -0.2632
 8474SOL    HW236882   3.508   4.162   1.374 -1.2914 -0.6246 -2.1960
 8475SOL     OW36883   2.512   0.140   2.406  0.0934  0.1059 -0.4517
 8475SOL    HW136884   2.580   0.119   2.470  0.0065 -2.2886 -1.1191
 8475SOL    HW236885   2.556   0.213   2.363  0.2244 -0.0363 -0.5581
 8476SOL     OW36886   1.596   3.727  15.156 -0.1337  0.3134  0.2937
 8476SOL    HW136887   1.656   3.801  15.161  0.4725 -0.0446 -1.3058
 8476SOL    HW236888   1.550   3.737  15.239 -0.1218  1.4007  0.1693
 8477SOL     OW36889   2.988   4.581   1.821  0.3808 -0.3609 -0.0909
 8477SOL    HW136890   3.023   4.498   1.787  0.9715 -0.3432  0.4596
 8477SOL    HW236891   3.041   4.600   1.898  0.4715 -0.0809 -0.2232
 8478SOL     OW36892   3.075   0.201  10.290 -0.1658  0.7117 -0.5428
 8478SOL    HW136893   3.052   0.189  10.198  1.1462  0.3723 -0.8252
 8478SOL    HW236894   2.998   0.247  10.323 -0.4887 -1.7143  2.0769
 8479SOL     OW36895   3.540   3.036   0.902 -0.5395 -0.0204  0.4525
 8479SOL    HW136896   3.506   3.107   0.847 -2.0501 -0.7028  0.5003
 8479SOL    HW236897   3.617   3.014   0.850 -1.2552  0.1492 -0.6778
 8480SOL     OW36898   1.798   2.231   4.135  0.3775  0.2832 -0.1692
 8480SOL    HW136899   1.843   2.230   4.219 -0.3331 -0.0558  0.2036
 8480SOL    HW236900   1.720   2.283   4.155  0.6669  0.5835  0.1705
 8481SOL     OW36901   3.705   3.213   7.064 -0.4399  0.3805 -0.3023
 8481SOL    HW136902   3.656   3.151   7.118  0.1628  0.0817 -0.1015
 8481SOL    HW236903   3.667   3.194   6.979  1.6619 -0.7761 -0.9713
 8482SOL     OW36904   3.416   3.509   4.624  0.4628 -0.3378 -0.0037
 8482SOL    HW136905   3.399   3.502   4.530 -1.1072 -1.0475  0.3398
 8482SOL    HW236906   3.459   3.424   4.637  2.5609  0.4027 -2.0346
 8483SOL     OW36907   3.940   3.021   7.111  0.2179 -0.3660 -0.1685
 8483SOL    HW136908   4.022   3.066   7.088  2.8679 -3.2701  3.5398
 8483SOL    HW236909   3.884   3.093   7.139 -0.6074 -1.4945  1.0824
 8484SOL     OW36910   0.769   2.991   4.609 -0.0146 -0.0534  0.1245
 8484SOL    HW136911   0.860   3.013   4.626 -0.2413  0.7588  0.2997
 8484SOL    HW236912   0.756   3.025   4.521 -0.6131  1.9004  0.9688
 8485SOL     OW36913   1.447   2.378   3.845 -0.0416  0.0951  0.1113
 8485SOL    HW136914   1.430   2.427   3.925  1.3615 -0.3145  0.6776
 8485SOL    HW236915   1.480   2.450   3.791  1.7653  0.6796  1.9788
 8486SOL     OW36916   4.241   0.297  13.348  0.3050 -0.8555 -0.4761
 8486SOL    HW136917   4.245   0.389  13.322  1.1510 -0.4153  1.1759
 8486SOL    HW236918   4.146   0.291  13.359  0.5135 -3.6486 -0.1799
 8487SOL     OW36919   4.548   3.023  16.966  0.3017 -0.7114 -0.5385
 8487SOL    HW136920   4.543   3.117  16.948 -1.5989 -0.6448  0.3515
 8487SOL    HW236921   4.569   3.018  17.059  0.3261  1.5215 -0.4292
 8488SOL     OW36922   3.241   3.262   0.924  0.0729  0.4063  0.7919
 8488SOL    HW136923   3.304   3.259   0.852 -1.5766  1.6273 -0.7044
 8488SOL    HW236924   3.294   3.247   1.003  0.5298  0.6638  0.5324
 8489SOL     OW36925   1.781   4.167   1.790 -0.3694 -0.0075 -0.4655
 8489SOL    HW136926   1.874   4.186   1.802 -0.4015 -1.1211  1.6453
 8489SOL    HW236927   1.784   4.073   1.775 -0.7145 -0.6028  3.0463
 8490SOL     OW36928   2.849   0.939   9.685  0.4305 -0.2733  0.4142
 8490SOL    HW136929   2.879   1.022   9.647  1.3336  0.3398  2.4527
 8490SOL    HW236930   2.802   0.905   9.609 -1.7642  2.1132  0.7112
 8491SOL     OW36931   3.758   4.031   2.606  0.2151 -0.2997 -0.0990
 8491SOL    HW136932   3.732   3.939   2.605 -4.1099  0.9296  0.5486
 8491SOL    HW236933   3.769   4.062   2.516 -0.3146  0.2543  0.0319
 8492SOL     OW36934   0.995   3.151   4.081  0.5665 -0.2612  0.0715
 8492SOL    HW136935   0.901   3.147   4.067  0.5897 -0.9419  0.0855
 8492SOL    HW236936   1.012   3.215   4.012  0.3373 -2.3541 -1.9323
 8493SOL     OW36937   4.570   4.316   4.423 -0.4908 -0.3099 -0.5989
 8493SOL    HW136938   4.495   4.265   4.391 -0.8539  0.8822 -1.6469
 8493SOL    HW236939   4.635   4.270   4.370  1.0157 -0.9609  1.8418
 8494SOL     OW36940   2.761   1.440   8.227  0.1823 -0.4799 -0.1719
 8494SOL    HW136941   2.830   1.433   8.293  0.3244 -0.7678 -0.3504
 8494SOL    HW236942   2.817   1.435   8.149  0.8756 -0.6458  0.3382
 8495SOL     OW36943   4.515   2.897   3.027 -0.5624 -0.0823  0.3707
 8495SOL    HW136944   4.509   2.815   2.977  0.4565 -0.2231  0.4919
 8495SOL    HW236945   4.560   2.863   3.104 -0.9650  1.9359  1.5026
 8496SOL     OW36946   1.460   3.304   8.679 -0.0101 -0.1480 -0.1633
 8496SOL    HW136947   1.463   3.272   8.770  0.9425  1.0212  0.2107
 8496SOL    HW236948   1.449   3.228   8.622  1.4412  1.8702 -3.0740
 8497SOL     OW36949   2.519   2.100  10.528  0.2022  0.2493 -0.5857
 8497SOL    HW136950   2.501   2.122  10.619 -0.2229 -2.0184 -0.1229
 8497SOL    HW236951   2.470   2.169  10.483 -2.2717 -1.0835  0.0407
 8498SOL     OW36952   1.167   0.591   1.060  0.2226 -0.6433  0.1312
 8498SOL    HW136953   1.120   0.540   0.994 -0.5696 -0.4394  0.5510
 8498SOL    HW236954   1.095   0.646   1.090  0.9818 -0.2413  1.2188
 8499SOL     OW36955   0.821   4.123  12.894  0.1850  0.2350 -0.6551
 8499SOL    HW136956   0.799   4.031  12.879  3.3598 -0.3216 -1.8998
 8499SOL    HW236957   0.911   4.107  12.923  0.6097  1.6135 -1.2421
 8500SOL     OW36958   4.219   4.390   4.043  0.0224  0.7618 -0.4801
 8500SOL    HW136959   4.284   4.339   3.995 -0.1988 -1.5346  1.6790
 8500SOL    HW236960   4.134   4.367   4.004 -0.2441  0.4054  0.2992
 8501SOL     OW36961   4.579   2.132   8.124 -0.0929  0.3504  0.4268
 8501SOL    HW136962   4.654   2.075   8.109  1.7354  2.9281 -0.2257
 8501SOL    HW236963   4.618   2.208   8.168 -0.2821  1.4209 -1.2512
 8502SOL     OW36964   3.742   0.878   8.761 -0.1745  0.9542 -0.2219
 8502SOL    HW136965   3.783   0.801   8.722 -2.4339 -0.4148  0.0971
 8502SOL    HW236966   3.781   0.891   8.848 -0.5209 -0.5553  0.1570
 8503SOL     OW36967   2.016   4.140   8.198 -0.3511  0.2972  0.0919
 8503SOL    HW136968   1.966   4.109   8.122 -0.5824 -0.2280  0.4564
 8503SOL    HW236969   1.963   4.216   8.222 -0.1779  1.1639 -2.3495
 8504SOL     OW36970   0.428   1.408  10.629 -0.3533 -0.8477  0.3623
 8504SOL    HW136971   0.503   1.348  10.626  1.1037  0.9884 -0.3835
 8504SOL    HW236972   0.466   1.493  10.608 -0.2312 -0.6117  1.5058
 8505SOL     OW36973   2.007   1.936   3.533 -0.5143 -0.4688 -0.3542
 8505SOL    HW136974   2.101   1.919   3.533  0.4871  4.9922 -2.7590
 8505SOL    HW236975   1.981   1.939   3.625 -2.4569  2.4051 -0.9732
 8506SOL     OW36976   1.119   1.027   2.973 -0.2687 -0.0874  0.0955
 8506SOL    HW136977   1.185   1.096   2.966 -0.1527 -0.1815  0.2686
 8506SOL    HW236978   1.116   0.992   2.884 -0.0425  1.8783 -0.6734
 8507SOL     OW36979   3.055   2.701   7.577  0.1209 -0.2681 -0.1037
 8507SOL    HW136980   3.083   2.769   7.638 -2.3354 -1.5106  2.3906
 8507SOL    HW236981   3.102   2.623   7.606 -0.8656 -1.7596 -2.4878
 8508SOL     OW36982   2.169   3.791  12.182  0.0426 -0.1103  0.1584
 8508SOL    HW136983   2.140   3.838  12.260  0.7532 -1.4413  1.2203
 8508SOL    HW236984   2.128   3.705  12.188 -1.3300  0.4321 -1.3388
 8509SOL     OW36985   2.611   4.333  16.936  0.3388 -0.3551  0.4241
 8509SOL    HW136986   2.668   4.264  16.903  1.2765  0.7583 -0.3036
 8509SOL    HW236987   2.526   4.292  16.947  1.9845 -3.4160  1.7354
 8510SOL     OW36988   1.273   4.686   6.715 -0.0433 -0.3999 -0.2113
 8510SOL    HW136989   1.253   0.041   6.766 -1.2999  0.8918 -2.7174
 8510SOL    HW236990   1.220   4.703   6.637  0.8369  1.0279 -0.4926
 8511SOL     OW36991   2.046   0.263  15.048 -1.1090 -0.8903 -0.3412
 8511SOL    HW136992   2.128   0.230  15.010 -1.2523 -0.7814 -0.7453
 8511SOL    HW236993   2.047   0.345  14.998 -1.0276 -0.5925  0.1487
 8512SOL     OW36994   1.847   3.183   4.890  0.5247 -0.0105  0.5546
 8512SOL    HW136995   1.834   3.091   4.914 -0.0230 -0.1518 -0.2584
 8512SOL    HW236996   1.802   3.183   4.805 -0.3070  0.4747  1.0018
 8513SOL     OW36997   1.921   1.963  17.155 -0.1587  0.1240  0.1111
 8513SOL    HW136998   1.904   1.939  17.246 -0.5749  1.3024  0.3449
 8513SOL    HW236999   1.918   1.875  17.116  1.8162  0.5180 -0.9475
 8514SOL     OW37000   2.436   0.540   5.170 -0.1980 -0.3519 -0.3836
 8514SOL    HW137001   2.405   0.536   5.080 -1.5494  0.8575  0.0329
 8514SOL    HW237002   2.366   0.489   5.209 -0.0274  0.4365  0.9654
 8515SOL     OW37003   2.585   4.463   9.386  0.2712 -0.5131 -0.3689
 8515SOL    HW137004   2.544   4.377   9.372 -0.8327 -0.1680  0.6970
 8515SOL    HW237005   2.574   4.467   9.481 -1.4775  1.2781 -0.6446
 8516SOL     OW37006   1.485   0.943   3.064 -0.2060 -0.1277  0.2209
 8516SOL    HW137007   1.467   0.970   2.973 -0.2871  0.1682  0.3244
 8516SOL    HW237008   1.410   0.890   3.088  0.5556 -1.3340 -0.0795
 8517SOL     OW37009   1.037   2.509  15.479  0.1794  0.3392 -0.4844
 8517SOL    HW137010   1.062   2.420  15.455  0.2197 -0.1126  1.1925
 8517SOL    HW237011   1.016   2.553  15.397  2.6886  1.7557 -0.3644
 8518SOL     OW37012   0.141   2.150   5.641  0.2265 -0.1522 -0.4008
 8518SOL    HW137013   0.135   2.232   5.592  3.4239  0.3781  0.1172
 8518SOL    HW237014   0.145   2.080   5.576 -0.1784 -0.4709 -0.0839
 8519SOL     OW37015   3.103   3.566   5.638 -0.2194 -0.0340 -0.3528
 8519SOL    HW137016   3.149   3.525   5.712  1.0626 -0.8091 -1.5694
 8519SOL    HW237017   3.144   3.651   5.653  0.4018 -0.4749  0.4993
 8520SOL     OW37018   0.050   2.083   7.181 -0.2890  0.0469  0.4290
 8520SOL    HW137019   0.111   2.030   7.129 -2.3247 -0.6421 -1.2722
 8520SOL    HW237020   0.106   2.160   7.177  0.1396 -0.3348 -1.0159
 8521SOL     OW37021   4.539   4.578   4.314  0.4368 -0.2795  0.5175
 8521SOL    HW137022   4.461   4.523   4.306  0.2672 -0.0008  0.2439
 8521SOL    HW237023   4.593   4.519   4.367 -1.3939 -2.8816 -0.5262
 8522SOL     OW37024   0.191   2.172   3.959 -0.0771  0.7318 -0.3870
 8522SOL    HW137025   0.122   2.157   3.895 -0.8154 -3.9334  1.4812
 8522SOL    HW237026   0.143   2.172   4.042 -1.0767 -1.1183 -0.9635
 8523SOL     OW37027   2.273   4.357   2.116 -0.5226  0.7967  0.5245
 8523SOL    HW137028   2.341   4.402   2.066 -1.1977  1.4498  0.2018
 8523SOL    HW237029   2.307   4.307   2.190  0.2882 -0.7100 -0.8803
 8524SOL     OW37030   3.867   1.259   6.515 -0.2661 -0.2880 -0.0442
 8524SOL    HW137031   3.824   1.197   6.573 -0.8371  1.4309  1.3843
 8524SOL    HW237032   3.799   1.321   6.489 -0.4186 -0.6091 -0.4040
 8525SOL     OW37033   3.313   0.728  15.139  0.4908  0.6575  0.3864
 8525SOL    HW137034   3.225   0.745  15.173  0.2518  2.3290 -1.0070
 8525SOL    HW237035   3.300   0.686  15.054  0.4401  0.1511  0.6460
 8526SOL     OW37036   3.186   1.055  13.672 -0.2699  0.5050 -0.0559
 8526SOL    HW137037   3.240   1.005  13.733  0.7668 -0.4879 -1.7910
 8526SOL    HW237038   3.118   0.988  13.672  0.0506  0.1730  0.5041
 8527SOL     OW37039   1.019   2.802  17.602 -0.2461  0.0316  0.5915
 8527SOL    HW137040   0.967   2.817  17.523  0.7287 -0.1828 -0.0990
 8527SOL    HW237041   1.103   2.775  17.564 -0.8270 -0.8406 -0.0785
 8528SOL     OW37042   1.575   0.628  17.605  0.4621  0.0473 -0.4486
 8528SOL    HW137043   1.575   0.723  17.598  3.1064  0.2307  2.0369
 8528SOL    HW237044   1.659   0.608  17.565  0.7891  1.5835 -0.5226
 8529SOL     OW37045   2.979   3.631   9.507  0.2649 -0.3977  0.4305
 8529SOL    HW137046   3.032   3.566   9.460 -0.2005 -1.1865  1.0102
 8529SOL    HW237047   3.013   3.708   9.462 -2.8902  0.1378 -0.9886
 8530SOL     OW37048   4.097   4.366   5.552  0.5231  1.0111 -0.4247
 8530SOL    HW137049   4.052   4.290   5.514  0.6222  0.2262  1.0169
 8530SOL    HW237050   4.183   4.336   5.579 -0.7140 -1.3889  0.8629
 8531SOL     OW37051   4.024   1.986   9.049  0.0933  0.3223  0.5154
 8531SOL    HW137052   4.004   2.013   8.960 -2.9459  0.6499  1.2953
 8531SOL    HW237053   3.940   1.964   9.090 -1.9123  3.2570 -2.0123
 8532SOL     OW37054   4.308   1.027   9.203 -0.3274 -0.3463  0.0334
 8532SOL    HW137055   4.347   1.000   9.286 -1.3106 -2.3738 -0.1584
 8532SOL    HW237056   4.348   0.959   9.147 -1.9904  0.1760 -1.7897
 8533SOL     OW37057   4.204   3.308   7.753  0.1392 -0.2267  0.2784
 8533SOL    HW137058   4.162   3.281   7.835 -1.4566 -2.1400 -1.1608
 8533SOL    HW237059   4.131   3.363   7.725  0.6993  0.2312 -0.2545
 8534SOL     OW37060   4.132   4.414   4.966 -0.1565 -0.2137  0.0706
 8534SOL    HW137061   4.188   4.489   4.985  1.9590 -1.9274  0.6664
 8534SOL    HW237062   4.136   4.365   5.048  1.1791  1.3861  0.9707
 8535SOL     OW37063   3.300   2.401   8.074  0.6601 -0.1951  0.2677
 8535SOL    HW137064   3.335   2.473   8.128 -0.7293 -0.0384  0.9538
 8535SOL    HW237065   3.215   2.437   8.051  0.2275 -1.0435  0.5752
 8536SOL     OW37066   2.743   3.375   8.147 -0.1406  0.1186  0.0295
 8536SOL    HW137067   2.748   3.423   8.230  2.5778  0.7180 -0.4923
 8536SOL    HW237068   2.776   3.442   8.087 -1.2477 -0.8406 -1.6574
 8537SOL     OW37069   3.828   3.124  14.635 -0.0179  0.5937 -0.3634
 8537SOL    HW137070   3.766   3.138  14.563  3.5658  2.1872 -3.1094
 8537SOL    HW237071   3.837   3.215  14.662  0.5481  1.1799 -2.5147
 8538SOL     OW37072   1.046   2.325  10.409  0.4008  0.5264  0.5419
 8538SOL    HW137073   1.121   2.381  10.426  0.0796  0.9882  0.4360
 8538SOL    HW237074   1.028   2.297  10.499 -2.0163  4.0241  1.1660
 8539SOL     OW37075   1.774   2.418  15.655  0.4072  0.5535  0.2244
 8539SOL    HW137076   1.723   2.338  15.665  2.7010 -0.8287  0.9976
 8539SOL    HW237077   1.705   2.485  15.656 -0.5045 -0.3934 -1.1917
 8540SOL     OW37078   0.022   3.974   2.598  0.0518  0.2067 -0.0624
 8540SOL    HW137079   4.670   3.972   2.539 -1.2593 -0.9030  1.6997
 8540SOL    HW237080   0.095   3.948   2.541  1.1707  1.5115  0.7696
 8541SOL     OW37081   1.989   0.825   5.707 -0.2960  0.0725  0.2553
 8541SOL    HW137082   1.916   0.871   5.666  1.7243  2.0235 -1.2026
 8541SOL    HW237083   2.055   0.826   5.638 -1.0152  1.5315 -0.4035
 8542SOL     OW37084   0.125   4.220   3.890 -0.6562 -0.4159 -0.2973
 8542SOL    HW137085   0.062   4.278   3.934  0.6172 -2.0943  3.8048
 8542SOL    HW237086   0.075   4.139   3.887 -1.7168  0.2682 -1.1602
 8543SOL     OW37087   4.011   2.504   1.127 -0.1146 -0.1047 -0.5811
 8543SOL    HW137088   4.073   2.555   1.180 -0.7188 -0.6844  0.6758
 8543SOL    HW237089   4.068   2.462   1.062 -0.1016 -1.9348  0.6235
 8544SOL     OW37090   1.075   3.716  14.858 -0.3261  0.5887 -0.1098
 8544SOL    HW137091   1.070   3.640  14.799  0.0641  0.0755  0.5131
 8544SOL    HW237092   1.129   3.764  14.795 -1.0937  1.4678 -0.0941
 8545SOL     OW37093   4.145   0.385   8.548 -0.0682  0.0703 -0.0173
 8545SOL    HW137094   4.080   0.316   8.540 -0.7731  0.7491 -0.1296
 8545SOL    HW237095   4.179   0.366   8.635  0.4548  0.7719 -0.0669
 8546SOL     OW37096   4.271   1.837   5.464  0.2263 -0.0171 -0.2762
 8546SOL    HW137097   4.302   1.867   5.378  0.9971  0.1040  0.0473
 8546SOL    HW237098   4.207   1.772   5.435 -0.3600  0.0480  0.8885
 8547SOL     OW37099   3.720   0.499   0.538  0.4164  0.0141 -0.1461
 8547SOL    HW137100   3.675   0.434   0.484  0.8542 -1.7692  1.6585
 8547SOL    HW237101   3.788   0.442   0.572  0.3160 -0.4822 -0.7774
 8548SOL     OW37102   0.719   4.267   6.594  0.2002  0.5654 -0.1093
 8548SOL    HW137103   0.644   4.231   6.547 -1.0999  0.0305  2.3914
 8548SOL    HW237104   0.785   4.201   6.572 -0.4437  0.4818 -1.7783
 8549SOL     OW37105   1.477   0.532   5.403  0.5834  0.0469  0.3398
 8549SOL    HW137106   1.437   0.524   5.316  0.2372 -0.8972  0.5786
 8549SOL    HW237107   1.475   0.447   5.448  3.0896  0.3295  0.9413
 8550SOL     OW37108   0.508   1.029  14.224  0.6334  0.3350 -0.3563
 8550SOL    HW137109   0.413   1.042  14.216  0.5726 -0.1393 -0.4249
 8550SOL    HW237110   0.526   1.074  14.306 -0.5633  0.7650 -0.3229
 8551SOL     OW37111   3.339   1.048   4.869  0.3461  0.1405  0.2612
 8551SOL    HW137112   3.263   1.004   4.908 -1.1858  1.8124 -0.8721
 8551SOL    HW237113   3.296   1.094   4.797 -0.6644 -2.1594 -0.6125
 8552SOL     OW37114   2.140   0.817   1.954  0.2917 -0.1610 -0.5237
 8552SOL    HW137115   2.121   0.808   1.861  0.0138  2.5256 -0.7277
 8552SOL    HW237116   2.147   0.724   1.975 -0.1075  0.1932  1.2571
 8553SOL     OW37117   1.683   2.770   4.420  0.2693  0.1487 -0.2274
 8553SOL    HW137118   1.595   2.801   4.438 -0.8645 -3.0403 -0.2538
 8553SOL    HW237119   1.674   2.751   4.326  0.6186 -2.0893  0.1952
 8554SOL     OW37120   3.160   1.847  13.288 -0.0508 -0.3195  0.8030
 8554SOL    HW137121   3.074   1.878  13.259  2.3515  2.6951 -3.1457
 8554SOL    HW237122   3.208   1.924  13.259  2.0183 -2.0294 -0.3089
 8555SOL     OW37123   3.892   2.325  10.388 -0.6927  0.6748  0.0703
 8555SOL    HW137124   3.829   2.255  10.371 -1.3586  1.1235  0.7030
 8555SOL    HW237125   3.842   2.400  10.355  0.2999  1.5804  0.6403
 8556SOL     OW37126   2.513   0.956  16.800  1.0885  0.7098 -0.5983
 8556SOL    HW137127   2.418   0.957  16.817  1.6429  1.0519  2.3928
 8556SOL    HW237128   2.530   0.879  16.747  0.1837 -0.3822  0.7006
 8557SOL     OW37129   2.235   1.216  16.395 -0.1402 -0.2993  0.0632
 8557SOL    HW137130   2.188   1.162  16.332 -3.1143  1.3740  0.8498
 8557SOL    HW237131   2.298   1.245  16.329 -2.2071  1.9367 -0.9522
 8558SOL     OW37132   1.097   3.987  12.450 -0.0702  0.1125 -0.7121
 8558SOL    HW137133   1.175   3.940  12.420  1.3218  0.0987  2.9169
 8558SOL    HW237134   1.131   4.064  12.495  0.1183 -0.2638 -0.2093
 8559SOL     OW37135   3.793   4.501  15.325  0.1788 -0.4414 -0.5168
 8559SOL    HW137136   3.817   4.478  15.235 -1.1824  1.9257 -1.4774
 8559SOL    HW237137   3.732   4.572  15.307  0.1832 -0.5754 -1.0361
 8560SOL     OW37138   1.069   3.660   6.558  0.2876 -0.0355  0.5141
 8560SOL    HW137139   0.986   3.654   6.512  1.4937 -0.8498 -1.5742
 8560SOL    HW237140   1.057   3.749   6.592  1.3047  0.3978 -0.2545
 8561SOL     OW37141   2.770   3.680   2.719 -0.0368  0.6646  0.6891
 8561SOL    HW137142   2.831   3.607   2.704 -1.0522 -0.2349  0.9287
 8561SOL    HW237143   2.767   3.683   2.815  0.8296  0.3993  0.7275
 8562SOL     OW37144   4.116   1.365   7.004  0.7657 -0.0162  0.7792
 8562SOL    HW137145   4.088   1.273   7.001  0.9679 -0.0725  0.6008
 8562SOL    HW237146   4.060   1.399   6.935  1.2913 -1.0687 -0.1746
 8563SOL     OW37147   3.830   4.156   1.958 -0.1225 -0.0410 -0.3208
 8563SOL    HW137148   3.893   4.130   1.890 -0.3787 -1.0030 -0.1818
 8563SOL    HW237149   3.800   4.069   1.983  0.4719 -0.2977 -0.4889
 8564SOL     OW37150   1.391   2.011  15.902  0.4371 -0.5425  0.6758
 8564SOL    HW137151   1.302   1.991  15.874  0.5878 -0.3150  0.0337
 8564SOL    HW237152   1.401   2.106  15.897  2.3451 -0.8358 -1.2180
 8565SOL     OW37153   2.806   0.113   4.159  0.6227 -0.2327  0.1020
 8565SOL    HW137154   2.816   0.199   4.199  0.2215  0.3247 -0.9854
 8565SOL    HW237155   2.722   0.110   4.113  0.8520  0.7853 -0.3756
 8566SOL     OW37156   0.684   2.997  16.961 -0.1841  0.1405  0.1221
 8566SOL    HW137157   0.761   3.038  17.001  0.1331  0.5772 -0.9160
 8566SOL    HW237158   0.637   3.077  16.940 -0.1341 -0.2361 -1.4213
 8567SOL     OW37159   4.258   0.480   9.920 -0.0923  0.5935 -0.2541
 8567SOL    HW137160   4.306   0.559   9.894  0.1316  1.0159  1.4631
 8567SOL    HW237161   4.190   0.526   9.969  0.6684  0.9576  0.4660
 8568SOL     OW37162   0.921   3.358   6.409 -0.4111  0.1732  0.7356
 8568SOL    HW137163   0.828   3.352   6.390 -0.3604  0.3994  0.4203
 8568SOL    HW237164   0.918   3.333   6.502 -1.7027  1.4735  1.0530
 8569SOL     OW37165   3.300   2.400   4.003 -0.0770 -0.7606 -0.3259
 8569SOL    HW137166   3.286   2.492   4.028  0.7216 -0.7788  0.1695
 8569SOL    HW237167   3.285   2.364   4.090  0.3944 -0.8541 -0.2838
 8570SOL     OW37168   3.660   4.593   7.982  0.3823 -0.7211  0.4026
 8570SOL    HW137169   3.644   4.622   8.071 -0.9494  2.3728 -0.8732
 8570SOL    HW237170   3.725   4.524   7.999  0.2803 -0.6910  0.8869
 8571SOL     OW37171   1.900   4.011   3.658 -0.0826  0.0400  0.2697
 8571SOL    HW137172   1.839   3.957   3.707 -1.5307  1.6364  0.2406
 8571SOL    HW237173   1.833   4.065   3.616  1.4949  1.2104 -0.7664
 8572SOL     OW37174   2.745   3.802   7.210  0.1140  0.5545 -0.2945
 8572SOL    HW137175   2.706   3.833   7.292  2.5642 -0.9002  1.4264
 8572SOL    HW237176   2.832   3.841   7.208  1.2796 -2.0180  0.0585
 8573SOL     OW37177   0.676   1.602  12.868  0.2553 -0.1621 -0.1182
 8573SOL    HW137178   0.623   1.669  12.826  1.6391  1.0814  0.1410
 8573SOL    HW237179   0.743   1.580  12.803  1.3142 -0.8104  1.1922
 8574SOL     OW37180   2.635   1.239  11.496 -0.0174  0.1231  0.6962
 8574SOL    HW137181   2.686   1.160  11.513 -0.4462 -0.0059  1.3983
 8574SOL    HW237182   2.630   1.284  11.580 -3.8138  0.8524  0.0606
 8575SOL     OW37183   1.134   0.430   8.194  0.2055 -0.4069 -0.0910
 8575SOL    HW137184   1.162   0.490   8.125  0.3215 -1.6408 -1.1207
 8575SOL    HW237185   1.045   0.431   8.158 -0.1838 -1.3473  0.8420
 8576SOL     OW37186   1.828   0.022  11.516  0.1924  0.7425 -0.3663
 8576SOL    HW137187   1.870   0.042  11.600 -1.9374  1.2512  0.5988
 8576SOL    HW237188   1.803   0.109  11.485 -0.4031 -0.2123 -2.5102
 8577SOL     OW37189   4.571   2.532   6.838  0.5007 -0.0836 -0.3439
 8577SOL    HW137190   4.591   2.559   6.928  0.0313 -0.5296 -0.1000
 8577SOL    HW237191   4.658   2.543   6.800 -0.0705 -1.5846 -2.0727
 8578SOL     OW37192   0.891   2.825   2.217  0.1612 -0.4669  0.0908
 8578SOL    HW137193   0.829   2.895   2.195  0.7027  0.1218  0.4259
 8578SOL    HW237194   0.871   2.754   2.156  1.9545 -1.6783  0.9112
 8579SOL     OW37195   2.308   0.402   2.912 -0.1593  0.3228 -0.3639
 8579SOL    HW137196   2.287   0.377   2.822  2.7831  1.0641 -1.2483
 8579SOL    HW237197   2.399   0.371   2.910 -0.6821 -1.5222  4.1413
 8580SOL     OW37198   4.633   0.579   2.136  0.7878  0.7392  0.3189
 8580SOL    HW137199   4.650   0.504   2.193  2.6945 -0.0304 -1.2535
 8580SOL    HW237200   4.718   0.622   2.125  2.3612 -2.2912  0.3731
 8581SOL     OW37201   1.455   3.855   4.261  0.2572  0.3466 -0.0960
 8581SOL    HW137202   1.392   3.872   4.191  0.1012 -0.5360 -0.1787
 8581SOL    HW237203   1.489   3.943   4.272  0.1945  0.4923 -1.0790
 8582SOL     OW37204   1.517   4.409   2.111 -0.3741  0.3855  0.1046
 8582SOL    HW137205   1.444   4.386   2.053 -0.9984  0.5597  0.8244
 8582SOL    HW237206   1.481   4.380   2.196  0.0800 -0.7969 -0.0980
 8583SOL     OW37207   2.844   2.870  17.340 -0.2335 -0.4119 -0.4843
 8583SOL    HW137208   2.790   2.933  17.293  0.4356  1.7567  1.6681
 8583SOL    HW237209   2.926   2.918  17.351  1.4562 -3.1156 -1.0642
 8584SOL     OW37210   1.277   1.949  16.654  0.6144 -0.5974  0.2788
 8584SOL    HW137211   1.360   1.966  16.699  0.0133 -0.2645  1.2780
 8584SOL    HW237212   1.250   1.872  16.706 -0.4824  0.3060  1.0423
 8585SOL     OW37213   2.371   1.870   2.073 -0.0135 -0.0348  0.2145
 8585SOL    HW137214   2.421   1.833   2.145  2.1781 -1.6203 -2.1061
 8585SOL    HW237215   2.323   1.795   2.039  0.6034  0.0577 -0.8617
 8586SOL     OW37216   1.617   2.485  10.419  0.4123  0.2769  0.3204
 8586SOL    HW137217   1.633   2.390  10.422  2.8235  0.6296 -1.1746
 8586SOL    HW237218   1.523   2.488  10.437  0.7765 -2.6299  2.7118
 8587SOL     OW37219   0.586   4.075   5.215 -0.3837  0.3810 -0.0943
 8587SOL    HW137220   0.509   4.017   5.218  0.2247 -0.2720  2.8108
 8587SOL    HW237221   0.629   4.042   5.136 -0.9671  1.4297 -0.8509
 8588SOL     OW37222   0.186   3.521   5.510  0.1870 -0.1725  1.1907
 8588SOL    HW137223   0.160   3.549   5.422 -4.8369 -0.7215  2.4857
 8588SOL    HW237224   0.214   3.608   5.536 -0.2333  0.1290  0.6379
 8589SOL     OW37225   3.180   3.816   9.806 -0.0216 -0.7941 -0.3147
 8589SOL    HW137226   3.113   3.809   9.874 -0.5803 -1.1559 -0.9097
 8589SOL    HW237227   3.137   3.884   9.754  0.2747 -1.0140 -0.8400
 8590SOL     OW37228   1.496   2.772   6.748  0.5461 -0.0059 -0.3181
 8590SOL    HW137229   1.453   2.751   6.831  0.7378 -0.2632 -0.2867
 8590SOL    HW237230   1.512   2.866   6.755  2.9744 -0.3580 -1.3663
 8591SOL     OW37231   4.527   3.351   6.598  0.4614 -0.4761 -0.6610
 8591SOL    HW137232   4.553   3.310   6.681  0.7237  0.2802 -0.3679
 8591SOL    HW237233   4.501   3.435   6.636 -1.3554 -1.2460 -0.1787
 8592SOL     OW37234   0.533   0.174   8.230 -0.5916  0.6943  0.6153
 8592SOL    HW137235   0.537   0.096   8.284 -1.6307 -1.5600 -2.5330
 8592SOL    HW237236   0.605   0.171   8.167  0.8347 -1.5422  2.3754
 8593SOL     OW37237   1.889   2.567  11.044 -0.5826  0.4731  0.3585
 8593SOL    HW137238   1.881   2.484  10.996 -1.4247  0.3752  0.6640
 8593SOL    HW237239   1.823   2.554  11.113  0.5200 -0.0290  1.3135
 8594SOL     OW37240   4.510   2.991   8.738 -0.8336  0.1896 -0.0058
 8594SOL    HW137241   4.565   3.030   8.670  0.0149 -3.0530 -1.1864
 8594SOL    HW237242   4.434   3.048   8.729 -1.9876 -1.6441 -1.7207
 8595SOL     OW37243   4.589   2.517   4.407 -0.6227  0.2529 -0.3762
 8595SOL    HW137244   4.533   2.595   4.405  0.6672  1.1969  0.1343
 8595SOL    HW237245   4.639   2.540   4.486  0.2015 -0.2923 -0.7399
 8596SOL     OW37246   0.577   0.558  15.535 -0.2085 -0.3672  0.1308
 8596SOL    HW137247   0.511   0.609  15.581  0.0345  0.1749 -0.1191
 8596SOL    HW237248   0.534   0.472  15.531  0.5066 -0.7314  0.2179
 8597SOL     OW37249   1.523   1.224   7.131 -0.3279 -0.2168 -0.5544
 8597SOL    HW137250   1.562   1.290   7.187 -0.4849  0.1685 -0.8977
 8597SOL    HW237251   1.604   1.183   7.101 -0.5978 -1.9896  1.1616
 8598SOL     OW37252   4.278   2.122   4.969 -0.3077 -0.4571  0.2618
 8598SOL    HW137253   4.199   2.080   4.936  0.6473 -1.0889 -1.1898
 8598SOL    HW237254   4.326   2.139   4.888 -1.5840 -0.0423 -0.4048
 8599SOL     OW37255   0.527   1.815   4.642  0.3897  0.0316  0.2769
 8599SOL    HW137256   0.591   1.868   4.594 -0.6633  0.7429 -0.3400
 8599SOL    HW237257   0.542   1.851   4.729  0.1834  0.1578  0.2608
 8600SOL     OW37258   4.241   4.637   8.066  0.0101 -0.5967 -0.4861
 8600SOL    HW137259   4.206   4.674   7.986 -0.3669  0.6879  0.2767
 8600SOL    HW237260   4.330   4.620   8.038  0.2111 -1.3647  0.5825
 8601SOL     OW37261   2.110   0.707   5.093  0.4802 -0.0634 -0.1625
 8601SOL    HW137262   2.166   0.635   5.063  2.0099  0.7330  0.7950
 8601SOL    HW237263   2.026   0.662   5.100  0.0840  0.4635 -1.4201
 8602SOL     OW37264   3.568   2.036  14.342  0.3553 -0.4455 -0.5598
 8602SOL    HW137265   3.527   2.022  14.427 -0.7493  2.7707 -0.5670
 8602SOL    HW237266   3.574   1.947  14.307  1.4201 -0.9937  1.0246
 8603SOL     OW37267   4.327   2.677   3.300 -0.0233 -0.3941 -0.1034
 8603SOL    HW137268   4.406   2.662   3.248 -0.0685 -2.4875  0.4211
 8603SOL    HW237269   4.369   2.708   3.380  1.4771 -0.8403 -0.7083
 8604SOL     OW37270   2.058   0.738   1.166 -0.0452  0.5931 -0.1253
 8604SOL    HW137271   1.994   0.696   1.223  0.7585  0.4012  0.6292
 8604SOL    HW237272   2.080   0.674   1.098  2.9330 -0.0755  1.4805
 8605SOL     OW37273   3.667   3.696  11.885 -0.2515 -0.3798  0.4685
 8605SOL    HW137274   3.679   3.613  11.931 -2.9146 -0.9964  0.0511
 8605SOL    HW237275   3.575   3.719  11.900 -0.1981 -1.2646  2.0965
 8606SOL     OW37276   2.464   3.910   8.723  0.0291 -0.0363  0.1044
 8606SOL    HW137277   2.434   3.966   8.794  1.8033  0.9512  0.0779
 8606SOL    HW237278   2.423   3.830   8.756  1.6363  0.0199  2.2347
 8607SOL     OW37279   2.291   1.998  16.166  0.0665  0.6467 -0.3534
 8607SOL    HW137280   2.303   1.904  16.176 -4.2074  0.0327 -0.9242
 8607SOL    HW237281   2.303   2.002  16.071 -0.6736  0.1909 -0.4612
 8608SOL     OW37282   0.236   3.894   7.826 -0.0321  0.0850  0.4571
 8608SOL    HW137283   0.295   3.962   7.859 -1.1917  1.9575 -1.3341
 8608SOL    HW237284   0.221   3.939   7.742 -1.6599 -0.6315  0.3678
 8609SOL     OW37285   4.714   3.443   7.713  0.6528  0.1366  0.1164
 8609SOL    HW137286   0.000   3.433   7.807 -1.8385  1.2410  0.4673
 8609SOL    HW237287   4.619   3.451   7.703  0.2534 -2.7280  1.7975
 8610SOL     OW37288   4.540   0.637  14.897  0.2443  0.2692 -0.2933
 8610SOL    HW137289   4.596   0.707  14.862  0.1609  0.5766  0.1936
 8610SOL    HW237290   4.492   0.597  14.824  1.2931  1.4866 -1.6485
 8611SOL     OW37291   4.110   4.342   1.871 -0.3495 -0.1759 -0.1989
 8611SOL    HW137292   4.078   4.262   1.830  0.0461 -1.2111  1.5703
 8611SOL    HW237293   4.147   4.392   1.797  2.4237  0.1008  1.4084
 8612SOL     OW37294   4.257   4.131   4.894 -0.3993 -0.0315 -0.7560
 8612SOL    HW137295   4.236   4.142   4.987 -0.1028 -1.9873 -0.4518
 8612SOL    HW237296   4.325   4.196   4.875  1.4078 -2.0629 -1.3280
 8613SOL     OW37297   2.626   3.991   1.872 -0.1504  0.3310  0.0043
 8613SOL    HW137298   2.612   3.907   1.829  1.2178 -0.8612  1.8568
 8613SOL    HW237299   2.568   3.988   1.948  1.1673 -2.6256  0.9081
 8614SOL     OW37300   0.107   0.218   1.174  0.9359  0.0912 -0.4480
 8614SOL    HW137301   0.030   0.192   1.125 -0.9421 -0.5983  2.8697
 8614SOL    HW237302   0.064   0.259   1.250 -0.6251  2.5479 -2.6779
 8615SOL     OW37303   3.546   1.362  10.365 -0.5207  0.3971  0.3119
 8615SOL    HW137304   3.453   1.346  10.381 -0.5922  0.2362 -0.2761
 8615SOL    HW237305   3.553   1.341  10.272 -0.3974  0.8014  0.2320
 8616SOL     OW37306   4.202   2.597  16.606 -0.2619  0.2684  0.4904
 8616SOL    HW137307   4.195   2.556  16.520  0.2447 -1.3309  1.2122
 8616SOL    HW237308   4.242   2.680  16.578  0.5769 -0.2931  0.0498
 8617SOL     OW37309   4.111   0.747  14.756 -0.7981  0.0521  0.1477
 8617SOL    HW137310   4.142   0.832  14.725 -0.8830 -0.2599 -0.7850
 8617SOL    HW237311   4.127   0.758  14.850  1.9019 -0.8391 -0.1915
 8618SOL     OW37312   2.366   4.072   7.345  0.2399  0.3531 -0.2020
 8618SOL    HW137313   2.387   4.021   7.266  2.4387  0.4677  0.3121
 8618SOL    HW237314   2.441   4.131   7.337 -0.0708  0.6907 -0.6082
 8619SOL     OW37315   3.155   0.299   8.105 -0.1236  0.8263 -0.1527
 8619SOL    HW137316   3.202   0.381   8.090 -0.3786  0.9833 -0.0857
 8619SOL    HW237317   3.201   0.273   8.185 -1.2165 -0.3866  0.0813
 8620SOL     OW37318   0.770   2.651   9.569 -0.0637 -0.3462 -0.3178
 8620SOL    HW137319   0.690   2.685   9.529 -0.7623 -0.9657  0.5675
 8620SOL    HW237320   0.744   2.570   9.613 -1.0923  0.1951  0.0791
 8621SOL     OW37321   3.501   2.712   9.441  0.4009  0.1027 -0.2412
 8621SOL    HW137322   3.554   2.791   9.432  2.9730 -1.4170  1.5273
 8621SOL    HW237323   3.558   2.659   9.386 -1.9436 -0.7211 -1.8569
 8622SOL     OW37324   2.953   4.025   6.766 -0.3145 -0.2594 -0.0961
 8622SOL    HW137325   3.033   4.005   6.816 -0.1840 -0.3773 -0.3520
 8622SOL    HW237326   2.941   4.116   6.791 -0.8666 -0.1717 -0.6811
 8623SOL     OW37327   4.479   0.984   3.151 -0.5564  0.3316 -0.0584
 8623SOL    HW137328   4.557   0.998   3.099  0.6608 -0.9496  1.4339
 8623SOL    HW237329   4.441   1.071   3.138  0.2795  1.0485  2.2812
 8624SOL     OW37330   1.064   2.384  12.360  0.2078 -0.5222 -0.2756
 8624SOL    HW137331   0.973   2.411  12.375  0.3380 -0.3266  0.1425
 8624SOL    HW237332   1.110   2.448  12.414 -0.7831  2.1865 -2.6242
 8625SOL     OW37333   4.087   2.090   3.275 -0.3564 -0.3313 -0.3442
 8625SOL    HW137334   4.105   1.998   3.294 -1.5886 -0.5627 -0.2992
 8625SOL    HW237335   4.175   2.115   3.247  0.1806 -0.1531  1.5068
 8626SOL     OW37336   2.118   0.632   0.910 -0.4461  0.5521 -0.3920
 8626SOL    HW137337   2.040   0.590   0.947  0.0261 -0.5432 -0.6494
 8626SOL    HW237338   2.158   0.556   0.868 -1.6275  1.0436 -2.3967
 8627SOL     OW37339   1.558   0.930  10.479 -0.8026 -0.3653  0.0820
 8627SOL    HW137340   1.619   0.983  10.530 -3.1225  1.3424  1.1184
 8627SOL    HW237341   1.530   0.875  10.552  0.0505 -1.5785 -0.5074
 8628SOL     OW37342   3.564   4.270   8.147 -0.6662  0.1141  0.1566
 8628SOL    HW137343   3.558   4.365   8.149 -0.2810  0.0458  3.6898
 8628SOL    HW237344   3.629   4.269   8.077 -1.0603  0.3721 -0.2105
 8629SOL     OW37345   3.808   0.014   8.299 -0.0379  0.3586  0.3222
 8629SOL    HW137346   3.895   4.696   8.294  1.0216  2.7762 -1.3668
 8629SOL    HW237347   3.839   0.097   8.263  1.2737  0.2506  1.2031
 8630SOL     OW37348   3.778   2.357   2.206  0.5135  0.3006 -0.5550
 8630SOL    HW137349   3.701   2.357   2.149  0.5450 -0.2490 -0.6001
 8630SOL    HW237350   3.731   2.337   2.287  1.2679  0.9044  0.0200
 8631SOL     OW37351   2.862   3.554   7.965  0.0634  0.0811 -0.2853
 8631SOL    HW137352   2.888   3.507   7.886 -0.3344 -0.2065 -0.2445
 8631SOL    HW237353   2.806   3.618   7.920 -1.2259 -0.8818 -0.0476
 8632SOL     OW37354   3.982   0.426   2.621 -0.6207  0.1692 -0.4478
 8632SOL    HW137355   3.988   0.520   2.606 -0.9385  0.3777  0.7511
 8632SOL    HW237356   3.990   0.412   2.715  0.5105 -1.2490 -0.7521
 8633SOL     OW37357   1.883   3.727   0.833  0.1628  0.0443  0.4047
 8633SOL    HW137358   1.950   3.708   0.767  0.9779  1.1747  0.9121
 8633SOL    HW237359   1.947   3.719   0.904 -0.1072  0.4574  0.6948
 8634SOL     OW37360   2.794   4.340  14.608 -0.4656 -0.3489  0.3886
 8634SOL    HW137361   2.819   4.360  14.699  0.2656  0.4080  0.0298
 8634SOL    HW237362   2.744   4.418  14.584  1.8200  1.2477  0.6991
 8635SOL     OW37363   2.147   0.551   9.165 -0.2925 -0.4246  0.2720
 8635SOL    HW137364   2.058   0.574   9.190 -0.4622 -0.0582 -0.6845
 8635SOL    HW237365   2.142   0.459   9.140  1.8145 -0.6654  0.6864
 8636SOL     OW37366   2.466   1.824  12.218 -0.0174 -0.3705 -0.5398
 8636SOL    HW137367   2.378   1.786  12.213 -0.2277  0.3699 -2.5100
 8636SOL    HW237368   2.494   1.760  12.284 -1.4151  0.2326  0.6410
 8637SOL     OW37369   1.904   2.128  11.913  0.2567  0.0301  0.3424
 8637SOL    HW137370   1.939   2.217  11.901  0.1928  0.2657  1.8767
 8637SOL    HW237371   1.826   2.159  11.960 -0.8626  0.4331 -1.7967
 8638SOL     OW37372   3.428   1.476   2.556  0.1479  0.2406  0.0165
 8638SOL    HW137373   3.495   1.521   2.608 -0.8413  1.4307  0.2565
 8638SOL    HW237374   3.368   1.547   2.535  0.9073  1.0397  0.5334
 8639SOL     OW37375   1.574   3.354   3.869 -0.2266  0.0151 -0.2147
 8639SOL    HW137376   1.550   3.401   3.790  0.7328  0.1960 -0.3960
 8639SOL    HW237377   1.487   3.317   3.888  0.5373 -1.3827  0.5251
 8640SOL     OW37378   4.247   0.447   6.600  0.3706 -0.9990  0.4492
 8640SOL    HW137379   4.321   0.405   6.557  1.2866 -0.3399  1.4047
 8640SOL    HW237380   4.228   0.512   6.533 -1.1849 -1.4871  0.4178
 8641SOL     OW37381   1.898   4.707  12.025 -0.5209 -0.5537  0.2926
 8641SOL    HW137382   1.905   4.641  12.094  3.2405  0.8895  1.2822
 8641SOL    HW237383   1.803   4.707  12.015 -0.3735 -2.3665 -1.0692
 8642SOL     OW37384   2.300   2.681  10.219 -0.1475  0.3392 -0.1148
 8642SOL    HW137385   2.395   2.691  10.217 -0.2477  1.5715  0.9463
 8642SOL    HW237386   2.275   2.686  10.127 -1.4091 -1.0809  0.1513
 8643SOL     OW37387   3.203   3.038   1.942 -0.2375 -0.0066 -0.1598
 8643SOL    HW137388   3.167   3.121   1.910  0.7255 -0.2903 -1.9678
 8643SOL    HW237389   3.197   2.981   1.865 -1.0461 -1.9312  1.3214
 8644SOL     OW37390   1.554   4.495  13.623  0.8527 -0.3213 -0.5460
 8644SOL    HW137391   1.486   4.557  13.649  1.3553 -0.6997  1.7312
 8644SOL    HW237392   1.546   4.422  13.685  2.2788  0.5697  0.7041
 8645SOL     OW37393   2.441   2.972  14.182 -0.0638 -0.1031  0.6945
 8645SOL    HW137394   2.395   2.913  14.122 -1.6171  0.1821  1.6204
 8645SOL    HW237395   2.528   2.964  14.142 -0.5973 -0.8121 -0.3404
 8646SOL     OW37396   0.288   4.035   2.245 -0.2468  1.0224  0.3277
 8646SOL    HW137397   0.319   4.124   2.261  0.5245  0.3859  2.3627
 8646SOL    HW237398   0.332   4.006   2.165 -1.0778  4.1042 -1.2298
 8647SOL     OW37399   2.126   1.063   1.239  0.0085 -0.2596  0.1825
 8647SOL    HW137400   2.166   1.149   1.233  1.2303 -0.8294  0.2480
 8647SOL    HW237401   2.035   1.092   1.250 -0.0548 -0.3380 -0.1210
 8648SOL     OW37402   1.466   3.757   7.583  0.4072 -0.2504 -0.1472
 8648SOL    HW137403   1.507   3.727   7.502 -1.4737 -0.3253 -1.0605
 8648SOL    HW237404   1.474   3.674   7.629  2.0161 -1.0153 -1.7958
 8649SOL     OW37405   2.588   1.191  15.028  0.1767  0.2537 -0.0005
 8649SOL    HW137406   2.549   1.106  15.010  0.6952  0.3146 -1.3575
 8649SOL    HW237407   2.630   1.162  15.109  1.6665 -0.0727 -0.8910
 8650SOL     OW37408   0.487   3.477   3.309 -0.1629 -0.1362 -0.5203
 8650SOL    HW137409   0.484   3.490   3.404  0.3382  0.5307 -0.5959
 8650SOL    HW237410   0.543   3.553   3.291 -0.7815  1.0171  2.3666
 8651SOL     OW37411   1.615   2.367  11.957 -0.3009 -0.3579 -0.1117
 8651SOL    HW137412   1.688   2.427  11.944 -0.3122 -0.3605 -0.1848
 8651SOL    HW237413   1.555   2.416  12.013  1.1809  1.7814 -0.3976
 8652SOL     OW37414   2.097   2.338   5.576  0.2508  0.0167  0.0449
 8652SOL    HW137415   2.033   2.299   5.635 -0.3009 -0.6313 -0.9880
 8652SOL    HW237416   2.179   2.313   5.620  0.3185 -1.4876 -0.9170
 8653SOL     OW37417   2.448   3.715   8.429 -0.3197 -0.2139 -0.6167
 8653SOL    HW137418   2.475   3.658   8.357  1.0606  0.5402 -0.7014
 8653SOL    HW237419   2.526   3.748   8.472  0.2331 -1.4233 -0.6864
 8654SOL     OW37420   2.431   4.447  12.964  0.4829  0.2610 -0.5047
 8654SOL    HW137421   2.507   4.503  12.980  0.3596  0.7583 -1.6963
 8654SOL    HW237422   2.475   4.363  12.978 -1.5745 -0.9349 -1.2884
 8655SOL     OW37423   4.092   2.649  10.264 -0.0974 -0.2701  0.8748
 8655SOL    HW137424   4.142   2.570  10.244 -1.0407 -0.4068 -0.8970
 8655SOL    HW237425   4.104   2.672  10.356  2.5589  2.8966 -0.3090
 8656SOL     OW37426   4.645   4.466   2.952 -0.2485 -0.0638 -0.4224
 8656SOL    HW137427   4.683   4.380   2.972 -2.3387 -0.5102  1.6797
 8656SOL    HW237428   4.668   4.468   2.859  3.1179  0.8644  0.4369
 8657SOL     OW37429   2.597   1.143   2.989  0.2056  0.1354 -0.4646
 8657SOL    HW137430   2.669   1.178   2.937 -0.0748 -0.9616 -1.5869
 8657SOL    HW237431   2.640   1.065   3.025 -2.0161 -1.0241 -0.3260
 8658SOL     OW37432   1.669   4.402  11.614 -0.1948 -0.1939 -0.1152
 8658SOL    HW137433   1.704   4.465  11.677  1.7917 -1.2473 -0.1702
 8658SOL    HW237434   1.594   4.378  11.669 -0.2302 -0.4518 -0.2789
 8659SOL     OW37435   1.150   3.610   7.914 -0.1232  0.5430  0.0314
 8659SOL    HW137436   1.221   3.587   7.854  1.1616  1.1624  1.3030
 8659SOL    HW237437   1.121   3.522   7.937  0.1150  0.2471 -0.7899
 8660SOL     OW37438   1.734   2.654   6.866  1.0700  0.2315  0.0507
 8660SOL    HW137439   1.699   2.643   6.777 -1.0515  2.0608  0.6417
 8660SOL    HW237440   1.712   2.745   6.887  1.1506  0.7746 -2.2080
 8661SOL     OW37441   4.539   1.254   5.524 -0.1506 -0.4682 -0.2827
 8661SOL    HW137442   4.576   1.314   5.588 -1.4057  0.0933 -0.0702
 8661SOL    HW237443   4.461   1.227   5.574  0.0881  0.2268  0.4689
 8662SOL     OW37444   2.921   1.656   8.684  0.3953 -0.3562 -0.1873
 8662SOL    HW137445   3.005   1.678   8.726  0.7906  0.1408 -1.2365
 8662SOL    HW237446   2.866   1.734   8.684  1.5720  0.4886 -0.0274
 8663SOL     OW37447   3.144   2.688   7.103  0.3735  0.1896 -0.1384
 8663SOL    HW137448   3.208   2.623   7.074 -0.6268 -0.8345 -0.0706
 8663SOL    HW237449   3.121   2.644   7.185 -0.8283 -0.1384 -0.6519
 8664SOL     OW37450   3.692   3.954   4.321 -0.0810  0.2495 -0.2528
 8664SOL    HW137451   3.740   3.883   4.278  0.0045  1.1058 -1.5748
 8664SOL    HW237452   3.769   4.010   4.331 -0.4193  0.9638 -1.6861
 8665SOL     OW37453   0.017   0.177   0.617 -0.2628  0.2920 -0.0425
 8665SOL    HW137454   0.102   0.219   0.609 -0.4601  0.5486 -0.8440
 8665SOL    HW237455   0.027   0.100   0.561 -0.6452 -0.4388  0.8901
 8666SOL     OW37456   2.015   0.625   0.211 -0.0539 -0.0780 -0.1650
 8666SOL    HW137457   2.060   0.656   0.290 -0.5664  0.2475 -0.0012
 8666SOL    HW237458   1.931   0.670   0.217  0.4848  0.4413  3.1833
 8667SOL     OW37459   0.261   4.197  12.449  0.5413  0.1252 -0.3589
 8667SOL    HW137460   0.311   4.120  12.423 -0.6783 -0.3961 -1.2000
 8667SOL    HW237461   0.290   4.197  12.540  1.8984 -2.4091 -0.7820
 8668SOL     OW37462   4.441   2.258   3.799  0.0076 -0.1884 -0.0095
 8668SOL    HW137463   4.528   2.272   3.835 -0.1443  0.2571  0.1764
 8668SOL    HW237464   4.401   2.193   3.856  1.6494  0.2966  1.6657
 8669SOL     OW37465   4.597   1.116   5.285 -0.1481  0.7271 -0.5477
 8669SOL    HW137466   4.507   1.090   5.305  0.5063 -1.7203 -0.8334
 8669SOL    HW237467   4.630   1.128   5.374  1.0317  1.1328 -1.0459
 8670SOL     OW37468   0.564   2.521   2.212 -0.0109 -0.5629  0.4381
 8670SOL    HW137469   0.481   2.547   2.251  0.4909  0.3531  0.8985
 8670SOL    HW237470   0.600   2.468   2.283 -1.8259 -1.1395  0.9079
 8671SOL     OW37471   2.381   3.315   4.757 -0.7241 -0.0349  0.4040
 8671SOL    HW137472   2.393   3.383   4.692 -2.3376 -1.0722 -0.9774
 8671SOL    HW237473   2.360   3.367   4.834 -0.2131 -1.0545  1.2513
 8672SOL     OW37474   0.777   1.005   8.784  0.1939  0.2044  0.1060
 8672SOL    HW137475   0.737   1.063   8.849  0.5970 -1.3399  1.7241
 8672SOL    HW237476   0.864   1.045   8.775  0.9629 -1.3517  0.6878
 8673SOL     OW37477   1.637   4.627   1.319 -0.2429  0.3184  0.0490
 8673SOL    HW137478   1.685   4.683   1.381 -0.4819  0.2104  0.3333
 8673SOL    HW237479   1.633   4.679   1.239  1.0434  1.5519  0.7659
 8674SOL     OW37480   0.314   0.265   1.857  0.1711 -0.0001 -0.1465
 8674SOL    HW137481   0.223   0.283   1.835  0.0634 -0.6208 -0.2206
 8674SOL    HW237482   0.343   0.347   1.896 -2.6813  0.0428  1.8567
 8675SOL     OW37483   2.968   1.116   3.333  0.2559 -0.3466  0.6675
 8675SOL    HW137484   3.042   1.086   3.281 -0.4304 -1.4978  0.3626
 8675SOL    HW237485   2.898   1.060   3.300 -1.6081  3.1614 -1.3239
 8676SOL     OW37486   4.230   3.961   7.826 -0.0563  0.7844 -0.1326
 8676SOL    HW137487   4.300   3.938   7.888 -0.5524  1.9033  0.8400
 8676SOL    HW237488   4.179   4.008   7.892  0.3892 -2.7788  2.7372
 8677SOL     OW37489   0.155   1.824   1.239 -0.6535  0.0198 -0.8005
 8677SOL    HW137490   0.108   1.825   1.323  1.1890  1.9013  0.1975
 8677SOL    HW237491   0.213   1.750   1.256 -0.9277 -0.3512 -1.5017
 8678SOL     OW37492   1.883   0.159  13.526  0.3567 -0.5384  0.3379
 8678SOL    HW137493   1.832   0.164  13.445 -0.5076 -0.3238  0.8968
 8678SOL    HW237494   1.934   0.240  13.514 -0.8232  0.1655  0.1069
 8679SOL     OW37495   0.743   3.757  16.391 -0.4538 -0.3781 -0.2086
 8679SOL    HW137496   0.671   3.715  16.344 -2.3907  0.8650  1.6071
 8679SOL    HW237497   0.803   3.684  16.405  0.1879  0.4806  1.4817
 8680SOL     OW37498   0.902   3.771   8.630  0.3071  0.7997 -0.4916
 8680SOL    HW137499   0.914   3.812   8.544 -0.0152 -4.6330 -3.1332
 8680SOL    HW237500   0.941   3.687   8.609  3.1290  1.7081  1.0625
 8681SOL     OW37501   0.792   0.647   8.141  0.1322  0.1728 -0.4344
 8681SOL    HW137502   0.751   0.609   8.063 -0.6522  0.6181 -0.2421
 8681SOL    HW237503   0.721   0.706   8.167  0.8701  0.2235  1.4440
 8682SOL     OW37504   4.138   0.036   9.387 -0.1771  0.0837 -0.3214
 8682SOL    HW137505   4.098   0.028   9.474 -0.5690 -2.2488 -0.7273
 8682SOL    HW237506   4.078   0.092   9.338 -0.9149 -0.8430 -0.4715
 8683SOL     OW37507   3.470   0.740  14.408 -0.1232  0.3627 -0.3397
 8683SOL    HW137508   3.451   0.739  14.502  0.5484  0.1335 -0.2067
 8683SOL    HW237509   3.565   0.754  14.410 -0.5470  3.0031  1.1468
 8684SOL     OW37510   1.217   2.619  14.739  0.3302 -0.1085  0.3132
 8684SOL    HW137511   1.198   2.619  14.833  3.3389  1.7238  0.9434
 8684SOL    HW237512   1.311   2.635  14.754 -0.3273  2.4810  1.8257
 8685SOL     OW37513   0.080   1.089  16.581 -0.3709  0.0892 -0.5658
 8685SOL    HW137514   0.079   1.184  16.569 -0.3178 -0.1359 -2.3427
 8685SOL    HW237515   4.712   1.059  16.573  0.2566 -1.6951 -1.1173
 8686SOL     OW37516   3.704   1.859   5.587  0.2479 -0.0530 -0.5064
 8686SOL    HW137517   3.757   1.848   5.666  0.7481 -0.7921 -0.9442
 8686SOL    HW237518   3.619   1.847   5.630  1.1436  0.3982  1.4256
 8687SOL     OW37519   0.734   2.635  15.387  0.1132  0.4109  0.3598
 8687SOL    HW137520   0.730   2.575  15.462  0.7343  0.9123  0.8017
 8687SOL    HW237521   0.786   2.702  15.431 -1.6101  1.9084  0.1113
 8688SOL     OW37522   2.237   1.402   2.528 -0.2712 -0.1470  0.0502
 8688SOL    HW137523   2.171   1.402   2.598 -1.6705  2.1241 -1.2586
 8688SOL    HW237524   2.180   1.445   2.464  0.2298  0.5506  0.0744
 8689SOL     OW37525   0.547   1.635   2.451  0.3077 -0.1592  0.0812
 8689SOL    HW137526   0.640   1.650   2.470  0.9247 -1.2489 -2.0388
 8689SOL    HW237527   0.509   1.722   2.446 -0.8182 -0.6514  0.0566
 8690SOL     OW37528   1.286   4.337   8.146  0.4233 -0.1115  0.2681
 8690SOL    HW137529   1.267   4.295   8.063  3.5461  1.7272 -1.3842
 8690SOL    HW237530   1.216   4.402   8.152 -1.1130 -1.7273 -0.1221
 8691SOL     OW37531   1.901   0.300   8.994 -0.2971 -0.0642  0.1454
 8691SOL    HW137532   1.993   0.279   8.983  0.0860  1.3657  0.6055
 8691SOL    HW237533   1.896   0.316   9.088  1.7376  2.0444 -0.1017
 8692SOL     OW37534   3.651   0.378   1.249 -0.1302 -0.1886  0.3731
 8692SOL    HW137535   3.738   0.401   1.218  0.0911 -1.2913  0.1978
 8692SOL    HW237536   3.619   0.345   1.165 -3.2575  0.3960  1.3288
 8693SOL     OW37537   1.219   0.526   5.000 -0.1474  0.3011  0.0894
 8693SOL    HW137538   1.207   0.503   5.092 -1.6753  0.3251 -0.1036
 8693SOL    HW237539   1.210   0.442   4.955 -0.8973 -0.4106  1.5956
 8694SOL     OW37540   3.256   3.486   5.419 -0.3165  0.1980  0.0838
 8694SOL    HW137541   3.261   3.393   5.442  0.2681  0.3777  0.6646
 8694SOL    HW237542   3.180   3.513   5.472 -0.7527 -2.2988  0.7337
 8695SOL     OW37543   0.995   1.123   4.065  0.1242  0.2756  0.4374
 8695SOL    HW137544   1.035   1.121   4.152 -0.3226  1.3655  0.6770
 8695SOL    HW237545   0.952   1.209   4.070  1.4804  1.0840 -2.0422
 8696SOL     OW37546   1.775   4.544  13.230  0.0339  0.5001 -0.3328
 8696SOL    HW137547   1.785   4.592  13.148  3.8470 -0.6871 -0.5523
 8696SOL    HW237548   1.763   4.454  13.199  0.2328 -0.3695  2.1002
 8697SOL     OW37549   3.986   0.496   4.529 -0.1519  0.6878 -0.1726
 8697SOL    HW137550   4.070   0.462   4.560  0.9274  1.2837 -2.4091
 8697SOL    HW237551   3.965   0.424   4.470  1.0053 -0.4775  0.8429
 8698SOL     OW37552   2.457   1.403   6.114  0.2320  0.1618 -0.6760
 8698SOL    HW137553   2.522   1.366   6.054 -1.0922  0.6230 -2.3868
 8698SOL    HW237554   2.394   1.433   6.049 -0.8951  0.8593  0.7572
 8699SOL     OW37555   0.743   3.490   2.166 -0.4913 -0.5785  0.5683
 8699SOL    HW137556   0.678   3.494   2.096 -1.4151 -0.9846  1.4016
 8699SOL    HW237557   0.707   3.545   2.236  0.4347 -1.0389  1.4266
 8700SOL     OW37558   0.531   4.372   2.053  0.0222  0.1312  0.4467
 8700SOL    HW137559   0.588   4.390   2.128  0.0974 -2.7837  1.0770
 8700SOL    HW237560   0.465   4.313   2.090 -0.4575  0.8272  0.7101
 8701SOL     OW37561   4.353   3.345   7.336  0.2078 -0.4505 -0.3093
 8701SOL    HW137562   4.401   3.419   7.373  0.5212 -0.4346 -0.7395
 8701SOL    HW237563   4.388   3.277   7.393 -0.2465  0.6876  1.3049
 8702SOL     OW37564   4.302   1.351   7.173  0.3019 -0.1145 -0.3235
 8702SOL    HW137565   4.358   1.401   7.114  1.2296  0.9051  1.3942
 8702SOL    HW237566   4.228   1.345   7.113 -0.2145 -0.1294  0.3086
 8703SOL     OW37567   2.894   3.859  15.004  0.2934 -0.1682 -0.0200
 8703SOL    HW137568   2.870   3.796  15.071  0.2277  0.4054  0.4951
 8703SOL    HW237569   2.820   3.915  15.025  1.7990  1.8626 -0.0836
 8704SOL     OW37570   0.805   1.270  15.016  0.4836  0.2540 -0.8207
 8704SOL    HW137571   0.847   1.308  15.093 -0.6212  0.1350 -0.1590
 8704SOL    HW237572   0.882   1.275  14.959  1.5604  0.9857  0.7013
 8705SOL     OW37573   2.775   3.213   0.983 -0.2714  0.0423  0.8496
 8705SOL    HW137574   2.854   3.234   1.032 -0.4558  1.0562  0.7050
 8705SOL    HW237575   2.708   3.237   1.048 -0.5162  0.8403  0.3035
 8706SOL     OW37576   3.308   1.620   7.692  0.1173  0.1217  0.1335
 8706SOL    HW137577   3.320   1.686   7.623 -1.8973 -0.3174 -0.6352
 8706SOL    HW237578   3.362   1.556   7.645  1.4023  1.8662 -0.7997
 8707SOL     OW37579   4.568   4.003   4.962 -0.0456 -0.2074 -0.0161
 8707SOL    HW137580   4.616   3.995   4.880 -0.7619 -1.3366 -0.3373
 8707SOL    HW237581   4.475   4.019   4.945 -0.0238  0.1150  0.1771
 8708SOL     OW37582   3.724   3.111   7.477  0.4268 -0.2780 -0.2424
 8708SOL    HW137583   3.705   3.196   7.516  0.4787 -1.6796  2.8809
 8708SOL    HW237584   3.644   3.072   7.444 -0.0674 -1.0268  1.8115
 8709SOL     OW37585   0.251   4.034   3.375 -0.2534 -0.5563 -0.2797
 8709SOL    HW137586   0.226   4.091   3.448  3.8167  0.0848  0.6267
 8709SOL    HW237587   0.211   3.954   3.410  2.4514 -2.4405 -1.5514
 8710SOL     OW37588   2.940   0.710   5.060  0.0471 -0.6204  0.6917
 8710SOL    HW137589   2.992   0.662   4.995 -1.1874 -0.6063 -0.3077
 8710SOL    HW237590   2.858   0.660   5.066  0.4031 -1.4530 -1.3765
 8711SOL     OW37591   2.246   2.218  17.368 -0.1398 -0.0173  0.1506
 8711SOL    HW137592   2.333   2.180  17.360  0.7040  1.8120  0.6298
 8711SOL    HW237593   2.204   2.188  17.288 -1.3435  1.6305  0.1551
 8712SOL     OW37594   3.925   1.019   0.286  0.0131  0.0414 -0.0184
 8712SOL    HW137595   4.000   1.019   0.226 -0.4403 -0.6994 -0.5900
 8712SOL    HW237596   3.946   0.942   0.339 -0.7555 -0.6397 -0.6813
 8713SOL     OW37597   3.612   3.640   2.127 -0.2386 -0.4331  0.2110
 8713SOL    HW137598   3.574   3.663   2.042  0.8280 -1.4392 -0.5417
 8713SOL    HW237599   3.547   3.669   2.191  0.4893  2.1502 -0.1964
 8714SOL     OW37600   4.520   0.745   5.071 -0.0676  0.0385 -0.3211
 8714SOL    HW137601   4.557   0.754   5.158  0.0354  1.8849 -0.5728
 8714SOL    HW237602   4.601   0.725   5.022 -0.1031 -0.3947 -0.2074
 8715SOL     OW37603   2.914   0.952   0.651 -0.1838  0.1673 -0.0985
 8715SOL    HW137604   2.986   0.935   0.712  0.5525  1.2834 -0.6554
 8715SOL    HW237605   2.858   0.878   0.672  1.2728 -1.3268 -1.4817
 8716SOL     OW37606   0.001   0.973   3.043  0.4579  0.6065 -0.1419
 8716SOL    HW137607   0.063   0.902   3.026 -1.2273 -1.1610  1.0412
 8716SOL    HW237608   0.031   1.015   3.123  0.5811 -1.5798  0.9537
 8717SOL     OW37609   1.418   1.287   0.585 -0.3391  0.8221  0.5411
 8717SOL    HW137610   1.449   1.246   0.504  2.4108  0.7781  1.6100
 8717SOL    HW237611   1.449   1.223   0.649  1.3004  1.3291  0.2782
 8718SOL     OW37612   2.601   1.151   4.894 -0.0020  0.5364 -0.2600
 8718SOL    HW137613   2.624   1.169   4.985 -0.1443  0.9544 -0.3044
 8718SOL    HW237614   2.617   1.057   4.885  0.0344  0.5260 -0.0748
 8719SOL     OW37615   2.841   0.450   7.867 -0.2374  0.5539 -0.5332
 8719SOL    HW137616   2.755   0.485   7.890 -1.0839 -1.8435  0.0275
 8719SOL    HW237617   2.874   0.435   7.956  0.9443  0.2761 -1.0275
 8720SOL     OW37618   1.645   1.946   4.931  0.1654 -0.1292 -0.2311
 8720SOL    HW137619   1.617   2.016   4.990  0.2818 -0.9681  0.8264
 8720SOL    HW237620   1.671   1.878   4.992  2.9079  3.5952  2.7742
 8721SOL     OW37621   3.972   4.666  16.233 -0.6830 -0.0858  0.3251
 8721SOL    HW137622   3.879   4.681  16.250 -0.4053 -1.1251  2.7410
 8721SOL    HW237623   4.016   0.018  16.272  2.1521 -1.5813 -0.0307
 8722SOL     OW37624   3.511   0.534   7.489 -0.4410  0.3837 -0.7823
 8722SOL    HW137625   3.544   0.472   7.554 -2.7635  0.4915  0.4874
 8722SOL    HW237626   3.437   0.481   7.460  0.2193  0.1243 -2.0090
 8723SOL     OW37627   3.005   2.639  16.523 -0.2021 -0.2394 -0.3448
 8723SOL    HW137628   2.917   2.676  16.536 -0.5341 -0.9544 -0.5740
 8723SOL    HW237629   2.979   2.581  16.451 -0.1750  0.1557 -0.6733
 8724SOL     OW37630   0.109   3.001   2.128  0.3294  0.1273  0.0933
 8724SOL    HW137631   0.102   3.096   2.130 -0.0324  0.1121 -0.7244
 8724SOL    HW237632   0.019   2.972   2.143  0.0538  1.1492  0.3980
 8725SOL     OW37633   4.156   0.508  15.110 -0.5428  0.3693  0.2164
 8725SOL    HW137634   4.189   0.447  15.044 -1.1637  1.0116 -0.6979
 8725SOL    HW237635   4.232   0.564  15.125  0.5276 -1.6718  2.4048
 8726SOL     OW37636   3.967   2.194   2.089 -0.0659 -0.1276 -0.1819
 8726SOL    HW137637   4.013   2.270   2.053  1.1463 -1.6474 -1.7900
 8726SOL    HW237638   3.932   2.238   2.167  0.9335 -0.5514  0.4948
 8727SOL     OW37639   2.454   1.488   4.670 -0.0237 -0.6592  0.1516
 8727SOL    HW137640   2.418   1.546   4.603 -1.0500 -2.0628 -0.5183
 8727SOL    HW237641   2.531   1.540   4.693 -0.8646  0.9135 -0.5704
 8728SOL     OW37642   3.277   2.501  17.038 -0.5773 -0.3273  0.5488
 8728SOL    HW137643   3.274   2.439  16.965 -0.5351  1.9321 -1.3557
 8728SOL    HW237644   3.188   2.535  17.035 -0.0039  1.2855  1.8855
 8729SOL     OW37645   0.063   3.639   9.388  0.5139  0.2543 -0.5303
 8729SOL    HW137646   0.054   3.733   9.401 -3.4433  0.0737 -2.0317
 8729SOL    HW237647   0.111   3.607   9.464  1.9599 -0.6542 -1.8074
 8730SOL     OW37648   2.811   0.819  11.036 -0.3647 -0.7152  0.9004
 8730SOL    HW137649   2.720   0.825  11.065 -0.1727  0.4213  1.2979
 8730SOL    HW237650   2.845   0.884  11.099  0.7846 -0.6449  0.1938
 8731SOL     OW37651   4.546   3.037   1.250 -0.0833 -0.2756 -0.0115
 8731SOL    HW137652   4.585   3.072   1.169 -1.2545  2.3792  0.5864
 8731SOL    HW237653   4.602   3.069   1.320 -0.3027 -0.0184  0.0446
 8732SOL     OW37654   2.858   2.642   4.961  0.5685  0.0706  0.4951
 8732SOL    HW137655   2.784   2.590   4.994 -0.3020 -0.0623 -1.6386
 8732SOL    HW237656   2.883   2.586   4.887  0.7181 -2.1090  2.1872
 8733SOL     OW37657   1.785   1.318   5.073  1.0436 -0.6988  0.3277
 8733SOL    HW137658   1.795   1.233   5.030  1.9004 -0.3838 -0.0812
 8733SOL    HW237659   1.768   1.369   4.994  0.6411  0.5452  1.2044
 8734SOL     OW37660   1.249   1.366   3.899 -0.5714 -0.0696  0.2495
 8734SOL    HW137661   1.207   1.401   3.978  0.2512  0.8563  0.2682
 8734SOL    HW237662   1.289   1.444   3.862 -2.9792  1.2796  0.4477
 8735SOL     OW37663   0.273   2.129   1.793  0.2764 -0.0298  0.0853
 8735SOL    HW137664   0.234   2.201   1.743 -0.6789  0.4359  1.4955
 8735SOL    HW237665   0.313   2.177   1.866 -0.0306  0.2170  0.0955
 8736SOL     OW37666   4.111   1.554   7.956 -0.1826 -0.1341  0.0164
 8736SOL    HW137667   4.083   1.579   7.868 -1.8696 -1.9567  0.0319
 8736SOL    HW237668   4.172   1.482   7.941 -1.0744 -0.7072 -0.8303
 8737SOL     OW37669   2.414   2.935   4.167  0.3645 -0.6038  0.2291
 8737SOL    HW137670   2.444   2.849   4.137  2.7215  0.6063 -0.9274
 8737SOL    HW237671   2.325   2.941   4.132  0.7101  0.8102 -0.3919
 8738SOL     OW37672   1.575   3.682  10.074  0.3020 -0.1460 -0.1525
 8738SOL    HW137673   1.547   3.626  10.001  1.2183  1.1580 -1.4862
 8738SOL    HW237674   1.535   3.763  10.041 -1.3584 -1.2085 -0.7991
 8739SOL     OW37675   1.730   0.697   0.196 -0.0952  0.1356 -0.2803
 8739SOL    HW137676   1.703   0.660   0.280 -3.5601  1.4606 -0.8530
 8739SOL    HW237677   1.696   0.626   0.142 -0.6120  0.4691 -0.3880
 8740SOL     OW37678   4.648   2.183   2.348  0.1212 -0.1863 -0.4855
 8740SOL    HW137679   4.641   2.099   2.392  2.7254 -1.1232 -1.8175
 8740SOL    HW237680   4.588   2.170   2.275  0.2102 -0.5969 -0.4862
 8741SOL     OW37681   4.557   1.450   9.373 -0.4644  0.4149 -0.0123
 8741SOL    HW137682   4.576   1.369   9.326  1.7483  0.9081  0.0141
 8741SOL    HW237683   4.632   1.448   9.433 -0.4233 -0.3770 -0.0972
 8742SOL     OW37684   2.941   1.844   3.128  0.5192  0.2872 -0.1525
 8742SOL    HW137685   2.913   1.934   3.146 -0.2867  0.1779 -0.8925
 8742SOL    HW237686   2.857   1.806   3.154 -1.0271  2.1185 -2.4141
 8743SOL     OW37687   3.806   2.588   6.196 -0.1918  0.4542  0.2949
 8743SOL    HW137688   3.816   2.572   6.102 -1.1982 -1.0608  0.4411
 8743SOL    HW237689   3.848   2.509   6.228  0.2820  0.3759 -0.5324
 8744SOL     OW37690   2.433   0.991  16.026  0.4766  0.7048  0.2446
 8744SOL    HW137691   2.477   1.054  15.969  0.6378 -1.5536 -2.0905
 8744SOL    HW237692   2.356   0.981  15.970  0.6955 -0.7463  0.2131
 8745SOL     OW37693   3.489   2.049   2.219  0.4873  0.1561  0.0819
 8745SOL    HW137694   3.569   2.061   2.270  0.2911  1.5759  0.0654
 8745SOL    HW237695   3.480   2.130   2.168 -1.7584  0.5044  1.0370
 8746SOL     OW37696   0.528   0.232   2.720 -0.8623  0.3267  0.6064
 8746SOL    HW137697   0.613   0.222   2.677 -0.7941  0.4303  0.7158
 8746SOL    HW237698   0.505   0.322   2.696  1.0361  0.8118  0.5920
 8747SOL     OW37699   2.310   0.045   5.649  0.3233  0.2251 -0.7530
 8747SOL    HW137700   2.241   0.050   5.582  1.1799  1.5219 -1.5449
 8747SOL    HW237701   2.391   0.073   5.607  1.8687 -0.0530  2.0950
 8748SOL     OW37702   3.735   2.765  15.263  0.1606  0.0467  0.7543
 8748SOL    HW137703   3.703   2.832  15.202  0.7875  0.8171  1.2809
 8748SOL    HW237704   3.683   2.693  15.226 -0.3219  0.6238  0.3105
 8749SOL     OW37705   4.625   3.433   4.047  0.2264 -0.0670  0.0777
 8749SOL    HW137706   4.674   3.353   4.065  1.8519  0.5726 -1.5334
 8749SOL    HW237707   4.619   3.426   3.952  0.7473 -0.1751  0.0507
 8750SOL     OW37708   2.833   0.080   1.698  0.1925  0.1267 -0.8065
 8750SOL    HW137709   2.878   0.133   1.632  0.0442 -1.1747 -1.9562
 8750SOL    HW237710   2.897   0.011   1.716 -2.4194 -1.5645  2.0287
 8751SOL     OW37711   2.372   2.623   6.576 -0.0583 -0.1105  0.1975
 8751SOL    HW137712   2.280   2.649   6.565  0.2167  0.9798  0.4924
 8751SOL    HW237713   2.379   2.622   6.671 -0.9090 -1.2129  0.2626
 8752SOL     OW37714   3.676   1.062   4.147  0.7085  0.6214 -0.1004
 8752SOL    HW137715   3.633   0.996   4.200 -1.5061  0.5207 -2.0601
 8752SOL    HW237716   3.611   1.132   4.144  0.1209  0.0794  0.1111
 8753SOL     OW37717   0.039   0.505   7.626 -0.6798  0.1074  0.4517
 8753SOL    HW137718   0.107   0.456   7.580 -0.7298  1.4038 -0.9895
 8753SOL    HW237719   0.014   0.447   7.699 -1.0643 -1.3400 -0.8199
 8754SOL     OW37720   2.318   1.726  14.445 -0.3435  0.0862 -0.4708
 8754SOL    HW137721   2.277   1.695  14.364  0.9551  0.3490 -1.2231
 8754SOL    HW237722   2.248   1.780  14.482  0.2797  0.7700 -0.2925
 8755SOL     OW37723   1.489   1.188   7.567  0.2793 -0.2169 -0.3757
 8755SOL    HW137724   1.483   1.215   7.659  1.4076 -4.0356  0.8126
 8755SOL    HW237725   1.419   1.124   7.561 -1.5325  1.6481  0.9253
 8756SOL     OW37726   3.457   2.460   6.305  0.0197  0.1975  0.2211
 8756SOL    HW137727   3.362   2.451   6.296 -0.2798  2.1437  1.4751
 8756SOL    HW237728   3.486   2.430   6.218  0.0173 -1.5560  0.8121
 8757SOL     OW37729   0.797   4.436   8.056 -0.4993 -0.2086 -0.3765
 8757SOL    HW137730   0.759   4.509   8.006 -1.2504  0.1323  0.7012
 8757SOL    HW237731   0.846   4.388   7.989 -1.0597 -1.5167  0.1523
 8758SOL     OW37732   3.412   3.270  17.223  0.2424 -0.3953  0.1797
 8758SOL    HW137733   3.434   3.363  17.222  1.1803 -0.6195  0.2824
 8758SOL    HW237734   3.379   3.251  17.311  0.7437 -1.7382  0.0710
 8759SOL     OW37735   4.320   2.122   1.542 -0.0800  0.3919 -0.3289
 8759SOL    HW137736   4.281   2.045   1.583  2.0237  0.1189  1.1674
 8759SOL    HW237737   4.291   2.189   1.604  0.0400  0.2237 -0.0934
 8760SOL     OW37738   1.679   1.295   4.093  0.1667  0.0173  0.2412
 8760SOL    HW137739   1.611   1.232   4.117 -0.8375  0.5260 -1.3115
 8760SOL    HW237740   1.686   1.343   4.176  0.8701 -0.5206  0.4945
 8761SOL     OW37741   0.331   3.965   2.865  0.6633  0.1527  0.1721
 8761SOL    HW137742   0.242   3.942   2.840  1.9142 -3.5229 -0.8782
 8761SOL    HW237743   0.304   4.011   2.945 -0.8438  1.6726 -1.2084
 8762SOL     OW37744   4.227   3.946   5.885 -0.8650 -0.1136 -0.3555
 8762SOL    HW137745   4.150   4.002   5.898 -2.0508 -2.1495  1.4127
 8762SOL    HW237746   4.178   3.870   5.853 -2.0889  0.1612  0.8707
 8763SOL     OW37747   3.613   0.578  13.312  0.5174  0.1968  0.3427
 8763SOL    HW137748   3.656   0.587  13.397  0.9518 -0.8526  0.2262
 8763SOL    HW237749   3.647   0.658  13.272 -1.8135  1.3062  0.5547
 8764SOL     OW37750   3.851   0.825   7.402  0.4308  0.4026  0.1466
 8764SOL    HW137751   3.914   0.785   7.342  2.1193  0.8447  1.6281
 8764SOL    HW237752   3.857   0.781   7.487 -0.4435 -0.1516 -0.0792
 8765SOL     OW37753   2.785   0.314  15.449 -0.1872 -0.0650  0.2993
 8765SOL    HW137754   2.809   0.312  15.357 -3.6891 -0.0578 -0.6106
 8765SOL    HW237755   2.871   0.300  15.490 -0.4996 -3.4073 -0.1913
 8766SOL     OW37756   2.543   4.074   5.667  0.0200 -0.6453  0.5611
 8766SOL    HW137757   2.528   4.100   5.758 -1.2156 -1.7799  0.6936
 8766SOL    HW237758   2.625   4.120   5.648 -0.8700  0.4684 -0.6034
 8767SOL     OW37759   2.177   2.032   8.519  0.1399  0.2001 -0.2787
 8767SOL    HW137760   2.185   2.081   8.600 -1.0068  1.1114 -0.7212
 8767SOL    HW237761   2.091   2.071   8.504  0.2076  0.4490 -0.0071
 8768SOL     OW37762   2.001   3.488   3.754  0.4624  0.4005 -0.8088
 8768SOL    HW137763   2.081   3.522   3.795 -0.8649  0.5957  1.6569
 8768SOL    HW237764   2.034   3.469   3.666 -1.6905  1.9007 -1.9110
 8769SOL     OW37765   1.344   1.233  15.318 -0.1040  0.5054  0.0429
 8769SOL    HW137766   1.345   1.304  15.253  1.1183 -0.3614 -0.9031
 8769SOL    HW237767   1.291   1.273  15.386 -1.1070 -1.1129  0.2100
 8770SOL     OW37768   3.227   2.512   7.688  0.1921  0.2752 -0.1035
 8770SOL    HW137769   3.270   2.532   7.771  3.5867 -0.5888 -1.6447
 8770SOL    HW237770   3.289   2.445   7.658 -0.8870 -1.1007  0.6972
 8771SOL     OW37771   0.750   1.780   8.743 -0.2168  0.2577  0.0360
 8771SOL    HW137772   0.662   1.819   8.738 -0.8097 -0.9623  0.9054
 8771SOL    HW237773   0.792   1.857   8.781  0.6399 -0.9716  1.5189
 8772SOL     OW37774   1.220   4.639  17.095  0.3148  0.1439  0.1232
 8772SOL    HW137775   1.310   4.670  17.079  0.0807  0.2304 -1.0238
 8772SOL    HW237776   1.169   4.682  17.027  0.6100  0.8121  0.3192
 8773SOL     OW37777   3.557   1.645   5.178  0.1265 -0.2890  0.3553
 8773SOL    HW137778   3.561   1.740   5.177 -0.3159 -0.2512  1.9980
 8773SOL    HW237779   3.610   1.620   5.254 -0.1935 -1.8281  0.0771
 8774SOL     OW37780   1.341   4.412   3.744  0.2730  0.0202 -0.0741
 8774SOL    HW137781   1.349   4.492   3.796  0.3406 -0.2052  0.2670
 8774SOL    HW237782   1.274   4.446   3.685 -0.8845  1.0379  1.8296
 8775SOL     OW37783   3.421   1.411  13.452 -0.5117  0.2370  0.1234
 8775SOL    HW137784   3.331   1.443  13.458 -0.8979 -0.8170 -0.0277
 8775SOL    HW237785   3.409   1.317  13.464 -0.6511  0.1368 -0.7566
 8776SOL     OW37786   1.138   1.844  12.544  0.4002 -0.7480  0.0472
 8776SOL    HW137787   1.080   1.920  12.540  1.7463  0.3160  0.6931
 8776SOL    HW237788   1.157   1.831  12.451 -1.0294  1.2613 -0.5179
 8777SOL     OW37789   4.128   1.161   4.115  0.4396  0.0201 -0.1268
 8777SOL    HW137790   4.048   1.207   4.140 -0.1871 -1.4931  0.6866
 8777SOL    HW237791   4.115   1.169   4.020  2.6538 -0.8683 -0.4976
 8778SOL     OW37792   0.644   0.848   5.546  0.2671  0.3042  0.0078
 8778SOL    HW137793   0.617   0.924   5.494 -3.5498  0.2250  1.8522
 8778SOL    HW237794   0.572   0.788   5.529  1.5601 -2.1304  3.1284
 8779SOL     OW37795   2.623   0.226   9.790 -0.2347  0.4404  0.3658
 8779SOL    HW137796   2.550   0.282   9.815 -0.9748  0.1783 -1.2340
 8779SOL    HW237797   2.570   0.170   9.733  2.3107 -1.0545 -0.5321
 8780SOL     OW37798   1.803   4.570  12.654 -0.2411  0.6557 -0.8662
 8780SOL    HW137799   1.736   4.601  12.715  0.7570 -2.4296  1.8625
 8780SOL    HW237800   1.830   4.657  12.627 -0.0075  1.0425  0.5908
 8781SOL     OW37801   0.446   0.393  10.174  0.0523  0.5353 -0.2447
 8781SOL    HW137802   0.532   0.416  10.210 -1.2163  4.1523  0.5002
 8781SOL    HW237803   0.438   0.471  10.120  1.7283 -0.1282 -1.4509
 8782SOL     OW37804   3.534   2.238  10.080  0.1234  0.0240 -0.4393
 8782SOL    HW137805   3.456   2.293  10.088  0.9041  0.9746  0.6952
 8782SOL    HW237806   3.512   2.155  10.120  0.5500 -0.5778 -1.4550
 8783SOL     OW37807   1.857   0.273  14.199 -0.3092  0.2475  0.2999
 8783SOL    HW137808   1.857   0.244  14.108  0.3568 -2.6552  1.2306
 8783SOL    HW237809   1.842   0.367  14.190  0.5767  0.2817 -0.8283
 8784SOL     OW37810   0.362   0.660   1.555 -0.0613  0.7265 -0.0817
 8784SOL    HW137811   0.330   0.671   1.644  0.0456 -3.3602  0.4956
 8784SOL    HW237812   0.441   0.712   1.570  1.0536 -0.6344 -1.1526
 8785SOL     OW37813   3.850   2.760  10.549  0.1034 -0.2998  0.5368
 8785SOL    HW137814   3.820   2.686  10.496  1.7773 -2.0832  2.0900
 8785SOL    HW237815   3.776   2.817  10.531  1.0950  0.5770 -0.7878
 8786SOL     OW37816   1.220   3.439  10.207  0.7087  0.4361 -0.1016
 8786SOL    HW137817   1.292   3.383  10.179  0.4160 -1.3358  2.6971
 8786SOL    HW237818   1.179   3.377  10.267  2.0203 -1.8850 -1.6214
 8787SOL     OW37819   3.380   1.106   2.093 -0.1984 -0.0525  0.6185
 8787SOL    HW137820   3.468   1.132   2.066 -0.4341 -0.2664 -0.3445
 8787SOL    HW237821   3.408   1.058   2.171 -0.2530 -0.7659  0.1975
 8788SOL     OW37822   3.626   2.187   4.049  0.2704 -0.0559  0.0030
 8788SOL    HW137823   3.624   2.263   3.991 -1.5613 -1.1329 -1.3159
 8788SOL    HW237824   3.552   2.205   4.107 -0.0938  3.1490 -1.4404
 8789SOL     OW37825   3.671   2.457   1.055  0.4043  0.2094 -0.1390
 8789SOL    HW137826   3.597   2.401   1.033 -0.2173  1.2639 -0.7653
 8789SOL    HW237827   3.724   2.388   1.093 -0.6538  0.2752  1.4479
 8790SOL     OW37828   2.444   1.881   9.193  0.1110 -0.4051 -0.0761
 8790SOL    HW137829   2.496   1.935   9.253 -1.4806  1.1658 -0.1163
 8790SOL    HW237830   2.484   1.797   9.214 -0.5129 -0.3921  1.1156
 8791SOL     OW37831   2.979   2.312  11.850 -0.3373  0.2719  0.0915
 8791SOL    HW137832   2.992   2.313  11.945 -1.1207  2.2160  0.2004
 8791SOL    HW237833   2.989   2.221  11.823  0.4599 -0.1629  1.8723
 8792SOL     OW37834   3.689   4.446  11.646 -0.1668  0.3289 -0.5586
 8792SOL    HW137835   3.780   4.417  11.639  0.4614  2.0610  0.6166
 8792SOL    HW237836   3.674   4.474  11.556 -1.5254 -0.3738 -0.5567
 8793SOL     OW37837   2.497   1.191   4.418 -0.2042  0.1885  0.7491
 8793SOL    HW137838   2.567   1.179   4.484  0.2754 -1.0689  0.0175
 8793SOL    HW237839   2.416   1.163   4.460  0.9740 -1.5406  1.8607
 8794SOL     OW37840   4.121   3.673   3.751 -0.2048 -0.1046 -0.0858
 8794SOL    HW137841   4.100   3.741   3.687 -0.3323  0.8495  0.9777
 8794SOL    HW237842   4.066   3.611   3.702 -0.1568 -0.9998  0.9834
 8795SOL     OW37843   2.801   0.926   3.822  0.1735 -0.3085 -0.1980
 8795SOL    HW137844   2.747   0.862   3.870 -1.1703  2.3708  1.8540
 8795SOL    HW237845   2.770   0.905   3.734  1.7777 -4.1832  0.1713
 8796SOL     OW37846   3.116   0.898   4.954  0.3350 -0.2375 -0.3360
 8796SOL    HW137847   3.045   0.879   4.892 -0.8728  0.1337  0.9461
 8796SOL    HW237848   3.072   0.867   5.033 -0.5777 -1.3833 -1.2879
 8797SOL     OW37849   3.699   3.302  17.457  0.3366  0.4431  0.5224
 8797SOL    HW137850   3.609   3.334  17.450  0.0338 -0.2577  1.2625
 8797SOL    HW237851   3.690   3.210  17.432  0.2980  0.8246 -0.8978
 8798SOL     OW37852   2.344   4.288   6.940 -0.0771  0.0329 -0.0039
 8798SOL    HW137853   2.264   4.333   6.911 -0.7086 -0.4062  1.0722
 8798SOL    HW237854   2.312   4.198   6.946  0.9479 -0.2449  1.2612
 8799SOL     OW37855   3.798   3.016   0.739 -0.1795  0.1212  0.2889
 8799SOL    HW137856   3.753   2.956   0.679  1.4365  1.7432 -2.5394
 8799SOL    HW237857   3.798   3.094   0.683  1.8165  1.9698  2.9009
 8800SOL     OW37858   4.362   0.261   2.575  0.4713 -0.8185 -0.5562
 8800SOL    HW137859   4.380   0.326   2.508  0.2376  0.5931  0.7591
 8800SOL    HW237860   4.293   0.211   2.530 -1.9474 -0.1745  2.4230
 8801SOL     OW37861   1.081   1.002   9.870  0.2216 -0.4292  0.0222
 8801SOL    HW137862   1.173   1.023   9.852  0.1877 -0.3555 -0.0669
 8801SOL    HW237863   1.069   0.917   9.827  1.6439  0.0680 -1.3593
 8802SOL     OW37864   2.089   1.836  14.544 -0.1807  0.3092  0.3095
 8802SOL    HW137865   2.008   1.885  14.531 -0.6087 -0.3693  0.3816
 8802SOL    HW237866   2.121   1.878  14.623 -0.1421 -1.1034  1.0351
 8803SOL     OW37867   1.603   4.678  13.362 -0.5310  0.3231  0.3647
 8803SOL    HW137868   1.568   4.626  13.434 -0.3624  0.5062  0.5790
 8803SOL    HW237869   1.675   4.622  13.332 -1.0942 -0.1000 -0.1967
 8804SOL     OW37870   4.454   3.247   8.606  0.4583  0.0948  0.5525
 8804SOL    HW137871   4.414   3.314   8.662 -0.9377 -1.1382  1.0429
 8804SOL    HW237872   4.531   3.293   8.574  0.2711  0.8629  1.1827
 8805SOL     OW37873   4.620   4.406  15.966 -0.6785 -0.1958 -0.1554
 8805SOL    HW137874   4.589   4.471  15.902 -1.1425  1.7868  2.0886
 8805SOL    HW237875   4.583   4.445  16.045 -1.9993  0.1747 -0.9680
 8806SOL     OW37876   1.894   1.219  12.492 -0.2491 -0.4212 -1.1141
 8806SOL    HW137877   1.813   1.208  12.442 -1.2942 -0.6181  0.6000
 8806SOL    HW237878   1.858   1.178  12.571  0.3604  0.0997 -0.5642
 8807SOL     OW37879   4.616   3.766   3.192  0.4337  0.0352 -0.2134
 8807SOL    HW137880   4.599   3.823   3.116 -0.0499  2.1316  1.4840
 8807SOL    HW237881   4.593   3.683   3.149  1.2376 -0.8801  1.1379
 8808SOL     OW37882   3.638   0.062   4.585  0.3671  0.2283 -0.5310
 8808SOL    HW137883   3.610   4.697   4.610  2.2439  0.3621  2.0953
 8808SOL    HW237884   3.576   0.102   4.646  0.7475  0.7365 -0.4785
 8809SOL     OW37885   4.466   0.717   0.381 -0.4286  0.1983  0.1298
 8809SOL    HW137886   4.554   0.719   0.342 -0.3252 -0.3079  0.3414
 8809SOL    HW237887   4.475   0.683   0.470 -0.1328 -0.0742 -0.0034
 8810SOL     OW37888   0.727   4.162   3.469 -0.1617  0.3351 -0.1996
 8810SOL    HW137889   0.722   4.256   3.486 -1.8098 -0.0427  1.4913
 8810SOL    HW237890   0.701   4.157   3.377 -1.1937  0.3859  0.0970
 8811SOL     OW37891   3.313   4.189   5.747 -0.5854  0.2563  0.4322
 8811SOL    HW137892   3.334   4.151   5.832  0.4965  1.8717  0.8753
 8811SOL    HW237893   3.396   4.235   5.739 -0.4962  0.2442  1.3004
 8812SOL     OW37894   3.633   4.473   9.920  0.2929  0.1154 -0.6137
 8812SOL    HW137895   3.672   4.403   9.972  0.5251 -1.3163 -2.6902
 8812SOL    HW237896   3.694   4.543   9.944  0.0533 -0.4340  1.6091
 8813SOL     OW37897   3.758   3.226   5.359  0.1919  0.4058  0.1441
 8813SOL    HW137898   3.832   3.165   5.368  1.1318  1.1711 -2.6101
 8813SOL    HW237899   3.788   3.314   5.381 -1.7947  1.2088 -0.3661
 8814SOL     OW37900   2.934   3.342   5.963 -0.1477 -0.2833  0.6989
 8814SOL    HW137901   3.019   3.313   5.933 -0.5139  0.4468 -1.0015
 8814SOL    HW237902   2.903   3.409   5.903 -1.2403  2.0839  3.8986
 8815SOL     OW37903   1.070   4.700  15.159 -0.1633 -0.1365  0.4669
 8815SOL    HW137904   1.148   0.009  15.204  0.2126 -2.2975  1.3788
 8815SOL    HW237905   1.044   4.629  15.218 -2.2342 -0.6480 -1.0592
 8816SOL     OW37906   1.741   0.205   5.798  0.4864  0.2165  0.2222
 8816SOL    HW137907   1.682   0.279   5.806  2.2660  1.7350 -0.7550
 8816SOL    HW237908   1.778   0.195   5.886  1.5764  0.1334 -0.2357
 8817SOL     OW37909   1.002   1.586   6.413  0.8335  0.9398  0.2586
 8817SOL    HW137910   1.085   1.633   6.407  0.3428  1.9573  1.4338
 8817SOL    HW237911   1.010   1.525   6.339 -1.2347 -1.3651  1.9488
 8818SOL     OW37912   1.915   4.020   7.933 -0.4199  0.2140  0.0494
 8818SOL    HW137913   1.926   3.993   7.842 -0.9887  0.6187 -0.1396
 8818SOL    HW237914   1.821   4.035   7.940  0.0638  1.8841  3.2425
 8819SOL     OW37915   0.111   1.261   2.303  0.1402 -0.9891  0.1211
 8819SOL    HW137916   0.091   1.343   2.348 -2.0704 -0.3756 -2.0311
 8819SOL    HW237917   0.165   1.211   2.365  1.0732 -1.0079 -0.7000
 8820SOL     OW37918   3.408   2.464   7.104  0.5367  0.7643  0.2767
 8820SOL    HW137919   3.421   2.386   7.158 -2.7157  0.5564  0.8111
 8820SOL    HW237920   3.367   2.426   7.026  2.3356 -1.1687  0.2800
 8821SOL     OW37921   1.190   4.486   6.165  0.6472 -0.2621  0.1526
 8821SOL    HW137922   1.114   4.484   6.106  0.3441  0.4252  0.5189
 8821SOL    HW237923   1.265   4.490   6.106  0.4258 -0.7318 -0.1679
 8822SOL     OW37924   1.129   0.498   6.911  0.2448  0.4257 -0.5639
 8822SOL    HW137925   1.216   0.519   6.877  1.2137 -1.5933  0.6782
 8822SOL    HW237926   1.094   0.507   6.823 -2.9200 -0.4799  0.6026
 8823SOL     OW37927   4.708   4.504   5.390 -0.3318  0.5322 -0.7226
 8823SOL    HW137928   0.078   4.520   5.401 -0.9234  1.2352  3.1834
 8823SOL    HW237929   4.682   4.593   5.367 -1.8941  0.7731  1.9580
 8824SOL     OW37930   1.307   1.419   4.632 -0.6446  0.4572 -0.2041
 8824SOL    HW137931   1.399   1.394   4.642 -1.2038 -1.1121  1.0700
 8824SOL    HW237932   1.288   1.454   4.720  1.1879 -0.9481  0.7443
 8825SOL     OW37933   0.502   3.308  15.604 -0.2203  0.4558 -0.0446
 8825SOL    HW137934   0.480   3.327  15.512 -0.5846 -0.5681 -0.1626
 8825SOL    HW237935   0.433   3.353  15.653  0.0299  0.3796  0.3737
 8826SOL     OW37936   2.961   2.411   2.939  0.2322 -0.3991  0.0491
 8826SOL    HW137937   2.983   2.483   2.999 -1.2091 -0.7681  1.0059
 8826SOL    HW237938   3.009   2.445   2.863  0.4230  0.8240  0.7282
 8827SOL     OW37939   4.005   3.298   3.335  0.7478 -0.6856 -0.3252
 8827SOL    HW137940   4.008   3.310   3.240 -2.5657  0.4043 -0.2737
 8827SOL    HW237941   4.065   3.226   3.354  1.5134 -0.1866 -0.8213
 8828SOL     OW37942   0.383   2.740   8.246  0.2378 -0.4837  0.0183
 8828SOL    HW137943   0.429   2.775   8.322 -0.2871  0.9346 -0.3173
 8828SOL    HW237944   0.433   2.772   8.170  0.1005 -0.0307  0.1193
 8829SOL     OW37945   3.150   1.294   7.846 -0.5692  0.0151 -0.4706
 8829SOL    HW137946   3.115   1.269   7.760  1.3328  0.5979 -1.4184
 8829SOL    HW237947   3.243   1.273   7.837  0.4239  3.0429  2.8590
 8830SOL     OW37948   3.545   2.983   0.369 -0.3792 -0.2347  0.0851
 8830SOL    HW137949   3.624   2.946   0.329 -1.6729 -1.0289 -1.6989
 8830SOL    HW237950   3.580   3.067   0.399  1.1954 -0.9138  0.1422
 8831SOL     OW37951   0.210   4.388   6.245 -0.1086  0.2723  0.0055
 8831SOL    HW137952   0.218   4.446   6.169 -0.6675  0.4949  0.1132
 8831SOL    HW237953   0.174   4.306   6.214  1.7532 -0.0519 -1.3282
 8832SOL     OW37954   4.011   4.397   2.984  0.3711  0.2166 -0.0237
 8832SOL    HW137955   3.964   4.417   2.903 -0.2164  0.9865  0.5060
 8832SOL    HW237956   3.953   4.334   3.027 -0.4418  1.9042  1.3503
 8833SOL     OW37957   4.401   2.772   6.749  0.2519 -0.2393  0.2947
 8833SOL    HW137958   4.461   2.715   6.700  0.3654 -0.2314  0.4242
 8833SOL    HW237959   4.390   2.715   6.826 -1.4813 -2.0453 -1.3021
 8834SOL     OW37960   3.008   1.836   2.062 -0.0618 -0.3013 -0.1625
 8834SOL    HW137961   2.923   1.792   2.055  1.3651 -3.1611  0.5478
 8834SOL    HW237962   3.062   1.758   2.068 -1.7463 -1.5100 -0.5995
 8835SOL     OW37963   3.819   1.740  14.478  0.1550 -0.3697 -0.0118
 8835SOL    HW137964   3.799   1.788  14.559  1.4346  0.5338 -0.2244
 8835SOL    HW237965   3.913   1.735  14.464  0.4016 -0.3661  1.5681
 8836SOL     OW37966   3.313   1.863   7.553 -0.0652  0.2587 -0.0805
 8836SOL    HW137967   3.345   1.925   7.619 -1.7634  1.0713 -0.0114
 8836SOL    HW237968   3.381   1.891   7.492  0.1542  3.1103  1.4545
 8837SOL     OW37969   2.502   2.556   0.708  0.0483  0.2584 -0.3682
 8837SOL    HW137970   2.411   2.545   0.681  0.0811  1.8619 -1.1501
 8837SOL    HW237971   2.518   2.650   0.703  1.7776  0.1411  3.0156
 8838SOL     OW37972   1.873   0.140  14.474 -0.1147 -0.0131 -0.3033
 8838SOL    HW137973   1.786   0.101  14.479 -0.1526 -0.0848 -1.3836
 8838SOL    HW237974   1.863   0.193  14.394  2.0084  0.4141 -0.2932
 8839SOL     OW37975   3.546   0.985  13.704 -0.4058 -0.8061 -0.3828
 8839SOL    HW137976   3.475   0.940  13.751 -0.2551 -0.0931  0.5243
 8839SOL    HW237977   3.501   1.023  13.629 -1.3439  1.2815  1.2406
 8840SOL     OW37978   3.644   1.641   2.196  0.1304 -0.1182 -0.3771
 8840SOL    HW137979   3.615   1.556   2.230  2.7030 -1.1426 -0.6857
 8840SOL    HW237980   3.622   1.655   2.104  3.2031  2.7567 -0.6799
 8841SOL     OW37981   1.834   2.005   6.641  0.2968  0.0415 -0.6132
 8841SOL    HW137982   1.751   1.961   6.658  0.1034  0.7504  0.2728
 8841SOL    HW237983   1.894   1.930   6.639 -1.1340 -1.1316  0.2139
 8842SOL     OW37984   0.642   1.140   3.342 -0.2356  0.0514  0.2544
 8842SOL    HW137985   0.616   1.095   3.262 -0.3524 -2.6845  1.8530
 8842SOL    HW237986   0.687   1.223   3.322  1.0038 -0.7777 -0.4010
 8843SOL     OW37987   1.085   4.191   4.277 -0.2806 -0.2907 -0.7040
 8843SOL    HW137988   1.028   4.120   4.247  1.2404 -1.8575  0.0995
 8843SOL    HW237989   1.037   4.218   4.355 -1.1854 -1.3036 -0.8983
 8844SOL     OW37990   4.329   1.130   6.570  0.0309 -0.1414 -0.2682
 8844SOL    HW137991   4.312   1.070   6.497  0.0880  1.1069 -1.3103
 8844SOL    HW237992   4.242   1.122   6.609 -0.8317  2.5358 -1.6095
 8845SOL     OW37993   4.190   3.453   4.979  0.3591  0.1649  0.7053
 8845SOL    HW137994   4.212   3.385   5.042 -0.3693 -1.9293 -1.2510
 8845SOL    HW237995   4.186   3.529   5.037  0.3979 -1.0769  2.3345
 8846SOL     OW37996   0.712   2.514  13.726 -0.2953 -0.2194  0.5476
 8846SOL    HW137997   0.797   2.492  13.763  0.8158  1.9711 -0.7186
 8846SOL    HW237998   0.703   2.453  13.653  1.1061  0.8595 -0.5073
 8847SOL     OW37999   3.632   2.220  16.359  0.0452  0.5819  0.5927
 8847SOL    HW138000   3.692   2.145  16.354 -1.7518 -0.5355 -3.5115
 8847SOL    HW238001   3.561   2.207  16.297  0.2082 -0.4441  0.6061
 8848SOL     OW38002   1.467   1.390   4.410 -0.1958  0.0761  0.1866
 8848SOL    HW138003   1.469   1.484   4.427  1.1388 -0.1105  1.0709
 8848SOL    HW238004   1.378   1.373   4.439 -0.6002  0.8737 -0.5690
 8849SOL     OW38005   2.807   4.194   5.169 -0.3223 -0.0862  0.0160
 8849SOL    HW138006   2.754   4.166   5.095 -0.6437  2.4395 -0.7035
 8849SOL    HW238007   2.892   4.201   5.126  0.3886 -1.7488  1.1353
 8850SOL     OW38008   3.351   2.362   4.527 -0.4436  0.9510  0.1523
 8850SOL    HW138009   3.308   2.405   4.453 -1.3627  0.3647  0.3480
 8850SOL    HW238010   3.339   2.428   4.594  0.5621  0.5117  0.7652
 8851SOL     OW38011   4.256   0.734   4.958  0.1234 -0.1091 -0.1255
 8851SOL    HW138012   4.345   0.704   4.981  0.1446  0.9521  1.1694
 8851SOL    HW238013   4.275   0.812   4.907  0.0694 -1.1919 -1.7739
 8852SOL     OW38014   3.680   2.590   9.289  0.3601  0.5716 -0.0510
 8852SOL    HW138015   3.769   2.562   9.308  0.1544  1.6963  2.6424
 8852SOL    HW238016   3.670   2.542   9.207 -0.7378  0.2479  0.2638
 8853SOL     OW38017   3.566   3.086   4.454 -0.0168 -0.1892 -0.3900
 8853SOL    HW138018   3.526   3.129   4.378 -0.4613  0.6662  0.3207
 8853SOL    HW238019   3.538   3.137   4.530  0.1831 -0.3859 -0.1860
 8854SOL     OW38020   4.498   1.364   3.630  0.6003 -0.0653  0.3648
 8854SOL    HW138021   4.561   1.411   3.684  2.1360 -0.6833 -0.9065
 8854SOL    HW238022   4.544   1.282   3.614  1.0016  0.3227 -0.4370
 8855SOL     OW38023   1.729   0.358   3.205 -0.5801  0.2006 -0.0099
 8855SOL    HW138024   1.776   0.279   3.179 -0.2754  1.0061 -1.9591
 8855SOL    HW238025   1.695   0.333   3.291  0.4084 -1.1147  0.0093
 8856SOL     OW38026   4.317   3.316   2.411 -0.2244  0.0757 -0.0782
 8856SOL    HW138027   4.410   3.303   2.431 -0.3697  0.6877  1.0251
 8856SOL    HW238028   4.302   3.224   2.391 -0.6276  0.5219 -1.8355
 8857SOL     OW38029   0.475   1.583   7.192 -0.7005  0.0951 -0.6411
 8857SOL    HW138030   0.479   1.596   7.098 -3.2513  0.8551 -0.6458
 8857SOL    HW238031   0.501   1.492   7.206 -3.1109 -0.4588  0.2255
 8858SOL     OW38032   1.917   0.384   4.677 -0.2434  0.5580 -0.2270
 8858SOL    HW138033   1.915   0.428   4.592  0.1720 -1.7143 -1.4118
 8858SOL    HW238034   2.006   0.406   4.705 -0.2426 -0.5584  0.6363
 8859SOL     OW38035   3.594   1.825  13.001 -0.1658  0.1132  0.8001
 8859SOL    HW138036   3.563   1.762  12.936 -2.7406  2.7395 -0.5355
 8859SOL    HW238037   3.651   1.766  13.051 -0.1949 -0.3182  0.3188
 8860SOL     OW38038   1.899   2.616   3.236  0.1200 -0.1597  0.8595
 8860SOL    HW138039   1.942   2.599   3.152  0.3889  1.3619  0.6976
 8860SOL    HW238040   1.975   2.654   3.282  0.9984 -1.2881  0.3520
 8861SOL     OW38041   4.068   0.467  14.799 -0.4844  0.0835  0.6139
 8861SOL    HW138042   4.096   0.375  14.803 -0.0568  0.1962  0.2433
 8861SOL    HW238043   4.154   0.507  14.791 -0.8670  0.4986 -1.4142
 8862SOL     OW38044   0.045   3.076   5.129  0.0169 -0.2118  0.3967
 8862SOL    HW138045   0.028   3.003   5.069 -2.0641  0.3849  0.2653
 8862SOL    HW238046   4.681   3.115   5.133 -0.7202 -1.9847  1.3411
 8863SOL     OW38047   4.000   1.441   8.592  0.5599 -0.5948 -0.3178
 8863SOL    HW138048   3.977   1.511   8.531  1.5297 -1.2857 -1.4737
 8863SOL    HW238049   4.006   1.488   8.676 -0.3195  1.4330 -1.3897
 8864SOL     OW38050   0.277   4.290   0.538  0.1060 -0.5379  0.0322
 8864SOL    HW138051   0.226   4.232   0.595 -1.1959 -0.2498 -0.8423
 8864SOL    HW238052   0.303   4.227   0.472 -0.5591  0.4939 -1.2141
 8865SOL     OW38053   1.691   3.751   5.500  0.1404  0.1486  0.0207
 8865SOL    HW138054   1.691   3.656   5.492  0.8341 -0.0482  2.5672
 8865SOL    HW238055   1.631   3.763   5.573  0.6841  2.1258  0.1446
 8866SOL     OW38056   0.436   1.081   3.736 -0.0997 -0.3320 -0.0718
 8866SOL    HW138057   0.394   1.148   3.682  0.5262  0.0134 -0.1227
 8866SOL    HW238058   0.515   1.075   3.682 -0.1078 -0.2630 -0.0904
 8867SOL     OW38059   2.611   3.161   0.130 -0.3333  0.3023  0.4093
 8867SOL    HW138060   2.536   3.117   0.092  0.9661 -1.9791  0.4716
 8867SOL    HW238061   2.680   3.095   0.121 -0.7488 -0.2193  1.0567
 8868SOL     OW38062   3.338   2.644   8.195  0.3936  0.1823 -0.2584
 8868SOL    HW138063   3.399   2.717   8.201  1.2068 -0.6831  1.7802
 8868SOL    HW238064   3.260   2.672   8.244 -0.2809 -1.4467 -0.4004
 8869SOL     OW38065   4.100   4.674   6.685  0.7081  1.0572 -0.6886
 8869SOL    HW138066   4.135   4.632   6.764  0.3069  1.0846 -0.4931
 8869SOL    HW238067   4.146   4.627   6.617  0.5866  0.7052 -0.5274
 8870SOL     OW38068   0.875   4.313   9.116 -0.0289  0.8285 -0.5099
 8870SOL    HW138069   0.799   4.254   9.123  1.4473 -0.8951  0.9898
 8870SOL    HW238070   0.885   4.331   9.023 -0.9486  0.8459 -0.6122
 8871SOL     OW38071   3.176   3.777  14.432 -0.2846  0.2298  0.2873
 8871SOL    HW138072   3.238   3.719  14.387  2.2337 -0.4064  4.5806
 8871SOL    HW238073   3.116   3.790  14.358 -1.6519  0.8021  1.5214
 8872SOL     OW38074   3.299   0.697   5.344 -0.1153 -0.2868 -0.3194
 8872SOL    HW138075   3.224   0.747   5.310  2.6110  3.1762 -1.3125
 8872SOL    HW238076   3.284   0.613   5.300 -0.6100 -0.4215  0.1119
 8873SOL     OW38077   3.737   0.836  13.585  0.5133  1.1051 -0.3163
 8873SOL    HW138078   3.773   0.891  13.515  0.7478 -0.6151 -1.5510
 8873SOL    HW238079   3.682   0.899  13.632 -0.7097 -0.0608 -0.1639
 8874SOL     OW38080   1.611   2.407   4.165  0.1112 -0.3565 -0.2535
 8874SOL    HW138081   1.567   2.411   4.250 -0.3554  1.0822 -0.5658
 8874SOL    HW238082   1.532   2.436   4.120  0.4090  2.0094  0.7239
 8875SOL     OW38083   0.359   1.716   5.892 -0.3497 -0.1354 -0.0934
 8875SOL    HW138084   0.421   1.645   5.910  1.0932  0.8324 -1.2722
 8875SOL    HW238085   0.348   1.702   5.798 -0.0349  0.7080 -0.2492
 8876SOL     OW38086   4.492   3.214   8.302 -0.0858  0.0272  0.1050
 8876SOL    HW138087   4.520   3.183   8.388 -1.5487  0.9153  0.9195
 8876SOL    HW238088   4.548   3.171   8.238 -0.1577 -1.5548  1.1103
 8877SOL     OW38089   4.186   2.388   6.256 -0.1354 -0.2866 -0.1551
 8877SOL    HW138090   4.228   2.377   6.171 -0.2999 -0.4783 -0.2117
 8877SOL    HW238091   4.093   2.393   6.234 -0.7060 -0.0434  2.2540
 8878SOL     OW38092   4.673   4.441   8.546 -0.5702  0.2381  0.1973
 8878SOL    HW138093   4.675   4.357   8.591  0.4735 -0.4274 -1.0724
 8878SOL    HW238094   4.702   4.500   8.614 -0.5548  0.4553  0.0037
 8879SOL     OW38095   0.825   4.160  12.270 -0.0302  0.2336 -0.1916
 8879SOL    HW138096   0.869   4.159  12.355 -0.4008  0.5331  0.0060
 8879SOL    HW238097   0.890   4.138  12.204  0.6917 -1.7458  1.2002
 8880SOL     OW38098   0.517   4.205   5.644 -0.1767 -0.0834  0.0066
 8880SOL    HW138099   0.576   4.156   5.586  2.3005  1.5965  1.1115
 8880SOL    HW238100   0.572   4.283   5.642  0.3522 -0.4792 -0.7088
 8881SOL     OW38101   0.571   0.365   7.403  0.2907  0.3050  0.0070
 8881SOL    HW138102   0.547   0.274   7.418 -1.9604  1.1381  1.4880
 8881SOL    HW238103   0.502   0.398   7.346  0.3439 -0.9415 -0.7808
 8882SOL     OW38104   1.055   1.884   6.293 -0.1103 -0.5681 -0.2973
 8882SOL    HW138105   1.130   1.832   6.323  0.5036  0.2214 -0.4718
 8882SOL    HW238106   1.081   1.971   6.322 -1.1536 -0.8669  1.5130
 8883SOL     OW38107   4.390   0.202   8.507  0.1728 -0.1202  0.3108
 8883SOL    HW138108   4.296   0.213   8.493 -0.1017 -0.5976  1.7626
 8883SOL    HW238109   4.408   0.259   8.582  1.8606  0.0105 -0.1769
 8884SOL     OW38110   3.578   2.155   4.570  0.4284 -0.2004  0.1724
 8884SOL    HW138111   3.606   2.110   4.490 -0.7822 -1.3388  0.3806
 8884SOL    HW238112   3.498   2.196   4.537  0.1027  1.0627  2.5292
 8885SOL     OW38113   0.668   1.378  10.020 -0.2143  0.0913 -0.1451
 8885SOL    HW138114   0.743   1.419   9.977  1.8817 -3.1251  0.4649
 8885SOL    HW238115   0.634   1.325   9.948  0.2302 -2.8437  1.8273
 8886SOL     OW38116   3.328   1.333  11.962 -0.3244  0.1380 -0.3248
 8886SOL    HW138117   3.364   1.298  12.044 -1.2212 -0.8827 -0.3804
 8886SOL    HW238118   3.305   1.421  11.991  1.2246  0.3086  0.4035
 8887SOL     OW38119   3.252   3.310  10.749 -0.0636 -0.3028  0.1121
 8887SOL    HW138120   3.276   3.229  10.794 -0.2081 -0.9721 -1.0168
 8887SOL    HW238121   3.190   3.264  10.692 -1.6708  0.1922  1.4723
 8888SOL     OW38122   4.464   0.201   6.973  0.5636 -0.5601  0.1069
 8888SOL    HW138123   4.397   0.268   6.958  1.6149  0.6703  0.8951
 8888SOL    HW238124   4.418   0.117   6.976 -1.2351  0.5007  1.7277
 8889SOL     OW38125   1.605   3.937   2.537  0.0469 -0.1721  0.3230
 8889SOL    HW138126   1.629   4.021   2.499  2.6637 -0.8876  0.3228
 8889SOL    HW238127   1.550   3.894   2.472 -0.9459 -0.1440  1.1527
 8890SOL     OW38128   3.389   1.032  16.690 -0.0021 -0.0608  0.0984
 8890SOL    HW138129   3.335   1.086  16.633 -2.2438 -1.5229  0.8370
 8890SOL    HW238130   3.364   0.945  16.660 -0.8461  0.4682 -0.6965
 8891SOL     OW38131   3.739   2.353   9.143 -0.6176  0.6601  0.3232
 8891SOL    HW138132   3.667   2.291   9.131  2.9269 -3.0233 -1.7677
 8891SOL    HW238133   3.769   2.339   9.233  2.6417 -1.0711 -1.0112
 8892SOL     OW38134   0.668   3.664   8.934  0.1445  1.2573 -0.5072
 8892SOL    HW138135   0.737   3.730   8.940  0.3663  0.8994  1.0488
 8892SOL    HW238136   0.710   3.581   8.910  0.9280  1.9534 -1.5461
 8893SOL     OW38137   1.171   2.878   4.420  0.3667  0.0696 -0.3985
 8893SOL    HW138138   1.128   2.910   4.341 -0.2245 -2.0198 -0.9494
 8893SOL    HW238139   1.100   2.826   4.459 -0.6260  1.2719 -0.6154
 8894SOL     OW38140   2.433   0.708  15.691 -0.0334  0.0166  0.1690
 8894SOL    HW138141   2.408   0.650  15.763  1.3630  0.7558  1.2618
 8894SOL    HW238142   2.494   0.657  15.638 -3.1936 -1.0532 -2.4117
 8895SOL     OW38143   1.655   1.972   3.269 -0.4242  0.1567  0.1642
 8895SOL    HW138144   1.597   1.898   3.252 -1.7193  0.6456  2.4401
 8895SOL    HW238145   1.722   1.946   3.206 -1.0612  1.0459 -0.8795
 8896SOL     OW38146   2.974   0.120   1.011  0.4124  0.2130 -0.7988
 8896SOL    HW138147   2.933   0.086   1.090  2.1435 -0.3969 -0.1681
 8896SOL    HW238148   2.971   0.045   0.952  0.6725 -1.9000  1.8772
 8897SOL     OW38149   0.852   2.595  10.969 -0.8179  0.4899  0.2716
 8897SOL    HW138150   0.856   2.683  11.006 -4.1941  0.9569 -0.5357
 8897SOL    HW238151   0.834   2.607  10.875 -0.4963  1.8914  0.3921
 8898SOL     OW38152   3.566   0.121   5.225 -0.4514  0.4187 -0.4439
 8898SOL    HW138153   3.603   0.202   5.190 -1.5775  1.2009  0.2000
 8898SOL    HW238154   3.540   0.066   5.151 -2.1674 -0.9941  1.1796
 8899SOL     OW38155   2.146   0.851   6.986 -0.3336  0.7104 -0.5753
 8899SOL    HW138156   2.203   0.907   7.039 -4.0638  3.4258  0.5201
 8899SOL    HW238157   2.188   0.765   6.996  0.1860  0.9971 -0.2573
 8900SOL     OW38158   4.047   3.804   8.652 -0.0881  0.5947 -0.0658
 8900SOL    HW138159   4.124   3.856   8.674  0.5686  0.7214 -2.7036
 8900SOL    HW238160   4.057   3.733   8.716  1.2277  1.1142  0.2999
 8901SOL     OW38161   0.534   2.715   3.854  0.3212  0.2328 -0.0476
 8901SOL    HW138162   0.626   2.688   3.846  0.4664  1.3800 -2.2228
 8901SOL    HW238163   0.547   2.771   3.931 -1.7735 -0.9527  1.1661
 8902SOL     OW38164   0.942   1.211  14.226  0.4111  0.6276  0.0552
 8902SOL    HW138165   1.009   1.145  14.206 -1.9145 -1.0992 -2.0770
 8902SOL    HW238166   0.980   1.239  14.309 -0.1235 -1.4201  0.9942
 8903SOL     OW38167   0.395   2.856  13.325  0.2213  0.2917 -1.2001
 8903SOL    HW138168   0.422   2.828  13.412 -3.0556  1.4242  0.1700
 8903SOL    HW238169   0.356   2.940  13.349  1.5404  0.3035  0.8475
 8904SOL     OW38170   3.332   1.492   3.668 -0.1844 -0.2029  0.1485
 8904SOL    HW138171   3.284   1.562   3.711  1.6646  3.3664 -3.6731
 8904SOL    HW238172   3.406   1.547   3.642 -0.7198  1.5759  2.4883
 8905SOL     OW38173   2.586   1.087   1.416  0.0094 -0.1467 -0.4470
 8905SOL    HW138174   2.667   1.036   1.406 -0.3081 -0.1992 -2.7310
 8905SOL    HW238175   2.546   1.046   1.492  1.6076 -0.0744  0.4426
 8906SOL     OW38176   1.389   3.051  16.153  0.5695  0.3949  0.0299
 8906SOL    HW138177   1.415   3.096  16.233 -0.6335  1.5038 -0.2075
 8906SOL    HW238178   1.392   2.957  16.173 -0.6771  0.1908 -0.7155
 8907SOL     OW38179   1.050   3.177   6.979  0.4700  0.5059 -0.4051
 8907SOL    HW138180   1.037   3.132   6.895 -0.5257  1.6584 -0.8616
 8907SOL    HW238181   0.970   3.229   6.984  0.6596  0.7566 -0.0407
 8908SOL     OW38182   1.237   0.392  11.467 -0.0428  0.2532  0.0017
 8908SOL    HW138183   1.217   0.437  11.385 -0.9829  3.0266  1.7445
 8908SOL    HW238184   1.153   0.351  11.487 -1.0585  2.7389  0.8656
 8909SOL     OW38185   1.144   1.329   2.482 -0.1581 -0.0905 -0.1640
 8909SOL    HW138186   1.198   1.376   2.419  1.4833  1.4439  2.4065
 8909SOL    HW238187   1.065   1.319   2.429  0.7619  1.9985 -1.9139
 8910SOL     OW38188   0.750   3.133   2.474 -0.1553  0.2620 -0.0466
 8910SOL    HW138189   0.707   3.216   2.496 -1.0108  0.0653 -1.0129
 8910SOL    HW238190   0.761   3.139   2.379 -0.2322  0.8764 -0.0145
 8911SOL     OW38191   3.025   0.497   4.287  0.0097 -0.1905  0.0887
 8911SOL    HW138192   3.114   0.481   4.318 -0.2613 -3.2723 -0.7611
 8911SOL    HW238193   3.012   0.482   4.193  0.2613 -1.6190  0.2855
 8912SOL     OW38194   1.569   4.231   5.900  0.0427  0.0283  0.2447
 8912SOL    HW138195   1.479   4.231   5.867  0.2257  0.1966 -0.2483
 8912SOL    HW238196   1.587   4.312   5.947 -0.1628 -0.1228  0.5846
 8913SOL     OW38197   2.158   2.188   6.138 -0.3955  0.4364 -0.0461
 8913SOL    HW138198   2.159   2.177   6.233  1.5988  0.4685 -0.0648
 8913SOL    HW238199   2.226   2.122   6.124 -0.6392  1.0114 -3.9406
 8914SOL     OW38200   4.559   1.305  15.063  0.2774 -0.2460 -0.5033
 8914SOL    HW138201   4.517   1.368  15.123 -2.2527 -2.2239 -0.1741
 8914SOL    HW238202   4.504   1.329  14.988  1.7261  0.1385 -1.4370
 8915SOL     OW38203   4.241   0.642  10.933  0.0504  0.1949  0.1681
 8915SOL    HW138204   4.244   0.586  10.855  1.4731 -1.5917  1.5220
 8915SOL    HW238205   4.297   0.719  10.921  2.2423 -1.2699  1.0799
 8916SOL     OW38206   1.994   3.394   4.885  0.2963  0.2735 -0.9535
 8916SOL    HW138207   1.947   3.310   4.882  0.3558  0.2513 -1.2854
 8916SOL    HW238208   1.980   3.417   4.977  0.0796 -2.3848 -0.3045
 8917SOL     OW38209   0.279   4.250   6.861 -0.6492  0.0144  0.0574
 8917SOL    HW138210   0.309   4.325   6.810  1.4390  1.9441  4.0916
 8917SOL    HW238211   0.250   4.282   6.947  0.0824 -2.5484  1.2561
 8918SOL     OW38212   0.263   1.032   0.595 -0.0208 -0.3489 -0.6514
 8918SOL    HW138213   0.216   0.952   0.572  1.1891 -0.6049 -2.2573
 8918SOL    HW238214   0.199   1.102   0.594 -1.2479 -1.4697  0.3115
 8919SOL     OW38215   2.405   3.081   5.985 -0.0473  0.2904 -0.6434
 8919SOL    HW138216   2.484   3.120   5.948  1.1255 -1.9698 -0.5248
 8919SOL    HW238217   2.370   3.162   6.021  1.8164  0.0419  1.7752
 8920SOL     OW38218   1.798   4.056   8.542  0.1745  0.3156 -0.7370
 8920SOL    HW138219   1.806   3.987   8.476  2.3208 -1.5345  1.4424
 8920SOL    HW238220   1.802   4.014   8.628  0.4048 -1.0657 -1.4193
 8921SOL     OW38221   4.086   3.598   6.785  0.4575  0.0982  0.0806
 8921SOL    HW138222   4.003   3.557   6.761  0.3561  0.0779  0.4728
 8921SOL    HW238223   4.150   3.541   6.742 -0.3604 -0.1548 -0.8044
 8922SOL     OW38224   1.291   0.083   8.058 -0.1425  0.1115  0.5743
 8922SOL    HW138225   1.330   0.008   8.014  1.1193  0.6842  0.7004
 8922SOL    HW238226   1.235   0.116   7.988  1.0672 -0.2625 -0.5691
 8923SOL     OW38227   4.606   0.170  12.154  0.4990 -0.1647 -0.2292
 8923SOL    HW138228   4.632   0.256  12.119 -2.0275  0.1606 -1.2946
 8923SOL    HW238229   4.558   0.188  12.234  1.4677  1.8047 -0.0838
 8924SOL     OW38230   2.769   0.243   5.623 -0.0807  0.8967  1.0859
 8924SOL    HW138231   2.836   0.310   5.638 -0.7239  1.9007 -0.5931
 8924SOL    HW238232   2.831   0.170   5.616 -1.3965 -0.1884  0.7150
 8925SOL     OW38233   0.146   1.486  15.309 -0.0392  0.2061 -0.5232
 8925SOL    HW138234   0.192   1.546  15.250 -2.7722 -1.8187 -4.7002
 8925SOL    HW238235   0.116   1.417  15.249 -0.9340 -0.1243  0.2993
 8926SOL     OW38236   1.823   4.602   6.788  0.1328  0.1433  0.0166
 8926SOL    HW138237   1.774   4.538   6.735 -0.3346 -2.1789  3.2426
 8926SOL    HW238238   1.840   4.544   6.862  1.6369 -0.8102 -1.0806
 8927SOL     OW38239   0.591   3.121   5.814  0.1853 -0.0660 -0.3846
 8927SOL    HW138240   0.638   3.159   5.888  0.1400  0.1450 -0.4655
 8927SOL    HW238241   0.598   3.174   5.735 -1.3449  0.9932  0.1853
 8928SOL     OW38242   4.490   4.695   4.768 -0.2560 -0.0545 -0.2792
 8928SOL    HW138243   4.581   4.695   4.798 -0.1019  0.6397 -0.7449
 8928SOL    HW238244   4.507   4.618   4.713  2.1635  1.0792 -1.1477
 8929SOL     OW38245   1.087   0.149   2.420  0.2106 -0.2024 -0.4002
 8929SOL    HW138246   1.114   0.240   2.422 -0.1404 -0.1230  1.0904
 8929SOL    HW238247   1.023   0.147   2.349 -2.5160 -1.7493  2.0594
 8930SOL     OW38248   2.745   1.616   3.732 -0.0711  0.0826 -0.1134
 8930SOL    HW138249   2.808   1.559   3.776  0.3445  0.1124 -0.6532
 8930SOL    HW238250   2.801   1.693   3.728  1.2924 -0.8643  0.5282
 8931SOL     OW38251   2.104   4.235   9.431  0.4920  0.1507  0.2431
 8931SOL    HW138252   2.134   4.197   9.514  2.3870 -1.9435 -1.3908
 8931SOL    HW238253   2.054   4.157   9.411 -1.2405  1.4056 -0.3210
 8932SOL     OW38254   3.256   0.340   5.255  0.0678  0.3794  0.2428
 8932SOL    HW138255   3.288   0.288   5.329  1.6960 -1.1311 -1.5342
 8932SOL    HW238256   3.162   0.351   5.271  0.5577  3.8426  0.8839
 8933SOL     OW38257   1.022   4.341   5.524 -0.4908 -0.2957  0.7128
 8933SOL    HW138258   0.960   4.281   5.566 -2.4751  2.2229  1.3428
 8933SOL    HW238259   1.022   4.423   5.574 -0.6175  1.4105 -2.0737
 8934SOL     OW38260   4.035   3.545   1.709 -0.2802 -0.4709 -0.4903
 8934SOL    HW138261   3.962   3.543   1.772  0.9078  1.8093  0.9783
 8934SOL    HW238262   3.986   3.559   1.629 -0.9877 -0.8049 -0.1195
 8935SOL     OW38263   1.356   4.693  13.664  0.3937  0.3089  0.0252
 8935SOL    HW138264   1.305   4.708  13.743  1.1414 -0.8698  0.7323
 8935SOL    HW238265   1.349   0.057  13.626 -3.4019 -0.2466 -0.4994
 8936SOL     OW38266   3.490   1.781   3.496 -0.0720  0.4010  0.3779
 8936SOL    HW138267   3.395   1.790   3.495 -0.0243  1.1368  2.6759
 8936SOL    HW238268   3.492   1.746   3.407 -1.4316 -0.4125  0.6612
 8937SOL     OW38269   2.546   2.269   6.272  0.4071  0.1562  0.5195
 8937SOL    HW138270   2.466   2.299   6.315  0.8078  1.4293  0.3760
 8937SOL    HW238271   2.581   2.215   6.343 -0.9440 -0.9934  0.3220
 8938SOL     OW38272   3.343   3.525   4.349  0.2642  0.1145 -0.6533
 8938SOL    HW138273   3.407   3.571   4.294  2.6905 -0.7283  1.4533
 8938SOL    HW238274   3.263   3.553   4.306  1.7995  1.3516 -2.6605
 8939SOL     OW38275   1.040   0.338   0.249  0.3408 -0.2951  0.5216
 8939SOL    HW138276   1.133   0.358   0.236 -0.4037  2.0974 -1.1164
 8939SOL    HW238277   1.009   0.352   0.159 -1.4323  0.2578  1.2240
 8940SOL     OW38278   3.941   0.938   6.435  0.0220 -0.9467  0.1895
 8940SOL    HW138279   3.853   0.901   6.449 -0.3121 -1.1755 -2.5130
 8940SOL    HW238280   3.939   1.006   6.502 -0.6564 -2.0919  1.3442
 8941SOL     OW38281   1.805   1.408   3.460  0.6668 -0.3428 -0.2579
 8941SOL    HW138282   1.859   1.461   3.519  1.1806  0.2885 -1.2877
 8941SOL    HW238283   1.716   1.440   3.470  0.2305 -1.3429 -0.9226
 8942SOL     OW38284   0.348   3.117   3.333 -0.0855  0.2671 -0.0928
 8942SOL    HW138285   0.352   3.111   3.237  0.1677 -0.9109 -0.0004
 8942SOL    HW238286   0.436   3.155   3.339 -0.1237  0.2352  0.7075
 8943SOL     OW38287   1.262   1.246   6.643 -0.2239 -0.0820  0.5762
 8943SOL    HW138288   1.231   1.331   6.613  0.9612 -0.3706 -1.4598
 8943SOL    HW238289   1.333   1.224   6.583 -0.3370  3.8678 -1.0391
 8944SOL     OW38290   4.588   4.111   2.401 -0.1379 -0.3131  0.2888
 8944SOL    HW138291   4.572   4.091   2.309 -1.0870 -0.4742  0.4960
 8944SOL    HW238292   4.603   4.206   2.399  0.1958 -0.3958 -1.1171
 8945SOL     OW38293   3.455   3.120   6.331 -0.0796 -0.0359 -0.1399
 8945SOL    HW138294   3.382   3.145   6.274 -0.8764 -0.6462  0.6093
 8945SOL    HW238295   3.452   3.028   6.304  2.2200 -0.6243  1.5986
 8946SOL     OW38296   3.125   4.166   7.665 -0.1391 -0.3118  0.2885
 8946SOL    HW138297   3.119   4.178   7.570  1.1201  0.8919  0.3495
 8946SOL    HW238298   3.136   4.254   7.701  0.8451 -0.5688  0.6414
 8947SOL     OW38299   1.911   4.060  12.572 -0.2961 -0.3091  0.2148
 8947SOL    HW138300   1.901   4.153  12.596 -1.3873 -0.4820  0.4370
 8947SOL    HW238301   1.941   4.031  12.658 -0.3937  1.2935  0.7881
 8948SOL     OW38302   4.195   4.413  14.507 -0.4045  0.3019  0.0897
 8948SOL    HW138303   4.121   4.353  14.510  0.4189 -0.7735 -1.4738
 8948SOL    HW238304   4.160   4.499  14.483  1.9228  0.6860 -1.8551
 8949SOL     OW38305   2.864   1.357   9.407 -0.2577  0.2452 -0.5730
 8949SOL    HW138306   2.838   1.356   9.315  2.1495  1.6148 -1.2738
 8949SOL    HW238307   2.954   1.389   9.408  0.2756 -1.3580  2.0328
 8950SOL     OW38308   1.139   1.287  17.449 -0.3221  0.3572 -0.1333
 8950SOL    HW138309   1.181   1.201  17.447 -0.8495  0.0998 -0.2943
 8950SOL    HW238310   1.193   1.334  17.512 -0.3465  1.6747 -1.0904
 8951SOL     OW38311   1.572   4.559   4.650  0.1665  0.3959 -0.0629
 8951SOL    HW138312   1.500   4.577   4.710  0.8846 -0.4721  1.0704
 8951SOL    HW238313   1.567   4.469   4.618  2.6152 -0.3581  1.6584
 8952SOL     OW38314   3.113   0.319   9.639  0.2804  0.0575 -0.0869
 8952SOL    HW138315   3.027   0.351   9.663  0.9698  1.5848  0.3783
 8952SOL    HW238316   3.082   0.258   9.572  1.2897 -1.0037  0.4069
 8953SOL     OW38317   2.287   4.398  16.686  0.5911  0.2865  0.1518
 8953SOL    HW138318   2.305   4.335  16.756 -4.4240 -1.8626 -0.4577
 8953SOL    HW238319   2.360   4.459  16.694  0.1932  0.6704  0.9261
 8954SOL     OW38320   3.889   0.439   7.056  0.2846 -0.3868 -0.1430
 8954SOL    HW138321   3.951   0.401   6.994 -0.3617 -0.0003 -1.0297
 8954SOL    HW238322   3.942   0.437   7.136 -0.2795 -1.4102  0.2150
 8955SOL     OW38323   2.807   2.099  13.413 -0.5492  0.3633  0.4043
 8955SOL    HW138324   2.838   2.064  13.496 -1.2703  1.1057  0.9842
 8955SOL    HW238325   2.886   2.148  13.390 -1.6925  1.1024 -1.9903
 8956SOL     OW38326   2.198   1.026   5.782  0.2434 -0.8270 -0.7511
 8956SOL    HW138327   2.238   1.071   5.707 -2.6887  2.5238 -0.3044
 8956SOL    HW238328   2.113   1.004   5.744 -0.1177  0.2091 -0.5373
 8957SOL     OW38329   2.817   0.150  11.600 -0.1342  0.5129  0.3353
 8957SOL    HW138330   2.730   0.137  11.639 -0.5019  0.5095 -0.4935
 8957SOL    HW238331   2.800   0.120  11.511 -1.4600  2.1518  0.0360
 8958SOL     OW38332   2.327   1.684   3.456 -0.2603  0.3536  0.1179
 8958SOL    HW138333   2.267   1.610   3.457 -1.4531  1.3231  0.2217
 8958SOL    HW238334   2.339   1.690   3.551  3.7914 -0.8221 -0.3247
 8959SOL     OW38335   0.252   4.599   1.404 -0.4696 -0.2546 -0.2129
 8959SOL    HW138336   0.307   4.619   1.328 -2.2007  0.6836 -1.2273
 8959SOL    HW238337   0.291   4.528   1.455 -0.4090  1.1413  1.6481
 8960SOL     OW38338   0.428   4.716   9.965  0.0011 -0.3314 -0.1301
 8960SOL    HW138339   0.386   4.644  10.012  2.3411  0.3022  2.9016
 8960SOL    HW238340   0.356   0.056   9.960 -0.9511 -1.7114 -4.1897
 8961SOL     OW38341   3.401   3.434   3.549 -0.5383  0.2064 -0.2822
 8961SOL    HW138342   3.415   3.450   3.642  2.0913 -2.6323 -0.1618
 8961SOL    HW238343   3.387   3.339   3.556 -1.7702  0.5724  2.0531
 8962SOL     OW38344   1.855   0.559  10.954  0.2951 -0.1008 -0.7139
 8962SOL    HW138345   1.837   0.466  10.967  0.9341 -0.2144 -0.6759
 8962SOL    HW238346   1.784   0.594  10.900 -0.2293  0.8325  0.5797
 8963SOL     OW38347   2.351   4.240   2.992  0.2519  0.1433  0.9338
 8963SOL    HW138348   2.417   4.285   3.044 -0.3117 -0.4905  2.2082
 8963SOL    HW238349   2.342   4.161   3.045  0.6042 -0.3251  0.2972
 8964SOL     OW38350   0.805   3.817   5.332  0.5550  0.1195  0.4839
 8964SOL    HW138351   0.770   3.733   5.304  1.2629  0.2454 -0.7783
 8964SOL    HW238352   0.856   3.842   5.255  0.2476  0.0628  0.2616
 8965SOL     OW38353   1.304   4.389   8.758  0.1915  0.5417 -0.1424
 8965SOL    HW138354   1.397   4.377   8.741  0.9977  0.6920  4.2190
 8965SOL    HW238355   1.289   4.322   8.825 -0.5107 -0.3854 -1.2181
 8966SOL     OW38356   4.073   0.968   9.364  0.0122  0.0351  0.1289
 8966SOL    HW138357   4.105   1.042   9.314 -1.4335  0.4657 -0.1684
 8966SOL    HW238358   4.104   0.892   9.315  1.4729 -0.2948  1.5638
 8967SOL     OW38359   0.215   0.406   2.321 -0.3304 -0.1908  0.6743
 8967SOL    HW138360   0.122   0.389   2.305 -0.1574  0.9418 -1.5640
 8967SOL    HW238361   0.204   0.501   2.316 -0.9528 -0.2843  0.3592
 8968SOL     OW38362   0.471   4.191   3.580 -0.3419 -0.2215  0.3622
 8968SOL    HW138363   0.527   4.219   3.508 -0.5503 -0.4149  0.1258
 8968SOL    HW238364   0.409   4.264   3.573 -3.1567 -2.3952  2.4189
 8969SOL     OW38365   2.770   4.685   5.402 -0.4874  0.6789 -0.6052
 8969SOL    HW138366   2.857   4.704   5.367  0.8583 -1.5291  1.5326
 8969SOL    HW238367   2.766   4.590   5.392 -0.6934  0.7650 -1.2809
 8970SOL     OW38368   4.400   1.983   8.728 -0.0673 -0.3741 -0.5763
 8970SOL    HW138369   4.370   2.065   8.768  2.1802 -0.3130  1.0009
 8970SOL    HW238370   4.368   1.986   8.638 -0.4050  0.2535 -0.4408
 8971SOL     OW38371   3.885   3.848  14.699 -0.3796 -0.0797 -0.5802
 8971SOL    HW138372   3.964   3.888  14.664 -0.2720 -1.3127 -1.7551
 8971SOL    HW238373   3.919   3.763  14.728 -1.3153 -0.2759 -0.0654
 8972SOL     OW38374   1.151   2.425   7.982  0.1536 -0.7047 -0.2370
 8972SOL    HW138375   1.069   2.377   7.992 -1.8101  3.1297  2.1324
 8972SOL    HW238376   1.152   2.467   8.069  2.3719  2.0175 -1.5800
 8973SOL     OW38377   1.738   0.207   5.276 -0.3019  0.5501  0.1506
 8973SOL    HW138378   1.777   0.189   5.361 -0.1949  2.2688  0.4543
 8973SOL    HW238379   1.727   0.116   5.247  0.5525  0.3724  0.3754
 8974SOL     OW38380   2.912   3.090   6.222  0.3166  0.5954  0.1291
 8974SOL    HW138381   2.974   3.046   6.163  1.5708 -1.9600  3.3248
 8974SOL    HW238382   2.901   3.020   6.287 -2.4150 -0.1990 -1.1786
 8975SOL     OW38383   3.610   1.624   8.808 -0.2624  0.0323 -0.1520
 8975SOL    HW138384   3.647   1.545   8.847 -2.6121  0.0393  2.0887
 8975SOL    HW238385   3.577   1.600   8.721  1.3981  0.1267 -0.8223
 8976SOL     OW38386   3.985   1.363   3.658  0.4607 -0.5561  0.1993
 8976SOL    HW138387   3.898   1.400   3.640  1.0448 -0.2312 -1.9739
 8976SOL    HW238388   4.030   1.447   3.663  1.6185 -0.9861 -2.7659
 8977SOL     OW38389   3.360   4.347   5.264 -0.1113  0.5979 -0.4942
 8977SOL    HW138390   3.276   4.315   5.233  0.2771 -0.2976 -0.6075
 8977SOL    HW238391   3.330   4.399   5.339 -2.7649 -0.1658 -1.0244
 8978SOL     OW38392   3.670   2.658   7.938  0.0742 -0.7606  0.3063
 8978SOL    HW138393   3.714   2.655   8.023  1.7461 -2.7421 -0.6323
 8978SOL    HW238394   3.712   2.735   7.902  1.2743 -0.2452  2.7723
 8979SOL     OW38395   4.239   0.303  15.643 -0.1494 -0.0018 -0.2611
 8979SOL    HW138396   4.213   0.322  15.553 -1.2736  0.9278  0.2721
 8979SOL    HW238397   4.231   0.208  15.643 -2.4856  0.2226 -2.6990
 8980SOL     OW38398   1.738   4.351  16.959  0.0255 -0.5565  0.3223
 8980SOL    HW138399   1.698   4.267  16.936 -0.6512  0.0756 -0.8126
 8980SOL    HW238400   1.661   4.398  16.989 -0.6527 -1.8066  0.5691
 8981SOL     OW38401   3.419   1.436   7.528 -0.1071  0.2047  0.4264
 8981SOL    HW138402   3.502   1.389   7.541 -1.5450 -2.4811 -0.0102
 8981SOL    HW238403   3.367   1.360   7.500  0.5512 -0.3999  0.8257
 8982SOL     OW38404   3.944   3.111  12.170 -0.5761 -0.2711 -0.1907
 8982SOL    HW138405   3.995   3.073  12.098  0.8398 -1.8083  1.6265
 8982SOL    HW238406   3.895   3.034  12.198  0.1984 -1.2747 -1.6127
 8983SOL     OW38407   3.535   4.584   3.443 -0.2059 -0.3272  0.1896
 8983SOL    HW138408   3.622   4.622   3.455 -0.0579 -1.0405  1.3334
 8983SOL    HW238409   3.495   4.656   3.393  0.4995  0.6850  1.0897
 8984SOL     OW38410   3.196   1.718   8.815  0.0433 -0.0041 -0.1901
 8984SOL    HW138411   3.260   1.674   8.871 -2.5203 -0.7320  2.1902
 8984SOL    HW238412   3.242   1.802   8.805  2.6032 -1.0543  2.6696
 8985SOL     OW38413   0.882   1.096  10.235  0.0331 -0.4436  0.0831
 8985SOL    HW138414   0.910   1.019  10.185 -0.3137  0.6772 -1.8597
 8985SOL    HW238415   0.959   1.115  10.288 -0.2422  1.4407 -0.2209
 8986SOL     OW38416   3.726   0.314  15.897 -0.1016 -0.9453 -0.0018
 8986SOL    HW138417   3.817   0.301  15.868 -0.6208 -0.2786 -1.9191
 8986SOL    HW238418   3.726   0.409  15.909  1.5634 -0.6753 -2.0723
 8987SOL     OW38419   1.356   1.247  11.727 -0.8058  0.0832  0.2554
 8987SOL    HW138420   1.432   1.298  11.700 -0.9348  0.3421  0.3837
 8987SOL    HW238421   1.385   1.161  11.696 -2.1767 -0.8107  1.4444
 8988SOL     OW38422   2.422   2.609   4.619  0.4194  0.2022 -0.1720
 8988SOL    HW138423   2.488   2.626   4.551  0.6983 -0.2581 -0.0229
 8988SOL    HW238424   2.416   2.693   4.665 -0.5016  0.2668 -0.4085
 8989SOL     OW38425   0.255   0.579   6.083  0.4188 -0.0337 -0.2567
 8989SOL    HW138426   0.305   0.498   6.075 -0.6285 -0.7748  0.6249
 8989SOL    HW238427   0.242   0.594   5.990 -0.7023  1.4662  0.1336
 8990SOL     OW38428   0.208   1.528  16.871 -0.5712 -0.3153 -0.3822
 8990SOL    HW138429   0.170   1.578  16.944 -1.7197 -0.5789 -0.7996
 8990SOL    HW238430   0.274   1.588  16.836 -1.3987 -0.1864 -1.6824
 8991SOL     OW38431   0.924   1.823   7.710  0.5200  0.2120 -0.0274
 8991SOL    HW138432   0.983   1.897   7.698  1.5948 -0.3367  1.9044
 8991SOL    HW238433   0.973   1.767   7.771  4.0882 -2.1450 -5.0251
 8992SOL     OW38434   0.880   1.673   7.471 -0.2065 -1.6988 -0.3040
 8992SOL    HW138435   0.947   1.712   7.414 -1.8250  1.2033 -0.2569
 8992SOL    HW238436   0.896   1.718   7.554  1.3947  1.6379 -2.4061
 8993SOL     OW38437   0.689   1.157   8.999 -0.8855 -0.4793 -0.4293
 8993SOL    HW138438   0.670   1.211   8.922  1.2763  2.1424  0.8656
 8993SOL    HW238439   0.688   1.219   9.072  0.9519 -1.4387  0.4059
 8994SOL     OW38440   3.215   0.021   3.567  0.3651 -0.1567 -0.5827
 8994SOL    HW138441   3.120   0.009   3.567  0.4801 -1.0718 -0.7434
 8994SOL    HW238442   3.251   4.665   3.607 -0.4328 -1.6323 -2.7622
 8995SOL     OW38443   2.936   1.579   7.332  0.1009 -0.5070 -0.1029
 8995SOL    HW138444   2.986   1.639   7.387  1.7348 -0.8039 -1.2582
 8995SOL    HW238445   2.843   1.598   7.344  0.4398  1.3003 -0.3551
 8996SOL     OW38446   4.093   2.228   0.635 -0.0448  0.2733  0.2514
 8996SOL    HW138447   4.152   2.159   0.604 -1.3361 -0.0757 -1.4217
 8996SOL    HW238448   4.068   2.268   0.552 -1.1601 -0.6129  0.1540
 8997SOL     OW38449   1.208   3.771   8.378 -0.2764 -0.1532  0.2950
 8997SOL    HW138450   1.279   3.797   8.437 -0.5530 -0.7825  0.9056
 8997SOL    HW238451   1.259   3.762   8.298  0.3115  1.2589  0.5158
 8998SOL     OW38452   0.916   3.824  15.072  0.9008 -0.3501  0.0313
 8998SOL    HW138453   0.840   3.783  15.031  1.0140 -0.6929  0.1615
 8998SOL    HW238454   0.989   3.780  15.028 -1.3245 -3.0880 -0.9227
 8999SOL     OW38455   0.294   2.365  11.980 -0.0835  0.1684  0.2659
 8999SOL    HW138456   0.333   2.431  11.923  1.0214 -0.9808 -0.3167
 8999SOL    HW238457   0.355   2.292  11.969  2.8859  2.9784 -2.3212
 9000SOL     OW38458   1.345   2.722   6.481  0.1643 -0.3646 -0.3108
 9000SOL    HW138459   1.261   2.688   6.513  0.4898  0.3943  1.3386
 9000SOL    HW238460   1.388   2.754   6.560  0.2542  0.6566 -0.7768
 9001SOL     OW38461   3.591   4.223   5.202 -0.1866  0.4789 -0.7575
 9001SOL    HW138462   3.661   4.209   5.266  0.7562  1.8102 -1.4936
 9001SOL    HW238463   3.535   4.267   5.265 -0.2304 -0.6701  0.0041
 9002SOL     OW38464   3.098   0.216   3.224 -0.0744 -0.1556 -0.0485
 9002SOL    HW138465   3.081   0.301   3.265  0.6806  1.6198 -3.3776
 9002SOL    HW238466   3.056   0.151   3.279 -2.7361  1.1347 -0.5336
 9003SOL     OW38467   4.531   0.513   6.199 -0.0110 -0.3935  0.2322
 9003SOL    HW138468   4.483   0.508   6.116  1.1882 -2.8396 -0.3052
 9003SOL    HW238469   4.496   0.590   6.243  0.0802 -0.2579  0.0659
 9004SOL     OW38470   0.594   0.819   8.214  0.1749 -0.0729 -0.2237
 9004SOL    HW138471   0.587   0.904   8.259  2.4775 -0.9166  1.7820
 9004SOL    HW238472   0.503   0.803   8.191  0.7537 -1.6979 -1.3835
 9005SOL     OW38473   1.489   2.427   1.217 -0.1291 -0.3905  0.1862
 9005SOL    HW138474   1.533   2.423   1.302  0.4043  1.5218 -0.0120
 9005SOL    HW238475   1.450   2.340   1.212 -2.4496  0.5996  1.0755
 9006SOL     OW38476   1.373   4.106  12.159  0.0042 -0.7515  0.0787
 9006SOL    HW138477   1.386   4.136  12.249 -0.4504  1.3179 -0.5306
 9006SOL    HW238478   1.455   4.141  12.123 -0.7725  1.2459  0.2283
 9007SOL     OW38479   3.208   3.176   6.248 -0.7142 -0.1503  0.2704
 9007SOL    HW138480   3.204   3.242   6.317 -0.3219  0.8362 -0.6409
 9007SOL    HW238481   3.120   3.175   6.210 -1.1272  2.1536  1.1702
 9008SOL     OW38482   1.226   2.766   8.428  0.2451  0.3533  0.0428
 9008SOL    HW138483   1.292   2.815   8.380 -0.9014  1.8674 -0.0204
 9008SOL    HW238484   1.228   2.819   8.508  0.2201 -1.0662  0.9735
 9009SOL     OW38485   2.854   4.137   4.228  0.1933  0.6800 -0.3564
 9009SOL    HW138486   2.878   4.172   4.142  0.7042  3.3988  0.9286
 9009SOL    HW238487   2.856   4.045   4.201 -0.6475  0.4325  0.4141
 9010SOL     OW38488   1.655   1.014   5.189 -0.1207 -0.1794  0.1202
 9010SOL    HW138489   1.735   0.969   5.164  0.1856  0.5555 -0.2187
 9010SOL    HW238490   1.696   1.077   5.248  1.1989 -1.5289  0.6425
 9011SOL     OW38491   0.977   1.098   6.401 -0.4765 -0.0003  0.0032
 9011SOL    HW138492   1.046   1.058   6.455  0.7691 -0.1442 -1.7270
 9011SOL    HW238493   0.908   1.115   6.465 -1.1856  2.0119 -1.3177
 9012SOL     OW38494   1.395   1.009   1.303 -0.0441  0.3113 -0.3198
 9012SOL    HW138495   1.376   0.946   1.372 -0.1363  1.7111  0.9208
 9012SOL    HW238496   1.401   0.952   1.226  0.0903 -3.1524  2.2708
 9013SOL     OW38497   1.165   3.606   3.843  0.0095  0.1657  0.3663
 9013SOL    HW138498   1.198   3.544   3.778  0.0327  1.5978 -1.0106
 9013SOL    HW238499   1.163   3.561   3.927  0.0361 -0.7510 -0.1256
 9014SOL     OW38500   0.731   1.968   4.550  0.3404 -0.1346  0.5245
 9014SOL    HW138501   0.673   2.040   4.524  1.4995  0.3534 -0.7256
 9014SOL    HW238502   0.783   2.009   4.618  0.3626  0.6090  0.0680
 9015SOL     OW38503   2.098   1.260  17.379 -0.4368  0.1929 -0.5598
 9015SOL    HW138504   2.170   1.200  17.361 -0.5331 -0.7342  2.0647
 9015SOL    HW238505   2.035   1.224  17.317 -0.7335  0.6223 -0.5095
 9016SOL     OW38506   2.191   3.838   2.929 -0.1898 -0.3359  0.7827
 9016SOL    HW138507   2.255   3.812   2.863 -2.8548  2.0197 -2.7168
 9016SOL    HW238508   2.132   3.762   2.927  0.5607 -0.8944 -0.0634
 9017SOL     OW38509   1.449   3.963   7.746 -0.3794  0.4417 -0.3423
 9017SOL    HW138510   1.428   4.025   7.676  2.4653  1.4173 -0.3057
 9017SOL    HW238511   1.475   3.883   7.699 -0.6330  0.1379  0.0305
 9018SOL     OW38512   3.865   2.776  10.192  0.1479  0.0575  0.4369
 9018SOL    HW138513   3.861   2.722  10.113  0.0797 -0.3018  0.6897
 9018SOL    HW238514   3.938   2.730  10.235  2.2393  1.0775 -2.0086
 9019SOL     OW38515   3.755   1.761   5.864  0.0755 -0.1893  0.6522
 9019SOL    HW138516   3.755   1.669   5.839 -1.3647  0.1787 -0.7455
 9019SOL    HW238517   3.706   1.751   5.946 -0.0596  0.6395  0.6764
 9020SOL     OW38518   1.113   2.926   4.143  0.2596  0.4062 -0.1524
 9020SOL    HW138519   1.058   3.005   4.149 -2.3440 -1.1458 -3.4166
 9020SOL    HW238520   1.113   2.919   4.047  0.2127 -0.9675 -0.0520
 9021SOL     OW38521   0.481   0.523   6.590 -0.5426  1.0881  0.1266
 9021SOL    HW138522   0.477   0.523   6.685 -0.2045  1.1632  0.1383
 9021SOL    HW238523   0.393   0.487   6.577  0.2981 -0.3902 -1.4535
 9022SOL     OW38524   2.005   1.959  16.816  0.6026  0.2276 -0.0556
 9022SOL    HW138525   2.088   1.999  16.841  0.1994  1.1296 -0.1552
 9022SOL    HW238526   2.019   1.867  16.840 -0.0504  0.4453  1.1549
 9023SOL     OW38527   2.805   2.621   8.234  0.0605  0.4062  0.1292
 9023SOL    HW138528   2.886   2.669   8.216 -0.0296  0.6124  0.2786
 9023SOL    HW238529   2.770   2.611   8.146  3.3773  2.0778 -1.3622
 9024SOL     OW38530   0.389   1.801   1.043  0.0398  0.3564 -0.0139
 9024SOL    HW138531   0.453   1.813   1.113 -1.2169  1.2567  0.9869
 9024SOL    HW238532   0.400   1.707   1.033 -1.5019 -0.1453  3.0422
 9025SOL     OW38533   3.599   2.256   0.637  0.6198  0.0420  0.4797
 9025SOL    HW138534   3.666   2.274   0.571 -1.2544 -1.1260 -1.7573
 9025SOL    HW238535   3.650   2.233   0.715 -1.5202  0.3332  1.9609
 9026SOL     OW38536   1.607   3.244   6.036  0.3191 -0.1401  0.1847
 9026SOL    HW138537   1.626   3.158   5.998 -1.7868 -0.0786 -1.0630
 9026SOL    HW238538   1.648   3.295   5.966  1.8867 -0.2613  1.0227
 9027SOL     OW38539   1.330   3.168  10.771  0.0259  0.3148 -0.3730
 9027SOL    HW138540   1.374   3.198  10.850 -1.4505  1.3240  0.0763
 9027SOL    HW238541   1.371   3.227  10.708 -0.6004 -0.2716 -1.3443
 9028SOL     OW38542   4.246   1.957  13.014 -0.3021 -0.2745 -0.5218
 9028SOL    HW138543   4.252   1.864  12.991 -0.6653 -0.7863  1.4069
 9028SOL    HW238544   4.334   1.988  12.994 -0.3348 -0.8093 -1.4678
 9029SOL     OW38545   2.180   0.204  11.167  0.1044 -0.3186 -0.3052
 9029SOL    HW138546   2.213   0.195  11.256 -1.4479 -3.0413 -0.0190
 9029SOL    HW238547   2.113   0.136  11.169  0.9663 -1.1009  2.0464
 9030SOL     OW38548   1.003   1.130   3.339  0.0320 -0.7768 -0.4617
 9030SOL    HW138549   0.936   1.103   3.276 -0.4269  3.3264 -1.7512
 9030SOL    HW238550   0.953   1.111   3.418  0.8866  0.9687  0.4966
 9031SOL     OW38551   3.178   2.477   8.388  0.1616  0.3495  0.5003
 9031SOL    HW138552   3.274   2.479   8.395  0.2272  0.5040 -0.5037
 9031SOL    HW238553   3.150   2.541   8.454  0.9501  1.2351 -0.0076
 9032SOL     OW38554   4.110   3.621  16.404 -0.1747  0.0186 -0.0729
 9032SOL    HW138555   4.143   3.562  16.472 -0.0435  1.2304  0.8964
 9032SOL    HW238556   4.068   3.688  16.457 -3.8373  0.6847 -3.7958
 9033SOL     OW38557   4.095   1.213  16.354 -0.1558  0.2161  0.3296
 9033SOL    HW138558   4.103   1.305  16.328 -1.0551 -0.2604 -1.6258
 9033SOL    HW238559   4.005   1.198  16.326 -0.0388 -2.1631  1.1728
 9034SOL     OW38560   3.563   3.988   4.786  0.3492  0.3672 -0.0780
 9034SOL    HW138561   3.543   3.926   4.856  0.7912  1.5823  1.1196
 9034SOL    HW238562   3.556   3.928   4.712  0.4415 -1.6118  1.5130
 9035SOL     OW38563   2.379   3.660   2.785 -0.2337 -0.2532 -0.2343
 9035SOL    HW138564   2.371   3.566   2.801  0.1671 -0.5068 -1.5448
 9035SOL    HW238565   2.465   3.673   2.824 -1.2730 -0.4313  2.1010
 9036SOL     OW38566   3.703   1.786  14.219 -0.6722  0.2541 -0.3259
 9036SOL    HW138567   3.752   1.777  14.301 -0.3559  0.6711 -0.4703
 9036SOL    HW238568   3.703   1.693  14.194  1.4574  0.7808 -2.2733
 9037SOL     OW38569   2.688   1.644   7.374 -0.4021 -0.4020  0.8906
 9037SOL    HW138570   2.660   1.719   7.427  0.5751 -1.1708  2.4893
 9037SOL    HW238571   2.692   1.686   7.288  0.4136 -3.3172 -0.4908
 9038SOL     OW38572   0.700   1.326   8.744  0.0054 -0.6148 -0.0439
 9038SOL    HW138573   0.641   1.401   8.755  0.8849  0.2778 -1.3295
 9038SOL    HW238574   0.708   1.315   8.649  1.7376 -3.8179  0.4688
 9039SOL     OW38575   1.260   2.722  16.456 -0.0169 -0.4526  0.4236
 9039SOL    HW138576   1.318   2.742  16.383 -1.6520  0.2749 -0.6782
 9039SOL    HW238577   1.203   2.798  16.444 -0.7062 -1.0561 -0.1316
 9040SOL     OW38578   3.247   1.951   8.425  0.0393 -0.2914  0.0729
 9040SOL    HW138579   3.210   2.019   8.369 -0.5378 -1.3738 -0.8500
 9040SOL    HW238580   3.316   1.902   8.380 -0.0666 -1.4080  1.1236
 9041SOL     OW38581   1.828   4.349   3.064  0.3235  0.4516 -0.1512
 9041SOL    HW138582   1.885   4.284   3.105 -0.9371 -1.4638 -1.4522
 9041SOL    HW238583   1.891   4.391   3.005  0.2408  0.4785 -0.2208
 9042SOL     OW38584   3.004   4.405   5.525 -0.1305 -0.7476 -0.1347
 9042SOL    HW138585   2.994   4.447   5.440  0.8720 -0.8570 -0.3151
 9042SOL    HW238586   2.960   4.468   5.581  0.9007 -0.9770  0.9408
 9043SOL     OW38587   0.472   3.755  11.924 -0.4845  0.0638 -0.4631
 9043SOL    HW138588   0.420   3.798  11.856 -1.9609 -2.0408 -0.6747
 9043SOL    HW238589   0.435   3.785  12.007 -0.8816  0.4921 -0.7933
 9044SOL     OW38590   1.312   0.651   0.446 -0.1155  0.3045 -0.1020
 9044SOL    HW138591   1.288   0.585   0.382  1.8850 -0.8837  0.3578
 9044SOL    HW238592   1.407   0.636   0.443 -0.1021  0.4834 -0.5741
 9045SOL     OW38593   1.318   0.564   6.702  0.5489  0.0438 -0.6554
 9045SOL    HW138594   1.393   0.622   6.696 -0.3305  1.4062  1.9923
 9045SOL    HW238595   1.292   0.549   6.610  0.2210 -0.4315 -0.4861
 9046SOL     OW38596   0.265   0.551  16.422  0.2271 -0.6610 -0.0835
 9046SOL    HW138597   0.353   0.554  16.385 -0.4696  3.1634 -1.3917
 9046SOL    HW238598   0.231   0.635  16.392  0.1791  0.3649  2.9090
 9047SOL     OW38599   3.959   4.040  11.423 -0.3398  0.5960 -0.0866
 9047SOL    HW138600   3.918   3.953  11.425  0.4184  0.2698  1.1400
 9047SOL    HW238601   3.948   4.041  11.327 -3.3812  1.2931  0.2605
 9048SOL     OW38602   2.189   1.676   3.816 -0.5611  0.3749  0.4145
 9048SOL    HW138603   2.249   1.739   3.857 -0.0985  0.1873  0.0188
 9048SOL    HW238604   2.110   1.683   3.870 -1.0009 -1.2315 -0.0120
 9049SOL     OW38605   1.315   3.554   4.606 -0.0148  0.2048  0.6759
 9049SOL    HW138606   1.365   3.484   4.649 -1.0116 -0.7139  0.3571
 9049SOL    HW238607   1.385   3.602   4.562  0.7817 -0.9337  0.6986
 9050SOL     OW38608   1.121   0.487   4.671 -0.3965  0.1642 -0.1891
 9050SOL    HW138609   1.124   0.418   4.737  1.8190 -0.5851 -1.0725
 9050SOL    HW238610   1.189   0.456   4.611  0.2187 -1.1335  1.1924
 9051SOL     OW38611   0.171   0.778   5.470 -0.6172  0.4121  0.0587
 9051SOL    HW138612   0.257   0.737   5.467 -0.0741  1.5995 -0.5079
 9051SOL    HW238613   0.140   0.749   5.556 -1.2597  1.3025  0.1327
 9052SOL     OW38614   4.359   1.611  12.419 -0.1264 -0.2680 -0.7624
 9052SOL    HW138615   4.335   1.523  12.448  1.7531 -0.1263  1.2382
 9052SOL    HW238616   4.350   1.605  12.324  0.2168 -1.8082 -0.6876
 9053SOL     OW38617   2.144   1.506  12.011 -0.4193 -0.5039 -0.4932
 9053SOL    HW138618   2.079   1.483  11.945 -0.3507  0.7410 -0.9939
 9053SOL    HW238619   2.136   1.427  12.064  4.5844 -1.2692 -0.8875
 9054SOL     OW38620   1.980   0.275   5.180  0.7379  0.5135 -0.1363
 9054SOL    HW138621   1.897   0.277   5.229  0.8072  0.4800 -0.0178
 9054SOL    HW238622   1.947   0.249   5.094 -1.0408 -3.5559  1.7587
 9055SOL     OW38623   2.014   4.277  11.637  0.0051  0.2023 -0.2560
 9055SOL    HW138624   2.033   4.184  11.638 -1.4118 -0.0806  0.8353
 9055SOL    HW238625   1.970   4.278  11.552 -1.0743  0.9039  0.3068
 9056SOL     OW38626   3.060   4.410  11.723 -0.7128  0.0627 -0.0949
 9056SOL    HW138627   3.033   4.364  11.644 -1.0570 -2.3093  1.3858
 9056SOL    HW238628   3.128   4.468  11.690 -0.1052 -1.0017 -0.7071
 9057SOL     OW38629   3.217   2.457   4.305 -0.3026 -0.3726 -0.6666
 9057SOL    HW138630   3.129   2.431   4.277 -1.1440  1.1765  0.5468
 9057SOL    HW238631   3.213   2.552   4.294 -0.5243 -0.2750  0.3410
 9058SOL     OW38632   0.021   1.486   6.995  0.0979  0.0986  0.4220
 9058SOL    HW138633   0.020   1.410   7.054  3.2383 -1.5352 -1.6215
 9058SOL    HW238634   0.004   1.554   7.060  0.4130 -0.5826  1.2283
 9059SOL     OW38635   2.561   2.763   6.995  0.6287  0.2092  0.2112
 9059SOL    HW138636   2.647   2.782   6.958  1.3698  0.7468  2.2123
 9059SOL    HW238637   2.592   2.730   7.079 -1.3852  3.1752  2.1229
 9060SOL     OW38638   1.348   4.438   5.351 -0.4730  0.3199  0.2095
 9060SOL    HW138639   1.319   4.397   5.270 -2.0968  1.0290  0.4473
 9060SOL    HW238640   1.357   4.529   5.325 -0.7068  0.4579  0.6076
 9061SOL     OW38641   1.228   0.703   3.373  0.6993 -0.2837 -0.0117
 9061SOL    HW138642   1.219   0.709   3.278  3.5263  1.7742 -0.1477
 9061SOL    HW238643   1.250   0.796   3.381  1.9157 -0.4491 -1.4996
 9062SOL     OW38644   2.148   0.160   6.441 -0.4462 -0.4383 -0.6542
 9062SOL    HW138645   2.206   0.108   6.496 -0.3895 -0.0333 -0.3313
 9062SOL    HW238646   2.163   0.249   6.473  0.6833 -1.4288  1.5827
 9063SOL     OW38647   3.392   4.532   3.110 -0.2501  0.6496  0.0388
 9063SOL    HW138648   3.367   4.467   3.176 -2.4952  1.5255  0.0542
 9063SOL    HW238649   3.395   4.614   3.160  0.1537  1.0558 -0.6556
 9064SOL     OW38650   2.576   4.394   2.329 -0.2948 -0.0775  0.0681
 9064SOL    HW138651   2.527   4.468   2.294  0.6676  0.0670 -0.9991
 9064SOL    HW238652   2.560   4.319   2.272  1.1313  0.1975 -0.6955
 9065SOL     OW38653   1.649   3.554   7.498 -0.2981  0.4261 -0.0772
 9065SOL    HW138654   1.566   3.515   7.469 -0.8258 -0.6527  2.8806
 9065SOL    HW238655   1.683   3.480   7.547 -0.6290  0.1810 -0.2180
 9066SOL     OW38656   1.073   0.787  17.168 -0.4705  0.3178 -0.3700
 9066SOL    HW138657   1.055   0.748  17.082 -2.4819 -1.5364  0.8740
 9066SOL    HW238658   0.984   0.799  17.203  0.4156  1.3199  1.5450
 9067SOL     OW38659   1.352   1.122  14.332 -0.1920  0.3929  0.5088
 9067SOL    HW138660   1.259   1.108  14.354 -0.2591 -0.0870 -0.0888
 9067SOL    HW238661   1.350   1.216  14.316 -0.8516  0.2654 -0.2033
 9068SOL     OW38662   0.358   3.052   2.023 -0.4561  0.2065  0.8107
 9068SOL    HW138663   0.314   3.073   2.106 -0.8076  1.2731  0.3595
 9068SOL    HW238664   0.307   2.971   2.017  2.8077 -1.8587  1.1486
 9069SOL     OW38665   1.917   3.742  16.576  0.1195  0.2701 -0.2589
 9069SOL    HW138666   1.914   3.653  16.611  0.3736 -0.2599 -1.5519
 9069SOL    HW238667   2.003   3.763  16.610 -1.5604  4.1783  1.5638
 9070SOL     OW38668   2.183   0.326   9.003  0.3497  0.0478  0.4946
 9070SOL    HW138669   2.215   0.250   8.954 -0.0790 -0.7664  1.4856
 9070SOL    HW238670   2.200   0.395   8.938 -2.0168 -0.0503 -0.2674
 9071SOL     OW38671   2.973   1.159  14.686  0.0773  0.8202 -0.1265
 9071SOL    HW138672   2.935   1.095  14.747 -2.1478  1.4863 -0.7886
 9071SOL    HW238673   3.032   1.221  14.730  1.2088 -1.7906  2.0686
 9072SOL     OW38674   2.454   4.578  10.564 -0.3563 -0.2451 -0.3281
 9072SOL    HW138675   2.413   4.644  10.621  3.2613  0.7356  1.1711
 9072SOL    HW238676   2.507   4.526  10.625  1.1194  1.7605  0.1437
 9073SOL     OW38677   2.483   0.683   7.651 -0.1597 -0.0911  0.6615
 9073SOL    HW138678   2.397   0.647   7.628  0.0595 -0.3392  0.2323
 9073SOL    HW238679   2.544   0.612   7.630 -0.1956  0.2793 -0.6897
 9074SOL     OW38680   4.213   0.695   2.355  0.3635  0.5203  0.1255
 9074SOL    HW138681   4.308   0.702   2.364  0.3293 -0.8385  1.4630
 9074SOL    HW238682   4.207   0.728   2.265  2.6286  0.2436 -0.1111
 9075SOL     OW38683   1.776   1.748   5.842  0.6544  0.6100 -0.1654
 9075SOL    HW138684   1.828   1.826   5.859 -0.0458  1.2115 -0.7915
 9075SOL    HW238685   1.848   1.686   5.828 -2.4441 -2.9096 -0.4254
 9076SOL     OW38686   0.320   3.604   2.150  0.5482 -0.3085  0.1219
 9076SOL    HW138687   0.384   3.656   2.100 -2.1496  1.1548 -1.8661
 9076SOL    HW238688   0.320   3.531   2.089  0.0546  0.1974 -0.4905
 9077SOL     OW38689   3.514   0.734   1.162  0.5992 -0.2410 -0.0020
 9077SOL    HW138690   3.431   0.773   1.134  1.2365  2.3718  1.6897
 9077SOL    HW238691   3.508   0.740   1.257 -2.2446  0.2271 -0.1934
 9078SOL     OW38692   1.255   0.570  17.225 -0.5302 -0.4420  0.4268
 9078SOL    HW138693   1.189   0.637  17.207  1.0388  0.9904  0.0596
 9078SOL    HW238694   1.327   0.628  17.248 -1.1324  0.7893 -0.7265
 9079SOL     OW38695   1.519   4.419   6.454 -0.3645 -0.2821 -0.2530
 9079SOL    HW138696   1.423   4.417   6.451 -0.2704 -0.6986 -2.9463
 9079SOL    HW238697   1.537   4.454   6.367  0.1244 -0.2887 -0.1533
 9080SOL     OW38698   4.216   2.509   4.411 -0.0330  0.3301  0.2778
 9080SOL    HW138699   4.286   2.503   4.477  2.2099 -0.1794 -2.1618
 9080SOL    HW238700   4.140   2.517   4.469 -0.7725 -1.2125 -0.4884
 9081SOL     OW38701   0.830   2.069   2.033 -0.3113  0.1208 -0.1084
 9081SOL    HW138702   0.768   2.090   1.963 -0.7941 -0.2138  0.2217
 9081SOL    HW238703   0.910   2.100   1.989 -0.8187  1.9510  0.2225
 9082SOL     OW38704   2.757   4.273  10.142 -0.4808  0.2739  0.1792
 9082SOL    HW138705   2.764   4.180  10.161  0.6527  0.2339 -0.4342
 9082SOL    HW238706   2.841   4.291  10.184  0.4025 -1.3246 -0.9172
 9083SOL     OW38707   0.314   3.632   8.760  0.0465 -0.2392 -0.0977
 9083SOL    HW138708   0.274   3.712   8.794  0.2175  0.6949 -2.1476
 9083SOL    HW238709   0.385   3.665   8.705 -1.4277  3.3577  0.1797
 9084SOL     OW38710   2.163   4.470  13.845  0.0735 -0.5681 -0.3264
 9084SOL    HW138711   2.082   4.474  13.897 -2.8375  1.4632 -5.0273
 9084SOL    HW238712   2.217   4.505  13.916  2.6426 -2.9056 -1.1619
 9085SOL     OW38713   0.657   0.147   3.573 -0.3908 -0.6910 -0.1401
 9085SOL    HW138714   0.707   0.135   3.492 -0.4288 -0.2203 -0.2332
 9085SOL    HW238715   0.726   0.193   3.621  0.6721 -0.3770 -1.9289
 9086SOL     OW38716   2.149   3.546   4.137  0.0275 -0.8454 -0.1142
 9086SOL    HW138717   2.115   3.610   4.075  0.6247 -0.7271 -0.3198
 9086SOL    HW238718   2.242   3.532   4.119  0.1284 -0.5005  0.1470
 9087SOL     OW38719   0.785   4.517   5.772  0.5334  0.2644  0.2155
 9087SOL    HW138720   0.786   4.479   5.684 -1.1329 -1.5869  0.9959
 9087SOL    HW238721   0.761   4.608   5.754  1.6212  0.4036 -0.5202
 9088SOL     OW38722   0.288   0.258  17.239 -0.3783  0.2194  0.2046
 9088SOL    HW138723   0.218   0.289  17.182 -0.6487  2.4090  1.7295
 9088SOL    HW238724   0.265   0.280  17.330 -0.2387 -0.5582  0.4283
 9089SOL     OW38725   0.349   3.497   5.193 -0.2504 -0.4469 -0.1854
 9089SOL    HW138726   0.270   3.550   5.192 -0.3975 -0.7313 -2.0789
 9089SOL    HW238727   0.396   3.545   5.125  1.6075 -1.1425  0.5851
 9090SOL     OW38728   4.003   1.247   7.274  0.2418 -0.2792  0.3301
 9090SOL    HW138729   4.074   1.286   7.225  0.2330 -0.6209  0.0482
 9090SOL    HW238730   3.940   1.318   7.283  1.7876  1.1498 -0.2076
 9091SOL     OW38731   4.010   0.682  16.563 -0.3911 -0.0119  0.0743
 9091SOL    HW138732   3.932   0.738  16.557 -1.7105 -1.9106 -0.1724
 9091SOL    HW238733   4.070   0.732  16.506 -1.6218  2.0114  0.5495
 9092SOL     OW38734   1.153   2.554   0.905  0.4637  0.0163 -0.2349
 9092SOL    HW138735   1.196   2.634   0.933 -1.0102  0.5035  0.6466
 9092SOL    HW238736   1.060   2.575   0.913  0.3462 -0.6410  0.1822
 9093SOL     OW38737   0.230   3.014   7.295  0.5248 -0.0240  0.0729
 9093SOL    HW138738   0.250   3.106   7.310  2.2060 -0.2408 -0.8456
 9093SOL    HW238739   0.209   2.989   7.385 -0.2391  0.2882 -0.0159
 9094SOL     OW38740   1.442   3.653  11.933 -0.7679 -0.2022  0.2126
 9094SOL    HW138741   1.378   3.631  12.001 -0.8499  0.6408  0.4190
 9094SOL    HW238742   1.418   3.595  11.862  2.7317 -1.3348 -0.0022
 9095SOL     OW38743   0.462   2.216  16.420 -0.0048 -0.0634  0.8085
 9095SOL    HW138744   0.514   2.142  16.452  0.6398  0.1744  0.3103
 9095SOL    HW238745   0.530   2.276  16.392  1.3335 -2.8440 -1.9294
 9096SOL     OW38746   2.994   0.138   6.896  0.1265 -0.4136 -0.3199
 9096SOL    HW138747   3.025   0.203   6.833 -2.5714  2.0796  0.9623
 9096SOL    HW238748   3.053   0.065   6.878  2.0740  0.6455  1.7613
 9097SOL     OW38749   3.026   1.697  12.675  0.3898 -0.3683 -0.3558
 9097SOL    HW138750   3.053   1.668  12.762  0.9044  0.2893 -0.2908
 9097SOL    HW238751   2.977   1.775  12.701 -0.5849 -1.1387  0.1284
 9098SOL     OW38752   3.263   3.833   7.932 -0.0466 -0.4027 -0.2971
 9098SOL    HW138753   3.202   3.782   7.985  1.1726  0.0147  1.4895
 9098SOL    HW238754   3.342   3.782   7.948 -0.2221  0.0393  1.9355
 9099SOL     OW38755   1.756   2.012  14.195  1.0925  0.0443  0.4463
 9099SOL    HW138756   1.728   1.955  14.123 -0.4421  1.4085 -0.0408
 9099SOL    HW238757   1.726   2.095  14.159 -2.3710 -1.1568  0.5508
 9100SOL     OW38758   2.855   2.380   3.584  0.0232 -0.0274 -0.1307
 9100SOL    HW138759   2.808   2.354   3.663  0.7758 -0.5630  0.1454
 9100SOL    HW238760   2.914   2.446   3.620  1.4455 -1.6973  0.6252
 9101SOL     OW38761   3.814   4.549   8.556  0.1201  0.4760  0.6890
 9101SOL    HW138762   3.830   4.606   8.631 -0.6514 -0.2593  1.4127
 9101SOL    HW238763   3.806   4.611   8.484  1.2828  0.3498  0.4504
 9102SOL     OW38764   1.772   3.399   4.376  0.2425 -0.1021 -0.1792
 9102SOL    HW138765   1.709   3.459   4.336  0.0298  0.2609  0.7090
 9102SOL    HW238766   1.782   3.335   4.304 -2.1663  1.0168 -1.5092
 9103SOL     OW38767   3.031   4.550   2.284  0.1117  0.1651 -0.5598
 9103SOL    HW138768   3.042   4.581   2.374 -0.2138  0.8433 -0.7468
 9103SOL    HW238769   3.017   4.457   2.297  0.9877  0.0917 -0.1595
 9104SOL     OW38770   0.937   4.501   4.155  0.1164 -0.2516 -0.0000
 9104SOL    HW138771   1.028   4.530   4.165 -0.0820  0.0946  0.8255
 9104SOL    HW238772   0.947   4.473   4.064  2.2369 -0.1459  0.2023
 9105SOL     OW38773   1.355   2.063   6.469  0.1801  0.1413 -0.4935
 9105SOL    HW138774   1.303   2.030   6.396  0.2628 -0.0942 -0.4486
 9105SOL    HW238775   1.444   2.041   6.444  0.0844 -2.0022  0.9792
 9106SOL     OW38776   1.409   3.968   5.795 -0.4914 -0.4482  0.2949
 9106SOL    HW138777   1.400   3.971   5.699 -0.2473 -0.5870  0.2669
 9106SOL    HW238778   1.392   4.057   5.825 -0.5514 -1.2479  2.6313
 9107SOL     OW38779   3.960   0.899   5.906 -0.3555 -0.5505 -0.0930
 9107SOL    HW138780   3.920   0.946   5.833  1.4935  0.8384 -0.2254
 9107SOL    HW238781   3.892   0.905   5.973  1.1473 -3.3917  1.6860
 9108SOL     OW38782   2.037   1.101   7.190  0.0914  0.0752 -0.9616
 9108SOL    HW138783   2.079   1.057   7.264 -1.3456  1.6972  0.8329
 9108SOL    HW238784   1.945   1.106   7.216  0.9727  3.1599  1.6445
 9109SOL     OW38785   4.707   0.848   8.635  0.1541  0.4537  0.4716
 9109SOL    HW138786   4.614   0.829   8.622  0.3917 -0.2807 -0.1630
 9109SOL    HW238787   0.019   0.824   8.549  1.2153  1.1825  0.7044
 9110SOL     OW38788   2.901   0.112   9.074  0.1035  0.1539  0.6947
 9110SOL    HW138789   2.968   0.108   9.142  0.8305  2.0865  0.1077
 9110SOL    HW238790   2.825   0.080   9.122  1.2871 -1.4893  1.4768
 9111SOL     OW38791   0.860   3.629   7.129  0.6460  0.1988 -0.0432
 9111SOL    HW138792   0.874   3.712   7.173 -2.4957  0.0502  1.1998
 9111SOL    HW238793   0.862   3.669   7.042  0.3470 -0.8953 -0.5490
 9112SOL     OW38794   3.290   3.732   9.355 -0.2221  0.7742 -0.0298
 9112SOL    HW138795   3.326   3.723   9.266 -1.8795  4.0106 -1.0254
 9112SOL    HW238796   3.358   3.677   9.393 -0.5361  0.3453 -0.0846
 9113SOL     OW38797   2.735   4.549   3.233 -0.1282  0.0502  0.1296
 9113SOL    HW138798   2.740   4.645   3.226 -0.5911  0.0621 -0.0159
 9113SOL    HW238799   2.768   4.517   3.149 -0.9738  0.2783 -0.2814
 9114SOL     OW38800   1.019   0.055   3.162 -0.3542  0.2720 -0.3193
 9114SOL    HW138801   1.017   0.113   3.085  0.2803 -1.6206 -1.7499
 9114SOL    HW238802   1.050   4.708   3.106 -0.7815  1.5639 -2.1804
 9115SOL     OW38803   1.661   2.702   3.346 -0.0675  0.0127 -0.7497
 9115SOL    HW138804   1.697   2.713   3.434 -0.8539 -0.0620 -0.4133
 9115SOL    HW238805   1.739   2.669   3.301 -0.7943  1.3999 -3.0203
 9116SOL     OW38806   2.731   4.502   1.926 -0.6790 -0.6874 -0.4843
 9116SOL    HW138807   2.816   4.533   1.895 -0.4860 -1.7276 -1.0057
 9116SOL    HW238808   2.756   4.450   2.002 -0.1436 -2.2604 -1.7461
 9117SOL     OW38809   2.423   3.540   8.207 -0.5398 -0.4812  0.3337
 9117SOL    HW138810   2.390   3.609   8.149  0.3453 -0.0944  0.2926
 9117SOL    HW238811   2.476   3.485   8.149 -0.8379  1.7127 -2.0151
 9118SOL     OW38812   0.892   3.657   6.841 -0.0966 -0.2693  0.0428
 9118SOL    HW138813   0.845   3.654   6.758  2.8269 -1.9564 -1.5514
 9118SOL    HW238814   0.946   3.733   6.818 -1.9115  1.2711  0.8358
 9119SOL     OW38815   1.577   0.856   3.788 -0.0568  0.2510 -0.1181
 9119SOL    HW138816   1.564   0.950   3.771  0.7226  0.3718 -0.0436
 9119SOL    HW238817   1.672   0.855   3.795 -0.1524  0.2726  1.1285
 9120SOL     OW38818   4.087   3.848  11.817 -0.0053 -0.0879  0.0651
 9120SOL    HW138819   4.123   3.933  11.790  0.1379 -0.3606 -0.5808
 9120SOL    HW238820   3.995   3.854  11.794 -0.0691 -0.6811  0.1613
 9121SOL     OW38821   2.090   1.277   4.392  0.4097  0.7335  0.3467
 9121SOL    HW138822   2.132   1.344   4.338  0.3470 -0.3985 -1.1022
 9121SOL    HW238823   1.999   1.307   4.387  0.1779 -0.1610 -0.6654
 9122SOL     OW38824   4.539   1.435  16.670 -0.8419  0.4117  0.4716
 9122SOL    HW138825   4.524   1.503  16.735 -3.2588 -0.5725  0.9666
 9122SOL    HW238826   4.459   1.429  16.617 -0.3494  0.6691 -0.3086
 9123SOL     OW38827   1.010   2.801   5.677  0.5056 -0.3315  0.5643
 9123SOL    HW138828   1.041   2.785   5.588  1.6420  1.7036  0.6008
 9123SOL    HW238829   0.978   2.891   5.668  0.9361 -0.2928 -0.5040
 9124SOL     OW38830   2.236   0.944  16.826  0.4758 -0.4645 -0.3955
 9124SOL    HW138831   2.168   0.974  16.766 -0.0889 -0.8007  0.0805
 9124SOL    HW238832   2.203   0.986  16.905  1.3489  0.3365 -0.4584
 9125SOL     OW38833   0.452   3.095   2.624  0.3014 -0.0519 -0.0376
 9125SOL    HW138834   0.431   3.083   2.717 -1.2148 -2.9117 -0.7533
 9125SOL    HW238835   0.365   3.100   2.585  0.4169  0.7414 -0.1816
 9126SOL     OW38836   1.101   1.974   3.998  0.3031  0.3048  0.2204
 9126SOL    HW138837   1.084   2.068   3.991 -0.8912  0.1674  1.3856
 9126SOL    HW238838   1.152   1.965   3.917 -0.1606  0.5706 -0.0958
 9127SOL     OW38839   2.184   2.730  10.465  0.0322  0.0678  0.5504
 9127SOL    HW138840   2.235   2.730  10.384 -1.6797  0.1888 -0.5177
 9127SOL    HW238841   2.162   2.818  10.496 -0.9463 -0.2304  0.7115
 9128SOL     OW38842   1.188   0.783  11.062  0.6280  0.6814  0.7860
 9128SOL    HW138843   1.187   0.876  11.038 -0.7508  0.6020  0.5119
 9128SOL    HW238844   1.156   0.780  11.152 -1.8973 -1.9918 -0.1817
 9129SOL     OW38845   4.431   4.662   6.322  0.0443 -0.0867  0.2103
 9129SOL    HW138846   4.447   4.594   6.256 -1.0770 -0.4369  0.2988
 9129SOL    HW238847   4.493   0.009   6.300 -0.0126 -0.0752  0.0863
 9130SOL     OW38848   2.980   3.735   5.028 -0.2519 -0.4729 -0.1160
 9130SOL    HW138849   2.893   3.753   4.992  0.5345  2.1917 -0.6757
 9130SOL    HW238850   3.023   3.820   5.026 -0.6483 -0.2805 -0.2828
 9131SOL     OW38851   2.512   4.714   5.928 -0.4581  0.2456  0.3450
 9131SOL    HW138852   2.470   4.653   5.868  0.8791 -0.5211  0.1943
 9131SOL    HW238853   2.461   0.070   5.908  0.9553  1.8549  3.0793
 9132SOL     OW38854   3.901   0.096   2.780  0.2469 -0.6408  0.3823
 9132SOL    HW138855   3.846   0.062   2.850  0.1341  0.7861  0.9873
 9132SOL    HW238856   3.958   0.153   2.832 -2.3390  0.5643  1.8768
 9133SOL     OW38857   2.007   1.497   2.879 -0.2525  0.1569 -0.0427
 9133SOL    HW138858   1.993   1.561   2.809  2.1515  0.6380 -0.0953
 9133SOL    HW238859   1.999   1.561   2.949 -2.6043 -0.9119  0.6878
 9134SOL     OW38860   0.626   3.746   9.864 -0.1966  0.5086 -0.1782
 9134SOL    HW138861   0.712   3.726   9.827  0.5636  0.1706  1.7815
 9134SOL    HW238862   0.641   3.775   9.954  1.7732  0.8213 -0.6125
 9135SOL     OW38863   3.754   2.926   6.757  0.1463  0.2124 -0.2126
 9135SOL    HW138864   3.748   3.018   6.785  0.9135  0.7133 -1.7042
 9135SOL    HW238865   3.724   2.881   6.835 -0.2470  2.8403  1.1673
 9136SOL     OW38866   0.264   0.726  17.235  0.0554  0.2449  0.4018
 9136SOL    HW138867   0.204   0.800  17.232  1.2188  1.1105 -1.3677
 9136SOL    HW238868   0.329   0.761  17.175  1.0783 -0.7856  0.9141
 9137SOL     OW38869   1.520   4.483  17.031 -0.1290 -0.1476 -0.5833
 9137SOL    HW138870   1.529   4.576  17.008 -0.9001  0.2063  0.5672
 9137SOL    HW238871   1.465   4.440  16.965  1.8558  0.4756 -2.6801
 9138SOL     OW38872   1.780   2.612   2.214  0.5269 -0.0024  0.1260
 9138SOL    HW138873   1.791   2.533   2.267  2.3490 -0.9432 -1.6478
 9138SOL    HW238874   1.848   2.665   2.256 -0.1573  1.3502 -0.4732
 9139SOL     OW38875   1.938   2.396  12.345  0.2050  0.1300 -0.5308
 9139SOL    HW138876   1.909   2.414  12.256 -1.0027  0.7917  0.0058
 9139SOL    HW238877   1.932   2.301  12.346  0.6017  0.1039 -0.7340
 9140SOL     OW38878   0.660   3.109   9.202 -0.0609  0.2322  0.4259
 9140SOL    HW138879   0.597   3.168   9.243  0.4390  0.0033  1.5062
 9140SOL    HW238880   0.734   3.170   9.212 -0.3114  0.6948 -0.5109
 9141SOL     OW38881   4.541   3.649   1.259 -0.4618 -0.1489 -0.2482
 9141SOL    HW138882   4.634   3.632   1.272 -0.6766 -0.1696  1.2295
 9141SOL    HW238883   4.513   3.574   1.206 -2.4106  0.2342  0.2142
 9142SOL     OW38884   2.761   3.140   5.675  0.2455 -0.1662 -0.1483
 9142SOL    HW138885   2.718   3.162   5.592  0.8639  1.4362 -0.0543
 9142SOL    HW238886   2.845   3.182   5.660 -0.4849  1.4362  0.2291
 9143SOL     OW38887   1.336   1.778   3.753 -0.3861  0.4849  0.2797
 9143SOL    HW138888   1.277   1.853   3.739 -2.6633 -1.3918 -0.1993
 9143SOL    HW238889   1.293   1.737   3.828  0.2373  1.3587  1.1088
 9144SOL     OW38890   2.183   2.852   8.337 -0.0470 -0.4611  0.2884
 9144SOL    HW138891   2.211   2.817   8.252  0.5814 -1.3163  0.8560
 9144SOL    HW238892   2.091   2.829   8.349 -0.7025  1.8854 -0.2117
 9145SOL     OW38893   2.133   4.559   2.988  0.6671  0.3212  0.0660
 9145SOL    HW138894   2.179   4.505   3.051 -0.0357 -0.4111 -0.0504
 9145SOL    HW238895   2.141   4.648   3.021  3.1576  0.4292 -0.8268
 9146SOL     OW38896   4.178   2.271  10.451 -0.3880  0.9543 -0.0147
 9146SOL    HW138897   4.102   2.329  10.444 -0.3219  0.9979 -0.3899
 9146SOL    HW238898   4.171   2.225  10.368 -1.2332  0.2558  0.4447
 9147SOL     OW38899   3.248   2.849  10.713 -0.0722 -0.6474  0.3620
 9147SOL    HW138900   3.153   2.860  10.715 -0.1587 -0.5575 -2.9246
 9147SOL    HW238901   3.289   2.920  10.763  1.6917 -1.8008  0.5601
 9148SOL     OW38902   4.134   0.292   1.629  0.9969 -0.1141  0.0167
 9148SOL    HW138903   4.175   0.217   1.672 -0.5532 -1.3699 -0.6692
 9148SOL    HW238904   4.135   0.344   1.709  1.5181 -0.8419  0.4871
 9149SOL     OW38905   0.102   2.106   4.235 -0.1955 -0.2560 -0.0832
 9149SOL    HW138906   0.185   2.059   4.242  1.0371  1.4001 -3.7580
 9149SOL    HW238907   0.050   2.028   4.256  0.0395 -0.1310  1.0032
 9150SOL     OW38908   3.191   0.218   0.863 -0.2592  0.0054 -0.2465
 9150SOL    HW138909   3.110   0.192   0.907  0.4888 -0.4081  0.8910
 9150SOL    HW238910   3.241   0.201   0.943  0.3988 -1.4766 -0.9570
 9151SOL     OW38911   3.926   2.205   6.437 -0.1991 -0.0420  0.0454
 9151SOL    HW138912   4.020   2.191   6.430 -0.1320  0.9645 -1.1788
 9151SOL    HW238913   3.910   2.246   6.352  1.5258  0.0637 -0.2313
 9152SOL     OW38914   0.224   1.210  17.551  0.6955  0.0909  0.6401
 9152SOL    HW138915   0.306   1.259  17.543  0.6309  0.1512  0.3397
 9152SOL    HW238916   0.242   1.146  17.620 -3.4039 -0.4960  1.1882
 9153SOL     OW38917   4.690   3.306   3.813  0.6017 -0.3835 -0.0775
 9153SOL    HW138918   4.625   3.236   3.805  0.6539 -0.8652  3.6645
 9153SOL    HW238919   0.033   3.282   3.878  0.5694 -2.3848 -0.7763
 9154SOL     OW38920   0.718   1.116   5.237 -0.1239 -0.2824 -1.1127
 9154SOL    HW138921   0.802   1.099   5.281 -0.8924 -0.4170  0.3102
 9154SOL    HW238922   0.756   1.137   5.152  0.5839 -1.0759 -0.9920
 9155SOL     OW38923   4.710   0.052   5.637 -0.1803  0.0216  0.0965
 9155SOL    HW138924   4.674   0.016   5.556  0.7045  0.3985 -0.4639
 9155SOL    HW238925   4.649   0.123   5.653  2.5747  2.8471 -1.8353
 9156SOL     OW38926   1.701   3.188  16.735  0.3614  0.1644  0.1821
 9156SOL    HW138927   1.708   3.092  16.731 -4.4035 -0.1028 -1.8794
 9156SOL    HW238928   1.619   3.207  16.780 -0.0476 -1.3278  0.0618
 9157SOL     OW38929   0.578   1.277   5.654  0.6710  0.0918 -1.0252
 9157SOL    HW138930   0.553   1.239   5.570 -0.4688 -0.3820 -0.4753
 9157SOL    HW238931   0.545   1.220   5.723 -1.6536  1.9666 -0.5427
 9158SOL     OW38932   3.083   2.406  13.984  0.3616  0.1647  0.4622
 9158SOL    HW138933   3.051   2.474  14.043  0.5784  2.5109 -2.0823
 9158SOL    HW238934   3.132   2.457  13.919 -2.1892  3.3469  1.0069
 9159SOL     OW38935   2.312   1.205   5.603  0.5098  0.6256 -0.2990
 9159SOL    HW138936   2.407   1.215   5.611  0.5443  0.5837 -0.6529
 9159SOL    HW238937   2.299   1.165   5.517 -1.1119 -0.3125  0.3887
 9160SOL     OW38938   3.461   3.909  14.315  0.2548  0.2343 -0.2461
 9160SOL    HW138939   3.552   3.880  14.303  0.1513  0.5732 -1.8424
 9160SOL    HW238940   3.415   3.828  14.336 -0.3437  0.6870  0.1718
 9161SOL     OW38941   0.120   2.124   1.011  0.1130  0.0226 -0.2640
 9161SOL    HW138942   0.140   2.207   1.054 -0.5074 -1.2630  2.5206
 9161SOL    HW238943   0.208   2.091   0.996 -0.5416 -2.1184  0.5855
 9162SOL     OW38944   0.278   1.333   8.307 -0.0665  0.5893  0.1924
 9162SOL    HW138945   0.247   1.259   8.360  1.4869 -1.2751 -1.5517
 9162SOL    HW238946   0.247   1.310   8.220  1.9973 -1.8814  0.1027
 9163SOL     OW38947   2.750   2.833   5.692 -0.2425  0.3193  0.3843
 9163SOL    HW138948   2.729   2.926   5.696 -1.4307  0.0349  0.8004
 9163SOL    HW238949   2.715   2.804   5.776 -0.1191  1.2018  0.7298
 9164SOL     OW38950   2.292   1.960   6.115  0.1218 -0.3969  0.5596
 9164SOL    HW138951   2.256   1.927   6.033  0.3133 -1.8664  1.0687
 9164SOL    HW238952   2.382   1.973   6.084 -0.3717 -0.1096 -0.7629
 9165SOL     OW38953   1.934   0.348   7.170  0.3146  0.0043 -0.3884
 9165SOL    HW138954   1.908   0.408   7.240  0.2858  0.2519 -0.6117
 9165SOL    HW238955   1.849   0.352   7.125  0.2593  1.7672 -0.1314
 9166SOL     OW38956   2.384   1.931   1.225  0.8223 -0.5542  0.0459
 9166SOL    HW138957   2.314   1.879   1.264  0.3835  1.8885  2.5082
 9166SOL    HW238958   2.455   1.867   1.235  1.1246  0.0157  1.6197
 9167SOL     OW38959   0.154   0.359  17.445 -0.4216 -0.4286  0.2082
 9167SOL    HW138960   0.095   0.415  17.394  1.1586 -2.9765 -4.3700
 9167SOL    HW238961   0.091   0.326  17.510  1.3181 -0.7280  1.7361
 9168SOL     OW38962   4.346   2.388   6.728  0.1244 -0.1371 -0.1896
 9168SOL    HW138963   4.410   2.453   6.757  0.5589 -0.3757 -0.6120
 9168SOL    HW238964   4.349   2.390   6.632  3.2843  1.4631 -0.0355
 9169SOL     OW38965   0.617   1.947  16.510 -0.5172 -0.6487  0.3132
 9169SOL    HW138966   0.647   1.875  16.453  2.7314  1.7368 -0.9896
 9169SOL    HW238967   0.524   1.928  16.522 -0.5513  0.3765  1.6430
 9170SOL     OW38968   2.137   3.725   7.923  0.5934  0.6187  0.8688
 9170SOL    HW138969   2.185   3.807   7.934  0.0850  0.9479  0.6580
 9170SOL    HW238970   2.121   3.737   7.829  0.7186 -1.1738  0.6251
 9171SOL     OW38971   0.421   4.406  11.259  0.4904 -0.1339 -0.1667
 9171SOL    HW138972   0.424   4.390  11.353 -0.2911  0.1347 -0.0929
 9171SOL    HW238973   0.466   4.327  11.229  0.2467 -0.4022  0.1687
 9172SOL     OW38974   4.388   1.045   5.719  0.0246 -0.2292  0.5869
 9172SOL    HW138975   4.319   1.096   5.762  0.2771  1.3571 -0.8437
 9172SOL    HW238976   4.338   1.036   5.638  2.6206  0.2239 -1.0701
 9173SOL     OW38977   0.605   3.408   8.011  0.5961  0.2551 -0.3215
 9173SOL    HW138978   0.561   3.325   7.994 -0.3175  0.4264  1.2068
 9173SOL    HW238979   0.693   3.377   7.988 -0.2932 -1.4046 -1.4516
 9174SOL     OW38980   0.822   0.875   2.307  0.1016 -0.1692  0.2585
 9174SOL    HW138981   0.735   0.913   2.314  0.6204  1.6296 -2.8129
 9174SOL    HW238982   0.804   0.801   2.249  0.9256  0.0959 -0.3427
 9175SOL     OW38983   2.225   0.324   4.226  0.1535 -0.0026 -0.0746
 9175SOL    HW138984   2.250   0.248   4.279 -3.0483  0.4370  2.0961
 9175SOL    HW238985   2.177   0.280   4.155 -2.0742  2.2237  0.0581
 9176SOL     OW38986   2.524   4.148   3.463 -0.1877  0.8084  0.6200
 9176SOL    HW138987   2.616   4.129   3.446 -0.3010 -0.3209  1.2969
 9176SOL    HW238988   2.531   4.237   3.429  0.0714 -0.0327 -1.5046
 9177SOL     OW38989   3.353   0.802  16.593 -0.7421  0.0859 -0.5751
 9177SOL    HW138990   3.406   0.814  16.514 -1.2476  0.6678 -0.8264
 9177SOL    HW238991   3.272   0.772  16.552 -1.2498  0.2994  0.2785
 9178SOL     OW38992   1.871   1.161   1.195 -0.2591  0.1013  0.2710
 9178SOL    HW138993   1.843   1.103   1.125  1.0380 -1.7326  1.2817
 9178SOL    HW238994   1.801   1.158   1.260 -1.0658  2.2492 -0.4960
 9179SOL     OW38995   4.277   0.327   9.525  0.4214  0.2481 -0.0505
 9179SOL    HW138996   4.240   0.415   9.514  0.8108  0.4455  0.1852
 9179SOL    HW238997   4.236   0.276   9.455 -0.1478  0.7383 -0.0693
 9180SOL     OW38998   0.650   1.109   6.207  0.0480  0.7806  0.0847
 9180SOL    HW138999   0.622   1.159   6.283 -0.0838 -1.0112  1.2252
 9180SOL    HW239000   0.572   1.118   6.152  1.1554  0.9537 -1.4461
 9181SOL     OW39001   4.010   3.810   3.974 -0.0830  0.4928 -0.3235
 9181SOL    HW139002   4.036   3.774   3.889 -0.5805 -0.7472  0.0387
 9181SOL    HW239003   3.963   3.891   3.955  2.1802  1.9509  0.2617
 9182SOL     OW39004   2.020   1.832   8.877 -0.5730 -0.0151  0.1057
 9182SOL    HW139005   2.055   1.909   8.833 -0.7734  0.6736  1.1749
 9182SOL    HW239006   2.098   1.801   8.923 -1.1184  0.6844  1.4914
 9183SOL     OW39007   3.077   0.642   0.723 -0.5707  0.1229  0.1353
 9183SOL    HW139008   3.142   0.572   0.722  1.0817  1.6691 -0.4861
 9183SOL    HW239009   3.117   0.702   0.660 -1.3749 -0.5293 -0.9945
 9184SOL     OW39010   4.176   3.668   9.980  1.0651  0.1900  0.5712
 9184SOL    HW139011   4.186   3.624  10.065 -2.3714  1.1972  1.5077
 9184SOL    HW239012   4.266   3.698   9.965  1.0071  0.4165  0.6841
 9185SOL     OW39013   4.023   1.544   7.707  0.2773 -0.0991 -0.0044
 9185SOL    HW139014   4.012   1.460   7.664 -1.5986 -0.9456  2.1983
 9185SOL    HW239015   3.930   1.564   7.711  0.2829 -0.6172  2.9646
 9186SOL     OW39016   3.469   1.111  16.350 -0.3654  0.1212  0.0627
 9186SOL    HW139017   3.387   1.113  16.399 -0.2552 -0.7097  0.2750
 9186SOL    HW239018   3.470   1.019  16.325 -3.1063 -0.3283  1.6118
 9187SOL     OW39019   3.010   1.569   6.837 -0.1811  1.0244  0.3852
 9187SOL    HW139020   2.939   1.634   6.836 -0.7406  0.4164  0.8315
 9187SOL    HW239021   3.002   1.527   6.922 -0.6223 -0.3230 -0.3314
 9188SOL     OW39022   1.351   1.680   2.074  0.0325  0.5213  0.1907
 9188SOL    HW139023   1.421   1.645   2.018 -0.6386 -1.0829  0.3522
 9188SOL    HW239024   1.279   1.659   2.016 -0.2498 -1.6026  1.2830
 9189SOL     OW39025   4.418   2.553   9.738  0.5369  0.0751  0.2896
 9189SOL    HW139026   4.327   2.524   9.743  1.1508 -1.4497  2.7271
 9189SOL    HW239027   4.445   2.483   9.797  0.1398 -0.7605 -0.5288
 9190SOL     OW39028   2.146   4.532   4.006  0.1669  0.0905 -0.0875
 9190SOL    HW139029   2.085   4.547   4.078 -2.2952  0.2252 -2.1812
 9190SOL    HW239030   2.089   4.577   3.944 -2.4920 -1.1055  1.4611
 9191SOL     OW39031   4.072   1.764  14.439 -0.9657  0.4261 -0.4314
 9191SOL    HW139032   4.161   1.738  14.414 -1.3719 -1.3138 -0.0334
 9191SOL    HW239033   4.091   1.769  14.533  1.2609  0.4950 -0.8658
 9192SOL     OW39034   4.182   4.129  14.221  0.1741  0.2561 -0.4171
 9192SOL    HW139035   4.260   4.106  14.172 -1.0601 -0.4581 -2.0471
 9192SOL    HW239036   4.179   4.223  14.205 -1.6815  0.2088 -0.3967
 9193SOL     OW39037   3.440   1.352   5.314 -0.7644 -0.5038  0.1511
 9193SOL    HW139038   3.360   1.365   5.263 -1.2481  0.6712  1.2093
 9193SOL    HW239039   3.472   1.275   5.267  0.7437 -0.3662  0.9411
 9194SOL     OW39040   0.550   4.016   8.674  0.0063 -0.1012  0.3340
 9194SOL    HW139041   0.507   3.980   8.596 -0.4397 -1.0957  1.0356
 9194SOL    HW239042   0.639   4.032   8.642  0.7920 -0.5598  2.2779
 9195SOL     OW39043   3.525   2.099   3.008  0.4062 -0.4271  0.0039
 9195SOL    HW139044   3.606   2.081   3.055  1.8770  2.8299 -1.2704
 9195SOL    HW239045   3.477   2.023   3.041 -0.9177  0.3924 -0.0073
 9196SOL     OW39046   3.394   0.770   8.934  0.1487 -0.1723  0.5590
 9196SOL    HW139047   3.343   0.850   8.948  0.2163  0.1391 -0.9550
 9196SOL    HW239048   3.373   0.752   8.842 -0.6804 -0.8529  0.8794
 9197SOL     OW39049   3.981   2.134  17.204 -0.3683  0.4999  0.1347
 9197SOL    HW139050   3.954   2.192  17.132  0.8395 -2.3742 -2.6633
 9197SOL    HW239051   3.955   2.050  17.166  0.9594  1.5579 -3.1724
 9198SOL     OW39052   0.706   2.314   3.644 -0.0184  0.0457 -0.2147
 9198SOL    HW139053   0.722   2.224   3.616  0.2781  0.8636 -2.7067
 9198SOL    HW239054   0.775   2.349   3.588 -1.1201  2.3993 -0.0841
 9199SOL     OW39055   2.774   3.781   7.849  0.4686  0.0329  0.2118
 9199SOL    HW139056   2.717   3.837   7.902 -1.5184 -1.1665 -0.6340
 9199SOL    HW239057   2.851   3.835   7.832 -0.9150  1.6386 -0.8819
 9200SOL     OW39058   2.555   3.532   5.778  0.3716 -0.0407 -0.4458
 9200SOL    HW139059   2.517   3.587   5.708  0.5543  0.8483  0.1474
 9200SOL    HW239060   2.481   3.479   5.807  0.5053 -0.2460 -0.4791
 9201SOL     OW39061   1.314   2.084   5.040 -0.2038 -0.0124 -0.8189
 9201SOL    HW139062   1.408   2.101   5.040  0.5110 -4.1950  0.7556
 9201SOL    HW239063   1.293   2.128   5.123 -1.8937 -0.7828 -0.8415
 9202SOL     OW39064   4.669   0.222   7.178 -0.2058 -0.1104  0.3033
 9202SOL    HW139065   4.604   0.219   7.108  1.8245  2.2296 -1.6646
 9202SOL    HW239066   4.626   0.149   7.223  1.8869 -1.8154 -0.5087
 9203SOL     OW39067   1.820   0.073   6.027  1.0403 -0.0643 -0.4833
 9203SOL    HW139068   1.744   0.044   6.078  1.0491 -0.6126 -0.7872
 9203SOL    HW239069   1.882   0.093   6.098 -1.1526  1.4099  1.0050
 9204SOL     OW39070   2.832   0.144   3.841 -0.0503  0.0094 -0.4592
 9204SOL    HW139071   2.819   0.134   3.935  2.1647 -2.8141 -0.4280
 9204SOL    HW239072   2.922   0.112   3.842  0.0968  0.4359 -0.2763
 9205SOL     OW39073   1.006   4.494   5.963 -0.2637 -0.3283  0.0192
 9205SOL    HW139074   0.965   4.408   5.971 -2.1086  0.5792  0.2560
 9205SOL    HW239075   0.965   4.526   5.883 -2.2398 -1.6738  0.4893
 9206SOL     OW39076   2.126   2.800  12.710 -0.5513 -0.1395 -0.8187
 9206SOL    HW139077   2.055   2.756  12.663 -0.4654 -2.0099  0.8452
 9206SOL    HW239078   2.098   2.888  12.736 -0.7460 -0.9136  1.5636
 9207SOL     OW39079   1.745   3.291   7.926 -0.5129  0.1032 -0.6312
 9207SOL    HW139080   1.805   3.218   7.908  3.2263  3.1439 -0.5830
 9207SOL    HW239081   1.806   3.359   7.954  0.1161 -1.6642  2.2335
 9208SOL     OW39082   1.598   2.145   5.114 -0.3387 -0.0480 -0.4447
 9208SOL    HW139083   1.612   2.157   5.208 -0.0468  0.0213 -0.4985
 9208SOL    HW239084   1.604   2.238   5.093  1.6329 -0.3702 -1.3179
 9209SOL     OW39085   4.171   1.567   5.696 -0.1677 -0.2032 -0.6766
 9209SOL    HW139086   4.127   1.499   5.748 -1.4940  0.5309 -0.8519
 9209SOL    HW239087   4.198   1.638   5.754  0.8361 -0.1256 -1.2410
 9210SOL     OW39088   4.371   3.404   4.654  0.4075 -0.0125 -0.9107
 9210SOL    HW139089   4.367   3.348   4.577  1.9848 -2.0345  0.4786
 9210SOL    HW239090   4.368   3.489   4.610  0.5591  0.1298 -0.6472
 9211SOL     OW39091   2.319   1.067  15.792  0.0330  0.0710 -0.3393
 9211SOL    HW139092   2.251   1.025  15.740  1.3460 -0.7664 -1.3903
 9211SOL    HW239093   2.267   1.131  15.841  0.1337 -0.3578  0.3372
 9212SOL     OW39094   1.340   4.385  17.203 -0.3217 -0.0395  0.5924
 9212SOL    HW139095   1.387   4.332  17.139  0.3301  0.4315  0.6850
 9212SOL    HW239096   1.305   4.458  17.152  0.8377  0.3257  0.3273
 9213SOL     OW39097   3.884   3.039   6.495  0.4288  0.1089 -0.0433
 9213SOL    HW139098   3.814   3.102   6.478  1.0254  0.8854  0.4073
 9213SOL    HW239099   3.832   2.991   6.561  0.7200 -2.6390 -1.7960
 9214SOL     OW39100   3.976   4.572  15.983  0.3184  0.2378 -0.0911
 9214SOL    HW139101   3.973   4.600  16.075  0.7145 -0.7322  0.2140
 9214SOL    HW239102   4.052   4.627  15.959  1.8440 -1.4316  0.9148
 9215SOL     OW39103   2.156   2.773   4.322 -0.6925 -0.0360 -0.0638
 9215SOL    HW139104   2.128   2.806   4.407 -0.2979 -3.9228  1.5727
 9215SOL    HW239105   2.098   2.808   4.255  0.3938  0.1627 -0.9082
 9216SOL     OW39106   3.597   1.048   1.393 -0.6031  0.2156 -0.2809
 9216SOL    HW139107   3.568   0.957   1.389 -1.4562  0.4190  1.2015
 9216SOL    HW239108   3.572   1.072   1.482  2.1161  1.1378  0.2197
 9217SOL     OW39109   3.363   2.037   4.248 -0.6842  0.9582 -0.1803
 9217SOL    HW139110   3.285   2.043   4.304 -1.6625 -0.2417 -1.4128
 9217SOL    HW239111   3.375   2.130   4.229  2.3384  0.5819 -0.0571
 9218SOL     OW39112   2.456   2.102   5.122 -0.6487  0.2937  0.3915
 9218SOL    HW139113   2.472   2.183   5.075 -0.5616 -0.7308 -1.3365
 9218SOL    HW239114   2.362   2.100   5.142 -1.0160 -0.4771 -1.3942
 9219SOL     OW39115   1.617   1.491   8.833 -0.1327 -0.2621  0.2445
 9219SOL    HW139116   1.706   1.485   8.869  0.2052 -1.3513 -0.7546
 9219SOL    HW239117   1.631   1.454   8.745  0.1061 -0.0300  0.1874
 9220SOL     OW39118   3.494   3.899   2.379  0.4245 -0.4076 -0.8722
 9220SOL    HW139119   3.447   3.844   2.315  1.3924 -2.2300 -0.0294
 9220SOL    HW239120   3.552   3.938   2.313 -0.4605  1.4800 -0.5269
 9221SOL     OW39121   4.697   1.944   2.774  0.1450 -0.2523  0.3163
 9221SOL    HW139122   4.648   1.864   2.789  1.9060 -1.8298 -2.2081
 9221SOL    HW239123   0.059   1.924   2.812  1.4217  1.7977 -1.3941
 9222SOL     OW39124   2.625   0.053   1.920  0.4671 -0.2778 -1.2903
 9222SOL    HW139125   2.675   0.022   1.844  0.3408 -1.1676 -1.0184
 9222SOL    HW239126   2.544   0.003   1.911 -0.2675  0.5708  0.7379
 9223SOL     OW39127   4.650   0.826   4.292 -0.0630  0.6442 -0.1027
 9223SOL    HW139128   4.613   0.889   4.230 -0.2525  0.0187 -0.6155
 9223SOL    HW239129   4.639   0.748   4.239  0.0776  0.2012  0.5182
 9224SOL     OW39130   0.753   2.927   0.340 -0.5929  0.8576 -0.0552
 9224SOL    HW139131   0.771   3.004   0.393  0.4357 -1.5957  3.1665
 9224SOL    HW239132   0.837   2.925   0.293 -0.1987 -1.1787  0.7208
 9225SOL     OW39133   4.499   3.108  11.796 -0.5120  0.0782  0.2764
 9225SOL    HW139134   4.525   3.199  11.811  0.7462  0.0912 -1.8803
 9225SOL    HW239135   4.475   3.084  11.885  0.0242 -1.6094 -0.0128
 9226SOL     OW39136   4.622   2.807   1.926  0.5727  0.1102  0.0010
 9226SOL    HW139137   4.686   2.839   1.864  1.2551 -0.0778  0.6071
 9226SOL    HW239138   4.649   2.715   1.938  1.0694  0.0677 -1.4421
 9227SOL     OW39139   3.847   3.601   2.556 -0.0239 -0.6276 -0.3294
 9227SOL    HW139140   3.768   3.654   2.573  0.5790 -0.3453  1.5591
 9227SOL    HW239141   3.911   3.672   2.546 -0.0668 -0.7479 -1.4595
 9228SOL     OW39142   2.818   2.657   3.509  0.2143 -0.6603  0.0935
 9228SOL    HW139143   2.887   2.710   3.468  0.3435 -2.1588 -1.6441
 9228SOL    HW239144   2.832   2.684   3.599  1.0054 -0.6789 -0.0252
 9229SOL     OW39145   0.643   3.017   8.277  0.2045 -0.8472 -0.2068
 9229SOL    HW139146   0.574   3.084   8.281  1.4311  0.4452 -0.5000
 9229SOL    HW239147   0.717   3.067   8.312  0.0318  1.2130 -2.7933
 9230SOL     OW39148   2.569   3.680   2.020 -0.1052 -0.0675 -0.7049
 9230SOL    HW139149   2.580   3.684   1.925  1.8354  1.0955 -0.4403
 9230SOL    HW239150   2.516   3.758   2.040 -1.0670 -0.8492 -0.2225
 9231SOL     OW39151   3.815   0.385   5.125 -0.1813 -0.0656 -0.1753
 9231SOL    HW139152   3.764   0.447   5.177  1.3224  1.9124 -1.0500
 9231SOL    HW239153   3.745   0.354   5.067  0.0944 -0.5201 -0.2677
 9232SOL     OW39154   3.827   1.544   8.042 -0.1434 -0.3569 -0.0660
 9232SOL    HW139155   3.923   1.543   8.045 -0.1966 -1.9800  1.1697
 9232SOL    HW239156   3.805   1.637   8.030 -0.3039 -0.9169 -3.8641
 9233SOL     OW39157   1.910   4.243   2.672  0.3702 -0.2205 -0.5913
 9233SOL    HW139158   1.923   4.154   2.706  0.3935  0.6818  1.6981
 9233SOL    HW239159   1.995   4.279   2.700  0.6328 -1.8361  0.6933
 9234SOL     OW39160   3.484   1.911  12.367  0.3181  0.0748  0.5559
 9234SOL    HW139161   3.523   1.824  12.360 -0.4946 -0.2763  0.4461
 9234SOL    HW239162   3.528   1.951  12.443  1.5174 -0.6722  0.2482
 9235SOL     OW39163   0.739   3.285   4.375  0.6287 -0.1797  0.1215
 9235SOL    HW139164   0.653   3.280   4.333  0.3133  0.4269  0.6969
 9235SOL    HW239165   0.768   3.369   4.340  1.8600 -0.3791  0.6454
 9236SOL     OW39166   1.518   0.401   1.746  0.1834  0.4228 -0.2552
 9236SOL    HW139167   1.542   0.327   1.802  3.2244  2.0412  0.5730
 9236SOL    HW239168   1.425   0.397   1.766  0.4540  0.1191  0.9461
 9237SOL     OW39169   2.936   1.319   3.531  0.2896  0.2901  0.2755
 9237SOL    HW139170   2.948   1.256   3.460 -2.5766 -0.0318  0.0518
 9237SOL    HW239171   2.843   1.311   3.554  0.4562 -1.3072  0.3827
 9238SOL     OW39172   3.204   2.923  13.103  0.0047 -0.1085 -0.3642
 9238SOL    HW139173   3.192   2.991  13.170  1.9829 -0.7119  0.6060
 9238SOL    HW239174   3.188   2.847  13.160  0.8791 -0.0984 -0.1135
 9239SOL     OW39175   4.447   1.368  11.393  0.0884  0.2328 -0.6825
 9239SOL    HW139176   4.474   1.316  11.469 -0.2284 -1.0684 -1.4624
 9239SOL    HW239177   4.530   1.403  11.361  0.8768 -0.8450  0.2111
 9240SOL     OW39178   2.950   0.774  17.482 -0.1559  0.8085  0.3306
 9240SOL    HW139179   2.932   0.798  17.391  1.4006  0.1013 -0.1668
 9240SOL    HW239180   2.874   0.812  17.526  0.1236  0.9590  0.6824
 9241SOL     OW39181   0.878   3.986   9.588  0.0624 -0.6241  0.3188
 9241SOL    HW139182   0.783   3.972   9.585 -0.0508  0.6471 -1.9662
 9241SOL    HW239183   0.886   4.080   9.602 -0.0938 -0.5227 -0.2524
 9242SOL     OW39184   4.360   1.179   4.509  0.7729 -0.2113  0.2828
 9242SOL    HW139185   4.281   1.125   4.516  0.3467  0.5728  1.5625
 9242SOL    HW239186   4.424   1.143   4.571  0.2567  2.3604  2.2825
 9243SOL     OW39187   1.501   0.846   8.370 -0.4440  0.8306 -0.5686
 9243SOL    HW139188   1.596   0.845   8.380 -0.5368 -0.6087  0.1113
 9243SOL    HW239189   1.496   0.809   8.282  1.8083 -0.5751 -0.0903
 9244SOL     OW39190   1.837   0.780  16.664  0.1164  0.1820  0.3336
 9244SOL    HW139191   1.820   0.856  16.608  1.2856  0.1055 -0.1248
 9244SOL    HW239192   1.782   0.799  16.740 -2.1081 -1.6276 -0.8392
 9245SOL     OW39193   2.711   1.705   3.176 -0.1913  0.2906 -0.1007
 9245SOL    HW139194   2.721   1.678   3.267  0.9205  0.4973 -0.1585
 9245SOL    HW239195   2.624   1.745   3.183 -1.3383 -2.1104 -0.7891
 9246SOL     OW39196   1.673   1.264  12.350  0.7488  0.0277  0.4588
 9246SOL    HW139197   1.599   1.314  12.316  0.0969 -0.5444  1.0442
 9246SOL    HW239198   1.728   1.277  12.273 -0.0489 -0.4883 -0.1923
 9247SOL     OW39199   3.846   3.959  15.402  0.5671 -0.2980 -0.2942
 9247SOL    HW139200   3.869   3.866  15.402 -0.1713 -0.4735  2.4103
 9247SOL    HW239201   3.867   3.983  15.492 -0.2130 -4.0344  0.8722
 9248SOL     OW39202   1.992   0.383   5.936 -0.0090 -0.3694  0.3705
 9248SOL    HW139203   1.934   0.400   5.862  1.6937 -2.1338 -1.3855
 9248SOL    HW239204   1.981   0.467   5.980  0.1949 -0.1538  0.0126
 9249SOL     OW39205   1.836   3.080  16.308  0.7572  0.3684  0.0154
 9249SOL    HW139206   1.743   3.064  16.323  0.2723  2.8739 -0.3252
 9249SOL    HW239207   1.831   3.164  16.354 -0.9605 -0.5185  1.4172
 9250SOL     OW39208   4.150   3.945  10.459  0.0338 -0.8284 -0.2838
 9250SOL    HW139209   4.136   3.998  10.381 -0.7984  1.0059  1.1163
 9250SOL    HW239210   4.226   3.892  10.436  2.3975  2.2274  0.4954
 9251SOL     OW39211   1.062   1.718   5.686 -0.3305  0.2700 -0.8839
 9251SOL    HW139212   1.137   1.673   5.647  1.1922 -0.0187  2.3384
 9251SOL    HW239213   1.056   1.669   5.768 -0.1122  0.5448 -0.7035
 9252SOL     OW39214   0.690   4.584  12.243  0.2737  0.1153 -0.1424
 9252SOL    HW139215   0.670   4.650  12.310 -0.4030  0.0019 -0.2392
 9252SOL    HW239216   0.759   4.621  12.188  0.1372 -1.1279 -1.1507
 9253SOL     OW39217   3.043   0.428   4.937 -0.1213  0.3352 -0.6342
 9253SOL    HW139218   3.061   0.420   4.844  0.4397 -0.9891 -0.4065
 9253SOL    HW239219   3.126   0.390   4.967  0.0053 -0.3071 -1.7910
 9254SOL     OW39220   2.141   0.925   3.606 -0.3833  0.0724  0.2115
 9254SOL    HW139221   2.058   0.973   3.604 -0.9648 -0.9540 -0.5892
 9254SOL    HW239222   2.201   0.992   3.639 -0.0412  0.0337 -0.3458
 9255SOL     OW39223   0.153   1.603   2.711 -0.0290  0.3112  0.2074
 9255SOL    HW139224   0.125   1.617   2.802 -1.8891 -0.3422 -0.2634
 9255SOL    HW239225   0.063   1.600   2.679  0.3297 -1.6192 -0.5929
 9256SOL     OW39226   2.308   3.505  11.296  0.5205  0.6331 -0.0765
 9256SOL    HW139227   2.289   3.566  11.368  0.1092  1.3744 -0.8084
 9256SOL    HW239228   2.401   3.487  11.312  0.5278  0.8964  0.2013
 9257SOL     OW39229   2.144   4.472   0.112 -0.3504 -0.2064  0.4367
 9257SOL    HW139230   2.097   4.520   0.180  0.7208 -0.2809  1.2250
 9257SOL    HW239231   2.090   4.502   0.039 -1.2025 -2.1138  0.2694
 9258SOL     OW39232   1.042   2.974   5.218 -0.2895  0.2992 -0.0300
 9258SOL    HW139233   1.046   3.064   5.251 -1.6531  0.1264  0.5858
 9258SOL    HW239234   0.950   2.965   5.193 -0.5850  1.2573  0.7145
 9259SOL     OW39235   4.475   2.675   8.216  0.0438 -0.3742  0.0343
 9259SOL    HW139236   4.472   2.744   8.151  0.9213 -0.2617  0.1116
 9259SOL    HW239237   4.558   2.699   8.259 -0.5925  1.8589 -0.0014
 9260SOL     OW39238   3.824   4.415   1.736  0.3379  0.1217  0.4320
 9260SOL    HW139239   3.784   4.498   1.764  0.3766 -0.2085  1.4921
 9260SOL    HW239240   3.883   4.387   1.806 -1.0924 -4.0853 -0.0414
 9261SOL     OW39241   1.838   3.600   8.610  0.4339  0.2160 -0.0185
 9261SOL    HW139242   1.793   3.592   8.694  1.2648  1.4470  0.5390
 9261SOL    HW239243   1.836   3.518   8.561  2.1217 -0.9213  1.7673
 9262SOL     OW39244   3.896   4.515   5.059 -0.0392 -0.2816  0.4610
 9262SOL    HW139245   3.831   4.477   4.999  0.5861 -1.0894  0.2817
 9262SOL    HW239246   3.979   4.484   5.021 -1.4277 -1.1056 -1.9116
 9263SOL     OW39247   1.505   4.480   6.801  0.3690  0.2522 -1.0770
 9263SOL    HW139248   1.429   4.532   6.776 -0.2764  1.4484  3.2744
 9263SOL    HW239249   1.489   4.400   6.752 -0.7799 -0.3468  0.2469
 9264SOL     OW39250   3.568   3.864   3.713  0.2306 -0.4072 -0.0928
 9264SOL    HW139251   3.616   3.783   3.694 -0.7451 -0.6530 -1.5663
 9264SOL    HW239252   3.572   3.875   3.808 -0.1473  0.6422 -0.1994
 9265SOL     OW39253   0.307   1.360   6.022 -1.0644  0.0802 -0.4213
 9265SOL    HW139254   0.311   1.275   6.067  1.1001  0.2572 -0.2713
 9265SOL    HW239255   0.381   1.350   5.962  1.6124  2.6190  2.4587
 9266SOL     OW39256   4.194   1.763   7.658 -0.2129  0.3079  0.1467
 9266SOL    HW139257   4.217   1.769   7.566  0.9800  3.3240  0.6698
 9266SOL    HW239258   4.145   1.680   7.655  1.9383 -0.9388 -0.6955
 9267SOL     OW39259   2.053   1.022   6.634  0.1518 -0.3454 -1.0670
 9267SOL    HW139260   2.067   0.995   6.543  1.3380 -0.8276 -0.7378
 9267SOL    HW239261   2.138   1.007   6.674 -0.7326  1.1777  1.3456
 9268SOL     OW39262   0.652   2.531  15.635 -0.4571 -0.3185  0.0529
 9268SOL    HW139263   0.601   2.467  15.685  1.6268 -2.7017 -0.9139
 9268SOL    HW239264   0.687   2.599  15.692 -1.1101  0.6061 -0.6557
 9269SOL     OW39265   2.147   1.281  15.914 -0.6088  0.0489  0.4701
 9269SOL    HW139266   2.223   1.331  15.883  0.2461 -1.6104 -0.1185
 9269SOL    HW239267   2.074   1.328  15.876  0.4869  2.3028  1.1346
 9270SOL     OW39268   1.395   3.283   5.840  0.1883  0.2735 -0.2249
 9270SOL    HW139269   1.412   3.266   5.933 -2.5122  2.1993  0.6452
 9270SOL    HW239270   1.395   3.379   5.834  2.5188  0.4032  1.7189
 9271SOL     OW39271   3.722   3.706   8.497  0.6598 -0.7436  0.2829
 9271SOL    HW139272   3.732   3.687   8.590  3.0216 -1.3508 -0.0827
 9271SOL    HW239273   3.689   3.794   8.513 -0.6977 -1.3350  0.7157
 9272SOL     OW39274   2.039   0.197   8.684 -0.6062 -0.1189 -0.2926
 9272SOL    HW139275   2.105   0.238   8.629  0.0583 -3.0087 -1.6908
 9272SOL    HW239276   2.093   0.126   8.720 -2.6871 -1.7171 -0.2939
 9273SOL     OW39277   3.245   1.822   6.914 -0.2907 -0.1106 -0.1875
 9273SOL    HW139278   3.333   1.845   6.941  0.2655 -3.0413  0.4782
 9273SOL    HW239279   3.205   1.768   6.983  0.8215 -1.9378 -1.0191
 9274SOL     OW39280   2.030   3.079   1.768 -0.1557 -0.3112 -0.0646
 9274SOL    HW139281   2.025   3.172   1.791 -0.9859 -0.2576 -0.4929
 9274SOL    HW239282   2.058   3.037   1.849  1.1489  0.3722 -0.1565
 9275SOL     OW39283   2.666   2.859   5.970  0.0697 -0.2881 -0.1882
 9275SOL    HW139284   2.578   2.854   6.009 -0.4698  0.1412 -1.3537
 9275SOL    HW239285   2.679   2.953   5.962  0.9494 -0.4858 -0.9864
 9276SOL     OW39286   0.402   4.515   5.186  0.0675  0.0609  0.0346
 9276SOL    HW139287   0.365   4.563   5.112  0.3217 -2.0549 -1.4650
 9276SOL    HW239288   0.376   4.424   5.173 -0.0480  0.1949 -0.6785
 9277SOL     OW39289   2.987   4.488   0.615  0.0335 -0.5219 -0.4267
 9277SOL    HW139290   3.066   4.531   0.583  0.3202 -1.5933 -1.1573
 9277SOL    HW239291   2.914   4.538   0.579  0.3875  0.6007  0.3945
 9278SOL     OW39292   2.559   3.353   8.503  0.1447  0.2436  0.0707
 9278SOL    HW139293   2.469   3.346   8.470  0.3016 -0.3878 -0.2180
 9278SOL    HW239294   2.537   3.404   8.581  1.0435  0.5944  0.0936
 9279SOL     OW39295   3.306   1.941   3.199 -0.2818  1.0110  0.5583
 9279SOL    HW139296   3.332   1.975   3.285 -0.0800  1.8032  0.1793
 9279SOL    HW239297   3.244   2.012   3.181 -0.8999  0.0889 -0.9009
 9280SOL     OW39298   4.723   1.996   7.650  0.2000 -0.6442  0.1695
 9280SOL    HW139299   4.704   1.912   7.691  0.8977 -0.6763  0.4156
 9280SOL    HW239300   4.643   2.000   7.597 -0.9343  0.1794  1.9284
 9281SOL     OW39301   2.729   3.103   7.563  0.2232 -0.1600  0.1127
 9281SOL    HW139302   2.710   3.105   7.656 -3.4476 -0.2570 -0.6441
 9281SOL    HW239303   2.682   3.184   7.543 -1.0298 -1.5606 -2.6831
 9282SOL     OW39304   3.158   4.375   9.134 -0.3505 -0.0400 -0.1116
 9282SOL    HW139305   3.105   4.454   9.143  1.4276  1.0000  1.2832
 9282SOL    HW239306   3.112   4.312   9.191 -3.2088  0.3457 -1.9470
 9283SOL     OW39307   1.197   0.976   8.463 -0.2226 -0.4099 -0.3326
 9283SOL    HW139308   1.185   1.066   8.493  1.9435 -0.7315  1.4788
 9283SOL    HW239309   1.168   0.939   8.546 -0.4808 -0.0810 -0.2772
 9284SOL     OW39310   1.218   3.518   3.154 -0.1020  0.0001  0.0411
 9284SOL    HW139311   1.201   3.595   3.208 -1.0251 -0.6988  0.7471
 9284SOL    HW239312   1.213   3.553   3.065 -1.9137  0.2154  0.2421
 9285SOL     OW39313   4.235   0.149   7.145  0.4787 -0.2537  0.4495
 9285SOL    HW139314   4.303   0.199   7.190 -1.4398 -0.3400  3.4712
 9285SOL    HW239315   4.192   0.106   7.219 -0.7872  0.4578  0.1305
 9286SOL     OW39316   3.480   1.229  16.833  0.3922 -0.0327  0.3312
 9286SOL    HW139317   3.574   1.219  16.851  0.4421 -1.3093 -0.6144
 9286SOL    HW239318   3.449   1.147  16.795  0.8118 -0.6492  1.3185
 9287SOL     OW39319   1.579   3.713   7.266 -0.2232  0.5675  0.3276
 9287SOL    HW139320   1.648   3.748   7.210 -0.7402 -0.2280 -0.8115
 9287SOL    HW239321   1.632   3.664   7.328  0.0065 -2.5394 -2.3390
 9288SOL     OW39322   0.688   2.660   5.611 -0.3115 -0.6498  0.3849
 9288SOL    HW139323   0.743   2.583   5.625  0.0829 -0.1207  1.7093
 9288SOL    HW239324   0.647   2.670   5.696 -1.8414  0.0469 -0.4311
 9289SOL     OW39325   4.407   4.286   6.821  0.2852 -0.8737 -0.5273
 9289SOL    HW139326   4.386   4.255   6.733 -2.8792 -0.8236  0.2118
 9289SOL    HW239327   4.501   4.304   6.817  0.3110 -1.3214 -1.8834
 9290SOL     OW39328   1.056   3.517   2.410 -0.4793 -0.8316 -0.7418
 9290SOL    HW139329   1.135   3.466   2.427 -1.1001 -1.6545 -0.3179
 9290SOL    HW239330   0.994   3.488   2.477  0.5621 -1.3394 -0.0009
 9291SOL     OW39331   2.239   3.617   3.864  0.0286  0.2069 -0.0890
 9291SOL    HW139332   2.219   3.702   3.825 -0.4845  0.5032  0.8129
 9291SOL    HW239333   2.333   3.637   3.860  0.5931 -2.4082 -0.2125
 9292SOL     OW39334   3.685   0.880   1.007  0.2465  0.0059 -0.1958
 9292SOL    HW139335   3.739   0.919   1.076 -0.4892 -1.0993  1.0002
 9292SOL    HW239336   3.629   0.828   1.064  0.0242  0.1679 -0.2660
 9293SOL     OW39337   1.487   0.116   1.813 -0.6320 -0.7652  0.0430
 9293SOL    HW139338   1.475   0.042   1.754 -1.6761  2.1321 -3.3845
 9293SOL    HW239339   1.581   0.121   1.831 -1.0393  1.8396  1.4799
 9294SOL     OW39340   0.687   3.699   1.518  0.3570  1.0661 -0.0567
 9294SOL    HW139341   0.755   3.722   1.581 -0.9316  1.0307  1.3328
 9294SOL    HW239342   0.729   3.720   1.434  2.5450  1.1728  1.0697
 9295SOL     OW39343   0.001   0.281   5.065 -0.0948  0.0882  0.6551
 9295SOL    HW139344   0.000   0.340   5.140  0.7873 -1.0240  1.5339
 9295SOL    HW239345   4.708   0.343   4.995 -0.6935 -1.6243 -0.7371
 9296SOL     OW39346   3.483   4.505   5.083 -0.2161 -0.0773  0.4062
 9296SOL    HW139347   3.414   4.470   5.028  0.4433  0.2123 -0.6093
 9296SOL    HW239348   3.460   4.464   5.166  3.5168 -1.3705  0.8272
 9297SOL     OW39349   3.493   4.465  12.825  0.4487 -0.3410 -0.0467
 9297SOL    HW139350   3.510   4.557  12.808  2.2612 -0.7749 -0.5566
 9297SOL    HW239351   3.521   4.423  12.743 -0.4229  0.4887 -0.7698
 9298SOL     OW39352   0.461   2.750   2.076 -0.6315 -0.1460  0.2210
 9298SOL    HW139353   0.432   2.797   2.154 -0.9583 -0.5534  0.3436
 9298SOL    HW239354   0.522   2.681   2.104 -2.4016 -0.6344  2.8458
 9299SOL     OW39355   1.986   2.099   8.727 -0.0008 -0.0883 -0.5961
 9299SOL    HW139356   1.909   2.138   8.687 -0.4814  0.1433  0.5680
 9299SOL    HW239357   1.959   2.100   8.819  0.1798 -0.7411 -0.5337
 9300SOL     OW39358   1.759   4.542  15.302  0.1446 -0.3884 -0.0773
 9300SOL    HW139359   1.686   4.578  15.252  0.6576  1.0038  0.1679
 9300SOL    HW239360   1.742   4.588  15.385 -0.9977 -0.2294 -0.3964
 9301SOL     OW39361   3.804   3.936  11.940 -0.4148  0.3135 -0.5191
 9301SOL    HW139362   3.844   3.907  12.022 -1.3553  0.9855  0.1774
 9301SOL    HW239363   3.748   3.863  11.914 -0.4337  0.1854 -0.1210
 9302SOL     OW39364   1.076   4.457   2.266  0.5834  0.1772  0.3862
 9302SOL    HW139365   1.008   4.514   2.230  1.0640 -0.2383 -1.1886
 9302SOL    HW239366   1.112   4.520   2.328  0.8252 -0.2064  0.6344
 9303SOL     OW39367   1.609   3.713   8.523 -0.1156  0.3191 -0.2388
 9303SOL    HW139368   1.676   3.658   8.565  0.3673  1.6265  0.7234
 9303SOL    HW239369   1.658   3.758   8.454 -0.0909 -1.3050 -1.2776
 9304SOL     OW39370   3.591   4.652  13.777  0.3671 -0.1383  0.0978
 9304SOL    HW139371   3.530   4.694  13.837 -0.9977 -1.0474 -0.6333
 9304SOL    HW239372   3.577   4.707  13.699  0.5135  0.1744  0.2950
 9305SOL     OW39373   2.034   1.072   1.968  0.5775 -0.7164 -0.4436
 9305SOL    HW139374   2.056   1.082   1.875  2.4577 -1.4688 -0.0721
 9305SOL    HW239375   2.074   0.985   1.973  1.9321 -0.0828 -0.4312
 9306SOL     OW39376   0.114   0.887   1.584  0.3777 -0.0351 -0.1418
 9306SOL    HW139377   0.091   0.825   1.515  0.0564 -0.9507  0.7995
 9306SOL    HW239378   0.027   0.921   1.605  0.0736 -0.9585  0.0863
 9307SOL     OW39379   2.017   0.271   3.345  0.1543  0.4578 -0.6795
 9307SOL    HW139380   2.097   0.320   3.360 -0.7933  1.4910  0.9853
 9307SOL    HW239381   1.958   0.321   3.402  1.1308 -0.8093  1.4517
 9308SOL     OW39382   2.356   3.853   4.020  0.3824 -0.3504 -0.3338
 9308SOL    HW139383   2.433   3.910   4.013  0.6021 -0.1101  3.6135
 9308SOL    HW239384   2.296   3.915   3.978  0.7663 -0.1738 -0.6218
 9309SOL     OW39385   3.672   1.123   2.257 -0.7389  0.1246  0.1451
 9309SOL    HW139386   3.717   1.160   2.181 -0.6320  0.1664  0.2284
 9309SOL    HW239387   3.741   1.122   2.324  0.6908  1.3245 -1.3205
 9310SOL     OW39388   1.317   3.492  13.909 -0.0993 -0.3012  0.0016
 9310SOL    HW139389   1.395   3.538  13.878  0.4572 -0.6867  0.8368
 9310SOL    HW239390   1.321   3.537  13.994 -1.4166  3.0741 -1.7241
 9311SOL     OW39391   1.375   1.424   2.716 -0.2999  0.9556  0.5352
 9311SOL    HW139392   1.285   1.453   2.730 -1.2514 -2.0390  0.5665
 9311SOL    HW239393   1.418   1.431   2.801 -0.0800  1.3889  0.3911
 9312SOL     OW39394   1.009   0.101   6.803 -0.5659  0.2674 -0.5793
 9312SOL    HW139395   1.072   0.171   6.785 -1.0814  0.2189 -2.5977
 9312SOL    HW239396   0.948   0.131   6.735 -1.4788 -1.5357 -0.5536
 9313SOL     OW39397   4.206   4.445  17.133 -0.3468 -0.5657  0.3979
 9313SOL    HW139398   4.129   4.496  17.157  1.8197  2.1144  1.8055
 9313SOL    HW239399   4.270   4.498  17.182 -1.2146  2.6329 -1.9641
 9314SOL     OW39400   0.053   1.394   0.837  0.1507 -0.2830 -0.5302
 9314SOL    HW139401   4.709   1.368   0.899 -1.7263  1.4607 -1.8279
 9314SOL    HW239402   0.042   1.489   0.832 -0.8932 -0.3093  1.7066
 9315SOL     OW39403   4.717   2.113   6.416 -0.0503  0.1452 -0.4440
 9315SOL    HW139404   0.022   2.060   6.342 -0.1251 -0.6090  0.0792
 9315SOL    HW239405   4.623   2.124   6.403 -0.2558  0.7816  1.5569
 9316SOL     OW39406   0.463   3.140   7.104 -0.0237 -0.1052  0.1394
 9316SOL    HW139407   0.446   3.093   7.022  1.0192 -0.0661 -0.1034
 9316SOL    HW239408   0.439   3.070   7.165 -1.4420 -0.0100 -0.3189
 9317SOL     OW39409   4.239   1.722   8.749 -0.5390 -0.4609  0.4831
 9317SOL    HW139410   4.278   1.645   8.707  0.3847  0.6051 -0.6378
 9317SOL    HW239411   4.313   1.782   8.759 -1.0645  0.2574  0.0807
 9318SOL     OW39412   1.747   2.406   6.538  0.4485  0.2492 -0.3834
 9318SOL    HW139413   1.723   2.337   6.476 -0.1924  1.2717 -1.2820
 9318SOL    HW239414   1.832   2.377   6.569  0.2543 -0.6816 -0.7085
 9319SOL     OW39415   0.749   0.202   6.288  0.1340  0.1279  0.5105
 9319SOL    HW139416   0.687   0.274   6.297 -3.1238 -2.5452 -0.8243
 9319SOL    HW239417   0.690   0.128   6.299 -1.3444  1.4599  1.6146
 9320SOL     OW39418   4.187   0.379  10.472  0.1095 -0.2694 -0.1782
 9320SOL    HW139419   4.112   0.392  10.415  0.1656 -0.2012 -0.2360
 9320SOL    HW239420   4.193   0.285  10.456  0.8794 -0.3469  0.5701
 9321SOL     OW39421   4.024   0.623   6.829 -0.5223  0.2652  0.7968
 9321SOL    HW139422   4.071   0.641   6.910  0.6791  0.6745  0.0083
 9321SOL    HW239423   3.998   0.711   6.802  0.0511  0.6759  1.6100
 9322SOL     OW39424   0.077   4.235   6.070 -0.1017 -0.2813 -0.4070
 9322SOL    HW139425   0.032   4.247   5.986  2.3903  0.5766 -1.6247
 9322SOL    HW239426   0.004   4.238   6.132 -0.9896 -0.2068 -1.4518
 9323SOL     OW39427   2.405   1.255  16.195  0.1679 -0.4418 -0.4299
 9323SOL    HW139428   2.498   1.235  16.208  0.0427  0.8022  2.3924
 9323SOL    HW239429   2.405   1.283  16.104  1.7806 -0.8850 -0.5757
 9324SOL     OW39430   2.305   0.069   2.998 -0.1144 -0.3517  0.2608
 9324SOL    HW139431   2.369   0.126   3.040 -0.5982 -0.3048  0.9361
 9324SOL    HW239432   2.226   0.111   3.033 -0.1078  1.8052 -2.3427
 9325SOL     OW39433   2.867   4.173   9.162 -0.4003  0.1113  0.2804
 9325SOL    HW139434   2.788   4.118   9.164 -0.2677 -0.2324 -3.1975
 9325SOL    HW239435   2.823   4.255   9.140  1.4563  1.0599  0.1226
 9326SOL     OW39436   3.975   4.032   3.114  0.1666 -0.2573  0.3980
 9326SOL    HW139437   3.913   4.090   3.158  2.4445  1.5381  1.2426
 9326SOL    HW239438   3.923   4.012   3.037  1.8102 -0.4462 -0.6569
 9327SOL     OW39439   2.340   1.828   6.929 -0.1590  0.2611 -1.0750
 9327SOL    HW139440   2.306   1.914   6.955  1.3474  0.5183  0.0538
 9327SOL    HW239441   2.258   1.779   6.924  1.6563 -2.9856  0.5688
 9328SOL     OW39442   2.089   0.124   7.949 -0.4612 -0.4771  0.1018
 9328SOL    HW139443   2.038   0.201   7.973 -0.4771 -0.3643 -0.3025
 9328SOL    HW239444   2.053   0.063   8.013 -1.0978  0.5580  0.7330
 9329SOL     OW39445   3.189   3.687   6.031 -0.3962 -0.0273  0.2813
 9329SOL    HW139446   3.253   3.729   6.089 -0.7547 -2.1019  2.1927
 9329SOL    HW239447   3.120   3.656   6.090  1.1296 -2.4062  0.7942
 9330SOL     OW39448   2.813   3.755  12.959  0.4452  0.3468  0.2692
 9330SOL    HW139449   2.889   3.709  12.925  1.2649  3.3499 -1.9033
 9330SOL    HW239450   2.748   3.713  12.903 -1.0504  1.2863  1.2950
 9331SOL     OW39451   1.120   4.589   8.802 -0.1208  0.1496  0.5068
 9331SOL    HW139452   1.132   4.612   8.710  2.4418  3.1821  1.6240
 9331SOL    HW239453   1.176   4.512   8.799  0.6526  0.6937  1.2137
 9332SOL     OW39454   2.237   2.289  14.756  0.0022  0.3277  0.4550
 9332SOL    HW139455   2.199   2.376  14.767  1.4986  1.3127 -2.4617
 9332SOL    HW239456   2.276   2.281  14.843 -2.6095 -2.7674  1.3817
 9333SOL     OW39457   0.885   2.071   2.603  0.2774  0.1174 -0.8310
 9333SOL    HW139458   0.790   2.058   2.610  0.4764 -0.9429 -0.1026
 9333SOL    HW239459   0.884   2.164   2.623 -1.5699  0.2112 -1.2886
 9334SOL     OW39460   0.608   1.387   2.747 -0.6378  0.4806 -0.2413
 9334SOL    HW139461   0.538   1.446   2.721 -0.1929  1.4179  0.6914
 9334SOL    HW239462   0.680   1.436   2.786 -1.0302  0.5326  0.4118
 9335SOL     OW39463   4.275   0.754   6.662 -0.1118  0.4813 -0.2251
 9335SOL    HW139464   4.187   0.739   6.696  0.2261 -1.1745 -0.0958
 9335SOL    HW239465   4.252   0.772   6.571  0.9480  0.5421 -0.4749
 9336SOL     OW39466   3.219   1.936  14.227 -0.4161  0.1970 -0.0682
 9336SOL    HW139467   3.231   1.864  14.289 -0.6662 -2.5728 -3.2295
 9336SOL    HW239468   3.263   1.904  14.149  1.9648 -0.5592  1.5854
 9337SOL     OW39469   0.481   3.759  12.690  0.0909 -0.1803  0.6029
 9337SOL    HW139470   0.564   3.728  12.653 -0.5500 -1.1829  0.0281
 9337SOL    HW239471   0.423   3.736  12.617  0.9151  0.0917 -0.1407
 9338SOL     OW39472   3.592   0.198   2.236  0.7880 -0.0838 -0.2191
 9338SOL    HW139473   3.639   0.176   2.156  1.9312  2.0637 -0.1279
 9338SOL    HW239474   3.596   0.294   2.238  2.8208 -0.1822  1.3466
 9339SOL     OW39475   1.871   0.832   7.724 -0.3864  0.2950 -0.3203
 9339SOL    HW139476   1.926   0.910   7.716  0.7186 -0.7751 -3.0406
 9339SOL    HW239477   1.935   0.764   7.747 -0.5088 -0.1448 -1.3082
 9340SOL     OW39478   3.966   2.410  14.471 -0.6689  0.2146  0.1220
 9340SOL    HW139479   3.926   2.359  14.401 -1.6245 -0.8593  1.4587
 9340SOL    HW239480   4.047   2.362  14.490  0.0119  1.3747  0.1894
 9341SOL     OW39481   1.565   2.991   5.941 -0.1946 -0.5908  0.2351
 9341SOL    HW139482   1.493   2.942   5.982  0.9644 -2.7066 -0.2643
 9341SOL    HW239483   1.643   2.946   5.973 -1.5267 -2.4595  0.8940
 9342SOL     OW39484   3.032   3.839   4.689 -0.4786  0.6218 -0.5168
 9342SOL    HW139485   3.088   3.852   4.613 -1.0748  1.3446 -0.8368
 9342SOL    HW239486   3.075   3.763   4.728  0.9547  1.7183  0.0275
 9343SOL     OW39487   4.400   3.656   5.273 -0.3046 -0.5351 -0.2354
 9343SOL    HW139488   4.311   3.642   5.240 -0.1478 -4.0165  0.7777
 9343SOL    HW239489   4.449   3.619   5.199  0.1898 -1.8577  0.7375
 9344SOL     OW39490   1.767   3.637  14.340  0.0199  0.8291 -0.7829
 9344SOL    HW139491   1.681   3.673  14.318  0.8766  3.3969  0.1479
 9344SOL    HW239492   1.793   3.620  14.250  1.1743 -0.8369 -0.1392
 9345SOL     OW39493   1.211   4.100  11.069  0.2778  0.4038  0.0306
 9345SOL    HW139494   1.116   4.115  11.063 -0.0907 -1.1991  1.9864
 9345SOL    HW239495   1.237   4.146  10.989 -0.2059 -1.9537 -1.4807
 9346SOL     OW39496   4.288   2.046   6.161 -0.1980 -0.2299 -0.1093
 9346SOL    HW139497   4.226   1.999   6.104 -3.1978  1.7302  1.5783
 9346SOL    HW239498   4.349   2.092   6.103  1.4945 -0.7356  1.2768
 9347SOL     OW39499   1.662   4.659   6.207 -0.3590 -0.9256  0.0769
 9347SOL    HW139500   1.724   4.642   6.277  2.1285  2.6183 -1.3023
 9347SOL    HW239501   1.615   0.003   6.256  3.2011  2.6892 -1.4992
 9348SOL     OW39502   0.218   0.543   1.275 -0.2340 -0.1760 -0.1949
 9348SOL    HW139503   0.246   0.498   1.354 -0.0419  1.1429  0.4749
 9348SOL    HW239504   0.156   0.602   1.317 -0.2777  1.3391 -2.3734
 9349SOL     OW39505   4.716   4.187   7.826  0.0668  0.2757 -0.5745
 9349SOL    HW139506   4.635   4.223   7.861  0.7145  0.8051  0.3922
 9349SOL    HW239507   4.710   4.092   7.832  2.3402  0.1977  0.6740
 9350SOL     OW39508   0.032   2.694  14.409 -0.2939 -0.2422  0.0455
 9350SOL    HW139509   0.045   2.599  14.408 -0.3465 -0.2277 -1.8120
 9350SOL    HW239510   0.126   2.716  14.404 -0.5138  0.6413 -0.2635
 9351SOL     OW39511   0.585   4.375   7.763 -0.1371  0.2486  0.4315
 9351SOL    HW139512   0.604   4.288   7.798 -0.4185  0.1790  0.4086
 9351SOL    HW239513   0.533   4.400   7.840 -1.4217  0.8179 -0.6206
 9352SOL     OW39514   4.188   3.980   3.575 -0.2717 -0.2598  0.8729
 9352SOL    HW139515   4.159   3.966   3.485 -0.0735  2.1042  0.4474
 9352SOL    HW239516   4.116   3.952   3.632 -0.5377 -1.2198  0.0638
 9353SOL     OW39517   3.447   3.219   1.106  0.1181  0.2164  0.0648
 9353SOL    HW139518   3.467   3.310   1.132 -0.3780  0.7162 -1.3338
 9353SOL    HW239519   3.525   3.168   1.127 -1.3802 -1.8961  0.4355
 9354SOL     OW39520   4.370   3.474   7.913 -0.2338 -0.0130  0.4337
 9354SOL    HW139521   4.381   3.430   7.997 -2.0729 -1.9237 -0.3395
 9354SOL    HW239522   4.302   3.421   7.871 -0.4630  0.3398  0.3563
 9355SOL     OW39523   0.029   3.708   0.348 -0.0770  0.2630 -0.0395
 9355SOL    HW139524   0.036   3.789   0.398 -0.1977  1.2942 -1.6653
 9355SOL    HW239525   0.058   3.739   0.262  3.3659 -0.9499  0.7117
 9356SOL     OW39526   0.303   3.765   6.573 -0.3103  0.0505 -0.0993
 9356SOL    HW139527   0.324   3.773   6.480 -0.4771 -1.3656 -0.2624
 9356SOL    HW239528   0.240   3.836   6.582  0.7966  1.0514 -0.3371
 9357SOL     OW39529   0.920   4.232   9.973 -0.2591 -0.4590  0.3800
 9357SOL    HW139530   0.925   4.213  10.067 -0.3447  1.5605  0.8095
 9357SOL    HW239531   1.009   4.203   9.952  1.3805  3.1255  2.2896
 9358SOL     OW39532   1.696   1.136  17.285 -0.8900  0.0464  0.1051
 9358SOL    HW139533   1.692   1.085  17.366  0.1472 -0.1067  0.0651
 9358SOL    HW239534   1.603   1.141  17.264 -0.8377 -0.4179 -0.2629
 9359SOL     OW39535   1.874   0.592  11.432  0.2346 -0.1165 -0.7727
 9359SOL    HW139536   1.943   0.525  11.429 -0.3360 -0.8383  2.0883
 9359SOL    HW239537   1.857   0.600  11.526 -0.8947  0.5431 -1.0422
 9360SOL     OW39538   0.513   2.576  11.561 -0.3038 -0.3915  0.4284
 9360SOL    HW139539   0.493   2.504  11.500  0.2214  0.5065 -0.8052
 9360SOL    HW239540   0.552   2.642  11.504 -0.6967  1.3008  2.1323
 9361SOL     OW39541   3.898   0.771   7.692 -0.2229  0.8833 -0.7799
 9361SOL    HW139542   3.902   0.720   7.773 -1.2878  1.6654 -0.2336
 9361SOL    HW239543   3.871   0.858   7.720 -0.4051  0.4878  0.3001
 9362SOL     OW39544   4.054   0.955  16.476 -0.0633  0.1214  0.7142
 9362SOL    HW139545   4.087   1.032  16.431 -1.3440 -1.4311 -2.8888
 9362SOL    HW239546   4.031   0.996  16.559  1.1947  3.0736 -0.4029
 9363SOL     OW39547   4.000   1.470   6.773  0.4628 -0.1110  0.7636
 9363SOL    HW139548   4.026   1.470   6.681  0.5803  0.4409  0.7977
 9363SOL    HW239549   3.911   1.505   6.765  0.3637 -0.2499  1.2303
 9364SOL     OW39550   0.773   0.884   3.863 -0.3864 -0.6729 -0.3083
 9364SOL    HW139551   0.714   0.936   3.917  2.0096  0.1761  1.5255
 9364SOL    HW239552   0.799   0.947   3.796 -0.8708  1.0469  1.1492
 9365SOL     OW39553   3.961   3.189   2.583 -0.2394 -0.8623 -0.5418
 9365SOL    HW139554   3.901   3.211   2.655 -0.0603 -2.2164  0.0281
 9365SOL    HW239555   3.947   3.264   2.524  1.6700  2.3341  3.1207
 9366SOL     OW39556   1.149   1.955  15.606  0.0643  0.2916 -0.7568
 9366SOL    HW139557   1.133   1.885  15.669 -0.2156  0.2266 -0.8999
 9366SOL    HW239558   1.065   2.002  15.607  0.5728  1.2255 -3.5516
 9367SOL     OW39559   3.957   1.667   9.270  0.1371  0.5664 -0.0140
 9367SOL    HW139560   3.896   1.736   9.296  0.9252  1.5437 -0.7582
 9367SOL    HW239561   4.010   1.712   9.204  2.8349 -0.4587  1.4473
 9368SOL     OW39562   2.563   3.465  11.310  0.2660  0.6321  0.2839
 9368SOL    HW139563   2.618   3.500  11.240 -2.8314  2.3569 -1.2694
 9368SOL    HW239564   2.618   3.485  11.386  2.4539  1.3526 -1.5046
 9369SOL     OW39565   1.087   3.962   7.353 -0.0620 -0.5798 -0.0069
 9369SOL    HW139566   1.141   3.885   7.337 -0.9960 -0.7578 -2.4500
 9369SOL    HW239567   1.157   4.024   7.370 -0.8487  0.3181 -0.0045
 9370SOL     OW39568   2.484   2.177  16.363 -0.7529  0.8123  0.3206
 9370SOL    HW139569   2.485   2.091  16.404 -0.4798  1.4204  1.6033
 9370SOL    HW239570   2.574   2.206  16.378 -1.2063  2.0824  0.6126
 9371SOL     OW39571   0.148   2.133  13.751 -0.1563  0.2346  0.1899
 9371SOL    HW139572   0.196   2.075  13.692 -1.7499 -1.0654  0.1578
 9371SOL    HW239573   0.187   2.105  13.834 -1.6398 -2.0857  0.0967
 9372SOL     OW39574   1.044   2.344   6.856 -0.4227 -0.1179 -0.0662
 9372SOL    HW139575   1.012   2.283   6.790  0.0844 -0.5932  0.1303
 9372SOL    HW239576   1.096   2.397   6.796 -0.5926 -1.3454 -1.2895
 9373SOL     OW39577   3.751   4.012  13.350 -1.0316  0.3126 -0.1252
 9373SOL    HW139578   3.740   3.931  13.400 -0.8516  2.1179  2.8364
 9373SOL    HW239579   3.745   4.081  13.415 -0.2910 -1.4564  1.8237
 9374SOL     OW39580   3.461   0.147  10.542 -0.6642 -0.1694  0.6368
 9374SOL    HW139581   3.529   0.138  10.608 -0.2503 -4.0906 -0.3646
 9374SOL    HW239582   3.397   0.078  10.558  0.6883 -1.7249 -0.7686
 9375SOL     OW39583   0.167   1.135  10.570  0.4712 -0.1521  0.5889
 9375SOL    HW139584   0.110   1.061  10.552  0.1865  0.4343 -0.9592
 9375SOL    HW239585   0.226   1.126  10.495  1.8659  0.2549  1.6353
 9376SOL     OW39586   3.044   0.078  11.759  0.4361  0.3770 -0.4520
 9376SOL    HW139587   2.963   0.083  11.708 -0.1730 -0.6137  0.4153
 9376SOL    HW239588   3.102   0.068  11.684  1.3791 -0.3383  0.3554
 9377SOL     OW39589   3.132   2.090  10.743 -0.5426  0.4958 -0.4047
 9377SOL    HW139590   3.127   2.169  10.797  1.2370  0.4634 -0.1956
 9377SOL    HW239591   3.125   2.018  10.805  1.2141  1.1190  0.5239
 9378SOL     OW39592   1.024   3.468  16.936 -0.1230 -0.1189  0.8246
 9378SOL    HW139593   1.056   3.505  17.018  1.7953  1.4462 -0.6413
 9378SOL    HW239594   0.941   3.426  16.957  0.2747 -1.4551 -0.2836
 9379SOL     OW39595   4.540   0.155   8.246  0.7826  0.4960  0.0052
 9379SOL    HW139596   4.571   0.065   8.252  0.7800  0.5035  0.1319
 9379SOL    HW239597   4.502   0.178   8.331  0.8305  0.1787  0.1139
 9380SOL     OW39598   1.214   4.389  15.145  0.1373 -0.3559 -0.3927
 9380SOL    HW139599   1.190   4.379  15.052  2.8940 -1.4493 -1.0009
 9380SOL    HW239600   1.152   4.456  15.174  0.5204  0.1326 -0.6925
 9381SOL     OW39601   4.448   2.595  16.339 -0.0247 -1.0010  0.2366
 9381SOL    HW139602   4.488   2.514  16.370 -0.1709 -0.8013  0.9394
 9381SOL    HW239603   4.357   2.583  16.366 -0.3312  0.5544 -0.0839
 9382SOL     OW39604   2.951   1.930   7.116 -0.2116 -0.3429 -0.1943
 9382SOL    HW139605   2.983   1.944   7.206 -0.0263  0.2688 -0.3590
 9382SOL    HW239606   2.970   2.009   7.065 -0.7130  0.2589  0.5425
 9383SOL     OW39607   4.480   0.161  13.317  0.4289  0.1155  0.2253
 9383SOL    HW139608   4.522   0.246  13.331 -0.2922  0.4377  0.4178
 9383SOL    HW239609   4.387   0.181  13.323  0.7271  2.3102 -2.5438
 9384SOL     OW39610   0.825   3.082   6.129 -0.8351 -0.1923  0.1575
 9384SOL    HW139611   0.741   3.044   6.153 -0.6173 -0.6015  0.2685
 9384SOL    HW239612   0.795   3.167   6.096 -0.9512 -0.7225 -1.1225
 9385SOL     OW39613   1.497   4.150   1.859 -0.5980 -0.2993 -0.2436
 9385SOL    HW139614   1.519   4.056   1.861  1.0667  0.0351 -2.7096
 9385SOL    HW239615   1.563   4.182   1.921  1.2385 -3.1637 -0.6826
 9386SOL     OW39616   3.641   2.197  12.370 -0.3308  0.3716  0.0142
 9386SOL    HW139617   3.619   2.137  12.442  1.9652  1.8205  1.9227
 9386SOL    HW239618   3.638   2.141  12.293  0.0301  0.3102  0.0453
 9387SOL     OW39619   1.742   2.667   4.164  0.0371  0.7281  0.2064
 9387SOL    HW139620   1.744   2.572   4.177 -0.9037  0.7591  0.6174
 9387SOL    HW239621   1.710   2.674   4.074 -1.4011 -0.6457  0.6069
 9388SOL     OW39622   4.377   0.878   5.363  0.4127  0.1701  0.5714
 9388SOL    HW139623   4.303   0.862   5.306  1.3051  0.2730 -0.6108
 9388SOL    HW239624   4.330   0.929   5.430  1.1241  1.0844  0.3742
 9389SOL     OW39625   3.011   3.836   1.895  0.2270  0.7183 -0.2722
 9389SOL    HW139626   2.987   3.885   1.817  0.5527  2.9553  1.0553
 9389SOL    HW239627   2.966   3.753   1.874  1.0208  0.1973  0.0747
 9390SOL     OW39628   1.993   2.615   5.118  0.2087  0.5267  0.6012
 9390SOL    HW139629   2.079   2.646   5.088  0.8446 -0.3304  1.5212
 9390SOL    HW239630   2.012   2.617   5.212  3.3282  1.0853 -0.0219
 9391SOL     OW39631   3.799   3.846  12.600 -0.2551  0.3323 -0.3359
 9391SOL    HW139632   3.841   3.931  12.592  1.2574 -0.7114 -3.3309
 9391SOL    HW239633   3.879   3.794  12.602  0.1698  0.9707 -0.9140
 9392SOL     OW39634   4.460   3.385   3.338  0.4335 -0.2581 -0.6737
 9392SOL    HW139635   4.514   3.372   3.415 -0.3729  1.0288  0.0975
 9392SOL    HW239636   4.418   3.299   3.326  0.5307 -0.3906 -0.0412
 9393SOL     OW39637   3.086   1.211   7.173 -0.4391  0.0807  0.5392
 9393SOL    HW139638   3.167   1.161   7.162 -1.7211 -2.1084  0.9762
 9393SOL    HW239639   3.053   1.178   7.257  0.6206 -0.5103  0.7183
 9394SOL     OW39640   3.831   2.763   8.843 -0.1610 -0.4852  0.6394
 9394SOL    HW139641   3.866   2.735   8.928 -0.0216 -0.8099  0.4745
 9394SOL    HW239642   3.829   2.859   8.844  2.0768 -0.4619  1.7637
 9395SOL     OW39643   1.190   2.350   5.937  0.1320  0.4214  0.4080
 9395SOL    HW139644   1.268   2.344   5.992  0.2161 -2.5049  0.0003
 9395SOL    HW239645   1.126   2.314   5.998 -1.2442  3.3918  0.7088
 9396SOL     OW39646   0.883   2.210   9.539 -0.3035  0.1312  0.4153
 9396SOL    HW139647   0.956   2.191   9.480  0.1552  0.3834  0.9012
 9396SOL    HW239648   0.864   2.297   9.504 -1.6187 -0.2690  0.1652
 9397SOL     OW39649   4.475   4.674   0.104 -0.9206 -0.2121 -0.2610
 9397SOL    HW139650   4.567   4.696   0.118 -1.5004  1.0629  1.5798
 9397SOL    HW239651   4.450   4.657   0.195 -0.4868 -0.6552 -0.2229
 9398SOL     OW39652   0.330   0.017   8.042 -0.0731  0.1015  0.0649
 9398SOL    HW139653   0.269   0.040   7.972  1.7292  1.3794 -1.0652
 9398SOL    HW239654   0.416   0.043   8.010  0.2022  2.2345  2.4932
 9399SOL     OW39655   1.690   0.180   2.285 -0.0257 -0.4390 -0.1380
 9399SOL    HW139656   1.632   0.105   2.292 -1.2592  0.5811  0.5978
 9399SOL    HW239657   1.630   0.236   2.236 -0.0296  0.5466  0.9738
 9400SOL     OW39658   2.110   3.626   0.498 -0.2480 -0.5959 -0.2332
 9400SOL    HW139659   2.038   3.572   0.466 -1.1438  0.3299  0.2178
 9400SOL    HW239660   2.186   3.575   0.469  1.1927  1.0071  0.7039
 9401SOL     OW39661   0.352   2.148   8.277 -1.0287  0.0567 -0.0779
 9401SOL    HW139662   0.429   2.110   8.233 -2.1032  0.2627 -2.1374
 9401SOL    HW239663   0.383   2.235   8.300  2.0715 -0.8550 -0.6913
 9402SOL     OW39664   3.256   0.782   6.107  0.1806  0.6327 -0.1781
 9402SOL    HW139665   3.258   0.855   6.168  1.0350 -1.1361  1.9165
 9402SOL    HW239666   3.162   0.768   6.095  0.5214  0.1545 -2.4368
 9403SOL     OW39667   4.171   1.779   3.315 -0.1945 -0.5740 -0.0189
 9403SOL    HW139668   4.157   1.685   3.305  4.0195 -1.1637 -0.3724
 9403SOL    HW239669   4.098   1.804   3.371  0.7862  1.2356  0.4575
 9404SOL     OW39670   0.125   2.971   5.362  0.3645 -0.1216  0.0032
 9404SOL    HW139671   0.091   3.009   5.281  1.6027  2.0782  0.5155
 9404SOL    HW239672   0.213   3.009   5.359  0.9599 -1.2427  2.9163
 9405SOL     OW39673   2.689   3.542  13.852  0.2127 -0.3893  0.0047
 9405SOL    HW139674   2.752   3.609  13.878 -1.9134  1.5798  0.0957
 9405SOL    HW239675   2.612   3.590  13.822  0.1192 -0.1931  0.5557
 9406SOL     OW39676   1.271   2.151   2.255  0.3225 -0.1931 -0.4923
 9406SOL    HW139677   1.180   2.123   2.258  1.3348 -3.4078 -0.1358
 9406SOL    HW239678   1.311   2.071   2.289 -0.9298 -0.6750 -0.1931
 9407SOL     OW39679   2.879   0.194   2.249  0.4593 -0.4935  0.1700
 9407SOL    HW139680   2.880   0.244   2.167  0.8655  0.8356  0.9716
 9407SOL    HW239681   2.842   0.109   2.225  0.5657 -0.4124 -0.2802
 9408SOL     OW39682   4.158   0.655  11.679  0.3774 -0.6782  0.0496
 9408SOL    HW139683   4.246   0.671  11.714  0.8881  1.3118 -2.1545
 9408SOL    HW239684   4.102   0.656  11.757 -0.4219 -0.7602 -0.5307
 9409SOL     OW39685   3.922   3.212   9.074  0.1630  0.1011  0.2308
 9409SOL    HW139686   3.937   3.250   9.161 -0.4461  5.4460 -2.0064
 9409SOL    HW239687   4.001   3.252   9.037  1.5523 -1.3668  1.5579
 9410SOL     OW39688   2.478   2.623   2.522  0.0475 -0.3625  0.0258
 9410SOL    HW139689   2.487   2.666   2.607  3.0885 -2.3250  0.6978
 9410SOL    HW239690   2.443   2.544   2.563 -1.4334 -0.1206 -0.7667
 9411SOL     OW39691   3.032   4.212   5.855  0.0919  0.0369 -1.2261
 9411SOL    HW139692   3.009   4.121   5.876  0.7774 -0.0476 -0.8512
 9411SOL    HW239693   3.115   4.204   5.808  0.8671  1.3016 -0.0415
 9412SOL     OW39694   2.524   0.732   2.822 -0.0613  0.3105  0.0394
 9412SOL    HW139695   2.587   0.797   2.791 -0.1859  0.6296  0.4569
 9412SOL    HW239696   2.543   0.663   2.758  0.0280 -0.7005  1.1649
 9413SOL     OW39697   3.985   4.473   3.398  0.0125 -0.0184  0.1184
 9413SOL    HW139698   3.907   4.466   3.453  0.5166 -1.0570  0.7201
 9413SOL    HW239699   4.024   4.389   3.426 -3.5680 -1.7852 -0.2163
 9414SOL     OW39700   1.537   3.246   1.576  0.1676  0.1161 -0.1617
 9414SOL    HW139701   1.501   3.163   1.544 -2.6484  0.9190  0.9415
 9414SOL    HW239702   1.479   3.270   1.649  0.9229 -0.5677  0.6707
 9415SOL     OW39703   0.432   0.264   3.010  0.2888  0.0097  0.3142
 9415SOL    HW139704   0.453   0.269   2.917 -0.9176 -0.1611  0.0374
 9415SOL    HW239705   0.446   0.171   3.028  1.0016 -0.1003 -0.8624
 9416SOL     OW39706   1.869   2.978  10.039 -0.0951 -0.1656  0.2382
 9416SOL    HW139707   1.923   2.902  10.060  1.4377  0.4805 -1.3517
 9416SOL    HW239708   1.778   2.948  10.037 -0.7599  1.8288  1.2115
 9417SOL     OW39709   2.974   2.824   2.438 -0.0938 -0.7641 -0.2650
 9417SOL    HW139710   3.065   2.825   2.407  0.7601  2.0511  2.3317
 9417SOL    HW239711   2.935   2.768   2.371 -1.9777  1.0330 -0.6618
 9418SOL     OW39712   4.480   4.655   7.909 -0.0083 -0.2666 -0.0654
 9418SOL    HW139713   4.564   4.615   7.885 -0.4787 -1.3510  0.0910
 9418SOL    HW239714   4.508   0.014   7.869  0.4681 -0.0240  0.7705
 9419SOL     OW39715   0.070   3.880   6.628  0.1013 -0.0185 -0.6960
 9419SOL    HW139716   0.084   3.973   6.613  0.4817  0.1553  0.7390
 9419SOL    HW239717   4.698   3.879   6.637  0.2550 -2.9209  0.7616
 9420SOL     OW39718   0.832   4.585  15.540  0.7088  0.8983 -0.1120
 9420SOL    HW139719   0.834   4.629  15.625  4.9977  0.4698 -0.0078
 9420SOL    HW239720   0.782   4.507  15.565  1.6024  1.3596  3.0303
 9421SOL     OW39721   1.891   1.134   8.583  0.0412  0.1097 -0.6805
 9421SOL    HW139722   1.808   1.120   8.538 -0.2757  2.7347 -0.9630
 9421SOL    HW239723   1.952   1.115   8.511  0.9315 -1.7236  0.5738
 9422SOL     OW39724   0.241   1.812   4.600 -0.2800 -0.0083 -0.5570
 9422SOL    HW139725   0.329   1.786   4.627 -0.9911 -2.2930 -0.4523
 9422SOL    HW239726   0.242   1.897   4.643 -0.6469 -0.1656 -0.2364
 9423SOL     OW39727   4.063   4.620  14.386 -0.6518  0.4795  0.2802
 9423SOL    HW139728   4.027   4.672  14.457 -0.2525 -0.8336  1.4301
 9423SOL    HW239729   4.040   4.682  14.316 -2.1418  0.5086  0.8108
 9424SOL     OW39730   4.524   2.059   0.521  0.2173 -0.7396 -0.1896
 9424SOL    HW139731   4.476   2.007   0.586 -2.2242  1.4269 -0.2578
 9424SOL    HW239732   4.450   2.106   0.484  0.6407  1.3862  1.6560
 9425SOL     OW39733   2.849   1.143   2.789  0.2110  0.1114 -0.3075
 9425SOL    HW139734   2.875   1.139   2.697 -0.5528 -0.0150 -0.5134
 9425SOL    HW239735   2.930   1.184   2.819  0.7308 -1.1254 -0.0303
 9426SOL     OW39736   3.557   3.859   4.038 -0.1509 -0.1546 -0.7493
 9426SOL    HW139737   3.502   3.782   4.048  0.4101 -0.5192 -0.4545
 9426SOL    HW239738   3.619   3.838   4.108 -0.8638 -1.6225 -0.5601
 9427SOL     OW39739   0.897   1.050   6.131  0.3469 -0.0579  0.6400
 9427SOL    HW139740   0.939   1.042   6.217  1.6468  2.3060  0.2420
 9427SOL    HW239741   0.811   1.081   6.160  0.1896  0.0781  0.0265
 9428SOL     OW39742   2.941   0.154   7.868 -0.3271  0.3499  0.1086
 9428SOL    HW139743   2.872   0.210   7.832  1.2797  3.5457  2.0689
 9428SOL    HW239744   3.015   0.191   7.820  1.3038 -3.7709 -0.5905
 9429SOL     OW39745   1.220   4.303   2.995 -0.0650  0.0751  0.0359
 9429SOL    HW139746   1.241   4.214   3.023  0.7655  0.8767  1.9507
 9429SOL    HW239747   1.219   4.340   3.083 -1.2706  0.2655 -0.0516
 9430SOL     OW39748   2.963   1.780  12.040 -0.2147 -0.3080 -0.4938
 9430SOL    HW139749   2.868   1.785  12.026 -0.4488  3.5778  2.6564
 9430SOL    HW239750   2.984   1.863  12.083  1.0495 -0.9832  0.1732
 9431SOL     OW39751   3.508   1.034  13.305 -0.9170 -0.0579  0.0614
 9431SOL    HW139752   3.554   1.068  13.229  1.3213 -0.9944  0.9893
 9431SOL    HW239753   3.538   0.944  13.294 -2.8061 -1.0562  3.0492
 9432SOL     OW39754   3.403   1.249  12.434  0.0619 -0.5502  0.3411
 9432SOL    HW139755   3.480   1.231  12.488 -1.3033  0.7616  2.7156
 9432SOL    HW239756   3.340   1.198  12.486  0.0410 -1.0923 -0.2195
 9433SOL     OW39757   4.188   4.602  16.367 -0.0613  0.1998 -0.2377
 9433SOL    HW139758   4.107   4.619  16.320  0.9786 -2.3158 -3.0217
 9433SOL    HW239759   4.163   4.593  16.459 -0.8773 -0.1528 -0.4938
 9434SOL     OW39760   0.313   1.142   5.809  0.0041  0.3276 -0.2680
 9434SOL    HW139761   0.291   1.101   5.726  0.6356 -0.5179 -0.0144
 9434SOL    HW239762   0.223   1.162   5.837  0.1777  0.2693  0.3343
 9435SOL     OW39763   2.495   1.309  11.081 -0.0089 -0.2469  0.7651
 9435SOL    HW139764   2.490   1.219  11.050 -1.3807  0.5187 -1.2956
 9435SOL    HW239765   2.459   1.361  11.009 -0.5197  0.0082  1.2003
 9436SOL     OW39766   3.791   3.020   5.143  0.0535  0.1598  0.1474
 9436SOL    HW139767   3.779   2.975   5.227  4.6334 -1.3327  0.0079
 9436SOL    HW239768   3.880   3.007   5.110  0.0229  0.0772  0.0966
 9437SOL     OW39769   4.205   3.379   6.317 -0.0763 -0.0671 -0.2418
 9437SOL    HW139770   4.170   3.308   6.370 -0.3237 -0.3909 -0.8343
 9437SOL    HW239771   4.287   3.339   6.286 -0.4143  0.6083 -2.0421
 9438SOL     OW39772   2.140   1.071   2.511  0.8409 -0.0737 -0.0020
 9438SOL    HW139773   2.103   1.129   2.578  3.3791  0.4821  0.9356
 9438SOL    HW239774   2.066   1.051   2.454  0.0824 -0.0740  0.9743
 9439SOL     OW39775   1.467   0.822   4.692 -0.1305  0.0795 -0.1160
 9439SOL    HW139776   1.469   0.886   4.763 -0.2921  0.2510 -0.2676
 9439SOL    HW239777   1.373   0.816   4.675 -0.3580  0.9484  0.8367
 9440SOL     OW39778   4.500   0.278   8.007  0.1383  0.0403 -0.1171
 9440SOL    HW139779   4.503   0.217   8.080  1.4040 -0.3503 -0.4907
 9440SOL    HW239780   4.426   0.336   8.023  1.1437  1.3163 -0.0583
 9441SOL     OW39781   4.099   0.772  16.164 -0.3596  0.3413 -0.0333
 9441SOL    HW139782   4.009   0.801  16.152  0.0677  2.5352  2.0735
 9441SOL    HW239783   4.148   0.852  16.140  0.6260 -0.4716 -0.7551
 9442SOL     OW39784   2.404   3.908   7.791  0.1876 -0.2626 -0.0102
 9442SOL    HW139785   2.392   3.948   7.705 -3.4678  1.0552  1.1081
 9442SOL    HW239786   2.388   3.985   7.846  2.3186  0.0376  0.1972
 9443SOL     OW39787   0.944   1.986   5.498 -0.3841  0.0741 -0.3910
 9443SOL    HW139788   0.926   2.009   5.407 -0.8188  1.9958  0.1798
 9443SOL    HW239789   0.865   1.936   5.519 -0.9885  1.3271  0.3084
 9444SOL     OW39790   3.890   0.715  12.377  0.3322 -0.0006 -0.1629
 9444SOL    HW139791   3.890   0.702  12.282 -0.4953 -1.3719  0.0290
 9444SOL    HW239792   3.826   0.784  12.395  0.5971  0.1827  0.0707
 9445SOL     OW39793   4.611   1.866   9.642 -0.1482  0.7647 -0.1570
 9445SOL    HW139794   4.653   1.937   9.690 -1.3819  1.3486  0.0319
 9445SOL    HW239795   4.586   1.893   9.554  0.0408  2.3601  0.2883
 9446SOL     OW39796   2.540   2.084   6.066 -0.5556 -0.1802 -0.6359
 9446SOL    HW139797   2.546   2.147   6.138 -2.3230 -0.3974 -0.3008
 9446SOL    HW239798   2.620   2.033   6.075 -0.4284  0.2073  0.4196
 9447SOL     OW39799   4.456   4.024   8.081 -0.0510 -0.6480  0.5496
 9447SOL    HW139800   4.520   3.967   8.124  1.3818  1.5426  1.3424
 9447SOL    HW239801   4.485   4.105   8.122 -0.3468 -0.8020  1.0575
 9448SOL     OW39802   0.930   0.036   5.344 -0.3641  0.8201 -0.1464
 9448SOL    HW139803   0.908   0.117   5.299 -0.2452  0.0933 -1.5243
 9448SOL    HW239804   0.991   4.721   5.281  0.9092  2.0961  0.3168
 9449SOL     OW39805   3.265   0.138   6.469 -0.4169 -0.9439  0.5162
 9449SOL    HW139806   3.258   0.231   6.448 -3.0902 -0.8824  1.6548
 9449SOL    HW239807   3.173   0.114   6.459 -0.2036 -1.3355 -0.5367
 9450SOL     OW39808   1.267   0.264   5.904  0.0869  0.1725 -0.9219
 9450SOL    HW139809   1.247   0.317   5.981  0.6489  2.5025 -2.3696
 9450SOL    HW239810   1.217   0.184   5.919  0.4083  0.2897  0.6990
 9451SOL     OW39811   2.540   1.869  13.107  0.2687  0.9712 -0.5629
 9451SOL    HW139812   2.605   1.799  13.119  0.5810  1.1196 -1.3769
 9451SOL    HW239813   2.602   1.938  13.083  0.6051  0.7770 -0.2406
 9452SOL     OW39814   1.658   4.024  13.718  0.4071 -0.5223  0.5967
 9452SOL    HW139815   1.605   4.059  13.647 -1.3945  1.0284  2.6790
 9452SOL    HW239816   1.588   3.968  13.754  0.6712 -0.2692  1.5099
 9453SOL     OW39817   1.404   1.565  12.510 -0.2134  0.0251 -0.3922
 9453SOL    HW139818   1.491   1.583  12.546 -2.0145 -0.7125  4.3683
 9453SOL    HW239819   1.420   1.578  12.417  0.3720  1.4557 -0.0928
 9454SOL     OW39820   0.721   4.318   5.262  0.9128  0.0925 -0.0524
 9454SOL    HW139821   0.656   4.369   5.214 -0.9762 -0.7795  1.5363
 9454SOL    HW239822   0.686   4.229   5.257  1.3675 -0.0783 -0.1326
 9455SOL     OW39823   0.561   0.908   0.333  0.2310  0.2868 -0.0940
 9455SOL    HW139824   0.513   0.990   0.325 -1.2084 -0.5839 -0.2817
 9455SOL    HW239825   0.574   0.919   0.427  3.1059  0.1770 -0.4709
 9456SOL     OW39826   4.723   1.635   6.540  0.2898  0.0447 -0.6749
 9456SOL    HW139827   4.688   1.546   6.545  1.2353 -0.2028  1.4235
 9456SOL    HW239828   0.060   1.634   6.614 -0.4488 -0.8367 -0.0915
 9457SOL     OW39829   2.935   1.959   9.011 -0.2012  0.6571  0.5938
 9457SOL    HW139830   2.989   1.902   9.065  0.1731 -0.7452 -1.2437
 9457SOL    HW239831   2.997   2.027   8.986  0.0905  0.7281  1.5148
 9458SOL     OW39832   3.164   0.747   8.274  0.4416  0.2854 -0.0646
 9458SOL    HW139833   3.255   0.718   8.271  1.3866  3.0290  2.6087
 9458SOL    HW239834   3.151   0.783   8.186 -0.8222  2.2198  0.8918
 9459SOL     OW39835   3.640   1.690  12.373 -0.0587 -0.5394 -0.4085
 9459SOL    HW139836   3.581   1.625  12.336  1.6965 -1.4283 -1.6031
 9459SOL    HW239837   3.661   1.639  12.452 -1.2455  1.9162  1.5125
 9460SOL     OW39838   2.854   1.991   4.429  0.6204 -0.3327  0.1101
 9460SOL    HW139839   2.835   1.923   4.364 -0.7774  2.3248 -2.2584
 9460SOL    HW239840   2.917   1.946   4.486 -0.2085  0.5258  1.6892
 9461SOL     OW39841   3.663   4.395  16.007 -0.1985 -0.6583  0.2518
 9461SOL    HW139842   3.682   4.424  15.918 -0.9645  0.2552  0.3942
 9461SOL    HW239843   3.604   4.461  16.042 -0.1439  0.0168 -0.9447
 9462SOL     OW39844   3.590   3.695   5.038 -0.0034  0.2850  0.3630
 9462SOL    HW139845   3.502   3.659   5.021  0.4221  1.0290 -3.4000
 9462SOL    HW239846   3.653   3.647   4.984 -1.4221  0.6320 -1.5948
 9463SOL     OW39847   1.085   4.583   1.309 -0.0459  0.3227  0.0997
 9463SOL    HW139848   1.177   4.567   1.289  0.2544  0.4924  1.3485
 9463SOL    HW239849   1.094   4.657   1.369  0.0916 -0.0419  0.5258
 9464SOL     OW39850   0.939   3.458   4.547 -0.4416 -0.2017 -0.1174
 9464SOL    HW139851   0.900   3.476   4.462  0.9147  1.0366 -0.4744
 9464SOL    HW239852   0.999   3.387   4.526 -2.1725 -1.9614  0.9342
 9465SOL     OW39853   0.103   1.703   8.163  0.1064  0.2780 -0.2040
 9465SOL    HW139854   0.118   1.724   8.255  1.0394  0.4828 -0.4075
 9465SOL    HW239855   0.180   1.652   8.138  0.3962  1.6760 -2.2123
 9466SOL     OW39856   1.810   4.226   3.473 -0.3481 -0.3763  0.1988
 9466SOL    HW139857   1.787   4.316   3.495  0.4224  0.4083 -2.2580
 9466SOL    HW239858   1.737   4.197   3.419  0.8457 -2.5746 -0.2721
 9467SOL     OW39859   0.618   1.051   4.007  0.2894  0.3545  0.2055
 9467SOL    HW139860   0.539   1.102   3.991 -0.7717 -0.8920  1.4928
 9467SOL    HW239861   0.682   1.119   3.983  0.8552  0.2035  1.2494
 9468SOL     OW39862   0.616   0.243   6.798  0.3971 -0.5094  0.4626
 9468SOL    HW139863   0.543   0.270   6.853 -0.2722  0.6252 -0.9703
 9468SOL    HW239864   0.690   0.236   6.859  0.8247 -1.6590 -0.1771
 9469SOL     OW39865   0.884   4.455  10.976 -0.0752  0.6947 -0.3351
 9469SOL    HW139866   0.888   4.534  10.922  0.5816  0.8050 -0.1254
 9469SOL    HW239867   0.977   4.433  10.982  0.0265  2.0978  3.2438
 9470SOL     OW39868   2.882   1.274   0.002  0.1731 -0.4516  0.2949
 9470SOL    HW139869   2.799   1.253  17.655  0.8824 -2.2530 -0.2115
 9470SOL    HW239870   2.900   1.180   0.011 -0.0348 -0.5475 -0.3274
 9471SOL     OW39871   0.878   2.040   1.203 -1.2306 -0.1437 -0.7843
 9471SOL    HW139872   0.962   2.023   1.161 -1.9954  1.8903 -3.1014
 9471SOL    HW239873   0.894   2.120   1.252 -0.1511 -1.0424  0.3149
 9472SOL     OW39874   3.614   2.018   7.920  0.0725 -0.6019  0.1400
 9472SOL    HW139875   3.591   2.111   7.918  1.4153 -0.2872 -0.1437
 9472SOL    HW239876   3.529   1.977   7.937 -0.9715  2.4114  2.3781
 9473SOL     OW39877   3.625   1.120  15.915  0.0909 -1.1952 -0.1046
 9473SOL    HW139878   3.597   1.060  15.846  0.1992  1.2367 -2.2555
 9473SOL    HW239879   3.654   1.195  15.863  0.0173 -2.3260 -1.8131
 9474SOL     OW39880   0.616   1.481  14.510 -0.3512 -0.4698  0.2462
 9474SOL    HW139881   0.534   1.513  14.472  0.2221  1.7561  0.9065
 9474SOL    HW239882   0.646   1.569  14.534  1.5059 -0.9500 -0.3376
 9475SOL     OW39883   3.599   4.353  12.593 -0.1646 -0.6821 -0.2937
 9475SOL    HW139884   3.540   4.282  12.568 -0.5508  0.0082 -1.3364
 9475SOL    HW239885   3.653   4.366  12.515  0.2141 -0.4224  0.0080
 9476SOL     OW39886   0.503   1.326   3.616  0.3965  0.1546  0.2558
 9476SOL    HW139887   0.530   1.375   3.539 -1.6503  1.4087  0.3332
 9476SOL    HW239888   0.544   1.370   3.690  1.2896 -1.4138  0.7108
 9477SOL     OW39889   0.588   2.852   9.929  0.0503  0.5074  0.2925
 9477SOL    HW139890   0.527   2.812   9.868 -0.9600  0.1140  1.5618
 9477SOL    HW239891   0.607   2.780   9.989  0.5864 -0.5179 -1.1012
 9478SOL     OW39892   1.218   3.257   4.232 -0.2255  0.4280 -0.2108
 9478SOL    HW139893   1.129   3.229   4.211  0.1250  0.6089 -1.9306
 9478SOL    HW239894   1.213   3.287   4.323 -3.1372 -2.2904  0.5310
 9479SOL     OW39895   3.232   1.671   6.680  0.2255 -0.0434  0.1878
 9479SOL    HW139896   3.241   1.747   6.737  0.0482  0.6591 -0.7067
 9479SOL    HW239897   3.159   1.633   6.731 -2.2868  1.1663 -2.4892
 9480SOL     OW39898   1.165   3.612   7.570 -0.5506  0.5506  0.3023
 9480SOL    HW139899   1.171   3.586   7.478  2.0335  2.3338 -0.0455
 9480SOL    HW239900   1.253   3.590   7.602 -0.4493  0.7767  0.1872
 9481SOL     OW39901   2.114   1.854   7.835 -0.1205  0.0139 -0.1451
 9481SOL    HW139902   2.172   1.927   7.813  1.8456 -1.7035 -0.6847
 9481SOL    HW239903   2.164   1.804   7.901 -2.0804 -2.8042 -0.7894
 9482SOL     OW39904   1.609   0.647   2.482  0.5846 -0.0697 -0.3113
 9482SOL    HW139905   1.603   0.677   2.572 -0.3647 -3.1835  0.6466
 9482SOL    HW239906   1.680   0.583   2.481 -0.6729 -1.4775  0.1336
 9483SOL     OW39907   1.907   1.547  12.362 -0.8095 -0.8243 -0.1375
 9483SOL    HW139908   1.937   1.624  12.314  2.2138 -0.1733  2.7864
 9483SOL    HW239909   1.960   1.481  12.318  1.4559  0.2135  1.0439
 9484SOL     OW39910   4.587   4.310   3.392  0.2466  0.4902  0.0697
 9484SOL    HW139911   4.512   4.251   3.401  1.4111 -0.9643  0.2252
 9484SOL    HW239912   4.568   4.376   3.459 -1.7890  0.1802 -0.1961
 9485SOL     OW39913   3.600   0.501   2.252  0.2729 -0.3822 -0.1542
 9485SOL    HW139914   3.624   0.587   2.217  0.8736 -0.2241  0.6550
 9485SOL    HW239915   3.664   0.497   2.323  0.2537  1.2642 -0.0316
 9486SOL     OW39916   0.977   3.979  13.328 -0.0697 -0.3557 -0.1429
 9486SOL    HW139917   0.889   3.972  13.291  0.7894 -1.8269 -1.9033
 9486SOL    HW239918   1.008   3.892  13.303  0.0300 -1.3215  3.3123
 9487SOL     OW39919   0.493   3.419  11.838 -0.0351 -0.1504  0.1059
 9487SOL    HW139920   0.555   3.462  11.897 -0.5408  2.1763 -1.0751
 9487SOL    HW239921   0.517   3.328  11.856 -1.2808 -0.1033  1.9197
 9488SOL     OW39922   4.072   2.142   2.930  0.1265 -0.3122  0.4394
 9488SOL    HW139923   4.012   2.188   2.988 -1.1210 -0.2941 -0.8493
 9488SOL    HW239924   4.086   2.207   2.861 -0.0960  1.9837  2.5906
 9489SOL     OW39925   1.725   1.359   2.272  0.1286 -0.0544 -0.5599
 9489SOL    HW139926   1.812   1.328   2.250  0.9857  0.2382  2.3456
 9489SOL    HW239927   1.739   1.433   2.332 -0.1722 -0.9513  0.6304
 9490SOL     OW39928   4.133   3.518   2.612 -0.3490 -0.1646  0.3259
 9490SOL    HW139929   4.169   3.461   2.544 -0.6817  0.8061 -0.6599
 9490SOL    HW239930   4.158   3.605   2.582 -1.6872  0.3560  0.7192
 9491SOL     OW39931   0.382   0.169   1.199 -0.6768  0.4468  0.2288
 9491SOL    HW139932   0.286   0.171   1.204 -0.6632  0.9237  0.3176
 9491SOL    HW239933   0.396   0.214   1.282 -0.8332  0.5056  0.2244
 9492SOL     OW39934   3.624   2.206   8.664  0.3128  0.0835  0.6268
 9492SOL    HW139935   3.656   2.147   8.732 -0.2853 -1.1332 -0.1508
 9492SOL    HW239936   3.710   2.218   8.623  0.5213  1.6504  1.5505
 9493SOL     OW39937   2.845   4.494   2.966 -0.5861 -0.0610  0.6595
 9493SOL    HW139938   2.841   4.474   2.872 -2.2958 -0.6576  0.8657
 9493SOL    HW239939   2.938   4.491   2.990 -0.4738 -0.2650  0.2113
 9494SOL     OW39940   0.885   0.248   8.633  0.4680  0.0635  0.0344
 9494SOL    HW139941   0.885   0.344   8.640 -3.6888  0.0464  0.2486
 9494SOL    HW239942   0.802   0.222   8.674  0.0743  3.0371  1.1239
 9495SOL     OW39943   0.261   2.725   3.800 -0.0193 -0.6452 -0.1867
 9495SOL    HW139944   0.350   2.703   3.827 -0.0874 -0.7848 -0.0735
 9495SOL    HW239945   0.268   2.819   3.816  0.3755 -0.6546 -0.3041
 9496SOL     OW39946   1.742   3.401   8.422  0.0834  0.1812  0.2211
 9496SOL    HW139947   1.698   3.443   8.348  1.3417  0.1502 -0.5506
 9496SOL    HW239948   1.719   3.309   8.412  0.6973  0.0424  0.0824
 9497SOL     OW39949   3.169   2.219   5.155 -0.4864  0.0360 -0.3749
 9497SOL    HW139950   3.179   2.309   5.185 -0.9080 -0.1530  0.3137
 9497SOL    HW239951   3.191   2.236   5.063  0.7752 -0.8616 -0.2397
 9498SOL     OW39952   2.337   1.928   7.419 -0.4019 -0.2532  0.0308
 9498SOL    HW139953   2.302   1.950   7.506  0.5374 -1.6293  0.7452
 9498SOL    HW239954   2.326   2.012   7.375  0.8844  0.3824  0.9221
 9499SOL     OW39955   0.070   3.505   8.758  0.2636  0.6343  0.1728
 9499SOL    HW139956   0.080   3.449   8.835 -1.6598 -2.1053 -1.5250
 9499SOL    HW239957   0.159   3.537   8.744  1.4643 -2.0309  1.6504
 9500SOL     OW39958   3.123   2.552   3.593 -0.0264 -0.0868  0.5106
 9500SOL    HW139959   3.106   2.597   3.511  0.3681  1.5188  1.3257
 9500SOL    HW239960   3.218   2.548   3.587 -0.0994 -1.1019 -0.0073
 9501SOL     OW39961   0.502   2.799  11.896 -0.2013 -0.0196 -0.6077
 9501SOL    HW139962   0.456   2.881  11.910 -0.3810 -0.1150 -0.6337
 9501SOL    HW239963   0.590   2.832  11.910 -0.6054  0.7660  0.0645
 9502SOL     OW39964   1.232   2.906   7.204 -0.2247  0.4412  0.1414
 9502SOL    HW139965   1.323   2.931   7.224 -0.3482 -0.6100  1.9793
 9502SOL    HW239966   1.205   2.906   7.296  2.5325  1.7670  0.9599
 9503SOL     OW39967   2.279   0.344   8.024 -0.5061 -0.4494  0.3132
 9503SOL    HW139968   2.250   0.408   8.088 -0.8703  0.5272 -0.8313
 9503SOL    HW239969   2.303   0.266   8.075  0.4296 -0.3832 -0.0287
 9504SOL     OW39970   1.141   2.574   3.397 -0.3676 -0.4569  0.5166
 9504SOL    HW139971   1.202   2.645   3.376  0.1412 -1.1183 -0.2727
 9504SOL    HW239972   1.183   2.511   3.456 -0.2727 -1.0412 -0.1781
 9505SOL     OW39973   3.253   0.267  15.153  0.4337  0.2525 -0.7473
 9505SOL    HW139974   3.201   0.336  15.195  1.0179 -0.1392  0.6334
 9505SOL    HW239975   3.188   0.198  15.161  1.5912 -0.8890 -1.1736
 9506SOL     OW39976   1.008   1.790   8.241  0.6534 -0.4559  0.2999
 9506SOL    HW139977   1.033   1.876   8.275  0.0601 -0.2196  0.1356
 9506SOL    HW239978   0.920   1.810   8.210  0.3871 -0.7166  0.9094
 9507SOL     OW39979   2.704   2.844   4.072  0.3127 -0.0729 -0.0884
 9507SOL    HW139980   2.691   2.888   3.988  1.4617 -0.1665 -0.3079
 9507SOL    HW239981   2.699   2.908   4.143  0.3009 -1.1912  0.9324
 9508SOL     OW39982   2.474   4.478   1.956 -0.0076 -0.4166 -0.0236
 9508SOL    HW139983   2.448   4.432   1.876 -0.0275 -0.1934 -0.1438
 9508SOL    HW239984   2.570   4.480   1.959 -0.0145 -1.1169  0.5764
 9509SOL     OW39985   3.510   1.920   7.272 -0.3732  0.2152 -0.2166
 9509SOL    HW139986   3.503   1.825   7.282  0.1614  0.1666 -0.2853
 9509SOL    HW239987   3.492   1.922   7.178  1.1066  0.9206 -0.4898
 9510SOL     OW39988   0.312   2.033   0.075  0.1682 -0.0204 -0.2408
 9510SOL    HW139989   0.392   2.081   0.095  0.3404 -0.5574  0.3522
 9510SOL    HW239990   0.355   1.949   0.056  1.1095  0.6437 -1.0317
 9511SOL     OW39991   2.419   2.991   6.936  0.1530 -0.1261 -0.2273
 9511SOL    HW139992   2.460   2.909   6.962  0.2210 -0.6832 -2.0595
 9511SOL    HW239993   2.336   2.978   6.982  0.2356 -2.2318 -0.6646
 9512SOL     OW39994   2.920   0.977  11.234 -0.5058 -0.0522 -0.7237
 9512SOL    HW139995   3.012   0.993  11.256 -0.7234  0.5121 -0.1789
 9512SOL    HW239996   2.890   0.980  11.325  2.0710  1.9532  0.0722
 9513SOL     OW39997   0.346   0.794   0.203 -0.0177 -0.1764 -0.3452
 9513SOL    HW139998   0.435   0.820   0.228  0.3018 -1.6007 -0.0150
 9513SOL    HW239999   0.317   0.770   0.291  1.4674  1.2594  0.5404
 9514SOL     OW40000   1.515   4.668   5.517 -0.4545  0.6724 -0.0701
 9514SOL    HW140001   1.551   4.669   5.605 -0.1504  2.6843 -0.2243
 9514SOL    HW240002   1.593   4.630   5.476 -0.5727  0.8078 -0.4204
 9515SOL     OW40003   2.401   0.111   5.341  0.3540  0.4487 -0.0241
 9515SOL    HW140004   2.450   0.097   5.260  0.0885  0.3212 -0.1633
 9515SOL    HW240005   2.462   0.091   5.411  1.6144  4.5242  0.0356
 9516SOL     OW40006   1.492   4.578   2.719  0.2916  0.5109  0.2693
 9516SOL    HW140007   1.416   4.525   2.744  1.6554 -0.2513  2.7801
 9516SOL    HW240008   1.563   4.514   2.712  0.6188  1.1653 -2.3541
 9517SOL     OW40009   2.363   3.564   5.466 -0.4278  0.5238  0.4315
 9517SOL    HW140010   2.268   3.577   5.473 -0.4934  0.3251 -0.0839
 9517SOL    HW240011   2.399   3.651   5.485 -0.4596  0.0903  2.5284
 9518SOL     OW40012   4.576   3.495  17.346  0.0179 -0.2336  0.0751
 9518SOL    HW140013   4.489   3.461  17.367 -0.1096  0.4796  0.7269
 9518SOL    HW240014   4.618   3.422  17.301  0.3977 -1.1661  1.9551
 9519SOL     OW40015   2.879   4.413  10.938 -0.1121 -0.7329 -0.4611
 9519SOL    HW140016   2.823   4.484  10.969  0.1992 -1.3288  1.4686
 9519SOL    HW240017   2.938   4.416  11.013  0.6839 -0.7771 -1.0818
 9520SOL     OW40018   4.428   2.049  10.853 -0.1958  0.7258 -0.3788
 9520SOL    HW140019   4.376   2.002  10.789 -0.7165  0.1704  0.4464
 9520SOL    HW240020   4.360   2.087  10.909  1.4348  2.8043  0.2166
 9521SOL     OW40021   3.445   3.642  14.570 -0.4026  0.0473 -0.0919
 9521SOL    HW140022   3.425   3.653  14.477 -3.2676 -1.3654  0.3487
 9521SOL    HW240023   3.374   3.584  14.597  0.8080  0.1586  3.3804
 9522SOL     OW40024   0.153   2.765   2.280  0.4552 -0.2750  0.2510
 9522SOL    HW140025   0.174   2.826   2.351 -1.6207  1.2945 -0.4713
 9522SOL    HW240026   0.124   2.827   2.213 -2.0531 -1.6909  0.0282
 9523SOL     OW40027   2.943   3.529   7.002  0.4354 -0.3155 -0.5184
 9523SOL    HW140028   2.914   3.490   7.085  0.5972  2.8536  1.0293
 9523SOL    HW240029   3.013   3.582   7.042 -0.3130 -0.2024  0.6411
 9524SOL     OW40030   0.796   2.764  13.725 -0.1114 -0.3917 -0.0195
 9524SOL    HW140031   0.781   2.670  13.714  0.0873 -0.3347 -0.7682
 9524SOL    HW240032   0.781   2.777  13.819  0.3323  2.0368 -0.2896
 9525SOL     OW40033   1.828   3.867   5.796  0.4511 -0.4150 -0.1241
 9525SOL    HW140034   1.846   3.961   5.806 -0.1422 -0.5106  1.8530
 9525SOL    HW240035   1.821   3.838   5.887  4.8495 -0.5040  0.1651
 9526SOL     OW40036   3.571   0.496   8.697  0.1747  0.1658  0.5789
 9526SOL    HW140037   3.666   0.485   8.698 -0.3847 -4.5644 -0.3417
 9526SOL    HW240038   3.560   0.542   8.613 -2.6393 -1.2817  0.1619
 9527SOL     OW40039   2.054   1.623   5.822 -0.1627  0.1697 -0.2898
 9527SOL    HW140040   2.131   1.672   5.793 -0.4187 -0.6806 -2.4117
 9527SOL    HW240041   2.060   1.551   5.759 -0.5785  0.6602 -0.8874
 9528SOL     OW40042   0.582   3.945   0.907  0.5252 -0.0596  0.4072
 9528SOL    HW140043   0.591   3.875   0.842  1.2056 -0.7663  1.2448
 9528SOL    HW240044   0.654   4.006   0.894 -1.0580  1.4855 -1.0955
 9529SOL     OW40045   2.129   0.417  16.843 -0.4376 -0.0982 -0.4886
 9529SOL    HW140046   2.219   0.385  16.853 -1.4235 -1.9574  2.7788
 9529SOL    HW240047   2.109   0.353  16.774 -1.2905  1.5505 -1.7471
 9530SOL     OW40048   2.582   4.679   0.559  0.0433  0.0787 -0.4147
 9530SOL    HW140049   2.571   4.704   0.650  0.8594 -2.0239  0.2775
 9530SOL    HW240050   2.556   4.587   0.562  0.8950 -0.1165  0.9844
 9531SOL     OW40051   3.763   4.629   1.882  0.5396 -0.7373 -0.8499
 9531SOL    HW140052   3.755   0.001   1.883 -0.8670 -0.8931  2.0507
 9531SOL    HW240053   3.731   4.608   1.970 -0.2323 -3.7728 -1.8371
 9532SOL     OW40054   4.353   0.464  14.766  0.1279 -0.0375  0.2336
 9532SOL    HW140055   4.295   0.407  14.715 -2.1843  0.9188  1.7888
 9532SOL    HW240056   4.426   0.403  14.776  0.0187 -0.3170 -0.7438
 9533SOL     OW40057   1.809   2.488   7.332 -0.4309 -0.0341  0.5488
 9533SOL    HW140058   1.854   2.407   7.307  0.3024  0.8211 -0.8892
 9533SOL    HW240059   1.757   2.504   7.253 -0.0942 -0.4551  0.2405
 9534SOL     OW40060   1.121   3.722   3.314 -0.1461  0.1720 -0.1392
 9534SOL    HW140061   1.128   3.666   3.392  2.1195 -1.1059 -1.2716
 9534SOL    HW240062   1.028   3.746   3.321 -1.0562 -3.0046 -1.0729
 9535SOL     OW40063   1.467   3.808   3.659 -0.3265 -0.4609 -0.6220
 9535SOL    HW140064   1.421   3.792   3.742 -0.9878 -0.6643 -1.0248
 9535SOL    HW240065   1.424   3.753   3.594 -0.1720 -2.0018  0.5546
 9536SOL     OW40066   2.126   4.261   5.652 -0.2493 -0.2798 -0.1286
 9536SOL    HW140067   2.048   4.257   5.597  0.5332  2.5479 -1.3938
 9536SOL    HW240068   2.194   4.281   5.587 -0.8836  0.3713 -0.5908
 9537SOL     OW40069   3.379   2.234   6.497  0.1621  0.4713  0.1730
 9537SOL    HW140070   3.316   2.219   6.427 -0.3243 -2.2333  1.1732
 9537SOL    HW240071   3.456   2.193   6.457 -0.0960  0.0330  0.1251
 9538SOL     OW40072   2.136   4.187  10.532 -0.1289 -0.0783  0.1488
 9538SOL    HW140073   2.085   4.258  10.570  1.2824  0.6758  0.6380
 9538SOL    HW240074   2.213   4.236  10.502 -1.0699  1.1266 -0.2955
 9539SOL     OW40075   1.170   1.901   6.050  0.5669  0.9363 -0.2978
 9539SOL    HW140076   1.204   1.983   6.086  0.1177  0.1325  1.9592
 9539SOL    HW240077   1.113   1.866   6.118  1.2504 -1.2191 -0.8250
 9540SOL     OW40078   1.113   0.828   4.925 -0.0036  0.0438 -0.1672
 9540SOL    HW140079   1.140   0.807   4.836 -0.7725 -0.7793 -0.2009
 9540SOL    HW240080   1.127   0.743   4.967  0.5602  0.0140 -0.4147
 9541SOL     OW40081   2.595   0.617  15.083  0.2138  0.4721  0.1633
 9541SOL    HW140082   2.514   0.568  15.071  0.6447  0.3298 -2.1801
 9541SOL    HW240083   2.657   0.572  15.025 -0.9966 -0.5385 -0.3303
 9542SOL     OW40084   0.284   3.614   7.465  0.4516 -0.1364 -0.5698
 9542SOL    HW140085   0.304   3.708   7.465  0.2552 -0.1098  2.3357
 9542SOL    HW240086   0.360   3.575   7.508 -0.7992 -2.5508 -0.5897
 9543SOL     OW40087   2.591   3.007   3.544  0.2734  1.0407 -0.7524
 9543SOL    HW140088   2.607   3.100   3.556 -0.0133  0.9806  0.0571
 9543SOL    HW240089   2.498   2.992   3.528  0.2507 -0.5900  0.8222
 9544SOL     OW40090   2.835   4.439   7.895  0.7320  0.3527  0.3952
 9544SOL    HW140091   2.869   4.479   7.816  1.0892  2.8953  1.8481
 9544SOL    HW240092   2.803   4.350   7.876  0.3023  0.2211  1.7120
 9545SOL     OW40093   4.385   1.169   6.865  0.2315  0.0109 -0.2535
 9545SOL    HW140094   4.474   1.203   6.876  0.4123  0.0585 -1.9550
 9545SOL    HW240095   4.388   1.189   6.771 -0.0339  2.4140  0.2278
 9546SOL     OW40096   0.101   2.400   4.317 -0.2536 -0.4218  0.2886
 9546SOL    HW140097   0.017   2.427   4.352  0.2678  0.3877  0.9005
 9546SOL    HW240098   0.079   2.309   4.299 -1.4370 -0.7265  3.3707
 9547SOL     OW40099   0.671   2.026   3.799  0.0251  0.5055 -0.0820
 9547SOL    HW140100   0.683   1.960   3.730 -1.0852  0.0839  0.1224
 9547SOL    HW240101   0.632   1.970   3.866  0.6946  1.0554  0.7627
 9548SOL     OW40102   4.014   0.416   7.804  0.2037 -0.1315  0.0949
 9548SOL    HW140103   3.948   0.440   7.738 -0.0987  0.7563  0.7255
 9548SOL    HW240104   4.025   0.495   7.856  0.2280  1.0886 -1.7653
 9549SOL     OW40105   0.240   1.946   5.958  0.0533 -0.7031  0.1442
 9549SOL    HW140106   0.300   1.873   5.941  2.0813  1.3426 -1.3654
 9549SOL    HW240107   0.169   1.910   5.905 -1.7781  0.8063  1.5391
 9550SOL     OW40108   2.210   2.344  10.092  0.4117 -0.1468  0.3338
 9550SOL    HW140109   2.172   2.289  10.024  0.3397  0.3696 -0.0379
 9550SOL    HW240110   2.304   2.327  10.081 -0.2219 -2.8131 -1.0396
 9551SOL     OW40111   1.228   0.791   0.762  0.3098  0.1974  0.1075
 9551SOL    HW140112   1.241   0.881   0.732 -0.5848 -1.0189 -3.9929
 9551SOL    HW240113   1.161   0.807   0.828  0.4868  0.3861  0.2409
 9552SOL     OW40114   0.812   4.014   9.888  0.0815 -0.2468 -0.0405
 9552SOL    HW140115   0.844   4.092   9.933  0.6313  1.0166 -2.6312
 9552SOL    HW240116   0.730   3.989   9.932  0.7068 -1.2108  0.5746
 9553SOL     OW40117   1.989   4.182   6.031  0.3472 -0.3317 -0.5730
 9553SOL    HW140118   1.939   4.263   6.046  1.3084  0.0456  0.5571
 9553SOL    HW240119   1.947   4.164   5.947 -0.3976 -0.3774 -0.1980
 9554SOL     OW40120   0.704   3.934   7.703  0.5654  0.3711 -0.3370
 9554SOL    HW140121   0.760   3.876   7.755  0.4233  0.9504  0.4801
 9554SOL    HW240122   0.765   3.941   7.630  0.1048 -0.8062 -0.8338
 9555SOL     OW40123   1.844   3.530   9.993  0.0591  0.3220  0.0692
 9555SOL    HW140124   1.771   3.546  10.053  1.0815  0.8516  1.1775
 9555SOL    HW240125   1.843   3.435   9.979 -1.8009  0.3370  0.0965
 9556SOL     OW40126   2.955   0.444   5.622 -0.4363 -0.1104  0.0280
 9556SOL    HW140127   3.043   0.415   5.599 -0.5425 -0.2717 -0.1826
 9556SOL    HW240128   2.925   0.495   5.547 -0.9064 -1.6371 -0.8359
 9557SOL     OW40129   2.558   2.684   8.533 -0.6080 -0.1257  0.0400
 9557SOL    HW140130   2.566   2.738   8.454 -0.5717 -1.7248 -1.0534
 9557SOL    HW240131   2.531   2.740   8.606 -0.4608 -2.9504  2.2643
 9558SOL     OW40132   1.037   4.110  17.211  0.3173 -0.6682  0.4185
 9558SOL    HW140133   0.951   4.132  17.176  0.2439  0.3243  1.2323
 9558SOL    HW240134   1.097   4.159  17.154 -0.4459 -0.0290  0.1653
 9559SOL     OW40135   4.614   2.608  16.589 -0.3129  0.3535 -0.3316
 9559SOL    HW140136   4.586   2.582  16.677 -0.5509 -0.2749 -0.5944
 9559SOL    HW240137   4.532   2.642  16.553  1.1066  0.0167 -3.9214
 9560SOL     OW40138   3.045   3.153  16.905 -0.2931  0.6618  0.4593
 9560SOL    HW140139   3.019   3.062  16.892 -0.3906  0.2885  3.2467
 9560SOL    HW240140   3.055   3.180  16.814 -0.7191 -0.8727 -0.0408
 9561SOL     OW40141   2.139   3.686   4.561 -0.4562 -0.2808 -0.0821
 9561SOL    HW140142   2.081   3.758   4.538 -0.4617 -0.1371  0.3931
 9561SOL    HW240143   2.108   3.614   4.506  0.9462  0.5254 -1.9613
 9562SOL     OW40144   3.559   0.505   6.025  0.5234 -0.2633  0.2253
 9562SOL    HW140145   3.597   0.541   5.944  2.4870 -1.5607  0.5820
 9562SOL    HW240146   3.567   0.578   6.087  0.3685  1.6550 -1.9972
 9563SOL     OW40147   2.208   1.404   6.457  0.2177  0.2399  0.3700
 9563SOL    HW140148   2.250   1.431   6.539 -0.3734  2.8323 -0.1740
 9563SOL    HW240149   2.132   1.364   6.498  1.4136 -2.1696  0.2434
 9564SOL     OW40150   1.724   0.096   1.945 -0.0024  0.2553 -0.5281
 9564SOL    HW140151   1.726   0.005   1.975  1.0117  0.3728 -0.2243
 9564SOL    HW240152   1.776   0.140   2.013 -1.5048  0.6051  0.3911
 9565SOL     OW40153   0.597   4.426   6.784 -0.3604 -0.0261 -0.6463
 9565SOL    HW140154   0.510   4.432   6.745 -0.5953  0.5456 -0.0312
 9565SOL    HW240155   0.650   4.374   6.723  1.1483  0.3180  0.3877
   4.72328   4.72328  17.69495
