Membrane in water
40155
    1TCq1    O1    1   1.980   0.890  10.808  0.3599  0.2486  0.4033
    1TCq1    C1    2   2.100   0.941  10.853 -0.6830 -0.5864  0.2449
    1TCq1    O2    3   2.164   1.021  10.790  0.2206  0.5029 -0.1238
    1TCq1    C2    4   2.101   0.928  10.991 -0.1711  0.9810 -0.3141
    1TCq1    C3    5   2.073   0.798  11.033 -0.5167  0.2594 -0.3222
    1TCq1    C4    6   2.077   0.784  11.166  0.0268 -0.0879 -1.0656
    1TCq1    C5    7   2.111   0.883  11.248  0.0957  0.5652 -0.3627
    1TCq1    C6    8   2.126   1.012  11.201 -0.0097 -0.7457  0.0172
    1TCq1    C7    9   2.116   1.041  11.069 -0.2473 -0.6718 -0.7747
    1TCq1    C8   10   2.166   1.114  11.300  0.3950 -0.3571 -0.4858
    1TCq1    O4   11   2.109   1.221  11.300  0.3850  0.5211 -0.1169
    1TCq1    C9   12   2.049   0.652  11.222  0.1175  0.0953 -0.0186
    1TCq1    O5   13   1.985   0.575  11.144  0.1772 -0.0409  0.0072
    1TCq1    O6   14   2.078   0.628  11.343 -0.3288  0.0953  0.0343
    1TCq1    H1   15   1.934   0.830  10.871  0.7207  0.1771  0.5981
    1TCq1    H2   16   2.060   0.719  10.960  0.1471 -1.2986  1.2226
    1TCq1    H3   17   2.116   0.863  11.355 -0.4959 -1.5585 -0.7390
    1TCq1    H4   18   2.123   1.140  11.025  0.8400 -0.9576 -1.2579
    2MPD2     C   19   2.342   1.166  11.786  0.3065 -0.5473 -0.1534
    2MPD2    C1   20   2.242   1.243  11.717 -0.2102  0.4189 -0.1257
    2MPD2    C2   21   2.227   1.222  11.575 -0.2918  0.2221 -0.0146
    2MPD2    C3   22   2.299   1.119  11.516  0.0988  0.1915  0.7213
    2MPD2    C4   23   2.388   1.040  11.588 -0.5254  0.8236  0.1845
    2MPD2    C5   24   2.417   1.068  11.725  0.9284  0.4204  0.0599
    2MPD2     H   25   2.161   1.283  11.513 -0.0717 -0.8896 -1.3455
    2MPD2    H1   26   2.429   0.949  11.547  0.5022 -0.4700  4.0195
    2MPD2    H2   27   2.349   1.174  11.894 -2.6277 -0.8081  0.0570
    2MPD2    H3   28   2.486   1.015  11.789 -1.4696 -0.3016  2.0319
    2MPD2     N   29   2.270   1.073  11.380 -0.5881  0.0050 -0.9464
    2MPD2    H5   30   2.317   0.987  11.354 -0.7399 -0.5860  0.7436
    2MPD2    N1   31   2.160   1.335  11.785 -0.5701 -0.6771  0.0030
    2MPD2    H7   32   2.088   1.382  11.731  0.0130  1.0918  0.7919
    3TCq1    O1   33   2.033   2.214  10.685 -0.1361 -0.0336  0.0781
    3TCq1    C1   34   1.933   2.263  10.749 -0.0837  0.1506 -0.1361
    3TCq1    O2   35   1.863   2.202  10.832  0.7927 -0.1152  0.9262
    3TCq1    C2   36   1.872   2.356  10.657  0.1005  0.2416 -0.2824
    3TCq1    C3   37   1.951   2.467  10.631  0.2503  0.3790 -0.6854
    3TCq1    C4   38   1.891   2.578  10.584  0.9941  0.3312 -0.4677
    3TCq1    C5   39   1.758   2.594  10.582  0.0393  0.3029  0.3585
    3TCq1    C6   40   1.682   2.494  10.628  0.7787 -0.2477  0.7875
    3TCq1    C7   41   1.735   2.371  10.658 -0.1649 -0.4801  0.5593
    3TCq1    C8   42   1.534   2.516  10.636  0.3666 -0.3876  0.0122
    3TCq1    O4   43   1.455   2.426  10.620 -0.4284  0.2591  0.0911
    3TCq1    C9   44   1.972   2.680  10.524  0.6368  0.9766 -0.0273
    3TCq1    O5   45   2.079   2.647  10.471 -1.0120  0.1381 -0.2508
    3TCq1    O6   46   1.920   2.795  10.521 -0.0142 -0.1063 -0.6612
    3TCq1    H1   47   2.048   2.261  10.600 -0.6641 -0.1278 -0.0698
    3TCq1    H2   48   2.059   2.458  10.627  0.1346 -0.5899 -1.4550
    3TCq1    H3   49   1.714   2.684  10.540  4.2494  2.0884 -0.2561
    3TCq1    H4   50   1.669   2.299  10.705  0.9445 -2.0767 -0.3427
    4MPD2     C   51   1.148   2.862  10.667 -0.2674  0.8563 -0.4146
    4MPD2    C1   52   1.269   2.919  10.695  0.4461 -0.3876 -0.4625
    4MPD2    C2   53   1.379   2.841  10.705  0.5873  0.8480 -0.2964
    4MPD2    C3   54   1.383   2.714  10.657 -0.2306  0.4061  0.0781
    4MPD2    C4   55   1.267   2.660  10.606 -0.7258  0.1175 -0.4990
    4MPD2    C5   56   1.151   2.734  10.615  0.1711  0.0194 -0.2849
    4MPD2     H   57   1.471   2.892  10.732  1.3964 -0.0159 -1.4392
    4MPD2    H1   58   1.271   2.567  10.551  0.8704  1.1751 -2.1744
    4MPD2    H2   59   1.047   2.901  10.659  0.4643  2.6793 -0.8041
    4MPD2    H3   60   1.063   2.694  10.566 -0.6033  2.8660 -1.2349
    4MPD2     N   61   1.508   2.648  10.657  0.0794  0.1826 -0.7602
    4MPD2    H5   62   1.589   2.707  10.675 -0.9134  0.2945  3.3711
    4MPD2    N1   63   1.268   3.049  10.744 -0.2991 -0.1536 -0.2275
    4MPD2    H7   64   1.358   3.087  10.771 -0.7328  0.9237 -0.3187
    5TCq1    O1   65   1.706   4.385  11.545 -0.1232  0.6326  0.3848
    5TCq1    C1   66   1.793   4.435  11.632  0.0158  0.2713 -0.0719
    5TCq1    O2   67   1.773   4.496  11.734 -0.4555 -0.5339  0.5297
    5TCq1    C2   68   1.915   4.376  11.588 -0.2311  0.6110  0.4015
    5TCq1    C3   69   2.001   4.331  11.686 -0.7625  0.1454  0.3503
    5TCq1    C4   70   2.116   4.271  11.656  0.4611 -0.5224  0.1529
    5TCq1    C5   71   2.152   4.263  11.524 -0.1951 -0.1062  0.2074
    5TCq1    C6   72   2.072   4.322  11.429  0.6841 -0.1404 -0.2895
    5TCq1    C7   73   1.953   4.382  11.460 -0.5064 -0.0052 -0.3973
    5TCq1    C8   74   2.081   4.265  11.300  0.1855 -0.1394  0.7442
    5TCq1    O4   75   2.128   4.157  11.283  0.4702  0.0064  0.0561
    5TCq1    C9   76   2.194   4.209  11.767  0.3264 -0.2627 -1.0845
    5TCq1    O5   77   2.307   4.157  11.729  0.8835 -0.5644  0.1564
    5TCq1    O6   78   2.137   4.214  11.878 -0.3120 -0.3737  0.1217
    5TCq1    H1   79   1.739   4.317  11.483  0.2818 -0.7187  2.0731
    5TCq1    H2   80   1.961   4.343  11.786 -0.5763  0.2071  0.4166
    5TCq1    H3   81   2.237   4.205  11.490 -1.3271 -1.7100  0.0928
    5TCq1    H4   82   1.879   4.403  11.383  0.7123 -0.1141 -1.6068
    6MPD2     C   83   1.947   4.438  10.999 -0.7623 -0.1543 -0.0593
    6MPD2    C1   84   2.006   4.336  11.069  0.0760 -0.2412  0.5682
    6MPD2    C2   85   2.017   4.212  11.006 -0.0288 -0.5013  0.4476
    6MPD2    C3   86   2.003   4.196  10.872 -0.3824  0.1153  0.0394
    6MPD2    C4   87   1.945   4.307  10.798 -0.1327  0.2724 -0.2498
    6MPD2    C5   88   1.923   4.426  10.865 -0.2052  0.4099 -0.6327
    6MPD2     H   89   2.046   4.124  11.063  1.0241 -1.2431 -1.2101
    6MPD2    H1   90   1.937   4.306  10.690  1.6854  0.7663 -0.3855
    6MPD2    H2   91   1.920   4.532  11.045  0.3746 -0.1559  0.6123
    6MPD2    H3   92   1.887   4.510  10.807  2.0493  2.5248  1.0251
    6MPD2     N   93   2.030   4.070  10.809  0.2265 -0.4114 -0.0012
    6MPD2    H5   94   2.049   3.990  10.869  0.4866 -1.3480 -1.3160
    6MPD2    N1   95   2.036   4.355  11.208 -0.4906  0.3968 -0.1272
    6MPD2    H7   96   2.025   4.448  11.248 -1.2591 -0.2358  1.1169
    7TCq1    O1   97   4.189   3.630  13.091  0.2184 -0.3927 -0.4802
    7TCq1    C1   98   4.084   3.586  13.015 -0.3965 -0.5953  0.1385
    7TCq1    O2   99   3.990   3.657  12.985 -0.5598  0.1009 -0.4720
    7TCq1    C2  100   4.064   3.447  13.038  0.6183  0.2200  0.3637
    7TCq1    C3  101   3.935   3.398  13.050 -0.7308 -0.3914  0.2503
    7TCq1    C4  102   3.923   3.268  13.062  0.9542 -0.3262  0.2262
    7TCq1    C5  103   4.028   3.178  13.075 -0.0731 -0.3134  0.0482
    7TCq1    C6  104   4.153   3.233  13.059  0.1290  0.3840 -0.9939
    7TCq1    C7  105   4.178   3.369  13.045  0.5456 -0.0768 -0.6117
    7TCq1    C8  106   4.261   3.149  13.107 -0.1049  0.3940  0.1741
    7TCq1    O4  107   4.257   3.033  13.071 -0.0638  0.1936 -0.1606
    7TCq1    C9  108   3.792   3.214  13.077 -0.0741 -0.1678  0.1867
    7TCq1    O5  109   3.698   3.298  13.068  0.3680  0.0948  0.0109
    7TCq1    O6  110   3.792   3.106  13.144 -0.0496 -0.7258  0.1025
    7TCq1    H1  111   4.252   3.565  13.131 -1.3987 -1.3706  0.4731
    7TCq1    H2  112   3.857   3.474  13.049 -2.7103 -2.4541 -0.8600
    7TCq1    H3  113   4.018   3.071  13.090  1.9656 -0.4099  0.8363
    7TCq1    H4  114   4.272   3.397  12.999  1.2794 -1.0503  0.2910
    8MPD2     C  115   4.683   3.055  13.388  0.3200 -0.1442  0.7465
    8MPD2    C1  116   4.579   2.966  13.356  0.6566 -0.7225  0.0433
    8MPD2    C2  117   4.475   3.022  13.276  0.1980 -0.4608 -0.3827
    8MPD2    C3  118   4.476   3.153  13.228 -0.0098  0.0488  0.3245
    8MPD2    C4  119   4.582   3.233  13.259 -0.1093 -0.1984  0.5452
    8MPD2    C5  120   4.677   3.180  13.341  0.3303 -0.3473 -0.6975
    8MPD2     H  121   4.384   2.965  13.265 -0.5839  0.5926  0.5460
    8MPD2    H1  122   4.572   3.336  13.227  0.1519  0.4047  2.4251
    8MPD2    H2  123   0.041   3.035  13.460  0.9315  0.8866  0.3545
    8MPD2    H3  124   0.040   3.243  13.369 -2.1612  3.1599 -0.9983
    8MPD2     N  125   4.369   3.215  13.162  0.1876 -0.2320 -0.3102
    8MPD2    H5  126   4.371   3.316  13.160  1.0194 -0.2851 -1.9092
    8MPD2    N1  127   4.580   2.834  13.410 -0.3031  0.1076 -0.0539
    8MPD2    H7  128   4.656   2.815  13.475 -1.7106 -2.4519  0.8630
    9TCq1    O1  129   1.965   1.805  10.445  0.4067 -0.2574 -0.6626
    9TCq1    C1  130   2.009   1.831  10.574  0.0907  0.0627 -0.0002
    9TCq1    O2  131   1.936   1.824  10.673 -0.3774  1.0177 -0.1014
    9TCq1    C2  132   2.149   1.857  10.572 -1.1271  0.0762 -0.2240
    9TCq1    C3  133   2.230   1.818  10.467 -0.5831 -0.4920  0.6615
    9TCq1    C4  134   2.361   1.861  10.476 -0.7253  0.3085 -0.5924
    9TCq1    C5  135   2.403   1.941  10.580  0.5883 -0.5229 -0.1686
    9TCq1    C6  136   2.312   1.983  10.674  0.4708 -0.7255 -0.4444
    9TCq1    C7  137   2.186   1.942  10.680  0.1877  0.4181 -0.2186
    9TCq1    C8  138   2.365   2.066  10.774 -0.0603  0.5246 -0.1879
    9TCq1    O4  139   2.486   2.075  10.791  1.1001 -0.7080  0.7312
    9TCq1    C9  140   2.459   1.818  10.379 -0.1552  1.1725 -0.5446
    9TCq1    O5  141   2.425   1.740  10.288  0.1006  0.3289  0.2482
    9TCq1    O6  142   2.573   1.852  10.414  0.1359 -0.0836  0.3043
    9TCq1    H1  143   2.026   1.826  10.370 -0.4532  0.6970 -1.0892
    9TCq1    H2  144   2.199   1.751  10.387  1.4283 -1.0430  0.3441
    9TCq1    H3  145   2.504   1.978  10.588  0.4162 -0.3589  1.1670
    9TCq1    H4  146   2.122   1.955  10.766 -1.4112 -1.5628 -1.1053
   10MPD2     C  147   2.411   2.277  10.986  0.2588 -0.2241 -0.2711
   10MPD2    C1  148   2.288   2.227  10.950 -0.2001 -0.2239  0.6140
   10MPD2    C2  149   2.181   2.260  11.029  0.3546 -0.2131 -0.1665
   10MPD2    C3  150   2.196   2.339  11.143  0.0014 -0.8439  0.1091
   10MPD2    C4  151   2.322   2.393  11.173 -0.2058  0.0964 -0.0068
   10MPD2    C5  152   2.431   2.348  11.101 -0.6113  0.1919 -0.2670
   10MPD2     H  153   2.083   2.222  11.003  0.5348  0.4756 -1.8902
   10MPD2    H1  154   2.340   2.454  11.260  0.6532  0.1437 -0.2200
   10MPD2    H2  155   2.501   2.245  10.934 -0.3244 -2.0938 -0.1339
   10MPD2    H3  156   2.530   2.385  11.125  0.0265 -1.3038 -0.6345
   10MPD2     N  157   2.091   2.369  11.235 -0.0009  0.4046 -0.1116
   10MPD2    H5  158   2.121   2.410  11.323  0.2737 -2.2549  1.0251
   10MPD2    N1  159   2.268   2.146  10.835  0.1832  0.2595  0.2062
   10MPD2    H7  160   2.173   2.139  10.800  0.6353  0.6672 -1.1139
   11TCq1    O1  161   3.296   2.768  13.851  0.1707 -0.1303 -0.4652
   11TCq1    C1  162   3.286   2.637  13.812 -0.2110 -0.4325 -0.0957
   11TCq1    O2  163   3.321   2.599  13.700 -0.0188 -1.0716 -0.0512
   11TCq1    C2  164   3.286   2.558  13.922 -0.6030  0.3881  0.1831
   11TCq1    C3  165   3.376   2.463  13.939  0.1986  0.2697  0.0940
   11TCq1    C4  166   3.392   2.405  14.061  0.0736  0.3579 -0.4081
   11TCq1    C5  167   3.299   2.428  14.155  0.2096 -0.9292 -0.2080
   11TCq1    C6  168   3.195   2.510  14.131  0.5742  0.3515  0.0188
   11TCq1    C7  169   3.185   2.577  14.011 -0.3688 -0.3931 -0.5238
   11TCq1    C8  170   3.072   2.483  14.201 -0.1112 -0.3948  0.6782
   11TCq1    O4  171   3.082   2.472  14.323  0.8602  0.4987 -0.6201
   11TCq1    C9  172   3.493   2.313  14.084  0.1296  0.3172  0.2503
   11TCq1    O5  173   3.561   2.279  13.981  0.3143 -0.5594  0.0465
   11TCq1    O6  174   3.531   2.306  14.203  0.5222 -0.5535  0.0067
   11TCq1    H1  175   3.326   2.764  13.944 -1.1142 -0.5337 -0.0698
   11TCq1    H2  176   3.449   2.429  13.866 -0.4244 -1.1083  0.1055
   11TCq1    H3  177   3.292   2.359  14.239 -3.1241  3.2874  2.9809
   11TCq1    H4  178   3.106   2.650  13.999 -2.0128 -1.9098  1.0580
   12MPD2     C  179   2.827   2.330  14.302  0.2817 -0.3655  0.5389
   12MPD2    C1  180   2.870   2.329  14.169 -0.2942 -0.0750  0.6114
   12MPD2    C2  181   2.809   2.238  14.077  0.2460  0.2554  0.1277
   12MPD2    C3  182   2.713   2.143  14.118 -0.8708 -0.3253  0.3894
   12MPD2    C4  183   2.671   2.158  14.245  0.0056  0.2984  0.0502
   12MPD2    C5  184   2.722   2.245  14.336 -0.7622  0.8297  0.7481
   12MPD2     H  185   2.850   2.224  13.978  0.2788  1.9332 -0.0903
   12MPD2    H1  186   2.607   2.080  14.285 -0.7155 -0.7556 -3.1293
   12MPD2    H2  187   2.871   2.401  14.372 -1.4410  0.3608  0.8903
   12MPD2    H3  188   2.681   2.245  14.436 -0.7489  0.7136  0.7543
   12MPD2     N  189   2.657   2.035  14.041 -0.1213  0.0279 -0.4730
   12MPD2    H5  190   2.599   1.974  14.098 -1.0875  1.9362  0.5863
   12MPD2    N1  191   2.979   2.414  14.122  0.3293 -0.0725  0.2017
   12MPD2    H7  192   2.981   2.414  14.020 -2.8665  0.2781  0.1355
   13TCq1    O1  193   2.841   1.913  11.642 -0.2239  0.9330  0.0284
   13TCq1    C1  194   2.727   1.857  11.590  0.0522  0.2934 -0.8051
   13TCq1    O2  195   2.717   1.777  11.498 -0.1747  0.5907 -0.4779
   13TCq1    C2  196   2.626   1.958  11.594 -0.5521  0.3625 -0.3562
   13TCq1    C3  197   2.576   1.988  11.719 -0.2604 -0.6450  0.1739
   13TCq1    C4  198   2.451   2.042  11.742  0.1452  0.2443  0.3109
   13TCq1    C5  199   2.368   2.063  11.638 -0.4440 -0.1499 -0.1059
   13TCq1    C6  200   2.416   2.036  11.512 -1.3856  0.0036  0.1935
   13TCq1    C7  201   2.548   1.986  11.484 -0.1648  0.1593 -0.0744
   13TCq1    C8  202   2.311   2.017  11.410 -0.2259  0.6492 -0.3094
   13TCq1    O4  203   2.206   2.075  11.439  0.0549  0.7537 -0.5637
   13TCq1    C9  204   2.421   2.074  11.877  0.2600  0.6137  0.2722
   13TCq1    O5  205   2.522   2.082  11.960 -0.1056  0.4129  0.1656
   13TCq1    O6  206   2.309   2.108  11.915  0.2583 -0.6477  0.6938
   13TCq1    H1  207   2.837   1.992  11.700 -1.2720  2.0803 -1.6074
   13TCq1    H2  208   2.631   1.957  11.807 -0.2028  0.8995  0.6779
   13TCq1    H3  209   2.269   2.096  11.665 -0.3936 -0.7384  0.8168
   13TCq1    H4  210   2.587   1.961  11.386 -0.1324  0.1462 -0.0583
   14MPD2     C  211   2.313   1.826  11.091  0.3855 -0.2461  0.8870
   14MPD2    C1  212   2.268   1.906  11.194  0.1416 -0.5167  0.7433
   14MPD2    C2  213   2.129   1.941  11.182 -0.3089  0.0921  0.2731
   14MPD2    C3  214   2.045   1.891  11.080  1.3782 -0.1274  0.4080
   14MPD2    C4  215   2.092   1.803  10.985 -0.0654 -0.2872  0.5732
   14MPD2    C5  216   2.227   1.777  11.002 -0.5228 -0.4911  0.4138
   14MPD2     H  217   2.080   1.998  11.260  0.3468  0.5166  0.3729
   14MPD2    H1  218   2.045   1.748  10.903  1.8775 -1.1962  0.0728
   14MPD2    H2  219   2.413   1.785  11.095 -0.0548 -1.3795  0.1335
   14MPD2    H3  220   2.264   1.703  10.933  0.7358 -1.7855  2.4649
   14MPD2     N  221   1.912   1.917  11.092  0.2171  0.0837  0.4650
   14MPD2    H5  222   1.885   2.002  11.140 -1.4642 -0.9941  1.4180
   14MPD2    N1  223   2.355   1.941  11.300  0.0910 -0.0654 -0.2481
   14MPD2    H7  224   2.452   1.916  11.285  0.0762 -2.0805  2.9595
   15TCq1    O1  225   2.877   0.529   1.652 -0.0773  0.3281 -0.0164
   15TCq1    C1  226   2.959   0.527   1.542 -0.5073  0.0249 -0.0313
   15TCq1    O2  227   2.939   0.447   1.454  0.2632  0.8284  0.1891
   15TCq1    C2  228   3.089   0.535   1.608  0.2824  0.0417 -0.0232
   15TCq1    C3  229   3.109   0.541   1.739  0.6985 -0.4775  0.3008
   15TCq1    C4  230   3.228   0.507   1.790 -0.8408  0.2803 -0.0772
   15TCq1    C5  231   3.340   0.475   1.714 -0.4190  0.1621 -0.6435
   15TCq1    C6  232   3.316   0.464   1.574  0.1234 -0.1139  0.1318
   15TCq1    C7  233   3.192   0.493   1.524  0.3291 -0.2202 -0.3477
   15TCq1    C8  234   3.429   0.434   1.486  0.3286  0.1933 -0.2728
   15TCq1    O4  235   3.533   0.401   1.548 -0.3987 -0.0923  0.7344
   15TCq1    C9  236   3.261   0.520   1.927 -0.3981 -0.5393 -0.3291
   15TCq1    O5  237   3.374   0.495   1.967 -0.3328  0.0621 -0.2573
   15TCq1    O6  238   3.159   0.538   2.013  0.3272  0.3792 -0.2995
   15TCq1    H1  239   2.875   0.621   1.687 -0.0968 -0.0553  0.9963
   15TCq1    H2  240   3.030   0.576   1.805  1.4342  2.5509 -0.4244
   15TCq1    H3  241   3.434   0.441   1.757  0.3297 -0.2232 -2.5653
   15TCq1    H4  242   3.167   0.453   1.426 -2.8817 -0.8714  0.7580
   16MPD2     C  243   3.456   0.462   1.120  0.6392  0.3521  0.2499
   16MPD2    C1  244   3.509   0.448   1.247  0.6910 -0.2212 -0.4034
   16MPD2    C2  245   3.642   0.419   1.263  0.1666 -1.0062 -0.5737
   16MPD2    C3  246   3.716   0.394   1.153 -0.4244 -0.2520 -0.1070
   16MPD2    C4  247   3.662   0.417   1.025  0.3419  0.4488  0.1212
   16MPD2    C5  248   3.533   0.456   1.009 -0.0540 -0.7224 -0.1262
   16MPD2     H  249   3.685   0.399   1.361 -0.6621 -0.6732 -0.1400
   16MPD2    H1  250   3.718   0.405   0.933  0.3865 -1.4638  0.3902
   16MPD2    H2  251   3.349   0.474   1.112  0.7276  1.9112  1.2918
   16MPD2    H3  252   3.491   0.469   0.910  1.2617  0.2376 -0.5616
   16MPD2     N  253   3.847   0.347   1.169  0.0983  0.1793  0.3171
   16MPD2    H5  254   3.872   0.353   1.267  2.1656 -0.3522 -0.1858
   16MPD2    N1  255   3.414   0.457   1.349 -0.4541  0.7028 -0.1442
   16MPD2    H7  256   3.323   0.489   1.318 -0.7054 -0.9544 -1.1089
   17TCq1    O1  257   1.626   0.936   9.113  0.4367 -0.0912 -0.0084
   17TCq1    C1  258   1.554   0.834   9.061 -0.4131  0.2800  0.5071
   17TCq1    O2  259   1.498   0.837   8.954 -0.4517  0.1465  0.1399
   17TCq1    C2  260   1.521   0.733   9.157 -0.4481  0.4201  0.0033
   17TCq1    C3  261   1.425   0.642   9.120 -0.0448 -0.8972  0.2628
   17TCq1    C4  262   1.399   0.533   9.207  0.1958 -0.0499  0.1379
   17TCq1    C5  263   1.469   0.514   9.321 -0.0865 -0.6000  0.6132
   17TCq1    C6  264   1.569   0.603   9.352  0.2120 -0.3964 -0.3486
   17TCq1    C7  265   1.595   0.713   9.272 -1.0348 -0.6466  0.1313
   17TCq1    C8  266   1.561   0.625   9.495 -0.5063 -0.7754 -0.1765
   17TCq1    O4  267   1.458   0.601   9.554 -0.5747 -0.4053 -0.6691
   17TCq1    C9  268   1.285   0.446   9.166 -0.6009 -0.9065 -0.5851
   17TCq1    O5  269   1.264   0.331   9.217  0.1772 -0.3909  0.2902
   17TCq1    O6  270   1.255   0.458   9.041  0.4983 -0.2307  0.1682
   17TCq1    H1  271   1.648   0.940   9.208  1.2427 -1.5833 -0.1328
   17TCq1    H2  272   1.360   0.663   9.035 -0.7338 -2.4725  0.4063
   17TCq1    H3  273   1.436   0.439   9.392  4.1578 -2.9110  0.1476
   17TCq1    H4  274   1.670   0.788   9.294  1.2535 -1.9546 -3.1235
   18MPD2     C  275   1.615   0.753   9.766 -0.6517  0.2699 -0.4421
   18MPD2    C1  276   1.706   0.743   9.667 -0.1866  0.4838  0.2707
   18MPD2    C2  277   1.828   0.803   9.688 -0.4680  0.4796 -0.4113
   18MPD2    C3  278   1.857   0.866   9.804 -0.0523 -0.1922 -0.8617
   18MPD2    C4  279   1.765   0.880   9.899  0.5835 -0.3200  0.8942
   18MPD2    C5  280   1.638   0.826   9.880 -0.5804 -0.3842 -0.2913
   18MPD2     H  281   1.897   0.812   9.605 -0.0520 -2.6033 -0.3917
   18MPD2    H1  282   1.783   0.919   9.999 -1.3078  0.7031  0.8446
   18MPD2    H2  283   1.521   0.699   9.760 -0.6245  0.2212 -0.4302
   18MPD2    H3  284   1.557   0.834   9.952  0.1414 -0.7648  0.5606
   18MPD2     N  285   1.979   0.923   9.839  0.6493 -0.4586 -0.2925
   18MPD2    H5  286   1.979   0.970   9.929 -0.8620 -1.6284  0.3260
   18MPD2    N1  287   1.678   0.684   9.543 -0.7307 -0.0280 -0.1440
   18MPD2    H7  288   1.754   0.690   9.476 -1.4481  0.7496 -0.8887
   19TMC2    C1  289   3.905   1.218  13.334 -0.2748  0.3059 -0.0384
   19TMC2    C2  290   3.886   1.283  13.218 -0.8508 -0.5210 -0.6086
   19TMC2    C3  291   3.768   1.352  13.206  0.1770  0.6214  0.2882
   19TMC2    C4  292   3.816   1.214  13.434  0.4133 -0.3297 -0.1804
   19TMC2    C5  293   3.696   1.272  13.407  0.3390 -0.3669  0.2948
   19TMC2    C6  294   3.663   1.336  13.293 -0.4635 -0.0021 -0.5849
   19TMC2     C  295   4.034   1.180  13.377 -0.2667 -0.0722  0.2363
   19TMC2     O  296   4.103   1.119  13.294  0.9631  0.3492 -0.1229
   19TMC2     H  297   3.959   1.274  13.138 -0.5803  0.7357 -0.5029
   19TMC2    H1  298   3.839   1.162  13.527 -0.1204  0.8497  0.6039
   19TMC2    H2  299   3.563   1.373  13.276  0.0913  1.9103  0.2778
   19TMC2    C7  300   3.586   1.235  13.492 -0.2800  0.8917 -0.0227
   19TMC2    C8  301   3.717   1.390  13.077  0.0363 -0.2733 -0.4086
   19TMC2    O1  302   3.584   1.118  13.532 -0.0747 -0.8751  0.7021
   19TMC2    O2  303   3.598   1.367  13.049  0.3497 -0.0157  0.5963
   19TMC2    O5  304   3.817   1.378  12.979 -0.2868  0.1285  0.2260
   19TMC2    H5  305   3.896   1.425  13.012  0.6724 -0.7464 -0.8206
   20MPD2     C  306   4.297   1.128  13.504 -0.1097 -0.5684  0.2450
   20MPD2    C1  307   4.196   1.202  13.559  0.4371  0.3845  0.2677
   20MPD2    C2  308   4.208   1.244  13.686  0.0901  0.2172 -0.3190
   20MPD2    C3  309   4.326   1.228  13.757  0.6754 -0.4746  0.1844
   20MPD2    C4  310   4.422   1.144  13.704  0.2950 -0.3414  0.1024
   20MPD2    C5  311   4.407   1.097  13.574  0.7135 -0.0846  0.0393
   20MPD2     H  312   4.134   1.305  13.737 -1.5519 -0.0688 -2.3517
   20MPD2    H1  313   4.522   1.136  13.746  1.2906  0.6718 -2.0705
   20MPD2    H2  314   4.292   1.097  13.400 -0.2598  0.6980 -0.1172
   20MPD2    H3  315   4.487   1.043  13.525 -0.5981 -1.5233 -0.5559
   20MPD2     N  316   4.357   1.288  13.885  0.0406 -0.1687 -0.7610
   20MPD2    H5  317   4.436   1.257  13.940 -1.1141  0.9674  1.5459
   20MPD2    N1  318   4.070   1.233  13.498 -0.2933  0.5733 -0.4583
   20MPD2    H7  319   3.995   1.286  13.542  1.0474 -0.0037  2.4978
   21MPD2     C  320   1.887   1.966  13.993 -0.3767  0.4693 -0.4962
   21MPD2    C1  321   1.893   1.860  14.077 -1.0333 -0.2926 -0.3326
   21MPD2    C2  322   1.780   1.827  14.145  0.4634 -0.6758 -0.2920
   21MPD2    C3  323   1.668   1.908  14.141  0.6006 -0.4997  0.2094
   21MPD2    C4  324   1.659   2.020  14.066 -0.5041  0.7976  0.1230
   21MPD2    C5  325   1.764   2.027  13.974  0.1446  0.3995  0.1151
   21MPD2     H  326   1.772   1.746  14.215  1.4645 -0.1475  0.4297
   21MPD2    H1  327   1.575   2.086  14.055 -1.0364 -0.2219 -1.8628
   21MPD2    H2  328   1.973   1.997  13.934  0.1513 -2.2239 -1.1300
   21MPD2    H3  329   1.755   2.112  13.907 -1.1644  0.2553  0.1049
   21MPD2     N  330   1.566   1.864  14.225  0.6414  0.0810  0.9509
   21MPD2    H5  331   1.579   1.777  14.276 -2.2063 -0.7227  0.3173
   21MPD2    N1  332   2.016   1.789  14.082  0.1943  0.3118 -0.3191
   21MPD2    H7  333   2.092   1.835  14.032  1.3828  0.4814  1.6726
   22TCq2    C1  334   1.444   1.929  14.253  0.6662  0.7112  0.0772
   22TCq2    O2  335   1.398   2.039  14.221 -0.6581 -0.1421 -0.1001
   22TCq2    C2  336   1.379   1.864  14.358 -0.6996 -0.1662  0.1682
   22TCq2    C3  337   1.430   1.755  14.417 -0.2064 -0.2332 -0.2082
   22TCq2    C4  338   1.356   1.696  14.517 -0.3617 -0.3263  0.8594
   22TCq2    C5  339   1.235   1.741  14.561  0.3837  0.0815 -0.2714
   22TCq2    C6  340   1.183   1.855  14.502 -0.2025  0.0305  0.0541
   22TCq2    C7  341   1.254   1.910  14.396  0.7293  0.3770 -0.3808
   22TCq2    C8  342   1.085   1.929  14.580  0.9327  0.1958 -0.1178
   22TCq2    O4  343   1.098   1.923  14.702  0.1242 -0.0101  0.5670
   22TCq2    C9  344   1.407   1.567  14.567 -0.4131  0.1469  0.6786
   22TCq2    O5  345   1.498   1.506  14.496 -0.2497 -0.5213 -0.1971
   22TCq2    O6  346   1.393   1.546  14.690  0.0193  0.2796  0.6086
   22TCq2    H2  347   1.523   1.705  14.393 -0.4849 -0.2025 -1.3569
   22TCq2    H3  348   1.202   1.686  14.649  3.0785 -2.1869 -0.6928
   22TCq2    H4  349   1.214   1.995  14.341 -0.7231  0.9748  1.6075
   23MPD2     C  350   2.899   3.120  14.459 -0.0415  0.2969  0.5677
   23MPD2    C1  351   2.839   3.027  14.547  0.1044 -0.2328 -0.2388
   23MPD2    C2  352   2.715   2.984  14.502  1.0403  0.6373 -0.2006
   23MPD2    C3  353   2.662   3.023  14.378  0.6012 -0.4560 -0.7765
   23MPD2    C4  354   2.733   3.097  14.289 -0.4980  0.6159  0.1613
   23MPD2    C5  355   2.850   3.154  14.333 -0.0903  0.1795  0.5233
   23MPD2     H  356   2.653   2.921  14.565 -1.0743 -0.8984 -3.8298
   23MPD2    H1  357   2.693   3.113  14.190  1.5751  2.0260 -0.4485
   23MPD2    H2  358   2.992   3.167  14.487  0.5607 -1.4218  1.4198
   23MPD2    H3  359   2.906   3.225  14.272 -1.6503  1.6011  0.7250
   23MPD2     N  360   2.525   2.999  14.347  0.2353  0.1081 -0.3475
   23MPD2    H5  361   2.500   3.033  14.255 -0.6525 -0.4004 -0.2949
   23MPD2    N1  362   2.899   2.970  14.662  0.1660  0.3080  0.2397
   23MPD2    H7  363   2.848   2.893  14.705  3.2624 -0.5049  2.4805
   24TCq2    C1  364   2.431   2.934  14.422  0.0592  0.7195 -0.3079
   24TCq2    O2  365   2.436   2.890  14.538  0.0402  0.5219  0.0634
   24TCq2    C2  366   2.306   2.921  14.347  0.9535  0.4697 -0.2798
   24TCq2    C3  367   2.301   2.965  14.219 -0.4525  0.1944  0.0371
   24TCq2    C4  368   2.183   2.996  14.171 -0.0852 -0.3759 -0.2273
   24TCq2    C5  369   2.066   2.973  14.242  0.0398 -0.2883 -0.5841
   24TCq2    C6  370   2.078   2.939  14.379 -0.0921  0.0062 -0.2101
   24TCq2    C7  371   2.202   2.913  14.427 -0.1744  0.0719  0.0063
   24TCq2    C8  372   1.955   2.894  14.453 -0.2465  0.4654  0.7387
   24TCq2    O4  373   1.967   2.827  14.552  0.0849  0.4406  0.6771
   24TCq2    C9  374   2.162   3.036  14.037  0.2826  0.2195  0.7050
   24TCq2    O5  375   2.268   3.057  13.970 -0.3916 -0.3642  0.1352
   24TCq2    O6  376   2.063   3.105  14.009 -0.2135 -0.3188  0.5904
   24TCq2    H2  377   2.387   2.972  14.153 -2.5480  0.0051 -2.6709
   24TCq2    H3  378   1.972   2.984  14.190  0.9707 -0.4888 -2.3167
   24TCq2    H4  379   2.204   2.867  14.525 -2.4354 -3.1916 -1.4505
   25TMC2    C1  380   0.995   1.015  11.258  0.2474 -0.7078  0.5010
   25TMC2    C2  381   0.899   1.006  11.157  0.0089 -0.0537  0.9824
   25TMC2    C3  382   0.788   1.084  11.184 -0.0578 -0.3751  0.6867
   25TMC2    C4  383   0.972   1.080  11.368 -0.0471 -0.4077 -0.4030
   25TMC2    C5  384   0.861   1.153  11.394  0.6359 -0.2076  0.8135
   25TMC2    C6  385   0.770   1.166  11.293 -0.1192 -0.5743 -0.3432
   25TMC2     C  386   1.122   0.936  11.244  0.0036  0.0363  0.2816
   25TMC2     O  387   1.208   0.971  11.324 -0.7628  0.1605  0.7648
   25TMC2     H  388   0.913   0.950  11.066  0.2915  1.0600  0.3409
   25TMC2    H1  389   1.052   1.080  11.442  0.7330  0.8581 -1.2359
   25TMC2    H2  390   0.671   1.207  11.310  0.0301 -1.4831  2.7935
   25TMC2    C7  391   0.794   1.144  11.523  0.4765 -0.6709 -0.0847
   25TMC2    C8  392   0.685   1.057  11.091  0.2198 -0.6483 -0.4675
   25TMC2    O1  393   0.677   1.167  11.518 -0.9292 -0.0782  0.2345
   25TMC2    O2  394   0.678   0.947  11.035  0.1411 -0.3398 -0.1609
   25TMC2    O5  395   0.594   1.161  11.083 -0.8902  0.2275 -0.4556
   25TMC2    H5  396   0.623   1.241  11.132 -0.0364  0.7132 -1.7419
   26MPD2     C  397   1.428   0.555  11.090  0.1626  0.1940 -0.6816
   26MPD2    C1  398   1.317   0.563  11.002 -0.6261 -0.6213  0.3594
   26MPD2    C2  399   1.218   0.661  11.020 -0.6423  0.1690  0.0506
   26MPD2    C3  400   1.220   0.746  11.134  0.2420  0.3383 -0.1178
   26MPD2    C4  401   1.329   0.721  11.223 -0.0456  0.2149  0.4834
   26MPD2    C5  402   1.424   0.630  11.203  0.1350 -1.6030  0.4316
   26MPD2     H  403   1.126   0.665  10.963  0.1960  0.3410 -1.3080
   26MPD2    H1  404   1.332   0.770  11.319 -0.6671  1.1152  0.0501
   26MPD2    H2  405   1.507   0.481  11.082 -0.7986 -0.8872 -0.2234
   26MPD2    H3  406   1.512   0.624  11.266  1.4092 -2.7128 -1.4705
   26MPD2     N  407   1.119   0.846  11.150 -0.4325 -0.5855  0.1665
   26MPD2    H5  408   1.044   0.848  11.082 -0.2129 -0.2920 -0.0685
   26MPD2    N1  409   1.311   0.449  10.908  0.2196 -0.3471 -0.3277
   26MPD2    H7  410   1.379   0.374  10.912  0.7560  0.2237  1.4223
   27TMC2    C1  411   0.213   2.602  11.640  0.3383 -0.4565 -0.7217
   27TMC2    C2  412   0.096   2.657  11.604 -0.0576 -0.4964  0.0130
   27TMC2    C3  413   0.102   2.794  11.594 -0.2868  0.0777  0.1062
   27TMC2    C4  414   0.331   2.661  11.643 -0.4771 -0.3629  0.0049
   27TMC2    C5  415   0.326   2.800  11.657  0.1401 -0.3574 -0.6095
   27TMC2    C6  416   0.213   2.870  11.610  0.2960 -0.8070  0.6031
   27TMC2     C  417   0.202   2.501  11.742  0.0755  0.5776 -0.2118
   27TMC2     O  418   0.299   2.428  11.750  0.2054  0.5550 -0.3063
   27TMC2     H  419   0.006   2.595  11.609 -0.1549 -0.3920 -0.4685
   27TMC2    H1  420   0.420   2.609  11.677 -0.0232  0.2747 -0.2131
   27TMC2    H2  421   0.206   2.978  11.614 -0.0631 -0.8038 -0.1429
   27TMC2    C7  422   0.376   2.827  11.795 -0.4048 -0.3621 -0.0763
   27TMC2    C8  423   4.706   2.871  11.574 -0.0719  0.0729 -0.0635
   27TMC2    O1  424   0.438   2.742  11.855  0.5020  0.0626  0.3561
   27TMC2    O2  425   4.686   2.988  11.598 -0.1715  0.0302  0.4354
   27TMC2    O5  426   4.635   2.806  11.475  0.1225  0.0923 -1.0063
   27TMC2    H5  427   4.690   2.733  11.438 -0.4816 -0.8781  0.0154
   28MPD2     C  428   0.058   2.294  12.178  0.0921  0.2036 -0.3972
   28MPD2    C1  429   4.698   2.414  12.170 -0.0637 -0.9661 -0.1394
   28MPD2    C2  430   4.706   2.481  12.051 -0.2362  0.3584 -0.1937
   28MPD2    C3  431   0.077   2.449  11.944  0.0484 -0.5141  0.2020
   28MPD2    C4  432   0.145   2.325  11.959 -0.4697  0.0295  0.2013
   28MPD2    C5  433   0.127   2.252  12.072  0.1770 -0.1197 -0.3709
   28MPD2     H  434   4.639   2.565  12.038 -3.2201 -2.6090 -3.8465
   28MPD2    H1  435   0.208   2.272  11.888  1.0341  0.5906  1.1113
   28MPD2    H2  436   0.033   2.227  12.260 -0.4511  1.5887  0.5716
   28MPD2    H3  437   0.163   2.150  12.070 -1.1967 -0.5553 -1.8906
   28MPD2     N  438   0.094   2.530  11.833  0.1589 -0.1160  0.1220
   28MPD2    H5  439   0.032   2.610  11.821  1.4494  0.7810 -0.6873
   28MPD2    N1  440   4.624   2.452  12.284 -0.1812 -0.3683  0.2688
   28MPD2    H7  441   4.613   2.375  12.349 -0.4140 -1.0834 -0.6113
   29MPD2     C  442   4.564   0.371  14.116 -0.3727 -0.4515 -0.5969
   29MPD2    C1  443   4.694   0.356  14.073 -0.0443  0.5408 -0.0217
   29MPD2    C2  444   0.056   0.467  14.059  0.7237  0.5764 -0.4211
   29MPD2    C3  445   0.007   0.590  14.108 -0.6153  0.6183  0.5359
   29MPD2    C4  446   4.601   0.602  14.162 -0.7301 -0.1813  0.0655
   29MPD2    C5  447   4.519   0.493  14.158 -0.1834  0.3646 -0.5391
   29MPD2     H  448   0.160   0.454  14.032  0.4663 -0.2167 -1.0065
   29MPD2    H1  449   4.579   0.691  14.220  3.3274 -0.7062  2.3993
   29MPD2    H2  450   4.499   0.285  14.130 -1.2350  0.6590  2.1089
   29MPD2    H3  451   4.421   0.506  14.204 -0.0417 -0.0065 -0.1239
   29MPD2     N  452   0.089   0.707  14.115 -0.4181  0.2567 -0.2494
   29MPD2    H5  453   0.041   0.793  14.139 -0.6913  0.2451 -0.7761
   29MPD2    N1  454   0.040   0.228  14.045  0.4510  0.3605 -0.5146
   29MPD2    H7  455   0.141   0.227  14.036  0.4990  1.5687 -0.1119
   30TCq2    C1  456   0.224   0.719  14.069 -0.3742  0.8289  0.5275
   30TCq2    O2  457   0.301   0.626  14.056  0.2901 -0.3972 -0.2049
   30TCq2    C2  458   0.284   0.851  14.073  0.1075  0.8162 -0.6132
   30TCq2    C3  459   0.209   0.968  14.084 -0.3898 -0.1966  0.5022
   30TCq2    C4  460   0.271   1.088  14.103  0.3243 -0.4164  0.0887
   30TCq2    C5  461   0.411   1.097  14.094  0.2264  0.0962  0.5985
   30TCq2    C6  462   0.477   0.985  14.068 -0.0366  0.0276  0.3698
   30TCq2    C7  463   0.417   0.863  14.056  0.4391 -0.0092  0.0360
   30TCq2    C8  464   0.624   0.983  14.075  0.4697 -0.0051  0.2612
   30TCq2    O4  465   0.691   0.914  13.999 -0.5661 -0.8276  0.1611
   30TCq2    C9  466   0.192   1.207  14.134  0.7663 -0.5152 -0.7916
   30TCq2    O5  467   0.252   1.314  14.165 -0.0757 -0.0023 -0.2400
   30TCq2    O6  468   0.068   1.190  14.159  0.1381  0.7028  0.5451
   30TCq2    H2  469   0.102   0.960  14.072 -0.3492 -0.9249  0.6015
   30TCq2    H3  470   0.454   1.195  14.087 -2.0609  1.0239 -0.5205
   30TCq2    H4  471   0.478   0.777  14.032  0.3465  1.3925 -5.3134
   31MPD2     C  472   2.706   3.848  14.422  0.5603  0.4242 -0.2284
   31MPD2    C1  473   2.573   3.843  14.385 -0.2373 -0.2715 -0.6576
   31MPD2    C2  474   2.480   3.762  14.449 -0.1971 -0.3560 -0.3128
   31MPD2    C3  475   2.514   3.710  14.571  0.6142 -0.1708 -0.2487
   31MPD2    C4  476   2.641   3.719  14.607  0.7764  0.0585  0.1081
   31MPD2    C5  477   2.737   3.784  14.539  0.5209  0.1249 -0.1902
   31MPD2     H  478   2.376   3.764  14.418 -0.2948 -0.7933 -0.0047
   31MPD2    H1  479   2.670   3.680  14.703 -0.5629 -1.7857 -0.2518
   31MPD2    H2  480   2.785   3.898  14.368 -0.1698  1.6290 -0.1737
   31MPD2    H3  481   2.830   3.806  14.590  0.5865  0.7217 -0.5655
   31MPD2     N  482   2.423   3.655  14.662  0.0566  0.0526  0.4814
   31MPD2    H5  483   2.469   3.630  14.749  0.5627  0.9388  0.4718
   31MPD2    N1  484   2.540   3.909  14.263 -0.3204  0.3472  0.1229
   31MPD2    H7  485   2.592   3.992  14.237  1.3844 -1.4563 -2.1942
   32TCq2    C1  486   2.289   3.660  14.658 -0.4615 -0.1494  0.9112
   32TCq2    O2  487   2.213   3.711  14.576 -0.8265  0.2409  0.2899
   32TCq2    C2  488   2.225   3.604  14.778 -0.0804  0.5234  0.0847
   32TCq2    C3  489   2.093   3.576  14.764 -0.2531  0.7508 -0.5356
   32TCq2    C4  490   2.016   3.575  14.880  0.7568 -0.2149 -0.0427
   32TCq2    C5  491   2.073   3.586  15.005 -0.0835  0.2794  0.2274
   32TCq2    C6  492   2.207   3.610  15.012 -0.5787  0.2147 -0.6006
   32TCq2    C7  493   2.287   3.619  14.899 -0.1500  0.5995  0.6888
   32TCq2    C8  494   2.276   3.638  15.135 -0.3518  0.5480  0.4965
   32TCq2    O4  495   2.397   3.660  15.137 -0.0928  0.1557  0.3472
   32TCq2    C9  496   1.873   3.569  14.868  0.5493 -0.0948 -0.4408
   32TCq2    O5  497   1.807   3.555  14.973 -0.6302  0.3196  0.3669
   32TCq2    O6  498   1.820   3.587  14.755  0.6622 -0.4621  0.0146
   32TCq2    H2  499   2.037   3.574  14.671  0.9906 -0.3342 -1.2552
   32TCq2    H3  500   2.004   3.579  15.088  1.0136  0.0932  1.1380
   32TCq2    H4  501   2.388   3.660  14.903 -0.4337  1.1016  2.6904
   33MPD2     C  502   2.843   1.283   9.804 -1.0156 -0.2007  0.5375
   33MPD2    C1  503   2.721   1.298   9.740 -0.1397  0.2388  0.3023
   33MPD2    C2  504   2.706   1.369   9.621 -0.3775 -0.0818  0.1037
   33MPD2    C3  505   2.823   1.441   9.583  0.1781  0.1984 -0.5078
   33MPD2    C4  506   2.941   1.440   9.655 -1.1276  0.2721 -0.7713
   33MPD2    C5  507   2.954   1.347   9.752  0.7437 -0.4307  0.1167
   33MPD2     H  508   2.610   1.377   9.570  0.6277  2.8224 -1.3218
   33MPD2    H1  509   3.031   1.486   9.615 -0.3798 -0.2510  0.3007
   33MPD2    H2  510   2.859   1.218   9.889  1.4197 -1.3046 -0.7564
   33MPD2    H3  511   3.052   1.313   9.783  1.2231  1.0336  0.2277
   33MPD2     N  512   2.815   1.536   9.480  0.0582 -0.6299  0.0091
   33MPD2    H5  513   2.896   1.593   9.461 -0.3698  0.3727  1.1744
   33MPD2    N1  514   2.615   1.225   9.793 -0.3401 -0.1609 -1.2071
   33MPD2    H7  515   2.618   1.192   9.889 -1.1826 -0.0890 -1.1557
   34TCq2    C1  516   2.717   1.543   9.388  0.3316 -0.5042  0.6326
   34TCq2    O2  517   2.609   1.488   9.382  0.1638 -0.0496  0.5163
   34TCq2    C2  518   2.742   1.642   9.283 -0.0698 -0.4738 -0.1701
   34TCq2    C3  519   2.680   1.616   9.168  0.0428  0.1487 -0.1998
   34TCq2    C4  520   2.712   1.701   9.066  0.6245  0.0705  0.5029
   34TCq2    C5  521   2.788   1.818   9.086  0.7625  0.8643  0.3348
   34TCq2    C6  522   2.839   1.840   9.204  0.5227  0.5861 -0.1128
   34TCq2    C7  523   2.809   1.759   9.308 -0.9268 -0.3586 -0.2023
   34TCq2    C8  524   2.912   1.957   9.237 -0.6012  0.2181 -0.1072
   34TCq2    O4  525   2.972   1.949   9.340 -0.5515  0.0355 -0.1386
   34TCq2    C9  526   2.642   1.683   8.943  0.6501 -0.3331 -0.4184
   34TCq2    O5  527   2.538   1.608   8.943  0.3061 -0.0362 -0.1253
   34TCq2    O6  528   2.658   1.774   8.856  0.0565  0.1994  0.4018
   34TCq2    H2  529   2.621   1.528   9.148  0.9573 -0.6415  0.5375
   34TCq2    H3  530   2.791   1.887   9.002 -0.9122 -0.9914 -1.2401
   34TCq2    H4  531   2.846   1.780   9.407  0.9745 -1.9648 -0.5623
   35MPD2     C  532   4.527   3.461  11.979 -0.4498 -0.2006 -1.1848
   35MPD2    C1  533   4.487   3.332  12.001 -0.8219  0.4805  0.2235
   35MPD2    C2  534   4.403   3.259  11.917 -0.2628  0.3448  0.1124
   35MPD2    C3  535   4.336   3.323  11.815 -0.6638  0.1015  0.3322
   35MPD2    C4  536   4.381   3.447  11.781  0.9109 -0.3925 -0.6180
   35MPD2    C5  537   4.478   3.508  11.857  0.4660 -0.2953  0.4136
   35MPD2     H  538   4.388   3.153  11.933  0.1077  0.3647  0.5990
   35MPD2    H1  539   4.354   3.497  11.689  0.0351  1.2907  0.5356
   35MPD2    H2  540   4.599   3.506  12.046  1.7053 -2.2042 -2.1446
   35MPD2    H3  541   4.498   3.610  11.827  2.1648  0.0660  2.7747
   35MPD2     N  542   4.244   3.250  11.739  0.0781  0.2487 -0.4056
   35MPD2    H5  543   4.221   3.157  11.775  1.3340 -0.0898 -0.4831
   35MPD2    N1  544   4.565   3.264  12.103 -0.4994  0.7160 -0.6443
   35MPD2    H7  545   4.644   3.312  12.145 -1.9287  0.8634  1.8960
   36TCq2    C1  546   4.159   3.310  11.652 -0.2637 -0.6511 -0.3186
   36TCq2    O2  547   4.158   3.425  11.610 -0.3455  0.3713 -0.7626
   36TCq2    C2  548   4.050   3.227  11.607 -0.4577 -0.3612  0.0479
   36TCq2    C3  549   3.941   3.290  11.554 -0.2009 -0.5342 -0.1257
   36TCq2    C4  550   3.843   3.225  11.489  0.1123  0.8236  0.6912
   36TCq2    C5  551   3.856   3.093  11.474 -0.4200 -0.0702 -0.3870
   36TCq2    C6  552   3.971   3.027  11.520 -0.4445 -0.0486  0.1995
   36TCq2    C7  553   4.072   3.090  11.585 -0.3854 -0.2339  0.1945
   36TCq2    C8  554   3.984   2.879  11.499 -0.1462 -0.1448 -0.8627
   36TCq2    O4  555   3.899   2.820  11.434  0.5753 -0.5343 -0.0332
   36TCq2    C9  556   3.735   3.297  11.443 -0.1813 -0.5960 -0.0636
   36TCq2    O5  557   3.636   3.232  11.406  0.1852  0.0325  0.7319
   36TCq2    O6  558   3.753   3.421  11.448 -0.0617 -0.1377  0.0434
   36TCq2    H2  559   3.932   3.397  11.564 -0.2750 -0.6555  1.1674
   36TCq2    H3  560   3.777   3.031  11.433 -0.4988 -1.7550  2.3075
   36TCq2    H4  561   4.169   3.047  11.607 -0.1811 -0.1429 -0.5036
   37TMC2    C1  562   1.428   3.312  11.701 -0.0154 -0.2799  0.3284
   37TMC2    C2  563   1.429   3.298  11.567 -0.6659 -0.4254  0.0485
   37TMC2    C3  564   1.548   3.296  11.503 -0.4259  0.4841 -0.1223
   37TMC2    C4  565   1.542   3.329  11.773  0.5225 -0.3429  0.3366
   37TMC2    C5  566   1.658   3.330  11.711  0.4097  0.2940  0.7316
   37TMC2    C6  567   1.671   3.297  11.576 -0.0587 -0.8304  0.2246
   37TMC2     C  568   1.303   3.299  11.762  0.3693  1.2259 -0.2027
   37TMC2     O  569   1.204   3.308  11.692 -0.1859  0.2717 -0.3397
   37TMC2     H  570   1.336   3.289  11.511 -1.0760  0.1504  0.6446
   37TMC2    H1  571   1.539   3.360  11.877 -1.1269  0.0008  0.1863
   37TMC2    H2  572   1.767   3.288  11.527 -0.8193 -0.4660 -1.3090
   37TMC2    C7  573   1.772   3.316  11.801  0.5211  0.7097 -0.4401
   37TMC2    C8  574   1.536   3.278  11.359  0.1694  0.1559  0.2127
   37TMC2    O1  575   1.749   3.267  11.911 -0.7852 -0.3414  0.4157
   37TMC2    O2  576   1.454   3.351  11.306 -0.0669 -0.3400 -0.1088
   37TMC2    O5  577   1.660   3.246  11.314  0.0856 -0.3599  0.5039
   37TMC2    H5  578   1.705   3.171  11.359  0.2729  1.9936  4.2464
   38MPD2     C  579   0.993   3.233  12.161  0.4194  0.4578 -0.0961
   38MPD2    C1  580   1.119   3.201  12.202  0.0357  0.3349 -0.2956
   38MPD2    C2  581   1.223   3.205  12.105  0.1606  0.0541  0.0719
   38MPD2    C3  582   1.197   3.255  11.975  0.5586 -0.1818 -0.7557
   38MPD2    C4  583   1.066   3.272  11.933 -0.8325  0.1591 -0.3324
   38MPD2    C5  584   0.963   3.262  12.031  0.4473  0.6346  0.1271
   38MPD2     H  585   1.323   3.180  12.138 -0.1818 -1.0770  0.2352
   38MPD2    H1  586   1.036   3.302  11.834 -1.1172  0.0288 -0.2862
   38MPD2    H2  587   0.904   3.231  12.223 -0.8730 -1.1954 -2.0084
   38MPD2    H3  588   0.861   3.284  12.000  1.3303  2.1624 -1.7121
   38MPD2     N  589   1.308   3.262  11.891  0.7818  0.0006 -0.3531
   38MPD2    H5  590   1.400   3.251  11.931 -0.6386 -1.3375  2.5515
   38MPD2    N1  591   1.155   3.157  12.328 -0.1325 -0.1714 -0.7974
   38MPD2    H7  592   1.255   3.151  12.347 -0.8514  0.3087  2.9701
   39MPD2     C  593   0.064   4.523   1.290  0.5155 -0.0046 -0.1707
   39MPD2    C1  594   4.680   4.598   1.339  0.8023 -0.8638  0.1825
   39MPD2    C2  595   4.545   4.566   1.311  0.0541 -0.2383  0.1996
   39MPD2    C3  596   4.518   4.439   1.242  0.1249 -0.1270 -0.4985
   39MPD2    C4  597   4.625   4.356   1.219  0.5215  0.0402 -0.6273
   39MPD2    C5  598   0.030   4.405   1.227 -0.7205 -0.0596 -0.0946
   39MPD2     H  599   4.474   4.648   1.317  1.1192  0.7235 -0.3951
   39MPD2    H1  600   4.619   4.265   1.160  1.5455 -0.0724 -0.5564
   39MPD2    H2  601   0.162   4.566   1.303  1.0492 -1.3344  0.1679
   39MPD2    H3  602   0.114   4.341   1.201 -1.4651 -0.6596 -1.0206
   39MPD2     N  603   4.381   4.395   1.223 -0.4958 -0.0756 -0.2998
   39MPD2    H5  604   4.364   4.314   1.164 -0.9610 -0.2485  0.0632
   39MPD2    N1  605   4.720   0.004   1.395  0.1473  0.3776  0.3376
   39MPD2    H7  606   0.098   0.021   1.409  0.4402  0.2166 -1.5387
   40TCq2    C1  607   4.637   0.100   1.449 -1.0863  0.2105 -0.3570
   40TCq2    O2  608   4.514   0.099   1.466  0.1476 -0.1921  0.1242
   40TCq2    C2  609   4.710   0.211   1.511  0.1980 -0.1604  0.2201
   40TCq2    C3  610   4.659   0.267   1.625 -0.2308 -0.2727 -0.0772
   40TCq2    C4  611   0.013   0.369   1.688 -0.2043 -0.5820 -0.9204
   40TCq2    C5  612   0.119   0.420   1.631  0.4003  1.1454 -0.0426
   40TCq2    C6  613   0.158   0.369   1.511 -0.0040 -0.1754 -0.4351
   40TCq2    C7  614   0.096   0.266   1.445 -0.7950 -0.2107 -0.5420
   40TCq2    C8  615   0.257   0.439   1.425 -0.4678  0.1268  0.2000
   40TCq2    O4  616   0.308   0.389   1.329  0.2905 -0.0327 -0.3030
   40TCq2    C9  617   4.684   0.430   1.807 -0.0245  0.2287  0.1562
   40TCq2    O5  618   0.043   0.501   1.878  0.0864  0.0988 -0.7224
   40TCq2    O6  619   4.582   0.376   1.860 -0.2970 -0.1919  0.0661
   40TCq2    H2  620   4.564   0.238   1.666  0.6299  1.0352  2.8373
   40TCq2    H3  621   0.164   0.506   1.679 -2.3155  2.5873 -0.0631
   40TCq2    H4  622   0.124   0.217   1.352 -2.0037  1.1058 -1.5975
   41TMC2    C1  623   3.541   2.825  13.415 -0.9416  0.0240  0.5201
   41TMC2    C2  624   3.430   2.820  13.493 -0.1798 -0.5249 -1.2471
   41TMC2    C3  625   3.321   2.862  13.430 -0.0192  0.1302  0.6379
   41TMC2    C4  626   3.556   2.879  13.295 -0.7179 -0.2211 -0.3064
   41TMC2    C5  627   3.442   2.924  13.237  0.0528  0.2639 -0.8650
   41TMC2    C6  628   3.322   2.916  13.305 -0.1058  0.3175 -0.4197
   41TMC2     C  629   3.663   2.774  13.484 -0.0024 -0.1563 -0.0847
   41TMC2     O  630   3.766   2.745  13.422  0.6514  0.0981 -0.3094
   41TMC2     H  631   3.414   2.758  13.581  2.7637 -0.2132 -0.5026
   41TMC2    H1  632   3.656   2.887  13.254 -0.8377  0.4341 -0.4724
   41TMC2    H2  633   3.224   2.928  13.260 -0.3959  0.5913  0.2943
   41TMC2    C7  634   3.419   2.920  13.093  0.1304  0.3303 -0.2995
   41TMC2    C8  635   3.199   2.802  13.468  0.6740  0.1635 -0.4341
   41TMC2    O1  636   3.307   2.956  13.058 -0.7258 -0.4096 -0.2690
   41TMC2    O2  637   3.104   2.872  13.504  0.2552  0.1315  0.4960
   41TMC2    O5  638   3.186   2.712  13.378  0.3674 -0.1626  0.0278
   41TMC2    H5  639   3.269   2.670  13.347  0.5537  1.0585 -1.1111
   42MPD2     C  640   3.827   2.638  13.697  0.1859 -0.6904 -0.1479
   42MPD2    C1  641   3.723   2.728  13.723  0.1884  0.5676  0.3142
   42MPD2    C2  642   3.671   2.741  13.853 -0.0656  0.1188 -0.3208
   42MPD2    C3  643   3.714   2.662  13.953  0.6255 -0.2913  0.2061
   42MPD2    C4  644   3.827   2.588  13.934 -0.2424  0.1543 -1.4971
   42MPD2    C5  645   3.882   2.581  13.805  0.8996 -0.9562  0.4360
   42MPD2     H  646   3.595   2.816  13.871 -0.5679 -0.5882  0.4634
   42MPD2    H1  647   3.867   2.518  14.006  2.0099 -0.2483 -3.1345
   42MPD2    H2  648   3.854   2.616  13.594  0.4372 -0.8261 -0.0541
   42MPD2    H3  649   3.957   2.503  13.794  1.1436 -0.4741 -1.2486
   42MPD2     N  650   3.662   2.665  14.087 -0.0264 -0.3876 -0.2928
   42MPD2    H5  651   3.717   2.614  14.156  0.7209  3.5915  2.0652
   42MPD2    N1  652   3.655   2.796  13.621  1.2278  0.0487  0.2773
   42MPD2    H7  653   3.581   2.858  13.652 -0.0865 -1.8778  0.9432
   43MPD2     C  654   1.608   1.530   0.754 -0.1313 -0.0513  0.2552
   43MPD2    C1  655   1.472   1.540   0.789 -0.5777 -0.3983 -0.4401
   43MPD2    C2  656   1.429   1.636   0.877 -0.4748  0.4011  0.6324
   43MPD2    C3  657   1.519   1.733   0.924 -0.3011 -0.6668 -0.1744
   43MPD2    C4  658   1.646   1.733   0.872 -0.2298 -0.7927 -0.5038
   43MPD2    C5  659   1.693   1.628   0.799  0.4870 -0.4886 -0.4619
   43MPD2     H  660   1.326   1.638   0.911 -0.2050 -1.2461  1.4905
   43MPD2    H1  661   1.712   1.810   0.910  1.1044 -2.7641  1.1754
   43MPD2    H2  662   1.640   1.458   0.679 -1.4985 -0.7963  0.3888
   43MPD2    H3  663   1.796   1.629   0.766  0.3813 -0.7532 -0.7999
   43MPD2     N  664   1.489   1.827   1.026 -0.0115 -0.5241  0.2426
   43MPD2    H5  665   1.561   1.895   1.049 -1.6088  0.9269  0.8877
   43MPD2    N1  666   1.370   1.456   0.757 -0.6672 -0.4306  0.2641
   43MPD2    H7  667   1.277   1.479   0.791 -0.3718 -0.7694  1.3169
   44TCq2    C1  668   1.122   2.191   1.319  0.1123  0.4763 -0.0510
   44TCq2    O2  669   1.133   2.301   1.375 -0.5653 -0.6976 -0.3119
   44TCq2    C2  670   1.243   2.131   1.281 -0.6077  0.1373 -1.0268
   44TCq2    C3  671   1.355   2.175   1.335 -0.1920  0.8067 -0.5462
   44TCq2    C4  672   1.464   2.103   1.319  0.5701  0.4307  0.3669
   44TCq2    C5  673   1.477   1.999   1.231 -0.0148 -0.0632 -0.1027
   44TCq2    C6  674   1.362   1.960   1.169 -0.2405  0.2743  0.4795
   44TCq2    C7  675   1.243   2.021   1.198 -0.4297 -0.0912  0.1156
   44TCq2    C8  676   1.364   1.844   1.087 -0.3540  0.2096 -0.1543
   44TCq2    O4  677   1.259   1.786   1.075 -0.4391 -0.2168  0.0083
   44TCq2    C9  678   1.581   2.153   1.386  0.7907 -0.4727 -0.0558
   44TCq2    O5  679   1.591   2.275   1.417 -0.1671  0.0724  0.5913
   44TCq2    O6  680   1.665   2.066   1.416  0.3803  0.7529 -0.2662
   44TCq2    H2  681   1.361   2.256   1.407 -0.4341 -0.2132  0.6226
   44TCq2    H3  682   1.573   1.948   1.227  0.1436  0.1950  0.3352
   44TCq2    H4  683   1.157   1.991   1.139  0.1725 -0.3284 -0.6476
   45TMC2    C1  684   2.045   3.223   9.760 -0.4094 -0.1094  0.0424
   45TMC2    C2  685   2.176   3.192   9.791  0.3544  0.0596 -0.6483
   45TMC2    C3  686   2.272   3.288   9.786 -0.2381 -0.8762  0.2372
   45TMC2    C4  687   2.012   3.353   9.724 -0.1520 -0.4568  0.1633
   45TMC2    C5  688   2.108   3.444   9.717  0.0544  0.4012 -0.3010
   45TMC2    C6  689   2.244   3.407   9.737 -0.9043 -0.1514  0.6830
   45TMC2     C  690   1.951   3.119   9.774 -0.1691 -0.4012  0.0044
   45TMC2     O  691   1.986   3.017   9.829  0.9922  0.2458  0.7711
   45TMC2     H  692   2.201   3.093   9.829  0.4941  0.7615  1.0655
   45TMC2    H1  693   1.909   3.385   9.711  0.2483 -1.0816 -4.5197
   45TMC2    H2  694   2.325   3.479   9.738 -0.2632 -0.8563 -1.0536
   45TMC2    C7  695   2.085   3.586   9.706 -0.1609 -0.3969 -0.1503
   45TMC2    C8  696   2.405   3.274   9.847 -0.8874  0.1710  0.3781
   45TMC2    O1  697   2.189   3.646   9.679 -0.2371 -0.0683  0.1689
   45TMC2    O2  698   2.480   3.371   9.859  0.8348  0.6730  0.0667
   45TMC2    O5  699   2.436   3.149   9.845  0.2065 -0.4621 -0.4370
   45TMC2    H5  700   2.369   3.081   9.823 -0.6305 -0.0119  0.7414
   46MPD2     C  701   1.729   2.926   9.713 -0.2868 -0.5617  1.0238
   46MPD2    C1  702   1.725   3.068   9.693 -0.1450  0.0622  0.2668
   46MPD2    C2  703   1.612   3.123   9.631  0.2232 -0.0021 -0.0339
   46MPD2    C3  704   1.496   3.052   9.608  0.1536  0.1501 -0.0661
   46MPD2    C4  705   1.496   2.918   9.638 -0.0249  0.2088  0.4436
   46MPD2    C5  706   1.616   2.855   9.676  0.2637 -0.4315 -0.1981
   46MPD2     H  707   1.604   3.229   9.607 -0.5140  0.0438  0.4086
   46MPD2    H1  708   1.409   2.857   9.617 -1.2961  2.4293 -0.8240
   46MPD2    H2  709   1.816   2.868   9.739  1.6516  0.6663 -2.7332
   46MPD2    H3  710   1.614   2.747   9.683  2.3360 -0.4827 -0.4784
   46MPD2     N  711   1.393   3.119   9.550  0.2703 -0.1434  0.1524
   46MPD2    H5  712   1.406   3.217   9.525 -0.5508 -0.3556 -1.1722
   46MPD2    N1  713   1.829   3.150   9.723 -0.0123 -0.7097 -0.4404
   46MPD2    H7  714   1.826   3.245   9.688  0.2482  0.7372  3.4668
   47TMC2    C1  715   3.294   4.298   9.210  0.6050  0.2547  0.4043
   47TMC2    C2  716   3.296   4.224   9.096  0.2749  0.5836 -0.2068
   47TMC2    C3  717   3.170   4.202   9.037 -0.1547 -1.0684 -1.1159
   47TMC2    C4  718   3.183   4.357   9.258  0.5045  0.5093  0.2344
   47TMC2    C5  719   3.062   4.342   9.192 -0.1910  0.2763 -0.0294
   47TMC2    C6  720   3.059   4.268   9.076 -0.2792 -0.0693 -0.5733
   47TMC2     C  721   3.403   4.299   9.307  0.3733  0.7472  0.2155
   47TMC2     O  722   3.386   4.365   9.406 -0.0920  0.9619 -0.2893
   47TMC2     H  723   3.381   4.166   9.063 -0.5549  0.1157 -1.5131
   47TMC2    H1  724   3.181   4.409   9.354 -0.9050  2.7152 -0.9691
   47TMC2    H2  725   2.973   4.236   9.018  0.7967 -0.0029 -2.1972
   47TMC2    C7  726   2.948   4.400   9.259 -0.4381  0.7440 -0.2253
   47TMC2    C8  727   3.155   4.113   8.923 -0.4555 -0.6474 -0.0431
   47TMC2    O1  728   2.966   4.486   9.344  0.5824 -0.4284  0.1613
   47TMC2    O2  729   3.058   4.124   8.851 -0.0079 -0.1794  0.1253
   47TMC2    O5  730   3.200   3.993   8.959  0.4207  0.8416  0.9987
   47TMC2    H5  731   3.256   3.981   9.038  1.4858 -0.9062 -0.0029
   48MPD2     C  732   3.662   4.279   9.449 -0.0657  0.5401  0.9419
   48MPD2    C1  733   3.608   4.173   9.375 -0.8666 -0.2251 -0.3288
   48MPD2    C2  734   3.672   4.045   9.381  0.4749 -0.4417  0.3167
   48MPD2    C3  735   3.783   4.021   9.461 -0.2836  0.3924  0.9794
   48MPD2    C4  736   3.829   4.133   9.530  0.0701  0.2600 -0.0657
   48MPD2    C5  737   3.770   4.253   9.525  0.0398  0.5483  0.4210
   48MPD2     H  738   3.633   3.962   9.324 -0.8647 -0.5503  1.4074
   48MPD2    H1  739   3.899   4.125   9.612  0.6671  1.4012 -0.4652
   48MPD2    H2  740   3.629   4.383   9.451  1.8874  1.2000 -0.6142
   48MPD2    H3  741   3.817   4.331   9.585  1.7195  1.3843 -1.9651
   48MPD2     N  742   3.824   3.891   9.485  0.3275 -0.0813  0.1063
   48MPD2    H5  743   3.768   3.822   9.435 -1.9341  1.5341  0.3816
   48MPD2    N1  744   3.494   4.189   9.294  0.2435 -0.0536 -0.1118
   48MPD2    H7  745   3.477   4.122   9.220 -1.9289  1.8828 -1.3949
   49MPD2     C  746   2.284   1.450   9.865  0.6807 -0.8454  0.0406
   49MPD2    C1  747   2.166   1.406   9.925 -0.4284 -0.5885  0.8908
   49MPD2    C2  748   2.159   1.395  10.061  0.2013  0.9386 -0.1899
   49MPD2    C3  749   2.272   1.430  10.137  0.1588  0.0361 -0.8316
   49MPD2    C4  750   2.396   1.471  10.076 -0.3182 -0.0418  0.3292
   49MPD2    C5  751   2.398   1.475   9.936 -0.2944  0.0025 -0.3119
   49MPD2     H  752   2.065   1.373  10.111  0.2987  0.1685 -0.3536
   49MPD2    H1  753   2.489   1.485  10.129  0.2494 -1.8381 -0.1987
   49MPD2    H2  754   2.292   1.456   9.757 -0.8841 -0.3606 -0.0544
   49MPD2    H3  755   2.493   1.510   9.897 -0.3875  0.5257 -0.0678
   49MPD2     N  756   2.273   1.449  10.278  0.1437 -0.0644  0.2813
   49MPD2    H5  757   2.358   1.489  10.318 -1.5880 -0.4772  4.3680
   49MPD2    N1  758   2.055   1.360   9.851 -0.0887  0.6811  0.1857
   49MPD2    H7  759   1.982   1.318   9.907  1.1927 -1.0979  0.5154
   50TCq2    C1  760   2.051   1.329   9.712  0.5585  0.0115 -0.2222
   50TCq2    O2  761   2.138   1.344   9.628 -0.0148  0.2072 -0.1352
   50TCq2    C2  762   1.925   1.259   9.672 -0.3540  0.7155  0.2021
   50TCq2    C3  763   1.918   1.190   9.552 -0.0135  0.1344  0.1606
   50TCq2    C4  764   1.803   1.127   9.512 -0.1358  1.1844  0.5974
   50TCq2    C5  765   1.686   1.134   9.583  0.7914 -0.6541 -0.0728
   50TCq2    C6  766   1.691   1.217   9.697  0.2800  0.2099  1.4236
   50TCq2    C7  767   1.813   1.273   9.741  0.0244  0.7120 -0.2308
   50TCq2    C8  768   1.590   1.216   9.797  0.4818  0.2031  0.3748
   50TCq2    O4  769   1.612   1.226   9.916  0.0253  0.2602 -0.5622
   50TCq2    C9  770   1.810   1.054   9.389  0.1530  0.6590 -0.0568
   50TCq2    O5  771   1.913   1.062   9.317 -0.6414 -0.3204  0.0832
   50TCq2    O6  772   1.703   1.002   9.351 -0.0486  0.1596  0.2743
   50TCq2    H2  773   2.008   1.179   9.492  0.9871  1.0379  1.4957
   50TCq2    H3  774   1.599   1.080   9.550  0.0907 -0.0230  0.7635
   50TCq2    H4  775   1.805   1.332   9.832  1.5428 -0.4295  0.6329
   51MPD2     C  776   1.267   4.684   0.566  0.5054 -0.1022 -0.5200
   51MPD2    C1  777   1.237   4.570   0.633  0.2929  0.2700 -0.5635
   51MPD2    C2  778   1.260   4.561   0.770 -0.2482  0.1578  0.1625
   51MPD2    C3  779   1.304   4.675   0.844  0.0865 -0.3004  0.4095
   51MPD2    C4  780   1.320   0.071   0.776  0.0985 -0.7332  0.2455
   51MPD2    C5  781   1.305   0.072   0.641  0.2265 -0.0934  0.0023
   51MPD2     H  782   1.230   4.466   0.813  0.3646  0.8479  2.0766
   51MPD2    H1  783   1.346   0.161   0.830 -2.5896  1.1038 -1.5091
   51MPD2    H2  784   1.257   4.709   0.461 -2.9473  0.9671  0.0418
   51MPD2    H3  785   1.322   0.165   0.588  1.1459  1.4781  3.0448
   51MPD2     N  786   1.310   4.689   0.984  0.2720 -0.2621 -0.3819
   51MPD2    H5  787   1.324   0.062   1.021  0.9010  0.2019 -1.7689
   51MPD2    N1  788   1.179   4.463   0.566  0.4015 -0.0200 -0.2796
   51MPD2    H7  789   1.149   4.383   0.622 -0.5635  0.7759  0.3495
   52TCq2    C1  790   1.302   4.584   1.068 -0.5689 -0.4598  1.0176
   52TCq2    O2  791   1.309   4.466   1.044 -0.8441  0.4086 -0.8092
   52TCq2    C2  792   1.324   4.623   1.207 -0.1189 -0.5389  0.9053
   52TCq2    C3  793   1.289   4.522   1.299  0.2207 -0.3019  0.7056
   52TCq2    C4  794   1.326   4.548   1.426 -0.3230 -0.3718  0.2853
   52TCq2    C5  795   1.378   4.669   1.466 -0.0037 -1.1249  0.2401
   52TCq2    C6  796   1.403   0.043   1.372  0.3896 -1.0555 -0.6498
   52TCq2    C7  797   1.377   0.023   1.246 -0.1858 -0.6664  0.7137
   52TCq2    C8  798   1.488   0.159   1.400 -0.1112  0.5782  0.3518
   52TCq2    O4  799   1.562   0.137   1.487  0.4417  0.0870 -0.0999
   52TCq2    C9  800   1.306   4.449   1.529 -0.5097  0.0018  0.1518
   52TCq2    O5  801   1.290   4.500   1.644 -0.0330 -0.0998 -0.4670
   52TCq2    O6  802   1.294   4.331   1.494  0.0971 -0.0565 -0.7456
   52TCq2    H2  803   1.242   4.432   1.262 -1.1039  0.4691  0.5086
   52TCq2    H3  804   1.407   4.692   1.568 -0.0979  0.1077 -0.0032
   52TCq2    H4  805   1.411   0.089   1.167 -0.6187  1.6531  2.4992
   53TMC2    C1  806   2.263   3.310  12.350  0.3161 -0.8585  0.8582
   53TMC2    C2  807   2.356   3.237  12.421  0.5569 -0.2275  0.0939
   53TMC2    C3  808   2.315   3.191  12.547  0.6084  0.6130 -0.4617
   53TMC2    C4  809   2.140   3.337  12.402  0.0335  0.2528 -0.2699
   53TMC2    C5  810   2.112   3.311  12.539  0.3176 -0.1441 -0.0033
   53TMC2    C6  811   2.195   3.223  12.603 -0.2395  0.0415  0.3353
   53TMC2     C  812   2.290   3.336  12.209 -0.5698  0.2823 -0.5208
   53TMC2     O  813   2.400   3.344  12.165  0.3306 -0.3420 -0.2267
   53TMC2     H  814   2.448   3.214  12.370  0.4610 -2.3621  0.8910
   53TMC2    H1  815   2.063   3.389  12.346 -1.2329  1.0317  2.1749
   53TMC2    H2  816   2.168   3.174  12.696 -0.1654 -0.7748 -0.0744
   53TMC2    C7  817   1.981   3.354  12.582  0.3355 -0.2324 -0.3819
   53TMC2    C8  818   2.359   3.055  12.589  0.5137  0.2744  0.3089
   53TMC2    O1  819   1.917   3.431  12.507  0.3536  0.4716 -0.2778
   53TMC2    O2  820   2.273   2.981  12.637  0.5209  0.2988  0.0840
   53TMC2    O5  821   2.432   3.018  12.484 -0.5830  0.3489  0.3357
   53TMC2    H5  822   2.504   3.084  12.478 -0.6382  0.5144  1.4649
   54MPD2     C  823   2.257   3.409  11.926 -0.7882  0.4880 -0.7270
   54MPD2    C1  824   2.154   3.369  12.002  0.6262  0.3941  0.1171
   54MPD2    C2  825   2.026   3.361  11.950 -0.1432 -0.1794  1.2634
   54MPD2    C3  826   1.999   3.400  11.814  0.0582  0.0187  0.4281
   54MPD2    C4  827   2.100   3.477  11.751 -0.3040  0.0742 -0.5862
   54MPD2    C5  828   2.224   3.466  11.803 -0.0634  0.4420  0.0439
   54MPD2     H  829   1.949   3.314  12.009 -1.6506  1.4924  0.6143
   54MPD2    H1  830   2.093   3.516  11.650  1.6812 -1.2302 -1.2208
   54MPD2    H2  831   2.363   3.406  11.945 -0.9122  1.7369  0.1619
   54MPD2    H3  832   2.305   3.507  11.744  1.6882 -1.9683  0.7974
   54MPD2     N  833   1.880   3.371  11.743 -0.5292  0.5542 -0.1390
   54MPD2    H5  834   1.871   3.401  11.646 -2.5313  2.7109  0.6930
   54MPD2    N1  835   2.173   3.330  12.136 -0.1125  0.0631 -0.0255
   54MPD2    H7  836   2.085   3.327  12.185 -0.0055  0.1890  0.1736
   55MPD2     C  837   2.622   0.350   0.987  0.6733 -0.1974 -0.4165
   55MPD2    C1  838   2.529   0.247   0.984  1.1089 -0.3664  0.0711
   55MPD2    C2  839   2.398   0.285   1.028 -0.3085 -0.3770 -0.2924
   55MPD2    C3  840   2.373   0.411   1.070 -0.5973 -0.0225 -0.5512
   55MPD2    C4  841   2.471   0.511   1.083  0.6267  0.1038  0.2113
   55MPD2    C5  842   2.595   0.471   1.044  0.1080  0.2289 -0.4475
   55MPD2     H  843   2.316   0.215   1.025 -0.9813  0.4509 -1.4023
   55MPD2    H1  844   2.451   0.613   1.113 -0.6675 -0.2540  0.5861
   55MPD2    H2  845   2.723   0.331   0.954  1.0627  0.6166  0.2986
   55MPD2    H3  846   2.671   0.546   1.065  0.1560  0.5896 -1.9310
   55MPD2     N  847   2.238   0.442   1.101 -0.0334  0.1703  0.8305
   55MPD2    H5  848   2.170   0.382   1.056  0.9145 -2.0812  2.3677
   55MPD2    N1  849   2.560   0.128   0.918 -0.6536  1.0126  0.6796
   55MPD2    H7  850   2.656   0.117   0.888 -0.0634  1.5206  2.3574
   56TCq2    C1  851   2.475   0.019   0.897  0.0868  0.2596 -0.1677
   56TCq2    O2  852   2.360   4.716   0.936 -0.0335  0.0853  0.2281
   56TCq2    C2  853   2.530   4.643   0.797  0.3387 -0.4180 -0.4879
   56TCq2    C3  854   2.636   4.675   0.717 -0.3194  0.2196 -0.1396
   56TCq2    C4  855   2.708   4.575   0.667 -0.0268  0.0039  0.2777
   56TCq2    C5  856   2.678   4.437   0.687  0.4398 -0.0839  0.7059
   56TCq2    C6  857   2.558   4.407   0.744  0.1849  0.1292  0.2685
   56TCq2    C7  858   2.480   4.512   0.797  0.2790  0.0527  0.3405
   56TCq2    C8  859   2.488   4.275   0.707  0.2116  0.3601 -0.1574
   56TCq2    O4  860   2.555   4.188   0.650 -0.1808  0.3763 -0.2110
   56TCq2    C9  861   2.815   4.613   0.580  0.7894  0.1119 -0.4506
   56TCq2    O5  862   2.859   4.518   0.508  0.6061  0.3242  0.3354
   56TCq2    O6  863   2.873   0.004   0.601  0.1568 -0.3741 -0.4416
   56TCq2    H2  864   2.669   0.056   0.699 -2.5870  1.1293  0.8006
   56TCq2    H3  865   2.729   4.363   0.626 -0.6362 -1.6774  1.7256
   56TCq2    H4  866   2.400   4.491   0.866 -0.7170 -1.0361 -1.1399
   57TMC2    C1  867   1.918   2.321  13.201 -0.3309 -0.3443  0.0923
   57TMC2    C2  868   1.903   2.443  13.261 -0.1386 -0.0120  0.1446
   57TMC2    C3  869   1.986   2.547  13.207 -0.2499 -0.3681  1.3189
   57TMC2    C4  870   1.998   2.300  13.096  0.5059  0.7817 -0.2560
   57TMC2    C5  871   2.067   2.405  13.044  0.4562 -0.2450 -0.6961
   57TMC2    C6  872   2.061   2.528  13.097  0.6081  0.3759 -0.2131
   57TMC2     C  873   1.846   2.202  13.250 -0.1795 -0.1484  0.1052
   57TMC2     O  874   1.870   2.096  13.193  0.0643 -0.1149 -0.3404
   57TMC2     H  875   1.845   2.458  13.351 -0.8513 -1.3219 -0.0863
   57TMC2    H1  876   1.992   2.203  13.048 -0.5157  0.7470 -0.0598
   57TMC2    H2  877   2.105   2.615  13.049 -1.3426  1.5082  0.0516
   57TMC2    C7  878   2.189   2.384  12.966  0.2486  0.4959 -0.1015
   57TMC2    C8  879   1.923   2.671  13.222  0.4537  0.5361  0.2204
   57TMC2    O1  880   2.260   2.484  12.958  0.2941  0.5897  0.2277
   57TMC2    O2  881   1.812   2.688  13.275 -0.3911 -0.4324  0.0628
   57TMC2    O5  882   2.012   2.768  13.204 -0.4155 -0.0012 -0.5067
   57TMC2    H5  883   2.104   2.736  13.189 -0.0123  0.5317  0.8772
   58MPD2     C  884   1.591   1.956  13.607 -0.1041 -0.3461 -0.6820
   58MPD2    C1  885   1.582   2.089  13.632 -0.0340  0.1064  0.1730
   58MPD2    C2  886   1.635   2.181  13.545 -0.7431  0.6713 -0.0777
   58MPD2    C3  887   1.707   2.134  13.438 -0.6796  0.0043  0.1922
   58MPD2    C4  888   1.734   1.997  13.424  0.5026 -0.3790 -1.0446
   58MPD2    C5  889   1.676   1.905  13.511  0.3153 -0.3387 -0.4023
   58MPD2     H  890   1.613   2.286  13.557 -1.1745  0.4738  0.8900
   58MPD2    H1  891   1.783   1.954  13.337 -2.4005 -1.4548 -2.1488
   58MPD2    H2  892   1.536   1.891  13.674 -0.0041  1.2180  0.9384
   58MPD2    H3  893   1.686   1.800  13.489  1.0449 -0.7745  1.9566
   58MPD2     N  894   1.766   2.234  13.353 -0.6045 -0.7221 -0.1881
   58MPD2    H5  895   1.750   2.334  13.362  2.2421 -0.2629 -0.0582
   58MPD2    N1  896   1.506   2.147  13.739  0.5729 -0.5299 -0.2721
   58MPD2    H7  897   1.503   2.248  13.736 -2.2047 -0.6610 -2.3390
   59MPD2     C  898   4.294   2.206  12.835  0.1609  0.2896  1.0477
   59MPD2    C1  899   4.385   2.111  12.809  0.2118 -0.7084  0.1346
   59MPD2    C2  900   4.496   2.093  12.887  0.6781 -0.1146 -0.4690
   59MPD2    C3  901   4.522   2.177  12.991 -0.0625 -0.6463 -0.0615
   59MPD2    C4  902   4.440   2.284  13.017 -0.4501 -0.3317  1.1372
   59MPD2    C5  903   4.322   2.298  12.936  0.4847  0.5874  0.8963
   59MPD2     H  904   4.564   2.019  12.846  1.9513 -0.5294  2.4132
   59MPD2    H1  905   4.469   2.363  13.085  0.6516  0.2595 -0.0174
   59MPD2    H2  906   4.203   2.225  12.779  0.8634  0.3051 -0.0987
   59MPD2    H3  907   4.258   2.383  12.956 -1.6009 -0.9358  0.8331
   59MPD2     N  908   4.633   2.162  13.077  0.2294 -0.4089 -0.1448
   59MPD2    H5  909   4.641   2.219  13.161  0.1307 -0.0602 -0.3731
   59MPD2    N1  910   4.367   2.026  12.692  0.8871 -0.5885 -0.2900
   59MPD2    H7  911   4.448   1.988  12.644  2.2272  0.9637  0.7391
   60TCq2    C1  912   4.256   2.005  12.613  0.3443  0.3058  0.0627
   60TCq2    O2  913   4.140   2.044  12.637 -0.0828 -0.6386 -0.7109
   60TCq2    C2  914   4.297   1.949  12.486 -0.1489  0.9184 -0.4365
   60TCq2    C3  915   4.401   1.867  12.499  0.0521 -0.0429  0.1160
   60TCq2    C4  916   4.479   1.848  12.388  0.1021  0.0985 -0.2927
   60TCq2    C5  917   4.467   1.922  12.276  0.3653 -0.1262  0.1656
   60TCq2    C6  918   4.369   2.020  12.283 -0.2936  0.1013  0.1485
   60TCq2    C7  919   4.276   2.031  12.379  0.0537  0.4293  0.2680
   60TCq2    C8  920   4.361   2.108  12.174 -0.4566 -0.2021  0.9209
   60TCq2    O4  921   4.405   2.062  12.069 -0.0500 -0.1064  0.0840
   60TCq2    C9  922   4.594   1.766  12.397  0.2101 -0.7080  0.2536
   60TCq2    O5  923   4.652   1.728  12.292 -0.1614  0.0664  0.2972
   60TCq2    O6  924   4.636   1.744  12.514  0.8119 -0.1653  0.3303
   60TCq2    H2  925   4.421   1.809  12.588 -1.7092 -1.0862 -0.1544
   60TCq2    H3  926   4.546   1.920  12.203 -0.9103  0.1976 -1.2285
   60TCq2    H4  927   4.204   2.111  12.392 -2.2449 -1.9635  2.2675
   61MPD2     C  928   3.946   2.902  14.140 -0.7705  0.9059  0.8021
   61MPD2    C1  929   4.012   2.953  14.250 -0.2884  0.0460  0.9751
   61MPD2    C2  930   4.061   3.078  14.254 -0.1887  0.2364 -0.6412
   61MPD2    C3  931   4.035   3.169  14.157  1.1323 -0.0467 -0.3383
   61MPD2    C4  932   3.964   3.124  14.044  0.2747 -0.2437 -1.0504
   61MPD2    C5  933   3.944   2.989  14.030  0.5904  0.0482 -0.8157
   61MPD2     H  934   4.090   3.124  14.347 -0.6296 -2.5343  0.8532
   61MPD2    H1  935   3.945   3.187  13.958  1.0361 -0.5358 -1.4337
   61MPD2    H2  936   3.902   2.803  14.129  0.2137  0.4049  1.3630
   61MPD2    H3  937   3.909   2.948  13.936  2.2645 -1.2257 -0.8751
   61MPD2     N  938   4.057   3.315  14.167  0.5301  0.0309 -0.8459
   61MPD2    H5  939   4.020   3.376  14.095  1.9244  1.6018 -0.2613
   61MPD2    N1  940   4.008   2.884  14.371 -0.0838  0.2966  0.2585
   61MPD2    H7  941   4.036   2.935  14.454  0.1922  1.1975 -0.3779
   62TCq2    C1  942   3.934   2.768  14.394 -0.1032  0.1603 -0.1784
   62TCq2    O2  943   3.886   2.686  14.315  0.0246 -0.1050 -0.4163
   62TCq2    C2  944   3.882   2.762  14.532  0.6402 -0.2321 -0.1622
   62TCq2    C3  945   3.875   2.642  14.597 -0.0514  0.6887 -0.2834
   62TCq2    C4  946   3.834   2.640  14.726 -0.3386  0.0836 -0.9268
   62TCq2    C5  947   3.790   2.749  14.791  0.3843 -0.4881  0.3751
   62TCq2    C6  948   3.795   2.869  14.724  0.1771 -0.6442 -0.2269
   62TCq2    C7  949   3.834   2.873  14.592  0.1843  0.0077  0.3398
   62TCq2    C8  950   3.784   2.995  14.792  0.2509  0.3766 -0.3850
   62TCq2    O4  951   3.844   3.088  14.734 -0.0584 -0.2092 -0.3871
   62TCq2    C9  952   3.832   2.509  14.788 -0.2915  0.0664 -0.5954
   62TCq2    O5  953   3.917   2.425  14.752 -0.3354 -0.2087  0.2040
   62TCq2    O6  954   3.759   2.504  14.888  0.5146  0.4699 -0.3157
   62TCq2    H2  955   3.907   2.554  14.542  0.4668  1.2535 -0.8824
   62TCq2    H3  956   3.764   2.747  14.897  4.0196 -1.6526  1.2478
   62TCq2    H4  957   3.822   2.969  14.543  2.6501  0.1378  0.0221
   63TMC2    C1  958   3.803   3.895  10.959  0.0324  0.2147 -0.3287
   63TMC2    C2  959   3.927   3.902  11.017 -0.1210  0.2056  0.3665
   63TMC2    C3  960   4.026   3.977  10.950  0.1454  0.1773  0.3590
   63TMC2    C4  961   3.778   3.965  10.847  0.4355 -0.0083  0.2327
   63TMC2    C5  962   3.869   4.040  10.790 -0.5343 -0.0024  0.0947
   63TMC2    C6  963   3.996   4.050  10.839 -0.3038  0.3459 -0.4064
   63TMC2     C  964   3.699   3.811  11.018  0.0095 -0.0340 -0.2763
   63TMC2     O  965   3.705   3.792  11.141 -0.2312 -0.0648  0.1688
   63TMC2     H  966   3.945   3.837  11.102  0.5311 -0.3538 -0.1943
   63TMC2    H1  967   3.683   3.955  10.795 -0.7612  2.1785  1.9630
   63TMC2    H2  968   4.071   4.117  10.798 -0.4746 -0.3223 -1.7887
   63TMC2    C7  969   3.824   4.116  10.673 -0.4627 -0.6168 -0.0331
   63TMC2    C8  970   4.130   4.039  11.033  0.4635  0.0279  0.2254
   63TMC2    O1  971   3.705   4.135  10.662  0.0868  0.1465 -0.1347
   63TMC2    O2  972   4.166   4.154  11.010  0.5455 -0.5958  0.0505
   63TMC2    O5  973   4.210   3.937  11.080  0.1197 -0.0245 -0.1917
   63TMC2    H5  974   4.183   3.850  11.045 -0.5184 -0.8716  2.4408
   64MPD2     C  975   3.270   3.528  10.989  0.4303 -0.4176  0.8093
   64MPD2    C1  976   3.307   3.557  10.861 -0.2493 -0.1554  0.0572
   64MPD2    C2  977   3.404   3.659  10.852 -0.0028 -0.4892  0.0561
   64MPD2    C3  978   3.477   3.701  10.959 -0.6376  0.0051  0.3114
   64MPD2    C4  979   3.434   3.670  11.084 -1.3737  0.5359  0.5647
   64MPD2    C5  980   3.326   3.587  11.097 -0.9602 -0.2826 -0.2870
   64MPD2     H  981   3.440   3.694  10.756  1.1811  2.9972  1.7384
   64MPD2    H1  982   3.485   3.701  11.175 -1.3775  0.3158  0.6418
   64MPD2    H2  983   3.194   3.453  11.010 -0.9195  0.9306  0.7175
   64MPD2    H3  984   3.292   3.562  11.196  1.5853  0.0922  0.6672
   64MPD2     N  985   3.599   3.771  10.933 -0.0342 -0.2315  0.0318
   64MPD2    H5  986   3.620   3.785  10.834  2.0235 -0.8685  0.3729
   64MPD2    N1  987   3.265   3.492  10.747 -0.2032 -0.0027  0.7138
   64MPD2    H7  988   3.312   3.519  10.661 -1.8038  1.3136  0.2401
   65MPD2     C  989   4.447   2.863  15.667  0.3829 -0.4872  0.0659
   65MPD2    C1  990   4.462   2.869  15.528 -0.1670  1.0172  0.2466
   65MPD2    C2  991   4.407   2.767  15.452  0.2434  0.2935  0.7307
   65MPD2    C3  992   4.347   2.661  15.503  0.0339 -1.1817 -0.4026
   65MPD2    C4  993   4.334   2.651  15.638 -0.0561  0.2472  0.4819
   65MPD2    C5  994   4.386   2.749  15.718 -0.2538 -0.9391 -0.3249
   65MPD2     H  995   4.444   2.763  15.350  2.5966 -0.6132  1.6025
   65MPD2    H1  996   4.308   2.556  15.683  0.1434 -0.3647 -0.6946
   65MPD2    H2  997   4.483   2.936  15.737 -2.7311  0.2404  0.8925
   65MPD2    H3  998   4.383   2.734  15.825 -2.0910 -1.8965 -0.5120
   65MPD2     N  999   4.291   2.556  15.428 -0.3389 -0.5329 -0.4847
   65MPD2    H5 1000   4.250   2.476  15.475 -0.8162  0.7811  1.3355
   65MPD2    N1 1001   4.535   2.976  15.466  0.2394 -0.7003 -0.0256
   65MPD2    H7 1002   4.545   2.966  15.366  1.2298  1.2861 -0.1296
   66TCq2    C1 1003   4.574   3.094  15.521  0.4269  0.6570  0.9458
   66TCq2    O2 1004   4.538   3.143  15.628  0.1677 -0.3654  0.2524
   66TCq2    C2 1005   4.659   3.181  15.441  0.3213 -1.0001  0.0578
   66TCq2    C3 1006   4.708   3.134  15.322  0.4900  0.6963  0.8619
   66TCq2    C4 1007   0.010   3.230  15.224  0.1331  0.3985 -0.3345
   66TCq2    C5 1008   4.716   3.360  15.233  0.1051  0.6682 -0.0056
   66TCq2    C6 1009   4.673   3.404  15.361 -0.1506 -0.1623  0.5727
   66TCq2    C7 1010   4.646   3.314  15.462  0.2499 -1.0552  0.3844
   66TCq2    C8 1011   4.608   3.534  15.370 -0.4071 -0.4964  0.0589
   66TCq2    O4 1012   4.585   3.586  15.259 -0.2615 -0.2001 -1.2338
   66TCq2    C9 1013   0.058   3.187  15.099 -0.5222 -0.3252 -0.4521
   66TCq2    O5 1014   0.046   3.061  15.082 -0.0360  0.3410 -0.2696
   66TCq2    O6 1015   0.069   3.279  15.009  0.2443 -0.0043 -0.1039
   66TCq2    H2 1016   0.012   3.029  15.313  0.9537  0.8636  0.2114
   66TCq2    H3 1017   0.040   3.435  15.169  0.2570 -0.1540 -0.8683
   66TCq2    H4 1018   4.598   3.349  15.553 -1.1404  1.3877 -1.2776
   67MPD2     C 1019   4.580   1.860  14.058  0.0745  0.5822 -0.1391
   67MPD2    C1 1020   4.514   1.989  14.054  0.1969  0.0215 -0.2075
   67MPD2    C2 1021   4.396   1.990  13.976  0.6970  0.0011  0.0411
   67MPD2    C3 1022   4.365   1.882  13.893 -0.4004 -0.1474  1.0936
   67MPD2    C4 1023   4.436   1.762  13.897  0.1141  0.0489  0.2136
   67MPD2    C5 1024   4.536   1.750  13.988  0.2994 -1.0076 -0.2249
   67MPD2     H 1025   4.349   2.088  13.970  1.2336  0.2973  0.7052
   67MPD2    H1 1026   4.415   1.678  13.832 -2.7829  0.6814  0.3331
   67MPD2    H2 1027   4.667   1.833  14.117  1.0980 -0.1001 -1.9644
   67MPD2    H3 1028   4.583   1.653  13.994  0.4250 -1.0372 -1.6560
   67MPD2     N 1029   4.267   1.890  13.792  0.1042 -0.3486 -0.1084
   67MPD2    H5 1030   4.268   1.809  13.732 -2.1750 -1.8250  1.8598
   67MPD2    N1 1031   4.548   2.106  14.123 -1.4449 -0.0294 -0.0135
   67MPD2    H7 1032   4.472   2.173  14.138 -2.0868  0.0018 -3.3439
   68TCq2    C1 1033   4.670   2.109  14.191 -0.5026 -0.2803  0.2165
   68TCq2    O2 1034   0.043   2.030  14.190 -0.3654 -0.3125 -0.2646
   68TCq2    C2 1035   4.687   2.218  14.275 -0.6509 -0.2639 -0.1712
   68TCq2    C3 1036   4.580   2.302  14.304 -0.6981 -0.3738 -0.1499
   68TCq2    C4 1037   4.585   2.361  14.429 -1.1814 -0.5995  0.1552
   68TCq2    C5 1038   4.688   2.347  14.520 -0.3696 -0.1509  1.3208
   68TCq2    C6 1039   0.076   2.276  14.480 -0.0239 -0.1318  0.3737
   68TCq2    C7 1040   0.076   2.201  14.361 -0.1629 -0.6188  0.2828
   68TCq2    C8 1041   0.173   2.244  14.587  0.2269 -0.3047  0.2079
   68TCq2    O4 1042   0.288   2.224  14.549  0.1132  0.0056 -0.1499
   68TCq2    C9 1043   4.477   2.452  14.462  0.1120 -0.0825 -0.1024
   68TCq2    O5 1044   4.414   2.511  14.365  0.0927  0.4727  0.0085
   68TCq2    O6 1045   4.464   2.480  14.580  0.4815  0.0363 -0.7671
   68TCq2    H2 1046   4.500   2.327  14.236 -0.0085  2.3049  0.0287
   68TCq2    H3 1047   4.684   2.395  14.617 -0.8431  1.1053  0.6789
   68TCq2    H4 1048   0.168   2.161  14.320 -0.5872 -0.9493 -0.3452
   69TMC2    C1 1049   1.133   3.940  12.301 -0.6767  0.1567 -0.0249
   69TMC2    C2 1050   1.006   3.892  12.315  0.2016 -0.0714 -0.1911
   69TMC2    C3 1051   0.918   3.895  12.217  0.4076 -0.2774  0.6600
   69TMC2    C4 1052   1.186   3.990  12.187 -0.5807  0.1501 -0.4291
   69TMC2    C5 1053   1.096   3.980  12.082 -0.2928  0.5932 -0.5656
   69TMC2    C6 1054   0.962   3.942  12.094 -0.0326  0.3071  0.0708
   69TMC2     C 1055   1.224   3.904  12.410  0.1922 -0.4867 -0.4533
   69TMC2     O 1056   1.173   3.915  12.518 -0.2362 -0.0499  0.0109
   69TMC2     H 1057   0.974   3.846  12.408  0.1994 -2.4507 -1.3499
   69TMC2    H1 1058   1.281   4.042  12.181 -1.1129  1.3719  1.5585
   69TMC2    H2 1059   0.899   3.916  12.010 -1.0202  0.6854  0.6941
   69TMC2    C7 1060   1.136   4.000  11.949 -0.0578 -0.4546  0.1025
   69TMC2    C8 1061   0.811   3.801  12.224  0.2754 -0.1014  0.4225
   69TMC2    O1 1062   1.040   3.992  11.876 -0.5055 -0.4755 -0.1335
   69TMC2    O2 1063   0.816   3.694  12.282 -0.0549  0.0544  0.1462
   69TMC2    O5 1064   0.701   3.856  12.170  0.4418  0.0478  0.1317
   69TMC2    H5 1065   0.709   3.951  12.147 -0.3125 -0.2304 -1.2753
   70MPD2     C 1066   1.578   3.797  12.412  0.1074  0.2247  0.6161
   70MPD2    C1 1067   1.458   3.828  12.466  0.1926 -0.4010  0.4904
   70MPD2    C2 1068   1.437   3.797  12.596 -0.1823 -0.5788  0.6617
   70MPD2    C3 1069   1.537   3.741  12.668 -0.0349  0.3856 -0.0383
   70MPD2    C4 1070   1.659   3.700  12.619  0.1090  0.1484  0.1170
   70MPD2    C5 1071   1.675   3.729  12.487 -0.1051  0.9649  0.0782
   70MPD2     H 1072   1.339   3.809  12.641 -0.4920  0.4691 -0.2851
   70MPD2    H1 1073   1.739   3.654  12.676 -0.2619  1.2751  1.5499
   70MPD2    H2 1074   1.604   3.816  12.309  1.3533 -1.8783  0.5403
   70MPD2    H3 1075   1.774   3.721  12.443 -0.8432 -0.6457 -1.2713
   70MPD2     N 1076   1.528   3.722  12.801  0.2609 -0.4236 -0.1101
   70MPD2    H5 1077   1.607   3.677  12.846  0.5461  0.4732  0.3043
   70MPD2    N1 1078   1.359   3.875  12.378 -0.0798 -0.2242  0.0241
   70MPD2    H7 1079   1.387   3.870  12.280  1.7298 -0.8395  0.5540
   71TMC2    C1 1080   4.100   3.687   1.587 -0.4700 -0.1948  0.1031
   71TMC2    C2 1081   4.204   3.642   1.653 -0.1654  0.4218 -0.2241
   71TMC2    C3 1082   4.189   3.586   1.777 -0.2643  0.1180  0.0429
   71TMC2    C4 1083   3.977   3.651   1.631 -0.5609  0.6654  0.4332
   71TMC2    C5 1084   3.967   3.578   1.746  0.7896 -0.4316 -0.4065
   71TMC2    C6 1085   4.067   3.549   1.830  0.2994 -0.3600 -0.5503
   71TMC2     C 1086   4.118   3.723   1.447  0.3407 -0.3810 -0.2352
   71TMC2     O 1087   4.216   3.793   1.417  0.8918 -0.0939  0.6313
   71TMC2     H 1088   4.298   3.658   1.603 -0.0002 -0.2974 -0.1428
   71TMC2    H1 1089   3.892   3.694   1.579 -0.0422  1.2897  0.0927
   71TMC2    H2 1090   4.051   3.482   1.913  0.4158  0.2837 -0.0092
   71TMC2    C7 1091   3.838   3.553   1.801 -0.5165  0.7558 -0.7878
   71TMC2    C8 1092   4.316   3.544   1.841  1.4668  0.0885  0.3275
   71TMC2    O1 1093   3.823   3.544   1.927 -0.1148  0.7896 -0.1163
   71TMC2    O2 1094   4.418   3.526   1.778 -0.0896  0.5943  0.3620
   71TMC2    O5 1095   4.289   3.485   1.956 -0.1481  0.3876  0.7902
   71TMC2    H5 1096   4.222   3.540   2.004 -2.6180 -0.5700 -1.5439
   72MPD2     C 1097   4.016   3.737   0.947  0.2166 -0.3702  0.3995
   72MPD2    C1 1098   4.129   3.777   1.016 -0.0343  0.3093 -0.1087
   72MPD2    C2 1099   4.127   3.765   1.153 -0.3201 -0.4159  0.2674
   72MPD2    C3 1100   4.025   3.706   1.220  0.4949  0.1533  0.1360
   72MPD2    C4 1101   3.921   3.661   1.149 -0.5072  0.3117 -0.3881
   72MPD2    C5 1102   3.912   3.676   1.009 -0.5989 -0.6032  0.5443
   72MPD2     H 1103   4.217   3.803   1.200 -1.2320 -1.7060  3.0281
   72MPD2    H1 1104   3.842   3.602   1.194 -1.3992  3.1026  1.7178
   72MPD2    H2 1105   4.010   3.742   0.839 -0.0766  2.6025  0.5630
   72MPD2    H3 1106   3.823   3.645   0.955  0.9755 -1.4783 -1.5452
   72MPD2     N 1107   4.022   3.675   1.365  0.1653  0.4351  0.4165
   72MPD2    H5 1108   3.943   3.618   1.395  0.4142  0.4599  1.1176
   72MPD2    N1 1109   4.242   3.840   0.952  0.8328 -0.3217 -0.6809
   72MPD2    H7 1110   4.315   3.882   1.009  0.3937  1.5220 -1.4783
   73TMC2    C1 1111   3.221   0.575  12.665 -0.4360  0.5075  0.2222
   73TMC2    C2 1112   3.116   0.566  12.744  0.2809 -0.2470 -0.6058
   73TMC2    C3 1113   3.092   0.450  12.809  0.2140  0.4251  1.3539
   73TMC2    C4 1114   3.309   0.474  12.654  0.0634 -0.5529 -0.2532
   73TMC2    C5 1115   3.302   0.371  12.732  0.3899 -0.5112 -0.0113
   73TMC2    C6 1116   3.189   0.349  12.811  0.0151  0.2073  0.0867
   73TMC2     C 1117   3.279   0.706  12.655  0.7736  0.0786  0.2128
   73TMC2     O 1118   3.401   0.698  12.649 -0.3089  0.0588  0.3894
   73TMC2     H 1119   3.052   0.652  12.761  0.9236 -0.3948  2.4875
   73TMC2    H1 1120   3.389   0.467  12.581 -1.0581  0.7166 -1.6095
   73TMC2    H2 1121   3.183   0.258  12.871  0.8076  0.6973  0.9148
   73TMC2    C7 1122   3.429   0.345  12.808 -0.2631  0.7665  0.1223
   73TMC2    C8 1123   2.980   0.449  12.901 -0.1720  0.3363 -0.0787
   73TMC2    O1 1124   3.445   0.224  12.838  0.7433  0.7112  0.5913
   73TMC2    O2 1125   2.881   0.517  12.876 -0.1058  0.0826  0.8411
   73TMC2    O5 1126   2.987   0.341  12.986 -0.5894 -0.4790 -0.1468
   73TMC2    H5 1127   3.072   0.291  12.987  0.1187  0.7065  0.0546
   74MPD2     C 1128   3.356   1.206  12.721  0.2690  0.5013 -0.7471
   74MPD2    C1 1129   3.434   1.094  12.754 -0.1214 -0.1072 -0.0883
   74MPD2    C2 1130   3.387   0.967  12.734  0.2109 -0.0890 -0.6221
   74MPD2    C3 1131   3.259   0.948  12.692 -0.3511 -0.6676 -0.6128
   74MPD2    C4 1132   3.179   1.055  12.662  0.0309 -0.3194 -1.0573
   74MPD2    C5 1133   3.225   1.188  12.670 -0.1013 -0.8352  0.0512
   74MPD2     H 1134   3.455   0.885  12.754  1.7604  1.1118 -0.9476
   74MPD2    H1 1135   3.086   1.036  12.609 -0.6480  3.0704 -1.0345
   74MPD2    H2 1136   3.395   1.304  12.745  3.4927 -0.9290 -0.2188
   74MPD2    H3 1137   3.160   1.269  12.638  0.5728  0.0648  1.0008
   74MPD2     N 1138   3.205   0.815  12.674 -0.9865  0.2322 -0.1128
   74MPD2    H5 1139   3.105   0.808  12.661 -1.1772  0.5870  1.1990
   74MPD2    N1 1140   3.562   1.127  12.806  0.0234 -0.0436  0.0352
   74MPD2    H7 1141   3.600   1.220  12.791 -0.6380  0.7077  3.1528
   75TCq2    C1 1142   4.174   1.989  13.769  0.2154  0.7516  0.1024
   75TCq2    O2 1143   4.146   2.082  13.845 -0.8306 -0.7197  0.5558
   75TCq2    C2 1144   4.107   1.974  13.635 -0.0323  0.3105  0.2305
   75TCq2    C3 1145   4.088   1.847  13.587  0.5804  0.3015 -0.2729
   75TCq2    C4 1146   4.022   1.821  13.467  0.6195 -0.0390  0.1407
   75TCq2    C5 1147   3.991   1.925  13.390 -0.0179 -0.0406  0.1931
   75TCq2    C6 1148   4.003   2.053  13.448 -0.8044  0.3043  0.6022
   75TCq2    C7 1149   4.058   2.081  13.568  0.7715  0.6317  0.3321
   75TCq2    C8 1150   3.927   2.159  13.387 -0.0553 -0.3191 -0.2488
   75TCq2    O4 1151   3.899   2.145  13.268 -0.0368  0.2337  0.0080
   75TCq2    C9 1152   4.015   1.681  13.429  0.2097  0.0145 -0.0439
   75TCq2    O5 1153   4.066   1.594  13.509 -0.1581 -0.4088  0.1115
   75TCq2    O6 1154   3.957   1.657  13.321  0.1230  0.1298  0.5051
   75TCq2    H2 1155   4.126   1.764  13.645 -0.3209 -1.5305 -2.3095
   75TCq2    H3 1156   3.948   1.910  13.292  1.1618 -1.6512 -0.0600
   75TCq2    H4 1157   4.095   2.181  13.591 -1.1821  1.6544 -1.0349
   76MPD2     C 1158   2.395   3.692  12.087  0.3518  0.0568  0.0835
   76MPD2    C1 1159   2.415   3.765  11.970  0.0169 -0.1311 -0.5247
   76MPD2    C2 1160   2.536   3.811  11.931  0.6305  0.3174 -0.0302
   76MPD2    C3 1161   2.647   3.794  12.010  0.4242  0.1390  0.0727
   76MPD2    C4 1162   2.625   3.720  12.124 -0.2816  0.3138 -0.1514
   76MPD2    C5 1163   2.503   3.676  12.165 -0.1358  0.2509  0.3196
   76MPD2     H 1164   2.542   3.851  11.830  2.8475 -0.2641 -0.1355
   76MPD2    H1 1165   2.707   3.692  12.190 -1.0066 -0.1546  0.5482
   76MPD2    H2 1166   2.293   3.671  12.115  0.2781 -1.5798 -1.4539
   76MPD2    H3 1167   2.499   3.631  12.263  1.0934  0.8878  0.6546
   76MPD2     N 1168   2.778   3.836  11.966 -1.2613  0.4312 -0.7164
   76MPD2    H5 1169   2.858   3.796  12.012 -2.6384  0.0698  1.3593
   76MPD2    N1 1170   2.312   3.811  11.879  0.2137  0.5946 -0.3955
   76MPD2    H7 1171   2.343   3.846  11.789  1.5243  0.6736  0.0804
   77TCq2    C1 1172   2.794   3.929  11.856  0.0745  0.0907 -0.0607
   77TCq2    O2 1173   2.714   4.016  11.824  0.2169  0.4144  0.0599
   77TCq2    C2 1174   2.933   3.943  11.822  0.3364  0.0437  0.6505
   77TCq2    C3 1175   2.974   4.068  11.791  0.0371  0.5697  0.5074
   77TCq2    C4 1176   3.108   4.095  11.781 -0.4390  0.1851 -0.4285
   77TCq2    C5 1177   3.196   3.992  11.791 -0.1195 -0.5353 -0.0093
   77TCq2    C6 1178   3.156   3.869  11.813 -0.3162  0.0144  0.1782
   77TCq2    C7 1179   3.023   3.841  11.839 -0.1867  0.2304  0.2731
   77TCq2    C8 1180   3.255   3.763  11.850 -0.3684  0.3676 -0.1134
   77TCq2    O4 1181   3.370   3.777  11.810  0.1622  0.5043 -0.2702
   77TCq2    C9 1182   3.162   4.219  11.738 -0.5339  0.3631 -0.7697
   77TCq2    O5 1183   3.089   4.288  11.661 -0.0989  0.2358  0.1988
   77TCq2    O6 1184   3.292   4.228  11.734  0.2058  0.3016  0.0699
   77TCq2    H2 1185   2.911   4.154  11.771 -1.8664 -0.3991  2.3694
   77TCq2    H3 1186   3.301   4.019  11.787  0.1889 -1.6398  0.8599
   77TCq2    H4 1187   2.986   3.740  11.857  2.2711 -0.3410  1.9726
   78MPD1     C 1188   2.896   3.183   1.186  0.1845  0.2823 -0.6289
   78MPD1    C1 1189   2.998   3.271   1.146  0.2294 -0.8535  0.3518
   78MPD1    C2 1190   3.114   3.279   1.229 -0.1879 -0.3717 -0.1761
   78MPD1    C3 1191   3.116   3.224   1.354  0.1545  0.2908  0.2442
   78MPD1    C4 1192   3.003   3.156   1.402 -0.3421 -0.5440 -0.6884
   78MPD1    C5 1193   2.894   3.145   1.315  0.5367  0.2494 -1.1972
   78MPD1     H 1194   3.199   3.318   1.172 -0.1463  1.0872  0.8952
   78MPD1    H1 1195   2.992   3.118   1.503  1.0591 -0.2637 -0.4174
   78MPD1    H2 1196   2.817   3.148   1.120  0.2010  1.1948 -1.1338
   78MPD1    H3 1197   2.808   3.084   1.341  0.8645  0.9818  1.5516
   78MPD1     N 1198   3.221   3.236   1.445  0.1088 -0.5779 -0.0454
   78MPD1    H5 1199   3.203   3.209   1.542  1.2335 -2.1658 -0.2825
   78MPD1    N1 1200   3.015   3.309   1.017  0.0915  0.3268  0.3553
   78MPD1    H6 1201   2.930   3.341   0.971 -1.2117 -1.6617  1.3602
   78MPD1    H7 1202   3.084   3.380   0.994 -1.2029  1.2432 -0.7313
   79TCq2    C1 1203   3.346   3.278   1.417  0.3930 -0.0433  0.1484
   79TCq2    O2 1204   3.390   3.317   1.312 -0.5666 -0.3235 -0.0717
   79TCq2    C2 1205   3.424   3.280   1.540  0.7920  0.3286 -0.2447
   79TCq2    C3 1206   3.366   3.252   1.665  0.0097 -0.2976  0.0891
   79TCq2    C4 1207   3.437   3.196   1.765  0.0938  0.3237  1.2204
   79TCq2    C5 1208   3.575   3.187   1.749  0.0389 -0.6389 -0.0608
   79TCq2    C6 1209   3.633   3.208   1.625 -0.0801 -0.8521 -0.0799
   79TCq2    C7 1210   3.557   3.250   1.521 -0.3558 -0.0121 -0.1742
   79TCq2    C8 1211   3.779   3.230   1.615  0.0168  0.4885  0.6039
   79TCq2    O4 1212   3.813   3.291   1.513  0.0871 -0.3925  0.1318
   79TCq2    C9 1213   3.377   3.178   1.892 -0.2102 -0.6280 -0.8730
   79TCq2    O5 1214   3.456   3.153   1.985  0.1153 -0.5428  0.2339
   79TCq2    O6 1215   3.252   3.171   1.903  0.3225  0.0077  0.0444
   79TCq2    H2 1216   3.266   3.284   1.693  0.2274 -0.3563  0.9275
   79TCq2    H3 1217   3.639   3.167   1.834 -1.3511  1.6982  1.5455
   79TCq2    H4 1218   3.599   3.272   1.423 -3.0989  4.7858 -0.3086
   80MPD2     C 1219   1.974   2.983  12.406  0.6914  0.2839 -0.4009
   80MPD2    C1 1220   1.862   3.012  12.326  0.4421 -0.2307  0.9847
   80MPD2    C2 1221   1.743   3.045  12.390 -0.5323  0.5507 -0.2656
   80MPD2    C3 1222   1.724   3.027  12.525  0.3155  0.2212  0.0287
   80MPD2    C4 1223   1.836   2.997  12.603 -0.1772 -0.2573 -0.5389
   80MPD2    C5 1224   1.960   2.982  12.539 -0.3297 -0.2573 -0.1650
   80MPD2     H 1225   1.659   3.057  12.322 -0.0638 -0.3359 -0.9957
   80MPD2    H1 1226   1.829   2.986  12.711  0.9397  1.0525 -0.3461
   80MPD2    H2 1227   2.073   2.969  12.365  0.2657 -0.7210 -1.1211
   80MPD2    H3 1228   2.043   2.961  12.606  1.6509 -0.3656 -2.6767
   80MPD2     N 1229   1.599   3.026  12.595 -0.0863 -0.4532  0.8012
   80MPD2    H5 1230   1.597   2.993  12.691  0.4182 -0.7467  0.7115
   80MPD2    N1 1231   1.880   2.986  12.187  0.2987 -0.1044 -0.6547
   80MPD2    H7 1232   1.794   2.985  12.132 -0.1999  0.0362  0.1172
   81TCq2    C1 1233   1.992   2.955  12.117 -0.6396  0.7746  0.1231
   81TCq2    O2 1234   2.109   2.970  12.150  1.4652 -0.0563  0.3208
   81TCq2    C2 1235   1.949   2.918  11.982 -0.7631  0.5647  0.1466
   81TCq2    C3 1236   2.025   2.952  11.873 -0.3539 -0.3637 -0.0818
   81TCq2    C4 1237   1.971   2.928  11.747  0.0397 -0.1324 -0.1493
   81TCq2    C5 1238   1.864   2.845  11.733 -0.4825 -0.7375 -0.7117
   81TCq2    C6 1239   1.807   2.792  11.839  1.0246 -0.3059 -0.4809
   81TCq2    C7 1240   1.837   2.827  11.970  0.6218 -0.8169 -0.0271
   81TCq2    C8 1241   1.705   2.690  11.821 -0.1609  0.3113 -0.3484
   81TCq2    O4 1242   1.664   2.679  11.708  0.1497  0.1511 -0.2606
   81TCq2    C9 1243   2.042   2.978  11.628  0.6154  0.5733 -0.5393
   81TCq2    O5 1244   1.983   2.971  11.513 -0.1069  0.4879 -0.4882
   81TCq2    O6 1245   2.163   3.008  11.638 -0.1193  0.3715 -0.0995
   81TCq2    H2 1246   2.112   3.015  11.879 -0.6095  0.2467 -2.6913
   81TCq2    H3 1247   1.841   2.813  11.632  0.6784 -3.9424  0.0358
   81TCq2    H4 1248   1.785   2.792  12.059  0.8861  1.6477  1.0969
   82MPD2     C 1249   0.329   2.843  10.478 -0.2838 -0.1530  0.3547
   82MPD2    C1 1250   0.230   2.763  10.430  0.5627 -0.2818 -0.3906
   82MPD2    C2 1251   0.252   2.626  10.418  0.3192  1.5528  0.3612
   82MPD2    C3 1252   0.367   2.568  10.460 -0.4454 -0.3376 -0.1080
   82MPD2    C4 1253   0.464   2.654  10.514  0.2134  0.5660  0.1940
   82MPD2    C5 1254   0.444   2.785  10.516  0.0830 -0.1649 -0.1674
   82MPD2     H 1255   0.166   2.567  10.389  2.2071 -1.4030  0.7576
   82MPD2    H1 1256   0.558   2.613  10.550  0.1088 -0.2624 -0.4532
   82MPD2    H2 1257   0.325   2.951  10.488 -1.9484 -0.2659  1.0200
   82MPD2    H3 1258   0.526   2.850  10.544  1.3326 -2.7798  2.1984
   82MPD2     N 1259   0.401   2.431  10.443 -0.0159 -0.2540  0.4947
   82MPD2    H5 1260   0.487   2.394  10.482  0.5048 -0.5328 -0.9259
   82MPD2    N1 1261   0.105   2.827  10.389  0.5246  0.0496  0.9723
   82MPD2    H7 1262   0.095   2.925  10.415 -3.3618 -0.2901  0.8329
   83TCq2    C1 1263   0.316   2.336  10.383 -0.0924 -0.0565 -0.0788
   83TCq2    O2 1264   0.196   2.337  10.358  0.8353  0.3291 -0.0673
   83TCq2    C2 1265   0.394   2.219  10.327  0.3983 -0.5549  0.1569
   83TCq2    C3 1266   0.525   2.234  10.295  0.0083  0.2737  0.1890
   83TCq2    C4 1267   0.603   2.132  10.247 -0.0975 -0.3417 -0.6095
   83TCq2    C5 1268   0.537   2.015  10.210  0.0900  0.0425  0.3463
   83TCq2    C6 1269   0.403   2.006  10.239  0.1146 -0.2759  0.2661
   83TCq2    C7 1270   0.336   2.103  10.302  0.3502 -0.1333  0.2064
   83TCq2    C8 1271   0.340   1.878  10.228 -0.1177 -0.4245  0.0017
   83TCq2    O4 1272   0.355   1.804  10.135 -0.0935 -0.2201  0.0481
   83TCq2    C9 1273   0.745   2.143  10.234  0.6796 -0.1947 -0.0716
   83TCq2    O5 1274   0.799   2.244  10.292  0.0540  0.2231  0.0781
   83TCq2    O6 1275   0.802   2.049  10.168  0.1653 -0.2982  0.5604
   83TCq2    H2 1276   0.576   2.329  10.296  0.0278  0.2659 -0.0518
   83TCq2    H3 1277   0.595   1.935  10.166  1.4502  0.5874  1.1839
   83TCq2    H4 1278   0.229   2.092  10.311  0.2306 -0.2174 -1.3838
   84TCq2    C1 1279   2.169   1.447  10.361 -0.4834 -0.1326  0.4908
   84TCq2    O2 1280   2.053   1.424  10.327  0.1226 -1.0770 -0.0496
   84TCq2    C2 1281   2.213   1.457  10.500 -0.2384  0.1898  0.4892
   84TCq2    C3 1282   2.341   1.491  10.543 -0.1617 -0.5464 -0.0251
   84TCq2    C4 1283   2.361   1.506  10.677  0.8378 -0.2741  0.3617
   84TCq2    C5 1284   2.268   1.468  10.770  0.5946 -0.4931 -0.5130
   84TCq2    C6 1285   2.144   1.425  10.723 -0.6043 -0.6892 -0.5002
   84TCq2    C7 1286   2.110   1.422  10.593  0.7477  0.3125  0.2233
   84TCq2    C8 1287   2.047   1.412  10.833  0.2277  0.0351  0.6451
   84TCq2    O4 1288   2.071   1.470  10.940 -0.5796  0.2984 -0.1209
   84TCq2    C9 1289   2.498   1.530  10.721 -0.7410 -0.5839 -0.7107
   84TCq2    O5 1290   2.579   1.573  10.640  0.1934 -0.3675 -0.1450
   84TCq2    O6 1291   2.525   1.480  10.833 -0.0673 -0.8226  0.0330
   84TCq2    H2 1292   2.417   1.531  10.478 -0.4708  0.9479  0.5397
   84TCq2    H3 1293   2.296   1.474  10.874  1.6787  1.5655 -0.9069
   84TCq2    H4 1294   2.011   1.394  10.559  1.5643 -0.9556 -1.0922
   85MPD2     C 1295   1.702   3.682  16.129  0.1207 -0.5693 -0.5552
   85MPD2    C1 1296   1.599   3.693  16.041 -0.0103 -0.8701  0.4417
   85MPD2    C2 1297   1.602   3.768  15.923 -0.3392 -0.2424 -0.1543
   85MPD2    C3 1298   1.709   3.849  15.906  0.6815  0.1122 -0.2467
   85MPD2    C4 1299   1.819   3.850  15.993  0.3091 -0.2208 -0.0260
   85MPD2    C5 1300   1.807   3.770  16.106  0.0644 -0.4792 -0.1618
   85MPD2     H 1301   1.521   3.786  15.854 -0.6066  2.9912  0.9913
   85MPD2    H1 1302   1.910   3.902  15.969 -0.0811  0.6891  0.4494
   85MPD2    H2 1303   1.704   3.620  16.217 -1.5475 -0.4576 -0.4314
   85MPD2    H3 1304   1.890   3.763  16.175  1.4865  1.9949 -1.6200
   85MPD2     N 1305   1.698   3.942  15.802  0.1182 -0.1497  0.6386
   85MPD2    H5 1306   1.606   3.979  15.785  0.4518 -0.3599 -1.5920
   85MPD2    N1 1307   1.478   3.614  16.053 -0.0017 -0.2024 -0.1083
   85MPD2    H7 1308   1.404   3.626  15.984  1.1602  2.8327 -0.8288
   86TCq2    C1 1309   1.799   4.002  15.732 -0.3229  0.9233  0.5856
   86TCq2    O2 1310   1.907   3.950  15.713  0.4025  0.6645 -0.4332
   86TCq2    C2 1311   1.788   4.141  15.677  0.0398  0.2685  0.1719
   86TCq2    C3 1312   1.702   4.218  15.736  0.4032 -0.4459 -0.7064
   86TCq2    C4 1313   1.705   4.351  15.694 -0.7366  0.3045 -0.4893
   86TCq2    C5 1314   1.793   4.388  15.593 -0.4634 -0.3771 -0.6672
   86TCq2    C6 1315   1.879   4.299  15.538 -0.5080 -0.2459  0.6583
   86TCq2    C7 1316   1.879   4.175  15.583 -0.2363  0.2812 -0.1871
   86TCq2    C8 1317   1.924   4.319  15.394  0.4231  0.3551 -0.1192
   86TCq2    O4 1318   2.022   4.252  15.359 -0.6302 -0.3238 -0.1446
   86TCq2    C9 1319   1.613   4.445  15.755  0.1695 -0.0375  0.2756
   86TCq2    O5 1320   1.611   4.554  15.685  0.5307  0.4944  0.0497
   86TCq2    O6 1321   1.527   4.408  15.836  0.1407  0.6014 -0.9604
   86TCq2    H2 1322   1.629   4.193  15.811 -1.2657  0.9922 -1.8366
   86TCq2    H3 1323   1.806   4.492  15.564 -5.1373 -0.1060 -1.7471
   86TCq2    H4 1324   1.925   4.094  15.527 -1.3329 -0.4761 -0.0023
   87MPD2     C 1325   3.643   2.788   1.774  0.0553  0.1580  0.0534
   87MPD2    C1 1326   3.713   2.823   1.658  0.0400  0.2666  0.2182
   87MPD2    C2 1327   3.639   2.864   1.547 -0.0526 -0.2060 -0.7540
   87MPD2    C3 1328   3.500   2.879   1.540  0.7368  1.0934  0.5736
   87MPD2    C4 1329   3.438   2.842   1.662 -0.2120 -0.6151 -0.3491
   87MPD2    C5 1330   3.508   2.799   1.771 -0.5090 -0.6458 -0.0670
   87MPD2     H 1331   3.693   2.875   1.454  1.2407  0.3700  0.0638
   87MPD2    H1 1332   3.332   2.859   1.672 -0.0335 -0.0706  0.5987
   87MPD2    H2 1333   3.702   2.778   1.865  2.3571 -1.6756 -1.6559
   87MPD2    H3 1334   3.445   2.770   1.854  0.6674 -1.6126  0.4652
   87MPD2     N 1335   3.423   2.918   1.428  0.2037 -0.1742  0.9009
   87MPD2    H5 1336   3.322   2.919   1.438  0.1107  0.5009 -0.1161
   87MPD2    N1 1337   3.858   2.819   1.669  0.0339 -0.7020 -0.1354
   87MPD2    H7 1338   3.896   2.772   1.751 -1.7541 -0.7012  0.6775
   88TCq2    C1 1339   3.949   2.845   1.569  0.2283 -0.7500 -0.4377
   88TCq2    O2 1340   3.930   2.888   1.458 -0.4836 -0.4004  0.2172
   88TCq2    C2 1341   4.082   2.801   1.609 -0.2827  0.6066 -0.5868
   88TCq2    C3 1342   4.104   2.785   1.747 -0.0883  0.6855 -0.4301
   88TCq2    C4 1343   4.211   2.711   1.787 -1.1025 -0.1184 -0.0069
   88TCq2    C5 1344   4.285   2.640   1.699 -0.3245 -0.3337 -0.5133
   88TCq2    C6 1345   4.261   2.660   1.561  0.0166  0.3888  0.6216
   88TCq2    C7 1346   4.171   2.749   1.511 -0.4296  0.4659 -0.0614
   88TCq2    C8 1347   4.289   2.554   1.463 -0.3617  0.0627 -0.1597
   88TCq2    O4 1348   4.290   2.585   1.347  0.3640 -0.0186 -0.1619
   88TCq2    C9 1349   4.234   2.693   1.925 -0.2520 -0.0585 -0.0218
   88TCq2    O5 1350   4.321   2.604   1.955 -0.1200 -0.0485  0.7656
   88TCq2    O6 1351   4.159   2.752   2.001  0.3268 -0.0889  0.3135
   88TCq2    H2 1352   4.051   2.841   1.823  2.5966  2.4790  0.1215
   88TCq2    H3 1353   4.367   2.575   1.727 -0.1193  0.3517  0.4565
   88TCq2    H4 1354   4.155   2.767   1.405 -0.3228  0.8155 -0.0154
   89MPD2     C 1355   0.480   0.628   1.337 -0.5925 -0.1150 -0.5870
   89MPD2    C1 1356   0.375   0.663   1.420 -0.2506  0.3236  0.2912
   89MPD2    C2 1357   0.369   0.786   1.477 -0.0571 -0.3396 -0.7891
   89MPD2    C3 1358   0.455   0.893   1.441  0.0530  0.0075  0.2029
   89MPD2    C4 1359   0.555   0.856   1.350 -0.1097 -0.5984  0.0753
   89MPD2    C5 1360   0.568   0.727   1.309  0.5871  1.1264  0.8122
   89MPD2     H 1361   0.298   0.806   1.557  1.2602 -2.5382  0.9456
   89MPD2    H1 1362   0.628   0.932   1.322 -0.6397 -0.4682 -0.9705
   89MPD2    H2 1363   0.502   0.532   1.293  1.4115 -0.0674  0.3407
   89MPD2    H3 1364   0.643   0.710   1.232  0.1613 -1.7709  1.0360
   89MPD2     N 1365   0.438   1.024   1.507 -0.3311  0.1783  0.0746
   89MPD2    H5 1366   0.362   1.051   1.568 -0.2020 -0.4969  0.5379
   89MPD2    N1 1367   0.284   0.566   1.474 -0.8357 -0.5073 -0.1570
   89MPD2    H7 1368   0.231   0.594   1.556  0.0511  0.1101  0.2127
   90TCq2    C1 1369   0.527   1.127   1.493  0.0764 -0.0410  0.0557
   90TCq2    O2 1370   0.620   1.143   1.418 -0.3343 -0.9608  0.0739
   90TCq2    C2 1371   0.492   1.242   1.577 -0.1286  0.7571  0.5970
   90TCq2    C3 1372   0.412   1.225   1.691  0.7538 -0.5025  0.2594
   90TCq2    C4 1373   0.399   1.331   1.771  0.4400 -0.1550 -0.2802
   90TCq2    C5 1374   0.467   1.450   1.752  0.2533  0.4522 -0.2093
   90TCq2    C6 1375   0.549   1.462   1.643  0.5479 -0.1416 -0.6555
   90TCq2    C7 1376   0.563   1.360   1.551  0.0382  0.2661 -0.0535
   90TCq2    C8 1377   0.642   1.574   1.632 -0.3454 -0.3693 -0.0700
   90TCq2    O4 1378   0.624   1.669   1.712  0.1544 -0.4610 -0.4512
   90TCq2    C9 1379   0.309   1.310   1.886 -0.5669  0.2043  0.1400
   90TCq2    O5 1380   0.276   1.412   1.960 -0.8803 -0.2119  0.7720
   90TCq2    O6 1381   0.271   1.191   1.907 -0.2055 -0.1976  0.7773
   90TCq2    H2 1382   0.363   1.131   1.714 -2.2159  0.6485 -1.4424
   90TCq2    H3 1383   0.451   1.535   1.818  2.5022  0.2335  0.6209
   90TCq2    H4 1384   0.634   1.358   1.469 -0.9899  0.0965 -0.9258
   91TMC2    C1 1385   2.185   0.506  15.671  0.1001  0.0306  0.1179
   91TMC2    C2 1386   2.084   0.521  15.573 -0.5285  0.2210 -1.0583
   91TMC2    C3 1387   1.954   0.557  15.611  0.1022 -0.1524 -0.5803
   91TMC2    C4 1388   2.155   0.529  15.800  0.5316  0.0914 -0.1004
   91TMC2    C5 1389   2.024   0.573  15.836  0.5889 -0.3790 -0.2585
   91TMC2    C6 1390   1.924   0.580  15.741  0.4315 -0.2690 -0.1802
   91TMC2     C 1391   2.293   0.420  15.639 -0.4962 -0.2722 -0.3650
   91TMC2     O 1392   2.267   0.353  15.540 -0.3415 -0.0548  0.1541
   91TMC2     H 1393   2.098   0.505  15.467 -0.3308  1.6007 -1.2359
   91TMC2    H1 1394   2.221   0.502  15.882  0.5214  0.3327 -0.0103
   91TMC2    H2 1395   1.819   0.605  15.756  1.1538  3.4456 -1.4329
   91TMC2    C7 1396   1.995   0.583  15.979 -0.1984 -0.5656 -0.0612
   91TMC2    C8 1397   1.876   0.624  15.501  0.0415  0.4663 -0.1421
   91TMC2    O1 1398   2.095   0.612  16.047  0.1969 -0.2245  0.2476
   91TMC2    O2 1399   1.809   0.726  15.516 -0.2362  0.0122 -0.5798
   91TMC2    O5 1400   1.888   0.560  15.380 -0.2882  0.3339  0.0419
   91TMC2    H5 1401   1.915   0.468  15.399 -1.1355 -0.0688 -0.6939
   92MPD2     C 1402   2.568   0.309  15.601 -0.1678  0.1154  0.0864
   92MPD2    C1 1403   2.522   0.361  15.717 -0.4356 -0.1233 -0.7819
   92MPD2    C2 1404   2.600   0.350  15.837 -0.0859  0.1960  0.4632
   92MPD2    C3 1405   2.720   0.287  15.837  0.1963  0.1947  0.9305
   92MPD2    C4 1406   2.758   0.228  15.718  0.0112 -0.7009 -0.0583
   92MPD2    C5 1407   2.688   0.244  15.602  0.2453 -0.0936 -0.1999
   92MPD2     H 1408   2.565   0.403  15.924  0.1087 -0.3472  0.8704
   92MPD2    H1 1409   2.855   0.178  15.715  1.1462  1.5804 -1.3510
   92MPD2    H2 1410   2.508   0.305  15.510 -1.0559  0.9310  0.6379
   92MPD2    H3 1411   2.727   0.205  15.508  0.1460  1.7773 -1.0129
   92MPD2     N 1412   2.803   0.295  15.957 -0.5500  0.1602 -0.0457
   92MPD2    H5 1413   2.763   0.345  16.035 -0.0349 -1.5979  1.3378
   92MPD2    N1 1414   2.388   0.419  15.730 -0.1776  0.8708 -0.6630
   92MPD2    H7 1415   2.382   0.483  15.808  0.3071 -0.3306  0.3451
   93MPD2     C 1416   3.572   0.123  13.701  0.4013 -0.9036 -0.5336
   93MPD2    C1 1417   3.546   0.143  13.835  0.2571 -0.4628  0.3137
   93MPD2    C2 1418   3.416   0.155  13.873 -0.6157 -0.1294 -0.0120
   93MPD2    C3 1419   3.318   0.149  13.774  0.3457 -1.3397 -0.4929
   93MPD2    C4 1420   3.346   0.150  13.641  0.1496 -0.0794  0.1470
   93MPD2    C5 1421   3.472   0.124  13.606  0.1918 -1.0198 -0.2356
   93MPD2     H 1422   3.392   0.175  13.977  1.5234  1.2440  0.2051
   93MPD2    H1 1423   3.269   0.166  13.566  1.9721 -0.8361 -1.8780
   93MPD2    H2 1424   3.674   0.118  13.665  0.2437 -0.0930 -1.0936
   93MPD2    H3 1425   3.502   0.114  13.502  1.6678  0.0140  0.1037
   93MPD2     N 1426   3.184   0.161  13.807 -0.2872 -0.2924 -0.3671
   93MPD2    H5 1427   3.117   0.187  13.735 -0.0792 -1.2561 -0.8998
   93MPD2    N1 1428   3.649   0.162  13.931 -0.1611 -0.4597 -0.2309
   93MPD2    H7 1429   3.620   0.196  14.022 -0.4320 -2.2826  0.3750
   94TCq2    C1 1430   3.783   0.161  13.902 -0.6018 -0.4126 -0.3738
   94TCq2    O2 1431   3.846   0.115  13.808  0.1457  0.4967 -0.4919
   94TCq2    C2 1432   3.859   0.233  14.008  0.4026  0.1287  0.6935
   94TCq2    C3 1433   3.798   0.281  14.123  0.3938  0.4553  0.0909
   94TCq2    C4 1434   3.837   0.390  14.191  0.0962 -0.2672  0.0058
   94TCq2    C5 1435   3.942   0.461  14.146 -0.0401 -0.1479  0.1993
   94TCq2    C6 1436   3.991   0.425  14.019  0.3022 -0.3558 -0.3935
   94TCq2    C7 1437   3.955   0.315  13.948  0.8100 -0.9857  0.3938
   94TCq2    C8 1438   4.114   0.488  13.976  0.4369 -0.6181 -0.3869
   94TCq2    O4 1439   4.213   0.418  13.952 -0.0970  0.8589  0.2725
   94TCq2    C9 1440   3.765   0.447  14.303  0.0963 -0.1938 -0.5237
   94TCq2    O5 1441   3.803   0.557  14.338  0.3932  0.0581  0.1154
   94TCq2    O6 1442   3.675   0.379  14.359 -0.1201  0.2992 -0.3543
   94TCq2    H2 1443   3.718   0.221  14.165  2.2285 -1.8591  0.3172
   94TCq2    H3 1444   3.975   0.550  14.198  0.7584 -1.2700  1.5862
   94TCq2    H4 1445   4.012   0.290  13.859 -0.2411  0.5785 -0.7207
   95TMC2    C1 1446   3.572   2.320  15.953  1.0149  0.6332  0.4239
   95TMC2    C2 1447   3.521   2.226  16.035 -0.3513 -0.0452  0.0644
   95TMC2    C3 1448   3.499   2.253  16.168  0.1825 -0.0534 -0.1403
   95TMC2    C4 1449   3.589   2.449  16.002 -0.7519 -0.1972 -0.2039
   95TMC2    C5 1450   3.554   2.483  16.132  0.0815  0.4975  0.0140
   95TMC2    C6 1451   3.515   2.380  16.219 -0.1974  0.4327 -0.4634
   95TMC2     C 1452   3.621   2.284  15.819  0.6231  0.6959 -0.0997
   95TMC2     O 1453   3.704   2.357  15.755 -0.1293 -0.7367 -0.1669
   95TMC2     H 1454   3.476   2.133  16.004 -0.3526  0.6926 -2.1336
   95TMC2    H1 1455   3.639   2.526  15.944  1.2721 -1.0436  0.4102
   95TMC2    H2 1456   3.497   2.398  16.325  0.2872  1.4926 -0.5599
   95TMC2    C7 1457   3.532   2.625  16.166 -0.5410 -0.6618 -0.2997
   95TMC2    C8 1458   3.422   2.163  16.250 -0.0271 -0.4658 -0.4560
   95TMC2    O1 1459   3.531   2.642  16.291 -0.1392  0.5659 -0.2481
   95TMC2    O2 1460   3.353   2.073  16.208 -0.7630  0.6235 -0.1057
   95TMC2    O5 1461   3.495   2.151  16.358 -0.1595  0.3454  0.5568
   95TMC2    H5 1462   3.577   2.202  16.375  0.4314  0.2027 -1.8118
   96MPD2     C 1463   3.816   1.927  15.515 -0.3849  0.2115 -0.2644
   96MPD2    C1 1464   3.810   2.060  15.497  0.1755  0.1057  0.2829
   96MPD2    C2 1465   3.732   2.136  15.587  0.2035 -0.5728  0.4521
   96MPD2    C3 1466   3.667   2.074  15.692  0.0061  0.3845 -0.1730
   96MPD2    C4 1467   3.672   1.936  15.702 -0.0645 -0.3020 -0.7584
   96MPD2    C5 1468   3.748   1.866  15.615 -0.0216  0.0196  0.3677
   96MPD2     H 1469   3.730   2.244  15.580  2.5521 -0.5866 -0.5519
   96MPD2    H1 1470   3.631   1.875  15.782  1.9502 -1.3261 -0.4979
   96MPD2    H2 1471   3.871   1.862  15.449 -0.4553  2.3722 -2.4277
   96MPD2    H3 1472   3.754   1.759  15.631  0.4295 -0.1021 -0.6072
   96MPD2     N 1473   3.607   2.147  15.799  0.4831 -0.2852 -0.2770
   96MPD2    H5 1474   3.551   2.090  15.861 -0.8503 -1.7879 -2.8521
   96MPD2    N1 1475   3.895   2.117  15.392 -0.3333  0.8404 -0.1631
   96MPD2    H7 1476   3.940   2.046  15.335 -1.1785  0.8439 -0.8297
   97MPD2     C 1477   0.294   4.311   0.051 -0.2593 -0.1412 -0.1413
   97MPD2    C1 1478   0.389   4.399   0.109  0.0435  0.0378 -0.3203
   97MPD2    C2 1479   0.519   4.402   0.046 -0.1226  0.2779 -0.8319
   97MPD2    C3 1480   0.547   4.315  17.624  0.2069 -0.5347 -0.5937
   97MPD2    C4 1481   0.445   4.237  17.577 -0.9422 -0.1589 -0.5730
   97MPD2    C5 1482   0.321   4.239  17.624 -0.4059  0.3575 -0.2359
   97MPD2     H 1483   0.588   4.469   0.095 -1.2153  0.0181  1.0526
   97MPD2    H1 1484   0.449   4.197  17.476  1.8463  1.1809 -0.9846
   97MPD2    H2 1485   0.195   4.313   0.096 -0.5729  2.1888 -0.9285
   97MPD2    H3 1486   0.243   4.179  17.578 -1.0977  1.3610 -0.3888
   97MPD2     N 1487   0.677   4.302  17.564  0.2591  0.0942 -0.3599
   97MPD2    H5 1488   0.688   4.236  17.488 -0.6113 -2.3681  1.6555
   97MPD2    N1 1489   0.356   4.459   0.231 -0.4105  0.0531  0.0681
   97MPD2    H7 1490   0.267   4.437   0.275  0.6265  0.8976  2.6480
   98TCq2    C1 1491   0.785   4.382  17.592  0.1748  0.2332 -0.0837
   98TCq2    O2 1492   0.805   4.456   0.001 -0.2093 -0.5838  0.0502
   98TCq2    C2 1493   0.897   4.356  17.507  0.6653 -0.0950  0.4195
   98TCq2    C3 1494   0.878   4.295  17.391 -0.0738 -0.8914  0.4008
   98TCq2    C4 1495   0.994   4.230  17.338 -0.4846  0.5190  0.2956
   98TCq2    C5 1496   1.114   4.246  17.393  0.9156 -0.5669 -0.2092
   98TCq2    C6 1497   1.128   4.335  17.493  0.3123 -0.1561 -0.1046
   98TCq2    C7 1498   1.018   4.382  17.557  0.2651 -0.0050  1.0104
   98TCq2    C8 1499   1.251   4.392  17.527  0.5009 -0.2979  0.0566
   98TCq2    O4 1500   1.267   4.448  17.635 -0.0637  0.3530 -0.2392
   98TCq2    C9 1501   0.982   4.162  17.215 -0.0663 -0.6670  0.0402
   98TCq2    O5 1502   0.866   4.139  17.171 -0.1179  0.1640 -0.4426
   98TCq2    O6 1503   1.089   4.117  17.159  0.0747 -0.3069  0.1062
   98TCq2    H2 1504   0.779   4.287  17.347 -1.0224  3.1061  1.8435
   98TCq2    H3 1505   1.199   4.202  17.343 -0.5414 -1.3795 -1.9439
   98TCq2    H4 1506   1.030   4.438  17.649 -2.0295 -1.2989  2.0964
   99MPD2     C 1507   0.629   2.151   1.482 -0.4978  0.1702 -0.2629
   99MPD2    C1 1508   0.652   2.051   1.390  0.2372  0.8119 -0.3280
   99MPD2    C2 1509   0.773   2.050   1.317 -0.7190 -0.4031  0.2812
   99MPD2    C3 1510   0.877   2.135   1.345  0.7277 -1.4063  0.2076
   99MPD2    C4 1511   0.853   2.234   1.445 -0.5270 -0.0576  0.2231
   99MPD2    C5 1512   0.738   2.229   1.512 -0.8714 -0.5406 -0.1611
   99MPD2     H 1513   0.776   1.977   1.236  0.8833  0.1442 -0.1552
   99MPD2    H1 1514   0.930   2.298   1.487  1.6719 -1.4989 -1.6035
   99MPD2    H2 1515   0.536   2.164   1.536  0.1942 -2.0252  1.4485
   99MPD2    H3 1516   0.732   2.310   1.583 -0.1135 -0.8159  0.2214
   99MPD2     N 1517   1.008   2.120   1.286  0.1901  0.2337  0.0810
   99MPD2    H5 1518   1.015   2.037   1.228 -1.2521  0.4382 -0.3901
   99MPD2    N1 1519   0.563   1.944   1.367  0.0781  0.1030 -0.1218
   99MPD2    H7 1520   0.573   1.896   1.278  0.8121  0.2173 -0.1017
  100TCq2    C1 1521   0.460   1.918   1.452  0.1035 -0.5174  0.1338
  100TCq2    O2 1522   0.434   1.947   1.568 -0.0705  0.0543 -0.0682
  100TCq2    C2 1523   0.377   1.810   1.400 -0.4227 -0.8484 -0.1163
  100TCq2    C3 1524   0.401   1.758   1.276 -0.3139  0.1481 -0.4431
  100TCq2    C4 1525   0.325   1.651   1.237 -0.3307  0.1754 -0.3816
  100TCq2    C5 1526   0.240   1.580   1.316  0.1493 -0.2595 -0.5607
  100TCq2    C6 1527   0.228   1.634   1.443  0.0875 -0.0521  0.0126
  100TCq2    C7 1528   0.298   1.739   1.492 -0.7028  0.4362 -0.6162
  100TCq2    C8 1529   0.157   1.556   1.543 -0.0234  0.0077  0.0891
  100TCq2    O4 1530   0.156   1.596   1.658 -0.7329  0.0130 -0.0845
  100TCq2    C9 1531   0.350   1.607   1.099  0.3878 -0.1152 -0.8163
  100TCq2    O5 1532   0.460   1.631   1.039 -0.0419  0.2420  0.3791
  100TCq2    O6 1533   0.259   1.535   1.058 -0.2509 -0.4920 -0.1726
  100TCq2    H2 1534   0.448   1.815   1.197 -0.6904  0.1981 -0.6312
  100TCq2    H3 1535   0.203   1.482   1.286 -2.6058  0.7766 -0.5891
  100TCq2    H4 1536   0.294   1.777   1.593  0.5878 -0.4690 -0.2241
  101MPD2     C 1537   0.685   2.524  13.034 -0.1970 -0.2626 -0.1235
  101MPD2    C1 1538   0.560   2.521  12.980  0.5912  0.6745  0.2984
  101MPD2    C2 1539   0.485   2.408  12.997 -0.1164 -0.3259  0.7816
  101MPD2    C3 1540   0.527   2.306  13.076 -0.4186 -0.6753  0.1844
  101MPD2    C4 1541   0.655   2.308  13.124  0.0719  0.0244 -0.2435
  101MPD2    C5 1542   0.735   2.414  13.103  0.0311  0.2425 -0.0951
  101MPD2     H 1543   0.393   2.402  12.940 -1.1366 -4.0328  2.8505
  101MPD2    H1 1544   0.694   2.236  13.195  0.5940  0.9026  0.3587
  101MPD2    H2 1545   0.752   2.609  13.024 -0.0465 -0.3909 -0.1956
  101MPD2    H3 1546   0.836   2.415  13.142 -0.8430 -1.2073  2.2538
  101MPD2     N 1547   0.438   2.197  13.088  0.1342  0.3462 -0.0332
  101MPD2    H5 1548   0.345   2.220  13.052 -1.0182 -1.1757  1.9413
  101MPD2    N1 1549   0.516   2.631  12.905  0.0270  0.2489 -0.1664
  101MPD2    H7 1550   0.579   2.707  12.882  0.7347 -0.5288 -0.7628
  102TCq2    C1 1551   0.535   3.087  12.674  0.5792 -0.2378 -0.3583
  102TCq2    O2 1552   0.653   3.054  12.689 -0.1012 -0.2913 -0.2210
  102TCq2    C2 1553   0.437   3.012  12.755 -0.3034  0.6736  0.4682
  102TCq2    C3 1554   0.306   3.062  12.766  0.4793  0.0255  0.1092
  102TCq2    C4 1555   0.208   2.969  12.795  0.5476 -0.2095  0.1949
  102TCq2    C5 1556   0.229   2.834  12.826 -0.2932 -0.2119  0.4163
  102TCq2    C6 1557   0.363   2.799  12.824 -0.2174 -0.3960 -1.1544
  102TCq2    C7 1558   0.470   2.882  12.791 -0.9309 -0.0458  0.2144
  102TCq2    C8 1559   0.388   2.655  12.864  0.0512 -0.6959  0.4189
  102TCq2    O4 1560   0.292   2.581  12.869  0.1713 -0.6693 -0.1566
  102TCq2    C9 1561   0.069   3.007  12.784 -0.3168 -0.1703 -0.0900
  102TCq2    O5 1562   4.701   2.916  12.769  0.0134 -0.5539 -0.0113
  102TCq2    O6 1563   0.046   3.125  12.750 -0.2825 -0.1585  0.3003
  102TCq2    H2 1564   0.275   3.164  12.748 -1.0461 -0.6611 -1.1228
  102TCq2    H3 1565   0.146   2.771  12.855 -1.8401  1.4334 -0.4348
  102TCq2    H4 1566   0.571   2.850  12.769 -0.4167  0.1152  2.3546
  103TMC2    C1 1567   3.036   3.181  12.359  0.1881 -0.7564 -0.5938
  103TMC2    C2 1568   2.909   3.188  12.406 -0.6010  0.2055 -0.0517
  103TMC2    C3 1569   2.882   3.116  12.521 -0.9707  0.3718 -0.3047
  103TMC2    C4 1570   3.132   3.104  12.417 -0.1734  0.1601 -0.2101
  103TMC2    C5 1571   3.097   3.030  12.527  0.0192  0.0187  0.3917
  103TMC2    C6 1572   2.976   3.038  12.585  0.1212  0.2782 -0.5123
  103TMC2     C 1573   3.074   3.288  12.267 -0.1494 -0.4026 -0.2939
  103TMC2     O 1574   2.987   3.377  12.258 -0.0889  0.2543 -0.3717
  103TMC2     H 1575   2.832   3.237  12.348 -0.1626 -2.7830 -3.1627
  103TMC2    H1 1576   3.234   3.098  12.379  0.2097  1.8129  0.5714
  103TMC2    H2 1577   2.960   2.961  12.659 -1.3324 -0.0793 -1.2095
  103TMC2    C7 1578   3.199   3.004  12.635 -0.2055 -0.1021 -0.7577
  103TMC2    C8 1579   2.763   3.156  12.586  0.6202  0.1640  0.0083
  103TMC2    O1 1580   3.170   3.042  12.747  0.5706 -0.0517  0.0684
  103TMC2    O2 1581   2.669   3.196  12.516 -0.4132  0.0314 -0.0443
  103TMC2    O5 1582   2.742   3.057  12.674 -0.0436  1.0636  0.5392
  103TMC2    H5 1583   2.814   3.044  12.740  0.3073 -0.4621 -0.1355
  104MPD2     C 1584   3.401   3.332  12.109 -0.4191 -0.4242  0.3871
  104MPD2    C1 1585   3.266   3.364  12.134 -0.3679  0.4115  0.0716
  104MPD2    C2 1586   3.214   3.478  12.079 -0.7571 -0.6987  0.0611
  104MPD2    C3 1587   3.280   3.559  11.994 -0.1812 -0.3178  0.1079
  104MPD2    C4 1588   3.415   3.525  11.965 -0.0352 -1.4513 -0.2576
  104MPD2    C5 1589   3.472   3.417  12.026 -0.7886  0.0042 -0.0408
  104MPD2     H 1590   3.116   3.516  12.101 -0.1339  1.1589 -0.3824
  104MPD2    H1 1591   3.478   3.579  11.894  1.7479 -1.2013  1.5306
  104MPD2    H2 1592   3.448   3.243  12.149 -2.4576 -1.8831 -0.4880
  104MPD2    H3 1593   3.571   3.383  11.995 -0.8828  0.2284 -0.5977
  104MPD2     N 1594   3.203   3.670  11.938 -0.4204  0.3233  0.2315
  104MPD2    H5 1595   3.111   3.684  11.978  0.2208  2.4504  0.9528
  104MPD2    N1 1596   3.200   3.279  12.222 -0.3780 -0.0079 -0.1702
  104MPD2    H7 1597   3.249   3.198  12.259  0.4775  0.3930 -0.4468
  105MPD2     C 1598   0.278   1.959   0.322 -0.1548  0.1608 -0.2894
  105MPD2    C1 1599   0.183   2.052   0.277  0.3035 -0.2709  0.0151
  105MPD2    C2 1600   0.077   2.074   0.367 -0.2691 -0.8133 -0.1585
  105MPD2    C3 1601   0.054   2.003   0.487 -0.6335 -1.4238 -0.2987
  105MPD2    C4 1602   0.153   1.914   0.531 -0.4584  0.0263  0.7209
  105MPD2    C5 1603   0.262   1.890   0.445 -0.1162 -0.1486 -0.4911
  105MPD2     H 1604   0.001   2.140   0.328  0.4378 -0.3044 -0.6691
  105MPD2    H1 1605   0.161   1.872   0.630  0.9210  1.8957  1.4029
  105MPD2    H2 1606   0.365   1.954   0.258  0.0431  2.0983 -0.1686
  105MPD2    H3 1607   0.344   1.828   0.481  0.1644  1.2479  1.2438
  105MPD2     N 1608   4.656   2.022   0.564  0.6532 -0.1992 -0.1915
  105MPD2    H5 1609   4.603   2.102   0.533 -2.7236 -2.4731 -0.3191
  105MPD2    N1 1610   0.196   2.128   0.151 -0.6204  0.0077  0.3265
  105MPD2    H7 1611   0.263   2.099   0.080  1.6789  2.6024  1.4651
  106TCq2    C1 1612   4.619   1.958   0.675  0.2990  0.1377  0.3395
  106TCq2    O2 1613   4.671   1.862   0.731  0.0394  0.0528  0.0433
  106TCq2    C2 1614   4.501   2.010   0.732  0.4960 -0.1672 -0.9363
  106TCq2    C3 1615   4.416   2.075   0.652 -0.2802 -0.2803 -0.2698
  106TCq2    C4 1616   4.311   2.132   0.708  0.6012 -0.1525 -0.3606
  106TCq2    C5 1617   4.280   2.125   0.841 -0.0682  0.9304 -0.1890
  106TCq2    C6 1618   4.373   2.056   0.917  0.2991 -0.1318  0.3436
  106TCq2    C7 1619   4.477   1.984   0.864 -0.1752 -0.1392 -0.4656
  106TCq2    C8 1620   4.356   2.030   1.057  0.7773  0.0494 -0.6541
  106TCq2    O4 1621   4.386   1.920   1.103 -0.7515 -0.0715 -0.0450
  106TCq2    C9 1622   4.206   2.182   0.625 -0.9374  0.1890 -0.1907
  106TCq2    O5 1623   4.132   2.274   0.675  0.2777 -0.4263 -0.3259
  106TCq2    O6 1624   4.182   2.130   0.513 -0.1445 -0.0387 -0.2150
  106TCq2    H2 1625   4.423   2.088   0.544 -1.0384  1.2786 -0.1393
  106TCq2    H3 1626   4.188   2.166   0.882  0.8233  0.3378  2.4322
  106TCq2    H4 1627   4.548   1.934   0.928 -2.5735 -0.3161  2.0740
  107TMC2    C1 1628   1.396   1.663  11.499  0.0114 -0.6072 -0.0688
  107TMC2    C2 1629   1.492   1.755  11.508  0.1158  0.3958 -0.1787
  107TMC2    C3 1630   1.612   1.724  11.451  0.3932  0.0085 -0.2788
  107TMC2    C4 1631   1.403   1.565  11.408  0.0857 -0.5112 -0.1166
  107TMC2    C5 1632   1.521   1.544  11.344  0.0248 -0.4941  0.2835
  107TMC2    C6 1633   1.635   1.615  11.374 -0.0694  0.0932  0.3817
  107TMC2     C 1634   1.271   1.692  11.555 -0.0399 -0.1916  0.4222
  107TMC2     O 1635   1.209   1.597  11.599 -0.0696 -0.1007  0.4551
  107TMC2     H 1636   1.494   1.835  11.581 -0.0611  1.7403 -1.6608
  107TMC2    H1 1637   1.314   1.505  11.393 -1.0306  1.7766 -2.5697
  107TMC2    H2 1638   1.734   1.592  11.337 -0.9867 -0.2574 -1.8592
  107TMC2    C7 1639   1.512   1.462  11.230  0.4170  0.8027 -0.1027
  107TMC2    C8 1640   1.721   1.822  11.450 -0.1817  0.2407 -0.0527
  107TMC2    O1 1641   1.404   1.409  11.216 -0.1103  0.6346  0.1398
  107TMC2    O2 1642   1.838   1.788  11.436 -0.3021  0.6096  0.1613
  107TMC2    O5 1643   1.668   1.940  11.406  0.1766 -0.5198  0.0332
  107TMC2    H5 1644   1.570   1.934  11.411 -0.0204  3.2072  0.0827
  108MPD2     C 1645   1.135   2.030  11.616  0.4611  0.1191 -0.3105
  108MPD2    C1 1646   1.147   1.893  11.636  0.2629 -0.1393  0.1242
  108MPD2    C2 1647   1.061   1.818  11.719  0.1429  0.3115  0.2969
  108MPD2    C3 1648   0.952   1.882  11.777 -0.4521  0.0704 -0.3881
  108MPD2    C4 1649   0.946   2.022  11.765 -0.4034  0.3356 -0.3504
  108MPD2    C5 1650   1.038   2.092  11.690 -0.1698 -0.7848 -0.0750
  108MPD2     H 1651   1.072   1.712  11.737  1.7617  0.8506  2.5205
  108MPD2    H1 1652   0.869   2.087  11.806  1.7314  1.2698  2.1801
  108MPD2    H2 1653   1.187   2.096  11.548 -1.1178  1.8704  0.1637
  108MPD2    H3 1654   1.024   2.198  11.674 -0.6730 -0.8626 -0.1581
  108MPD2     N 1655   0.836   1.822  11.845 -0.2979 -0.0060  0.3406
  108MPD2    H5 1656   0.760   1.888  11.857 -2.0723 -2.0052  0.0833
  108MPD2    N1 1657   1.251   1.832  11.571 -0.5615 -0.2350  0.7303
  108MPD2    H7 1658   1.308   1.906  11.530  1.3104 -2.4332 -0.6720
  109MPD2     C 1659   0.297   3.482   1.740  0.6162  0.0108 -0.2605
  109MPD2    C1 1660   0.250   3.544   1.624 -0.0066 -0.0186  0.4225
  109MPD2    C2 1661   0.305   3.664   1.587 -0.0855  0.4512  0.1069
  109MPD2    C3 1662   0.414   3.715   1.654 -0.3650  0.3677  0.3347
  109MPD2    C4 1663   0.457   3.659   1.768 -0.0112 -1.0338 -0.5201
  109MPD2    C5 1664   0.393   3.545   1.806  0.2275  0.5329 -0.6049
  109MPD2     H 1665   0.286   3.710   1.491  0.6775 -0.4639 -0.4826
  109MPD2    H1 1666   0.532   3.704   1.832 -1.3930 -0.8216  0.9462
  109MPD2    H2 1667   0.254   3.388   1.775 -0.1539  0.6603  0.5383
  109MPD2    H3 1668   0.402   3.499   1.904 -1.3096  0.9754 -0.2669
  109MPD2     N 1669   0.475   3.831   1.589  0.0433 -0.2732  0.1832
  109MPD2    H5 1670   0.448   3.871   1.499 -0.1649  1.0312  0.8246
  109MPD2    N1 1671   0.142   3.497   1.538 -0.2612  0.1635  0.4873
  109MPD2    H7 1672   0.113   3.567   1.470  0.3578 -0.6689 -0.6344
  110TCq2    C1 1673   0.574   3.902   1.644  0.3250 -0.9036 -0.5047
  110TCq2    O2 1674   0.640   3.890   1.750  0.2990 -0.1481  0.3481
  110TCq2    C2 1675   0.619   4.011   1.558  0.7526 -0.1267  0.3475
  110TCq2    C3 1676   0.751   4.024   1.561 -0.3776 -0.1597 -0.2672
  110TCq2    C4 1677   0.814   4.110   1.480  0.2402  0.1382 -0.3322
  110TCq2    C5 1678   0.747   4.162   1.378 -1.3477 -0.4848  0.4104
  110TCq2    C6 1679   0.607   4.137   1.370  0.0353 -0.2585 -0.0218
  110TCq2    C7 1680   0.537   4.057   1.458  0.7101  0.1675  0.4658
  110TCq2    C8 1681   0.547   4.188   1.248 -0.1753 -0.9423 -0.2230
  110TCq2    O4 1682   0.593   4.292   1.200  0.3388 -0.4527 -0.2182
  110TCq2    C9 1683   0.955   4.139   1.498  1.0849  0.9511 -0.7724
  110TCq2    O5 1684   1.003   4.232   1.420  0.0218  0.4234 -0.0955
  110TCq2    O6 1685   1.019   4.095   1.597 -0.1209 -0.5597 -0.0149
  110TCq2    H2 1686   0.810   3.974   1.637 -1.1187 -0.8459 -0.1386
  110TCq2    H3 1687   0.790   4.236   1.312 -3.1225  0.2040  0.0147
  110TCq2    H4 1688   0.429   4.049   1.461  0.6698 -0.1465 -2.4160
  111TMC2    C1 1689   1.233   3.736  11.343  0.2650 -0.2453 -0.0407
  111TMC2    C2 1690   1.352   3.741  11.276 -0.5768  0.4897 -0.4913
  111TMC2    C3 1691   1.470   3.699  11.343 -0.1319 -0.2524  0.3719
  111TMC2    C4 1692   1.228   3.684  11.468  0.1421 -0.0978 -0.3442
  111TMC2    C5 1693   1.345   3.664  11.535  0.4744 -0.2835  0.2654
  111TMC2    C6 1694   1.468   3.670  11.474  0.2396 -0.2885  0.0727
  111TMC2     C 1695   1.129   3.820  11.286 -0.8538 -0.9444  0.1257
  111TMC2     O 1696   1.162   3.868  11.176  0.6018 -0.6960  0.1609
  111TMC2     H 1697   1.364   3.773  11.173 -1.2001 -1.5810 -1.2106
  111TMC2    H1 1698   1.136   3.681  11.525  1.1943 -0.3847  1.3355
  111TMC2    H2 1699   1.563   3.649  11.521  0.1136  0.6453  0.7425
  111TMC2    C7 1700   1.334   3.650  11.685 -0.0619  0.0372  0.4355
  111TMC2    C8 1701   1.598   3.747  11.295 -0.4019  0.0892  0.4934
  111TMC2    O1 1702   1.223   3.640  11.739 -0.1311  0.2402  0.1729
  111TMC2    O2 1703   1.686   3.799  11.368 -0.7270  0.0695  0.4357
  111TMC2    O5 1704   1.602   3.737  11.162 -0.0340 -0.1109 -0.3746
  111TMC2    H5 1705   1.541   3.677  11.115  1.2182 -2.2213  0.7098
  112MPD2     C 1706   0.693   4.090  11.294  0.5233  0.1113 -0.0753
  112MPD2    C1 1707   0.777   4.066  11.182 -0.4811 -0.2487  0.3243
  112MPD2    C2 1708   0.887   3.985  11.213  0.5192  0.0441  0.2222
  112MPD2    C3 1709   0.908   3.917  11.334  1.0087  0.4147 -1.0658
  112MPD2    C4 1710   0.817   3.941  11.439 -1.2806  0.0839  0.6230
  112MPD2    C5 1711   0.719   4.028  11.420 -0.5463 -1.0503 -0.8583
  112MPD2     H 1712   0.964   3.974  11.136  0.5392  0.7815  0.1396
  112MPD2    H1 1713   0.828   3.899  11.539  3.6570  0.7601  0.3806
  112MPD2    H2 1714   0.610   4.159  11.284 -0.1612 -0.2887  2.8907
  112MPD2    H3 1715   0.654   4.053  11.503 -0.9233  1.6772 -1.9825
  112MPD2     N 1716   1.020   3.843  11.369 -0.0672 -0.2470  0.6244
  112MPD2    H5 1717   1.016   3.792  11.457 -1.8321  0.7874  1.1501
  112MPD2    N1 1718   0.763   4.122  11.055  0.1107 -0.6744  0.3071
  112MPD2    H7 1719   0.802   4.071  10.976  0.1809 -2.2372  1.3577
  113MPD2     C 1720   3.457   1.108   1.005 -0.3268 -0.8990 -0.3920
  113MPD2    C1 1721   3.468   1.203   0.906  1.0934  0.1351  0.7528
  113MPD2    C2 1722   3.363   1.221   0.821 -0.1147  0.1926  0.3994
  113MPD2    C3 1723   3.249   1.149   0.837  0.3022  0.2168  0.1838
  113MPD2    C4 1724   3.239   1.052   0.933 -0.1953  0.3046  0.6207
  113MPD2    C5 1725   3.346   1.035   1.022  0.5881 -0.4035 -0.4732
  113MPD2     H 1726   3.363   1.292   0.739 -0.6457 -0.4762 -0.1768
  113MPD2    H1 1727   3.148   0.996   0.953 -0.3699 -0.1107 -1.3829
  113MPD2    H2 1728   3.535   1.095   1.079 -2.4000  2.0434  2.2598
  113MPD2    H3 1729   3.331   0.968   1.106 -0.2610 -1.3212 -1.3508
  113MPD2     N 1730   3.131   1.168   0.758  0.6020 -0.0930 -0.2907
  113MPD2    H5 1731   3.064   1.095   0.778  0.3231  0.6895  1.6299
  113MPD2    N1 1732   3.585   1.281   0.896 -0.6423  0.5402 -0.4985
  113MPD2    H7 1733   3.575   1.372   0.852  0.1314  0.0336 -1.7197
  114TCq2    C1 1734   3.123   1.227   0.636  0.6995 -0.7091  0.5146
  114TCq2    O2 1735   3.184   1.331   0.602 -0.2730 -0.4118 -0.1502
  114TCq2    C2 1736   3.013   1.185   0.553  0.3552 -0.2899 -1.1612
  114TCq2    C3 1737   2.979   1.252   0.439  0.0234 -0.1121 -0.1363
  114TCq2    C4 1738   2.889   1.206   0.354 -0.1231  1.0193  0.6777
  114TCq2    C5 1739   2.849   1.077   0.372  0.0017  0.8157  0.6269
  114TCq2    C6 1740   2.874   1.009   0.484 -0.4082  1.3088  0.6437
  114TCq2    C7 1741   2.969   1.056   0.573 -0.0174  0.4744  0.5825
  114TCq2    C8 1742   2.833   0.865   0.487 -0.1820 -0.5734 -0.3151
  114TCq2    O4 1743   2.774   0.831   0.388 -0.3094 -0.2785  0.4517
  114TCq2    C9 1744   2.845   1.282   0.242  0.0251 -0.5080  0.7285
  114TCq2    O5 1745   2.886   1.404   0.231 -0.5716 -0.1033  0.4054
  114TCq2    O6 1746   2.783   1.221   0.150 -0.1310 -0.3050 -0.4870
  114TCq2    H2 1747   3.023   1.350   0.421  0.3394 -0.5101 -1.5742
  114TCq2    H3 1748   2.773   1.039   0.304 -0.0611  0.8148  0.6972
  114TCq2    H4 1749   2.995   0.997   0.660 -0.8745  0.6010  0.9240
  115TMC2    C1 1750   4.228   4.369  17.387 -0.2508  0.1481  0.8112
  115TMC2    C2 1751   4.219   4.403  17.257  0.5310  0.0202 -0.1888
  115TMC2    C3 1752   4.284   4.511  17.222  0.0738  0.5575 -0.6517
  115TMC2    C4 1753   4.303   4.442  17.476 -0.0230 -0.1940 -0.2865
  115TMC2    C5 1754   4.374   4.550  17.428 -0.1863 -0.2117  0.4518
  115TMC2    C6 1755   4.366   4.595  17.296  0.4544  0.3402 -0.6506
  115TMC2     C 1756   4.157   4.244  17.406  0.0872  0.1302  0.3196
  115TMC2     O 1757   4.129   4.181  17.302 -0.5214  0.4515  0.5177
  115TMC2     H 1758   4.150   4.357  17.187  0.7929 -1.3169  0.4311
  115TMC2    H1 1759   4.309   4.421  17.582 -0.3005 -2.2854 -0.6959
  115TMC2    H2 1760   4.396   4.688  17.249  1.4388  1.1668  1.5776
  115TMC2    C7 1761   4.451   4.622  17.521  0.5285 -0.1340  0.1454
  115TMC2    C8 1762   4.259   4.546  17.081 -0.1215  0.1589  0.2007
  115TMC2    O1 1763   4.433   4.616  17.641  0.0886 -0.1560 -0.0976
  115TMC2    O2 1764   4.226   4.473  16.987  0.2469 -0.2297 -1.2044
  115TMC2    O5 1765   4.229   4.676  17.079 -0.7540  0.0537  0.6719
  115TMC2    H5 1766   4.237   0.004  17.164  0.7402  0.9637  0.0134
  116MPD2     C 1767   3.955   3.868   0.002 -0.5974  0.7234 -0.1215
  116MPD2    C1 1768   3.969   3.876  17.551 -0.1064 -1.0899  0.6679
  116MPD2    C2 1769   4.031   3.992  17.497 -0.5159 -0.3992  0.2500
  116MPD2    C3 1770   4.077   4.095  17.581 -0.3794 -0.0870 -0.3196
  116MPD2    C4 1771   4.074   4.071   0.031 -0.4669 -0.1622  0.2126
  116MPD2    C5 1772   4.010   3.964   0.083 -0.3962  0.1250 -0.4894
  116MPD2     H 1773   4.026   3.999  17.389  1.8631 -1.3479  0.0638
  116MPD2    H1 1774   4.127   4.130   0.105 -2.4886  1.2526  0.5336
  116MPD2    H2 1775   3.916   3.784   0.058 -0.2586  1.6036  1.4299
  116MPD2    H3 1776   4.005   3.954   0.191 -0.0188  0.5894 -0.4297
  116MPD2     N 1777   4.128   4.217  17.537 -0.1432  0.2962 -0.2795
  116MPD2    H5 1778   4.146   4.290  17.606  0.2879  0.1730 -0.2613
  116MPD2    N1 1779   3.940   3.763  17.471  0.9166  0.7599 -0.0097
  116MPD2    H7 1780   3.961   3.775  17.372 -1.8922  0.8803 -0.5822
  117TMC2    C1 1781   2.881   0.883  13.949 -0.2558 -0.9315 -0.0292
  117TMC2    C2 1782   2.897   0.747  13.956  0.4942 -1.0518 -0.8514
  117TMC2    C3 1783   3.021   0.704  13.909  0.3608  0.3545  0.3293
  117TMC2    C4 1784   2.978   0.964  13.892  0.0660 -0.5620  0.3090
  117TMC2    C5 1785   3.098   0.907  13.841 -0.4158 -0.1479 -0.1716
  117TMC2    C6 1786   3.117   0.775  13.844  0.4479 -0.1507  0.3150
  117TMC2     C 1787   2.743   0.936  13.971  0.0408 -0.6620  0.4886
  117TMC2     O 1788   2.656   0.853  13.994  0.0207 -0.2260 -0.4235
  117TMC2     H 1789   2.824   0.677  13.995 -0.8361 -0.2043 -1.8266
  117TMC2    H1 1790   2.963   1.070  13.873  0.8333 -0.1403  2.0328
  117TMC2    H2 1791   3.210   0.733  13.807  0.0014  0.7509 -1.8181
  117TMC2    C7 1792   3.201   0.988  13.784 -0.2830 -0.1106  0.1199
  117TMC2    C8 1793   3.045   0.558  13.927 -0.4657  0.0785  1.0991
  117TMC2    O1 1794   3.291   0.929  13.726  0.1892  0.1292 -0.5119
  117TMC2    O2 1795   3.025   0.502  14.032 -0.3217 -0.4726 -0.0966
  117TMC2    O5 1796   3.134   0.509  13.832 -0.4385 -0.4353 -0.1191
  117TMC2    H5 1797   3.141   0.567  13.752  0.8010  0.8884  0.9607
  118MPD2     C 1798   3.212   1.358  13.812  0.4924 -0.3845  0.3582
  118MPD2    C1 1799   3.250   1.237  13.767  0.8144 -0.0417  0.4082
  118MPD2    C2 1800   3.348   1.227  13.672 -0.6687 -0.0359 -0.2213
  118MPD2    C3 1801   3.398   1.342  13.619 -0.3726  1.1088 -0.2888
  118MPD2    C4 1802   3.355   1.466  13.657 -0.1605  0.7625  0.8689
  118MPD2    C5 1803   3.262   1.469  13.757 -0.6299 -0.0532 -0.2098
  118MPD2     H 1804   3.359   1.132  13.619 -4.4537 -1.5401  1.6458
  118MPD2    H1 1805   3.382   1.565  13.621  2.0295  1.1826  3.5835
  118MPD2    H2 1806   3.157   1.364  13.905 -0.2367  1.5949 -0.2142
  118MPD2    H3 1807   3.236   1.570  13.786 -2.5176 -0.7285  0.4366
  118MPD2     N 1808   3.507   1.345  13.527  0.5911 -0.5082  1.3986
  118MPD2    H5 1809   3.534   1.440  13.504 -0.5210 -0.3798  0.6763
  118MPD2    N1 1810   3.177   1.123  13.814 -0.0663  0.2817 -0.5967
  118MPD2    H7 1811   3.098   1.139  13.875  0.3406  0.9166 -0.2396
  119MPD2     C 1812   1.544   2.776  13.768  0.4691  0.2776  0.3845
  119MPD2    C1 1813   1.463   2.677  13.715  0.1273 -0.1795  0.3408
  119MPD2    C2 1814   1.423   2.689  13.581  0.6501  0.7427  0.6744
  119MPD2    C3 1815   1.460   2.799  13.495 -0.5789 -0.2465  0.3031
  119MPD2    C4 1816   1.537   2.892  13.556  0.9391 -0.8032 -0.6100
  119MPD2    C5 1817   1.579   2.880  13.686 -0.6665 -0.2136 -0.1688
  119MPD2     H 1818   1.364   2.609  13.539 -0.3969  1.7397  0.2352
  119MPD2    H1 1819   1.577   2.978  13.503  0.3552  0.6997  1.4278
  119MPD2    H2 1820   1.590   2.767  13.866 -2.5907 -1.1130  1.7008
  119MPD2    H3 1821   1.645   2.956  13.727  0.4711 -1.7444  0.8403
  119MPD2     N 1822   1.424   2.806  13.355 -0.2737  0.1802 -0.4588
  119MPD2    H5 1823   1.459   2.878  13.293 -0.0076  1.0475  0.6943
  119MPD2    N1 1824   1.427   2.567  13.790 -0.2931 -0.3834 -0.4026
  119MPD2    H7 1825   1.475   2.540  13.876 -0.2367 -1.2540 -0.7172
  120TCq2    C1 1826   1.338   2.714  13.293 -1.1028 -0.7301  0.6998
  120TCq2    O2 1827   1.261   2.635  13.346  0.1568  0.7843  0.0620
  120TCq2    C2 1828   1.363   2.701  13.153  0.0125 -0.4800 -0.6834
  120TCq2    C3 1829   1.500   2.703  13.118  0.2459  0.6361 -0.1343
  120TCq2    C4 1830   1.536   2.636  13.001  0.6864  0.1672  0.6501
  120TCq2    C5 1831   1.450   2.553  12.937  0.4149 -0.5701 -0.1022
  120TCq2    C6 1832   1.317   2.547  12.971 -0.4557 -0.1985  0.1473
  120TCq2    C7 1833   1.275   2.624  13.082 -0.3745  0.5503 -0.3978
  120TCq2    C8 1834   1.237   2.438  12.930  0.5087  0.5164 -0.5891
  120TCq2    O4 1835   1.266   2.384  12.825 -0.0859  0.1445 -0.2611
  120TCq2    C9 1836   1.673   2.639  12.958 -0.1075  0.6808 -0.2337
  120TCq2    O5 1837   1.735   2.746  12.980 -0.3705 -0.1500 -0.2219
  120TCq2    O6 1838   1.699   2.565  12.859  0.1736  0.3071 -0.4050
  120TCq2    H2 1839   1.579   2.745  13.178 -0.7869  1.1221  0.8817
  120TCq2    H3 1840   1.486   2.494  12.853  3.9766 -1.4311  2.0406
  120TCq2    H4 1841   1.170   2.619  13.108 -0.5785  4.1605 -0.5248
  121TMC2    C1 1842   2.480   3.757  13.814  0.4004 -0.0981  0.4227
  121TMC2    C2 1843   2.419   3.665  13.893  0.8582 -0.0734  0.5113
  121TMC2    C3 1844   2.287   3.663  13.883 -0.7256 -0.0766  0.1370
  121TMC2    C4 1845   2.414   3.853  13.733 -0.2395 -0.9792 -0.0448
  121TMC2    C5 1846   2.280   3.845  13.734  0.1196 -0.2128 -0.2110
  121TMC2    C6 1847   2.210   3.743  13.802  0.1466  0.3486 -0.4810
  121TMC2     C 1848   2.626   3.767  13.830  0.0934  0.1446 -0.5454
  121TMC2     O 1849   2.679   3.717  13.928 -0.1192  0.4750 -0.2857
  121TMC2     H 1850   2.470   3.616  13.975 -1.4535  0.2309  2.1395
  121TMC2    H1 1851   2.468   3.933  13.685 -2.0900  0.4164  0.2041
  121TMC2    H2 1852   2.102   3.734  13.814  0.1979  2.2054  1.5101
  121TMC2    C7 1853   2.200   3.948  13.668  0.6084  0.0876  0.1437
  121TMC2    C8 1854   2.223   3.556  13.957 -0.6623 -0.1382  0.0474
  121TMC2    O1 1855   2.270   4.030  13.612  0.1351 -0.4407  0.2143
  121TMC2    O2 1856   2.136   3.479  13.918 -0.1875 -0.1412  0.2138
  121TMC2    O5 1857   2.271   3.558  14.081 -0.0322 -0.7366  0.4466
  121TMC2    H5 1858   2.324   3.636  14.108 -0.9833 -0.4779  1.5443
  122MPD2     C 1859   2.919   3.847  13.800  0.0082  0.5839 -0.0711
  122MPD2    C1 1860   2.821   3.866  13.704  0.7571  0.2210 -0.3965
  122MPD2    C2 1861   2.852   3.937  13.582  0.2479  0.0348 -0.0731
  122MPD2    C3 1862   2.985   3.976  13.557  0.3001 -0.4025 -0.3117
  122MPD2    C4 1863   3.081   3.930  13.653 -0.2251 -0.0594  0.2387
  122MPD2    C5 1864   3.046   3.879  13.777  0.2666  0.2550  0.2632
  122MPD2     H 1865   2.770   3.948  13.511  1.1757  0.4658 -1.0901
  122MPD2    H1 1866   3.186   3.945  13.632 -0.1825  1.2052  1.3560
  122MPD2    H2 1867   2.893   3.806  13.897  0.2496  0.9022  0.1259
  122MPD2    H3 1868   3.117   3.854  13.855 -0.4078 -0.8903  0.5048
  122MPD2     N 1869   3.013   4.043  13.442 -0.1735 -0.2411 -0.0709
  122MPD2    H5 1870   2.937   4.072  13.381  1.1427 -1.1218 -2.1130
  122MPD2    N1 1871   2.687   3.836  13.722  0.0424  0.7770  0.3072
  122MPD2    H7 1872   2.625   3.849  13.643  0.3291  2.2038  0.3073
  123MPD2     C 1873   1.597   2.065  10.272 -0.2056  0.3022 -0.2617
  123MPD2    C1 1874   1.654   2.087  10.144  0.5986  0.5612 -0.0735
  123MPD2    C2 1875   1.782   2.144  10.137  0.7945  0.0279  0.0202
  123MPD2    C3 1876   1.864   2.159  10.246 -0.7285  0.3193  0.3310
  123MPD2    C4 1877   1.812   2.125  10.368 -0.3323 -0.4101 -0.4690
  123MPD2    C5 1878   1.682   2.086  10.376 -0.5430 -0.6486  0.1079
  123MPD2     H 1879   1.830   2.172  10.044 -0.7348 -0.3587 -0.8921
  123MPD2    H1 1880   1.868   2.148  10.458 -0.8888  0.7260 -0.4080
  123MPD2    H2 1881   1.505   2.009  10.287  0.3127 -0.6584 -0.6693
  123MPD2    H3 1882   1.638   2.056  10.470 -1.8120 -1.4222 -0.7346
  123MPD2     N 1883   1.988   2.218  10.220 -0.1086  0.4794 -0.2386
  123MPD2    H5 1884   2.029   2.232  10.128  0.1373  1.1422 -0.0331
  123MPD2    N1 1885   1.575   2.073  10.033  0.7398  0.0118 -0.2603
  123MPD2    H7 1886   1.476   2.055  10.047  0.5404 -0.4501 -2.2483
  124TCq2    C1 1887   2.084   2.221  10.311  0.5851 -0.4064  0.1175
  124TCq2    O2 1888   2.078   2.224  10.432 -0.0971  0.0088 -0.3692
  124TCq2    C2 1889   2.217   2.208  10.250 -0.2073 -0.6204  0.0281
  124TCq2    C3 1890   2.332   2.220  10.324  0.3065  0.0173  0.4418
  124TCq2    C4 1891   2.448   2.175  10.269 -0.3551  0.3080 -0.0375
  124TCq2    C5 1892   2.459   2.124  10.142  0.1025 -0.1098  0.1416
  124TCq2    C6 1893   2.345   2.133  10.070 -0.5588 -0.1703  0.1232
  124TCq2    C7 1894   2.225   2.173  10.118 -0.0897  0.4065 -0.1697
  124TCq2    C8 1895   2.334   2.082   9.928  0.0037 -0.3391 -0.4879
  124TCq2    O4 1896   2.235   2.113   9.858 -0.4209 -0.3015  0.0900
  124TCq2    C9 1897   2.571   2.179  10.347 -0.2590 -0.2791  0.0916
  124TCq2    O5 1898   2.673   2.127  10.290  0.1858 -0.3602 -0.2316
  124TCq2    O6 1899   2.577   2.255  10.446 -0.1746  0.1452 -0.0608
  124TCq2    H2 1900   2.325   2.256  10.426  1.4649  1.8040 -0.0914
  124TCq2    H3 1901   2.546   2.067  10.110 -1.8145 -2.2056 -1.3859
  124TCq2    H4 1902   2.139   2.165  10.053  0.5466 -0.2197 -0.9378
  125TMC2    C1 1903   2.252   0.187   9.671  0.3187  0.3754  0.4402
  125TMC2    C2 1904   2.358   0.247   9.724  0.0911 -0.2967  0.2767
  125TMC2    C3 1905   2.472   0.229   9.651 -0.1030  0.9400  0.4686
  125TMC2    C4 1906   2.252   0.108   9.560  0.3015 -1.2621 -0.1490
  125TMC2    C5 1907   2.370   0.073   9.508 -0.2302  0.2952  0.3289
  125TMC2    C6 1908   2.480   0.139   9.550 -0.7232 -0.4398 -0.7484
  125TMC2     C 1909   2.140   0.167   9.766 -0.1626 -0.1614  0.2062
  125TMC2     O 1910   2.065   0.074   9.746  0.0943 -0.4914  0.3978
  125TMC2     H 1911   2.360   0.292   9.823  3.7578  1.3885 -0.5556
  125TMC2    H1 1912   2.167   0.046   9.531 -0.2644 -0.3732 -0.3952
  125TMC2    H2 1913   2.578   0.114   9.511  0.0759  1.4914  0.0309
  125TMC2    C7 1914   2.374   4.679   9.420  0.5530  0.4481 -0.1883
  125TMC2    C8 1915   2.597   0.284   9.702  0.5328  0.1880  0.5628
  125TMC2    O1 1916   2.264   4.641   9.382 -0.4750 -0.4134  0.0697
  125TMC2    O2 1917   2.586   0.398   9.745  0.1271  1.2624  0.5072
  125TMC2    O5 1918   2.665   0.186   9.757  0.3390  0.5146  0.4001
  125TMC2    H5 1919   2.632   0.095   9.739 -0.2831  0.8778 -0.3117
  126MPD1     C 1920   1.856   0.285  10.192  0.7119 -0.0529 -0.4221
  126MPD1    C1 1921   1.951   0.380  10.168  0.3902  0.4978  0.7026
  126MPD1    C2 1922   2.032   0.367  10.061 -0.2452 -0.2869 -0.0184
  126MPD1    C3 1923   2.027   0.262   9.967 -0.4825  0.1868 -0.7864
  126MPD1    C4 1924   1.932   0.170   9.992 -0.5168 -0.2857 -0.1219
  126MPD1    C5 1925   1.853   0.187  10.103  0.4666  0.7642 -0.0456
  126MPD1     H 1926   2.094   0.452  10.033 -0.5264 -0.5626 -1.4873
  126MPD1    H1 1927   1.915   0.082   9.931 -1.0669 -0.2554 -0.0140
  126MPD1    H2 1928   1.771   0.293  10.258  0.9686 -0.5001 -0.0315
  126MPD1    H3 1929   1.794   0.101  10.129  1.1059  0.6404  0.9977
  126MPD1     N 1930   2.123   0.267   9.860  0.8782  0.3872  0.6416
  126MPD1    H5 1931   2.188   0.345   9.860 -0.2062  1.2936 -0.2061
  126MPD1    N1 1932   1.939   0.498  10.231  1.0981 -0.1396  0.5209
  126MPD1    H6 1933   2.025   0.550  10.219  1.2535 -0.2062  1.3827
  126MPD1    H7 1934   1.914   0.503  10.329  0.9327 -1.1636  0.5332
  127MPD2     C 1935   3.716   2.977   9.171  0.6012 -0.2708  0.2433
  127MPD2    C1 1936   3.718   2.952   9.312 -0.0290  0.2008 -0.6067
  127MPD2    C2 1937   3.754   3.055   9.402 -0.2033 -0.4472  0.1834
  127MPD2    C3 1938   3.800   3.173   9.351 -0.6232 -0.0079 -0.7364
  127MPD2    C4 1939   3.822   3.182   9.216  0.1485 -0.1578  0.4647
  127MPD2    C5 1940   3.762   3.096   9.130 -0.3370  0.6657 -0.2267
  127MPD2     H 1941   3.756   3.043   9.509  1.1841 -1.5248  0.0330
  127MPD2    H1 1942   3.856   3.268   9.160 -1.7611  0.2294 -0.0962
  127MPD2    H2 1943   3.672   2.904   9.104 -0.3291  0.8300 -0.3263
  127MPD2    H3 1944   3.759   3.125   9.026 -1.9538 -0.4718 -0.4945
  127MPD2     N 1945   3.834   3.272   9.437  0.2595  0.0274  0.3943
  127MPD2    H5 1946   3.826   3.255   9.537  1.9548 -2.1292  0.1608
  127MPD2    N1 1947   3.665   2.829   9.354 -0.4293  0.5054  0.3411
  127MPD2    H7 1948   3.638   2.764   9.281  0.0178  0.1110  0.5288
  128TCq2    C1 1949   3.641   2.780   9.478  0.3559  0.1000 -0.4729
  128TCq2    O2 1950   3.692   2.814   9.581  0.8471  0.0834  0.1148
  128TCq2    C2 1951   3.564   2.656   9.475  0.0271 -0.8466 -0.1438
  128TCq2    C3 1952   3.586   2.567   9.577 -0.4759 -0.8529  0.7282
  128TCq2    C4 1953   3.512   2.457   9.580 -0.1064  0.2883  0.1245
  128TCq2    C5 1954   3.420   2.435   9.491  0.3722 -0.4356 -0.0738
  128TCq2    C6 1955   3.413   2.512   9.381 -0.1264  0.0350  0.6790
  128TCq2    C7 1956   3.480   2.635   9.369 -0.0807 -0.0610 -0.1138
  128TCq2    C8 1957   3.288   2.505   9.307  0.0238 -0.4669  0.4043
  128TCq2    O4 1958   3.269   2.606   9.241  0.4481 -0.3722 -0.1425
  128TCq2    C9 1959   3.525   2.362   9.684 -0.0026 -0.2417  0.6601
  128TCq2    O5 1960   3.422   2.297   9.711 -0.1663  0.2255 -0.0168
  128TCq2    O6 1961   3.623   2.374   9.762  0.2263 -0.0480 -0.3811
  128TCq2    H2 1962   3.653   2.585   9.661  0.5114  1.1470 -0.4998
  128TCq2    H3 1963   3.355   2.352   9.517  0.1374 -0.6313 -1.2419
  128TCq2    H4 1964   3.462   2.701   9.285 -0.6837 -1.9359 -1.4437
  129MPD2     C 1965   0.590   3.948   0.860  0.7206 -0.3078  0.0086
  129MPD2    C1 1966   0.718   3.983   0.899 -0.7014 -0.1395 -0.0678
  129MPD2    C2 1967   0.804   4.032   0.804  0.2741  0.5655  0.1666
  129MPD2    C3 1968   0.756   4.054   0.675  0.1981 -0.1859 -0.4498
  129MPD2    C4 1969   0.619   4.039   0.644  0.8690  0.1646 -0.5448
  129MPD2    C5 1970   0.536   3.991   0.743 -0.4471  0.8803  0.2807
  129MPD2     H 1971   0.910   4.038   0.826  0.8724 -1.3185 -2.2724
  129MPD2    H1 1972   0.580   4.067   0.547 -0.2724 -0.8940 -0.3934
  129MPD2    H2 1973   0.519   3.891   0.919 -0.0277 -0.5606 -1.1288
  129MPD2    H3 1974   0.431   3.967   0.729 -0.7748  2.2070  0.4836
  129MPD2     N 1975   0.848   4.105   0.584 -0.5109  0.4683  0.7826
  129MPD2    H5 1976   0.938   4.122   0.629 -0.2442 -0.5199  0.6188
  129MPD2    N1 1977   0.774   3.943   1.026  0.0850 -0.8236  0.4105
  129MPD2    H7 1978   0.875   3.947   1.019 -0.1276 -0.6788 -2.6573
  130TCq2    C1 1979   0.702   3.880   1.126 -0.1701  1.0706 -0.1247
  130TCq2    O2 1980   0.583   3.872   1.144 -0.1741 -0.6771  0.7756
  130TCq2    C2 1981   0.778   3.813   1.227  0.5145  0.4113 -0.2296
  130TCq2    C3 1982   0.902   3.865   1.261 -1.0726  0.6658 -0.2355
  130TCq2    C4 1983   0.966   3.809   1.366  0.1492 -0.3477 -0.1368
  130TCq2    C5 1984   0.910   3.712   1.443 -0.3792 -0.1737  0.7913
  130TCq2    C6 1985   0.786   3.666   1.409 -0.3903 -0.3215  0.3195
  130TCq2    C7 1986   0.717   3.725   1.305 -0.1883 -0.3855  0.9202
  130TCq2    C8 1987   0.722   3.548   1.466  0.5556 -1.7134 -0.5256
  130TCq2    O4 1988   0.630   3.503   1.398 -0.0468  0.6585 -0.1241
  130TCq2    C9 1989   1.098   3.856   1.403 -0.6377  0.0546 -0.1841
  130TCq2    O5 1990   1.138   3.957   1.345 -0.1426  0.0677 -0.3253
  130TCq2    O6 1991   1.155   3.797   1.499 -0.1856 -0.1484 -0.4278
  130TCq2    H2 1992   0.942   3.953   1.213 -2.2072  1.3126 -0.0079
  130TCq2    H3 1993   0.965   3.667   1.525  0.7914 -2.3822 -1.2129
  130TCq2    H4 1994   0.621   3.684   1.276  0.2796  0.4243 -1.7098
  131MPD2     C 1995   1.122   2.729   9.716 -0.3792 -0.2195  0.3882
  131MPD2    C1 1996   1.230   2.704   9.797 -0.1487 -0.3800  0.6115
  131MPD2    C2 1997   1.268   2.571   9.804  0.1890  0.5149 -0.1016
  131MPD2    C3 1998   1.219   2.469   9.725 -0.1686  0.5284 -0.0364
  131MPD2    C4 1999   1.111   2.500   9.643 -0.1572 -0.3544  0.4583
  131MPD2    C5 2000   1.066   2.626   9.635 -0.5579  0.3397 -0.1798
  131MPD2     H 2001   1.335   2.545   9.885  0.0103  0.4412  0.0226
  131MPD2    H1 2002   1.075   2.430   9.568 -0.3472  1.4771 -1.1485
  131MPD2    H2 2003   1.088   2.831   9.704  0.5244  0.2870  2.1530
  131MPD2    H3 2004   0.998   2.656   9.556  0.6477  1.1776 -0.9053
  131MPD2     N 2005   1.285   2.342   9.735 -0.4711  0.3986  0.6214
  131MPD2    H5 2006   1.358   2.323   9.803 -1.3705 -0.4822  1.3404
  131MPD2    N1 2007   1.292   2.810   9.863  0.2658  0.2402  0.0417
  131MPD2    H7 2008   1.249   2.900   9.847 -1.4162 -1.1873 -3.2668
  132TCq2    C1 2009   1.765   3.078  10.079 -0.0508  0.5056  0.1363
  132TCq2    O2 2010   1.817   2.970  10.103  0.0305 -0.0256  0.4570
  132TCq2    C2 2011   1.635   3.077  10.023 -0.3188  0.4397 -0.5597
  132TCq2    C3 2012   1.545   3.177  10.033  0.2938  1.0245  0.3354
  132TCq2    C4 2013   1.406   3.160  10.004  0.2382  0.9256  0.3633
  132TCq2    C5 2014   1.358   3.038   9.975 -0.5842 -1.7263  0.4601
  132TCq2    C6 2015   1.446   2.935   9.989 -0.6623 -0.2119 -0.5450
  132TCq2    C7 2016   1.580   2.953  10.011 -0.4483  0.3521  0.0128
  132TCq2    C8 2017   1.413   2.799   9.940 -0.3030  0.3807 -0.6885
  132TCq2    O4 2018   1.484   2.702   9.968 -0.6017  0.5061  0.2638
  132TCq2    C9 2019   1.315   3.271  10.039  0.5454  0.3517  0.3549
  132TCq2    O5 2020   1.201   3.263   9.992 -0.3449 -0.3620  0.3552
  132TCq2    O6 2021   1.359   3.386  10.074  0.0028  0.3330  0.1956
  132TCq2    H2 2022   1.580   3.279  10.050  0.0398  1.0292  0.8318
  132TCq2    H3 2023   1.250   3.030   9.975 -0.8020  1.2921 -2.0180
  132TCq2    H4 2024   1.647   2.869   9.996 -1.8012 -0.5973 -0.6968
  133MPD2     C 2025   1.500   3.907   9.370  0.0000 -0.0615 -0.5361
  133MPD2    C1 2026   1.366   3.906   9.395 -0.9308 -0.2009 -0.3087
  133MPD2    C2 2027   1.291   3.789   9.388 -0.2344 -0.6727  0.3939
  133MPD2    C3 2028   1.349   3.670   9.369  0.2951  0.0368 -0.2162
  133MPD2    C4 2029   1.486   3.671   9.336 -0.5242  0.6906  0.4391
  133MPD2    C5 2030   1.560   3.791   9.356 -0.3399  1.0338 -0.1329
  133MPD2     H 2031   1.183   3.788   9.399 -0.1489  0.2221  1.2982
  133MPD2    H1 2032   1.545   3.582   9.314 -0.8106  0.5149  0.3907
  133MPD2    H2 2033   1.557   4.000   9.373  0.0194 -0.1592  1.8111
  133MPD2    H3 2034   1.666   3.787   9.337 -0.0149  0.4261  1.7994
  133MPD2     N 2035   1.292   3.549   9.380  0.9023 -0.7766 -0.1634
  133MPD2    H5 2036   1.357   3.472   9.372 -3.1218 -4.3184  1.1890
  133MPD2    N1 2037   1.304   4.029   9.421  0.2599  0.4292  0.3002
  133MPD2    H7 2038   1.366   4.109   9.404  1.2040 -0.4262 -0.2826
  134TCq2    C1 2039   1.178   4.042   9.466  0.0164  0.6032 -0.3507
  134TCq2    O2 2040   1.093   3.966   9.510 -0.4616  0.0659  0.2524
  134TCq2    C2 2041   1.134   4.186   9.489 -0.1203  0.5333 -0.8687
  134TCq2    C3 2042   1.179   4.285   9.412  0.9373  0.0423  0.9332
  134TCq2    C4 2043   1.128   4.415   9.439 -0.1544  0.4011 -0.6226
  134TCq2    C5 2044   1.043   4.433   9.539 -0.3595  0.2253 -0.2579
  134TCq2    C6 2045   1.000   4.322   9.611 -0.3226 -0.0996  0.7429
  134TCq2    C7 2046   1.060   4.204   9.600 -0.7190  0.2980  0.1895
  134TCq2    C8 2047   0.917   4.342   9.731  0.0254 -0.1645  0.0456
  134TCq2    O4 2048   0.894   4.242   9.798  0.1892 -0.5570 -0.3357
  134TCq2    C9 2049   1.159   4.525   9.347 -0.3922  0.0167 -0.0332
  134TCq2    O5 2050   1.214   4.485   9.239 -0.2676  0.5709  0.7134
  134TCq2    O6 2051   1.103   4.635   9.362 -0.3551 -1.0619 -0.2588
  134TCq2    H2 2052   1.242   4.261   9.327  2.8498 -2.1261  2.9290
  134TCq2    H3 2053   0.992   4.528   9.547 -1.4954 -0.5228  1.2232
  134TCq2    H4 2054   1.042   4.138   9.684  2.0047  0.4086  0.8587
  135MPD2     C 2055   3.198   0.176   9.356  0.1379  0.1523  1.0582
  135MPD2    C1 2056   3.227   0.047   9.398 -0.4839  0.3050 -0.0259
  135MPD2    C2 2057   3.310   4.691   9.324  0.5285  0.3524 -0.2051
  135MPD2    C3 2058   3.372   0.026   9.212 -0.8047 -0.3682 -0.0111
  135MPD2    C4 2059   3.336   0.154   9.172 -0.2409  0.2806  0.2204
  135MPD2    C5 2060   3.251   0.229   9.244  0.1905  0.4998 -1.2199
  135MPD2     H 2061   3.324   4.587   9.350 -0.4612 -0.3169 -2.3864
  135MPD2    H1 2062   3.396   0.205   9.097  0.9083 -1.7801 -0.2469
  135MPD2    H2 2063   3.155   0.249   9.423 -1.1564 -1.2958  1.8220
  135MPD2    H3 2064   3.236   0.334   9.224 -2.4842  0.1775 -0.8686
  135MPD2     N 2065   3.469   4.674   9.130 -0.0466  0.5837  0.5615
  135MPD2    H5 2066   3.483   4.703   9.034 -1.1349 -2.5132 -0.5472
  135MPD2    N1 2067   3.165   4.704   9.510 -0.5150  0.0689 -0.1132
  135MPD2    H7 2068   3.201   4.611   9.525 -1.5299 -0.4844 -1.1337
  136TCq2    C1 2069   3.054   0.034   9.577  0.4449 -0.0955  0.3683
  136TCq2    O2 2070   2.988   0.134   9.558  0.1736  0.0369 -0.4229
  136TCq2    C2 2071   3.002   4.646   9.665 -0.3012 -0.7773  0.3555
  136TCq2    C3 2072   2.872   4.663   9.713 -0.3394  0.1261  0.1096
  136TCq2    C4 2073   2.811   4.550   9.758  0.3544 -0.1261  0.1100
  136TCq2    C5 2074   2.876   4.434   9.775  0.4066  0.2139 -0.1788
  136TCq2    C6 2075   3.009   4.434   9.745 -0.2083 -0.0044 -0.3325
  136TCq2    C7 2076   3.081   4.538   9.694  0.0863  0.4765  0.2451
  136TCq2    C8 2077   3.084   4.316   9.769 -0.5065  0.3493  0.0532
  136TCq2    O4 2078   3.204   4.319   9.740  0.0799  0.6332 -0.4352
  136TCq2    C9 2079   2.669   4.556   9.771  0.0589  0.3550 -0.1707
  136TCq2    O5 2080   2.611   4.452   9.819 -0.6651 -0.2157  0.1819
  136TCq2    O6 2081   2.613   4.659   9.726  0.9774 -0.1536  0.1250
  136TCq2    H2 2082   2.829   0.038   9.685  0.7228  0.1201 -1.5462
  136TCq2    H3 2083   2.820   4.360   9.832  2.0281  0.4227  1.6738
  136TCq2    H4 2084   3.185   4.522   9.667  0.0610  1.1611 -0.2574
  137MPD2     C 2085   3.081   3.255   9.387 -0.4434  0.6155  0.1501
  137MPD2    C1 2086   3.109   3.335   9.495  0.2256 -0.0559  0.2702
  137MPD2    C2 2087   3.088   3.275   9.619 -0.2307  0.4911 -0.7053
  137MPD2    C3 2088   3.048   3.144   9.641 -0.0069  0.7207 -0.5010
  137MPD2    C4 2089   3.052   3.060   9.530  0.7795  0.2220 -0.2814
  137MPD2    C5 2090   3.057   3.117   9.406 -0.6307 -0.6353  0.1012
  137MPD2     H 2091   3.111   3.332   9.709 -1.0367 -2.0353  1.0831
  137MPD2    H1 2092   3.059   2.953   9.545 -2.0420 -0.0242 -0.8256
  137MPD2    H2 2093   3.094   3.300   9.289 -1.5240 -2.1635 -1.2636
  137MPD2    H3 2094   3.041   3.058   9.317  0.5780 -1.0190  0.1394
  137MPD2     N 2095   3.053   3.098   9.780  0.0226  0.9772 -0.4025
  137MPD2    H5 2096   3.078   3.163   9.854  0.3885 -1.5113  1.6514
  137MPD2    N1 2097   3.156   3.462   9.477  0.8924  0.2136  0.0804
  137MPD2    H7 2098   3.191   3.493   9.387  0.1153 -1.9066 -0.9531
  138TCq2    C1 2099   3.157   3.560   9.572  0.0669 -0.0454  0.1737
  138TCq2    O2 2100   3.115   3.555   9.685 -0.3661 -0.4731 -0.3776
  138TCq2    C2 2101   3.196   3.694   9.517  0.2413 -0.1537 -0.6147
  138TCq2    C3 2102   3.274   3.706   9.402  0.2282  0.6513 -1.1231
  138TCq2    C4 2103   3.282   3.831   9.332  0.1976  0.0032 -0.3444
  138TCq2    C5 2104   3.199   3.937   9.368 -0.4878 -0.1212 -0.1972
  138TCq2    C6 2105   3.129   3.917   9.487 -0.1357  0.4729  0.2926
  138TCq2    C7 2106   3.128   3.799   9.561  0.3850 -0.7091 -0.8061
  138TCq2    C8 2107   3.010   4.002   9.490 -0.5128  0.4600 -0.6666
  138TCq2    O4 2108   3.002   4.092   9.409  0.1736  0.9779 -0.8870
  138TCq2    C9 2109   3.361   3.828   9.202  0.3872 -0.0374  0.3711
  138TCq2    O5 2110   3.387   3.717   9.150 -0.4162  0.0845 -0.3650
  138TCq2    O6 2111   3.374   3.941   9.146  0.4217 -0.8867 -0.1976
  138TCq2    H2 2112   3.339   3.625   9.372 -0.0577 -0.1956  0.5098
  138TCq2    H3 2113   3.189   4.033   9.317 -0.9601  0.3477  0.7655
  138TCq2    H4 2114   3.058   3.782   9.643 -1.1100 -0.8158 -2.1002
  139TMC2    C1 2115   2.705   2.113  13.239  0.6044  0.0560  0.1308
  139TMC2    C2 2116   2.802   2.203  13.237 -0.5481 -0.2426  0.9420
  139TMC2    C3 2117   2.772   2.332  13.219 -0.1543  0.0423 -0.0788
  139TMC2    C4 2118   2.579   2.149  13.253 -0.5112 -0.3032 -0.0993
  139TMC2    C5 2119   2.547   2.279  13.257  0.5053 -0.3269 -0.3967
  139TMC2    C6 2120   2.643   2.378  13.252 -0.5197 -0.1435  0.1879
  139TMC2     C 2121   2.743   1.986  13.301  0.7505  0.6941 -0.6375
  139TMC2     O 2122   2.713   1.886  13.238 -0.7968 -0.5845  0.2069
  139TMC2     H 2123   2.903   2.177  13.207 -0.2203 -0.6707  2.4195
  139TMC2    H1 2124   2.500   2.076  13.257 -0.2611 -0.4669  2.0107
  139TMC2    H2 2125   2.614   2.483  13.247  0.7924  0.2928  1.5643
  139TMC2    C7 2126   2.404   2.314  13.285  1.2033  0.3510 -0.1738
  139TMC2    C8 2127   2.873   2.429  13.224 -0.5167 -0.2948 -0.2024
  139TMC2    O1 2128   2.384   2.433  13.279  0.4421  0.1021 -0.2232
  139TMC2    O2 2129   2.974   2.419  13.295 -0.3604 -0.0035 -0.4554
  139TMC2    O5 2130   2.831   2.540  13.165 -0.4425  0.3254  0.5534
  139TMC2    H5 2131   2.746   2.532  13.117 -0.3860 -0.3455  0.5580
  140MPD2     C 2132   2.881   1.951  13.636 -0.4687 -0.2829 -0.3318
  140MPD2    C1 2133   2.850   1.905  13.512 -0.0099 -0.2183  0.5390
  140MPD2    C2 2134   2.841   1.770  13.488  0.6027 -0.3037  0.4287
  140MPD2    C3 2135   2.880   1.689  13.584 -0.4966  0.6582  0.7177
  140MPD2    C4 2136   2.928   1.735  13.705  0.6183 -0.4347  0.1410
  140MPD2    C5 2137   2.930   1.864  13.732 -0.1295 -0.9147  0.1987
  140MPD2     H 2138   2.816   1.734  13.389  0.4652 -1.1383  0.7705
  140MPD2    H1 2139   2.959   1.662  13.778 -1.0548 -0.7568  0.5342
  140MPD2    H2 2140   2.882   2.057  13.659  0.1944 -0.2946 -0.3237
  140MPD2    H3 2141   2.946   1.895  13.835 -1.3446 -0.0989  0.1470
  140MPD2     N 2142   2.874   1.545  13.561  0.4025 -0.4361 -0.0133
  140MPD2    H5 2143   2.870   1.511  13.466  0.1096 -0.2241 -0.0777
  140MPD2    N1 2144   2.813   2.003  13.418  0.7601  0.2772  0.5240
  140MPD2    H7 2145   2.824   2.102  13.437  0.6266  0.0550  1.7482
  141TCq2    C1 2146   3.552   2.739  14.126 -0.1571 -0.1645  0.5973
  141TCq2    O2 2147   3.464   2.788  14.059 -0.1500  0.2652 -0.1541
  141TCq2    C2 2148   3.536   2.735  14.270 -0.1890 -0.0762 -0.3511
  141TCq2    C3 2149   3.556   2.623  14.342  0.1755 -0.4348 -0.2933
  141TCq2    C4 2150   3.547   2.631  14.484  0.6397 -0.1528  0.5913
  141TCq2    C5 2151   3.516   2.754  14.543  0.6187  0.1955  0.1050
  141TCq2    C6 2152   3.490   2.862  14.464  0.0586  0.0797 -0.4090
  141TCq2    C7 2153   3.494   2.849  14.331  0.0398 -0.0155 -0.5288
  141TCq2    C8 2154   3.473   2.987  14.531 -0.3773 -0.3168 -0.3116
  141TCq2    O4 2155   3.432   2.991  14.649 -0.1869  0.0435  0.1071
  141TCq2    C9 2156   3.537   2.517  14.557 -0.2589 -0.1541  0.2146
  141TCq2    O5 2157   3.483   2.524  14.668  0.2064  0.4229  0.4559
  141TCq2    O6 2158   3.548   2.408  14.491  0.0178  0.8845 -0.4551
  141TCq2    H2 2159   3.573   2.524  14.302  1.9733  0.0510 -0.7265
  141TCq2    H3 2160   3.506   2.750  14.651  1.1226  1.3119  0.1894
  141TCq2    H4 2161   3.463   2.932  14.268 -2.1252 -1.0013 -0.7660
  142MPD2     C 2162   1.416   1.641  10.096  0.1529 -0.0633  0.2429
  142MPD2    C1 2163   1.387   1.571   9.988  0.4628 -0.7211  0.3830
  142MPD2    C2 2164   1.461   1.578   9.878  0.1981 -0.1642 -0.2913
  142MPD2    C3 2165   1.588   1.634   9.889 -0.6174 -0.4803 -0.3561
  142MPD2    C4 2166   1.633   1.691  10.003  0.3054 -0.3888 -0.3479
  142MPD2    C5 2167   1.544   1.690  10.106 -0.3880 -0.4654 -0.2413
  142MPD2     H 2168   1.433   1.522   9.790  2.1361 -2.4478  0.5437
  142MPD2    H1 2169   1.725   1.748  10.016 -0.7309  1.4822 -1.3072
  142MPD2    H2 2170   1.357   1.638  10.186 -1.6776 -1.2735 -1.0036
  142MPD2    H3 2171   1.568   1.746  10.196 -0.6937  2.5393 -2.0062
  142MPD2     N 2172   1.683   1.620   9.779 -0.3987  0.1370 -0.2579
  142MPD2    H5 2173   1.780   1.640   9.802 -0.3376  0.6599 -0.9563
  142MPD2    N1 2174   1.272   1.489  10.006  0.3223  0.1377 -0.2099
  142MPD2    H7 2175   1.233   1.480  10.099 -1.5456 -0.3966 -1.0256
  143TCq2    C1 2176   1.647   1.607   9.646  0.3164 -0.5982  0.5641
  143TCq2    O2 2177   1.546   1.559   9.599 -0.6017 -0.6206 -0.0780
  143TCq2    C2 2178   1.760   1.619   9.556  0.2843  1.2164  0.0996
  143TCq2    C3 2179   1.767   1.526   9.451 -0.8465 -0.6017  0.1693
  143TCq2    C4 2180   1.889   1.515   9.387 -0.1403  0.4293 -0.2503
  143TCq2    C5 2181   2.001   1.580   9.440 -0.0084 -0.6767  0.1921
  143TCq2    C6 2182   1.983   1.681   9.536 -0.6814 -0.3715 -0.1279
  143TCq2    C7 2183   1.861   1.694   9.598 -0.0023  0.1148 -0.5686
  143TCq2    C8 2184   2.094   1.760   9.594  0.4321  0.0713  0.1893
  143TCq2    O4 2185   2.069   1.872   9.638  0.5979 -0.5387  0.1919
  143TCq2    C9 2186   1.906   1.410   9.287  0.5555 -0.6326 -0.8736
  143TCq2    O5 2187   1.814   1.331   9.257 -0.3696  0.5538  0.1517
  143TCq2    O6 2188   2.023   1.405   9.247  0.3551 -0.4429  0.3477
  143TCq2    H2 2189   1.686   1.473   9.403 -0.4486  0.2684 -1.4739
  143TCq2    H3 2190   2.103   1.567   9.406  0.9618 -0.5145  3.0700
  143TCq2    H4 2191   1.836   1.774   9.667  1.8978  0.0102  0.2434
  144MPD2     C 2192   3.435   1.480   0.012  0.5616 -0.0021 -0.7953
  144MPD2    C1 2193   3.474   1.380   0.098  0.8836  0.0454  0.0817
  144MPD2    C2 2194   3.600   1.393   0.154 -0.7101 -0.3026  0.0279
  144MPD2    C3 2195   3.692   1.496   0.116  0.7682 -0.6179  0.0198
  144MPD2    C4 2196   3.658   1.591   0.021 -0.2228  0.5301  0.2774
  144MPD2    C5 2197   3.528   1.576  17.657 -0.4405  0.3799 -0.5370
  144MPD2     H 2198   3.628   1.313   0.221  0.5766 -1.1680 -1.5406
  144MPD2    H1 2199   3.717   1.674  17.671 -0.0356 -0.2934 -1.3903
  144MPD2    H2 2200   3.336   1.486  17.652  0.1074 -0.3051  0.1514
  144MPD2    H3 2201   3.497   1.641  17.576  1.7743  0.4045 -1.3724
  144MPD2     N 2202   3.818   1.506   0.178 -0.1258 -0.0966 -0.2958
  144MPD2    H5 2203   3.878   1.569   0.126 -0.0565  0.6355  0.6646
  144MPD2    N1 2204   3.394   1.272   0.141 -0.1574  0.5926 -0.2483
  144MPD2    H7 2205   3.435   1.213   0.212 -1.3856 -0.5047 -0.4579
  145TCq2    C1 2206   3.867   1.435   0.283  0.6025 -1.1892  0.1545
  145TCq2    O2 2207   3.812   1.366   0.370 -0.1744  0.3243  0.6069
  145TCq2    C2 2208   4.014   1.444   0.299 -0.2511  0.2706  0.5595
  145TCq2    C3 2209   4.088   1.539   0.243 -0.6655  0.3130 -0.7064
  145TCq2    C4 2210   4.222   1.521   0.233 -0.2283  0.0840  0.3103
  145TCq2    C5 2211   4.286   1.409   0.281  0.3625 -0.3920  0.3302
  145TCq2    C6 2212   4.210   1.313   0.346  0.1070  0.6211 -0.5113
  145TCq2    C7 2213   4.074   1.325   0.342 -0.0247  0.4695 -0.4461
  145TCq2    C8 2214   4.283   1.203   0.405 -0.6480  0.3081 -0.2344
  145TCq2    O4 2215   4.400   1.183   0.373 -0.0398  0.3646  0.3864
  145TCq2    C9 2216   4.300   1.622   0.172  0.4443 -0.8888  0.2610
  145TCq2    O5 2217   4.238   1.685   0.085 -0.9691 -0.0159  0.3850
  145TCq2    O6 2218   4.424   1.635   0.204  0.0366  0.0729  0.3365
  145TCq2    H2 2219   4.043   1.629   0.203  0.4167  0.6562 -1.1489
  145TCq2    H3 2220   4.394   1.404   0.281  0.4604  1.6634 -1.0373
  145TCq2    H4 2221   4.012   1.242   0.375  1.7141 -0.5691  0.2757
  146TMC2    C1 2222   4.270   4.368  12.711 -0.0303 -0.2976 -0.4188
  146TMC2    C2 2223   4.179   4.408  12.617  0.4586  0.2513 -0.0650
  146TMC2    C3 2224   4.132   4.323  12.518 -0.1763  0.3682 -0.2226
  146TMC2    C4 2225   4.331   4.248  12.689 -0.0162 -0.0297 -0.6345
  146TMC2    C5 2226   4.302   4.174  12.572 -0.0281  0.0227 -1.0808
  146TMC2    C6 2227   4.197   4.205  12.495 -0.1614  0.3077  0.3410
  146TMC2     C 2228   4.296   4.456  12.819 -0.0294  0.2773  0.1536
  146TMC2     O 2229   4.216   4.546  12.843 -0.3794  0.0936 -0.2364
  146TMC2     H 2230   4.150   4.512  12.627 -0.6735  0.0906 -1.6054
  146TMC2    H1 2231   4.389   4.186  12.757  1.0839  0.4078 -1.1740
  146TMC2    H2 2232   4.164   4.140  12.414  2.2028 -0.0415 -0.3360
  146TMC2    C7 2233   4.366   4.044  12.544 -1.0099  0.6009  0.0386
  146TMC2    C8 2234   4.042   4.366  12.416  0.6449 -0.5360  0.3801
  146TMC2    O1 2235   4.312   3.975  12.455  0.7169  0.2395  0.1887
  146TMC2    O2 2236   3.966   4.453  12.447  0.5555  0.0793 -0.0844
  146TMC2    O5 2237   4.122   4.378  12.305  0.6799  0.3525 -0.4249
  146TMC2    H5 2238   4.208   4.331  12.307  0.8181  0.5772 -0.9248
  147MPD2     C 2239   0.033   3.711  12.581 -0.3512  0.1416 -0.8657
  147MPD2    C1 2240   0.074   3.832  12.626 -0.2084  0.0876 -0.2835
  147MPD2    C2 2241   4.708   3.940  12.637 -0.1740 -0.0936 -0.3444
  147MPD2    C3 2242   4.575   3.925  12.597  0.1758 -0.5927 -0.8002
  147MPD2    C4 2243   4.535   3.799  12.556 -0.4039 -0.1737 -0.1115
  147MPD2    C5 2244   4.626   3.697  12.544 -0.0365 -0.1815 -0.4747
  147MPD2     H 2245   0.019   4.043  12.649  1.0215 -0.6106  0.9405
  147MPD2    H1 2246   4.433   3.763  12.550 -1.3340  2.3659  0.5371
  147MPD2    H2 2247   0.107   3.633  12.571 -0.3977  0.0917 -0.8234
  147MPD2    H3 2248   4.594   3.603  12.500  1.0036 -0.4551 -0.6291
  147MPD2     N 2249   4.488   4.033  12.609 -0.0737  0.4536 -0.6603
  147MPD2    H5 2250   4.529   4.118  12.646 -1.9234  1.3279 -0.5956
  147MPD2    N1 2251   0.213   3.846  12.667 -0.3389  0.5554 -0.0303
  147MPD2    H7 2252   0.278   3.777  12.633 -0.2908  1.9115 -2.7154
  148MPD2     C 2253   0.848   3.352  10.458 -0.0207 -0.3722 -0.2951
  148MPD2    C1 2254   0.901   3.239  10.402 -0.4771 -0.1060  1.2965
  148MPD2    C2 2255   0.817   3.155  10.332 -0.0968  0.7183 -0.0246
  148MPD2    C3 2256   0.684   3.175  10.332  0.4354 -0.2503 -0.0395
  148MPD2    C4 2257   0.636   3.288  10.388  0.2032  0.0903 -0.5908
  148MPD2    C5 2258   0.718   3.388  10.434  0.0482 -0.3919  0.3631
  148MPD2     H 2259   0.855   3.071  10.275  0.6182 -0.1457  1.7089
  148MPD2    H1 2260   0.529   3.299  10.382  0.0099 -1.2766  0.5295
  148MPD2    H2 2261   0.906   3.424  10.514 -1.0393  0.4729 -0.3226
  148MPD2    H3 2262   0.674   3.477  10.477  2.0202  1.0025 -0.5354
  148MPD2     N 2263   0.591   3.076  10.291 -0.5264  0.3882 -0.2829
  148MPD2    H5 2264   0.500   3.117  10.272 -0.2440  0.2861 -1.9011
  148MPD2    N1 2265   1.038   3.206  10.399  0.1412  0.2368 -0.4215
  148MPD2    H7 2266   1.062   3.115  10.362  0.9864  0.1227  0.3949
  149TCq2    C1 2267   1.142   3.280  10.448 -0.6169 -0.4328 -0.3646
  149TCq2    O2 2268   1.146   3.386  10.508  0.7089  0.4206 -0.5360
  149TCq2    C2 2269   1.275   3.218  10.421  0.5175  0.5345 -0.5175
  149TCq2    C3 2270   1.370   3.261  10.506 -0.0461  0.1104 -0.4580
  149TCq2    C4 2271   1.485   3.186  10.518 -0.5517 -0.1710  0.2408
  149TCq2    C5 2272   1.491   3.059  10.460  0.2022  0.7592  0.2170
  149TCq2    C6 2273   1.391   3.022  10.377  0.3316  0.4695  0.3812
  149TCq2    C7 2274   1.285   3.104  10.353 -0.0675  0.4384 -0.1179
  149TCq2    C8 2275   1.359   2.892  10.341 -0.3859 -0.0223 -0.1842
  149TCq2    O4 2276   1.241   2.880  10.319  0.0573  0.5861  0.1090
  149TCq2    C9 2277   1.570   3.225  10.627  0.4604  0.1253 -0.0264
  149TCq2    O5 2278   1.574   3.349  10.650  0.4201  0.7608  0.0467
  149TCq2    O6 2279   1.631   3.137  10.689  0.1696 -0.0639 -0.4493
  149TCq2    H2 2280   1.348   3.338  10.580 -0.9505 -0.2224 -0.3836
  149TCq2    H3 2281   1.581   2.999  10.467 -0.8273 -0.7688  0.1226
  149TCq2    H4 2282   1.206   3.091  10.280 -1.0772  1.2617  0.8296
  150MPD2     C 2283   2.111   2.582  11.926  0.3364 -0.0659  0.5953
  150MPD2    C1 2284   2.123   2.601  11.793  0.6795  0.3356  0.5778
  150MPD2    C2 2285   2.235   2.665  11.744 -0.7829 -0.4118 -0.9201
  150MPD2    C3 2286   2.334   2.706  11.830  0.2530 -0.3841  0.0524
  150MPD2    C4 2287   2.333   2.667  11.960 -0.1531  0.2367  0.3668
  150MPD2    C5 2288   2.218   2.615  12.008 -0.8886 -0.2640 -0.3845
  150MPD2     H 2289   2.248   2.676  11.637 -0.4936  0.3624 -0.8043
  150MPD2    H1 2290   2.405   2.693  12.037  2.7341 -0.9660 -1.9456
  150MPD2    H2 2291   2.023   2.534  11.966  2.2145 -0.0776  4.7095
  150MPD2    H3 2292   2.206   2.590  12.113 -1.8607  2.4576  0.1586
  150MPD2     N 2293   2.442   2.767  11.766 -0.6313  0.7221  0.2463
  150MPD2    H5 2294   2.439   2.783  11.666 -1.3327 -0.8810  0.0269
  150MPD2    N1 2295   2.025   2.547  11.715 -0.2351  0.3276  0.2763
  150MPD2    H7 2296   1.970   2.471  11.754  0.8292 -1.0721 -0.9440
  151TCq2    C1 2297   2.563   2.802  11.823 -0.3997  0.1132 -0.4112
  151TCq2    O2 2298   2.605   2.763  11.933 -0.5420 -0.2255  0.3216
  151TCq2    C2 2299   2.648   2.863  11.716 -0.1295  0.1777 -0.4332
  151TCq2    C3 2300   2.582   2.946  11.628  0.0916  0.0235 -0.0087
  151TCq2    C4 2301   2.652   2.997  11.525 -0.1201 -0.0234  0.1276
  151TCq2    C5 2302   2.783   2.955  11.500  0.1437 -0.4473  0.3359
  151TCq2    C6 2303   2.843   2.871  11.591  0.5626 -0.2250 -0.6664
  151TCq2    C7 2304   2.781   2.821  11.705  0.0478 -0.0249 -0.3834
  151TCq2    C8 2305   2.989   2.860  11.581 -0.4383 -0.5116 -0.1703
  151TCq2    O4 2306   3.051   2.961  11.549  0.9132  0.0895 -0.2822
  151TCq2    C9 2307   2.587   3.065  11.415 -0.0577  0.4247  0.6607
  151TCq2    O5 2308   2.464   3.086  11.429 -0.4300 -0.0693  0.3036
  151TCq2    O6 2309   2.664   3.110  11.326 -0.3222 -0.2590  0.1589
  151TCq2    H2 2310   2.475   2.962  11.636 -0.1707 -1.3643 -0.7941
  151TCq2    H3 2311   2.835   2.994  11.413 -0.8952 -0.3084 -0.2342
  151TCq2    H4 2312   2.824   2.748  11.774  1.4291  0.6860 -0.4807
  152MPD2     C 2313   2.003   1.679  12.690  0.2684  1.3872 -0.2518
  152MPD2    C1 2314   2.017   1.809  12.634 -1.0261 -0.0794  0.1769
  152MPD2    C2 2315   1.904   1.870  12.605  0.1642  0.2600  0.4960
  152MPD2    C3 2316   1.776   1.818  12.620  0.1920 -0.3289 -0.0555
  152MPD2    C4 2317   1.758   1.688  12.670  0.5132  0.5130 -0.1151
  152MPD2    C5 2318   1.879   1.620  12.706 -0.3628  0.1380 -0.0257
  152MPD2     H 2319   1.909   1.968  12.560 -0.6299 -0.0013 -0.1703
  152MPD2    H1 2320   1.671   1.624  12.675  1.2609 -0.5091 -0.0638
  152MPD2    H2 2321   2.095   1.624  12.705 -0.5821  0.2332  0.7336
  152MPD2    H3 2322   1.867   1.523  12.753  1.0296 -0.0230  0.0011
  152MPD2     N 2323   1.666   1.898  12.586 -0.2271  0.3687 -0.4602
  152MPD2    H5 2324   1.687   1.990  12.549 -2.5984  0.7931 -0.7534
  152MPD2    N1 2325   2.144   1.864  12.625 -0.0047  0.3638 -0.2785
  152MPD2    H7 2326   2.221   1.830  12.683  0.2159  1.2161 -0.0567
  153TCq2    C1 2327   2.181   1.980  12.561  0.2820  0.6761 -0.0459
  153TCq2    O2 2328   2.100   2.047  12.494 -0.1386 -0.0482 -0.0830
  153TCq2    C2 2329   2.321   2.015  12.573  0.8920 -0.4146 -0.0942
  153TCq2    C3 2330   2.415   1.919  12.585  0.0856 -0.1397  0.0910
  153TCq2    C4 2331   2.541   1.962  12.558 -0.1000  0.0675  0.1444
  153TCq2    C5 2332   2.581   2.089  12.519  0.3298  0.1867  0.2136
  153TCq2    C6 2333   2.482   2.184  12.523 -0.0436  0.8936  0.0599
  153TCq2    C7 2334   2.353   2.145  12.545  0.0712  0.3685  0.5338
  153TCq2    C8 2335   2.510   2.332  12.545 -0.8072  0.5042 -0.0622
  153TCq2    O4 2336   2.420   2.409  12.517 -0.1273 -0.6710  0.5696
  153TCq2    C9 2337   2.640   1.864  12.575 -0.1616 -0.1205 -0.5552
  153TCq2    O5 2338   2.616   1.772  12.653  0.3674  0.0072  0.5969
  153TCq2    O6 2339   2.751   1.884  12.518  0.0831  0.6611  0.0914
  153TCq2    H2 2340   2.388   1.818  12.615 -0.1491  0.2268  1.0958
  153TCq2    H3 2341   2.687   2.112  12.519  0.2565  0.5385 -1.1034
  153TCq2    H4 2342   2.274   2.220  12.555  1.0271  1.3032  1.0579
  154MPD2     C 2343   2.769   1.939  17.499  0.6613  0.4608  0.9292
  154MPD2    C1 2344   2.738   2.059  17.561 -0.1996 -0.0888  0.3406
  154MPD2    C2 2345   2.766   2.074   0.013 -1.1700 -0.2084  0.0825
  154MPD2    C3 2346   2.838   1.980   0.079 -0.5039  0.1781  0.4356
  154MPD2    C4 2347   2.886   1.868   0.019 -0.1488  0.3962  0.8849
  154MPD2    C5 2348   2.851   1.847  17.568  0.1689  0.7691 -1.0354
  154MPD2     H 2349   2.730   2.164   0.061 -0.6630 -0.1416  0.3408
  154MPD2    H1 2350   2.950   1.797   0.070  0.9590  1.3983  0.8930
  154MPD2    H2 2351   2.744   1.912  17.397  1.7100  3.8090 -0.2071
  154MPD2    H3 2352   2.890   1.759  17.518 -0.7068  0.2218 -0.7435
  154MPD2     N 2353   2.876   2.007   0.209  0.4709 -0.3963  0.2019
  154MPD2    H5 2354   2.863   2.104   0.235 -2.5365 -0.2492 -1.8667
  154MPD2    N1 2355   2.666   2.155  17.480 -0.8250  0.8757  0.1870
  154MPD2    H7 2356   2.668   2.131  17.381  3.0376 -0.2362  0.5352
  155TCq2    C1 2357   2.594   2.260  17.530  0.0786  0.1143 -0.1286
  155TCq2    O2 2358   2.586   2.286  17.648 -0.7705  0.1675 -0.3742
  155TCq2    C2 2359   2.520   2.330  17.432 -0.2773  0.2585 -0.3635
  155TCq2    C3 2360   2.428   2.411  17.487 -0.0663  0.0716 -0.0156
  155TCq2    C4 2361   2.384   2.516  17.416  0.0138 -0.4882 -0.0702
  155TCq2    C5 2362   2.423   2.543  17.288  0.0146 -0.0668  0.2080
  155TCq2    C6 2363   2.515   2.455  17.235  0.0277 -0.7194 -0.3892
  155TCq2    C7 2364   2.548   2.341  17.300  0.2030  0.3233 -0.6777
  155TCq2    C8 2365   2.557   2.469  17.095  0.5437  0.1103  0.4708
  155TCq2    O4 2366   2.664   2.427  17.056  0.0871  0.3165 -0.3020
  155TCq2    C9 2367   2.312   2.616  17.493  0.1837  0.3824 -1.0593
  155TCq2    O5 2368   2.306   2.603  17.617  0.0969 -0.4463  0.6186
  155TCq2    O6 2369   2.284   2.722  17.433  0.0287  0.4978  0.3932
  155TCq2    H2 2370   2.390   2.402  17.588 -0.1888  0.0500 -0.0634
  155TCq2    H3 2371   2.381   2.636  17.250 -0.5691  0.9754  3.3918
  155TCq2    H4 2372   2.621   2.275  17.254 -1.3654 -1.7904 -0.1533
  156MPD2     C 2373   2.897   4.366  11.986 -0.3872  0.2953  0.3036
  156MPD2    C1 2374   2.823   4.452  11.911 -0.2478  0.7288  0.2572
  156MPD2    C2 2375   2.714   4.513  11.977 -0.8879 -0.9739  0.1083
  156MPD2    C3 2376   2.675   4.471  12.104  0.1307 -0.7161  0.8677
  156MPD2    C4 2377   2.759   4.387  12.177  0.5133  0.2479 -0.3987
  156MPD2    C5 2378   2.869   4.339  12.121 -0.3331 -0.0893 -0.3662
  156MPD2     H 2379   2.650   4.586  11.929 -0.2421 -0.8891 -0.6183
  156MPD2    H1 2380   2.737   4.360  12.280 -1.4852  1.5898 -0.4662
  156MPD2    H2 2381   2.983   4.313  11.946 -1.6822 -2.4496  1.1124
  156MPD2    H3 2382   2.938   4.289  12.188 -0.7764  0.2819  0.3721
  156MPD2     N 2383   2.556   4.524  12.158  0.2750 -0.1029 -0.3438
  156MPD2    H5 2384   2.512   4.598  12.104  1.2175 -0.4721 -1.6125
  156MPD2    N1 2385   2.854   4.477  11.776 -0.1253  0.1922 -0.3426
  156MPD2    H7 2386   2.938   4.436  11.737 -1.1553 -1.3915 -0.9096
  157TCq2    C1 2387   2.772   4.541  11.684 -0.8877  0.9329 -0.7664
  157TCq2    O2 2388   2.659   4.581  11.706  0.3296 -0.1029 -0.3318
  157TCq2    C2 2389   2.809   4.510  11.548  0.0967 -0.9681  0.2893
  157TCq2    C3 2390   2.940   4.498  11.506  0.3656 -0.2857 -0.9893
  157TCq2    C4 2391   2.955   4.459  11.376  0.1307 -0.8413  0.3958
  157TCq2    C5 2392   2.851   4.459  11.292 -0.3683 -0.5145 -0.3249
  157TCq2    C6 2393   2.726   4.497  11.335 -0.0377 -0.2549  0.1425
  157TCq2    C7 2394   2.701   4.525  11.466 -0.2041  0.3054  0.3004
  157TCq2    C8 2395   2.619   4.505  11.233  0.2352 -0.0974 -0.4747
  157TCq2    O4 2396   2.613   4.428  11.135  0.6099 -0.8193  0.3014
  157TCq2    C9 2397   3.080   4.452  11.311  0.0925  1.0685 -0.4378
  157TCq2    O5 2398   3.083   4.432  11.190 -0.7161  0.2846 -0.5414
  157TCq2    O6 2399   3.179   4.469  11.385 -0.9007 -0.4684  0.5361
  157TCq2    H2 2400   3.020   4.504  11.579 -1.1883  1.5442  0.5636
  157TCq2    H3 2401   2.864   4.435  11.188 -0.5276  1.5325 -0.8199
  157TCq2    H4 2402   2.602   4.539  11.506 -0.1917  1.8763 -0.2069
  158TMC2    C1 2403   3.102   3.214  13.600  0.6294  0.1632  0.0338
  158TMC2    C2 2404   3.185   3.248  13.502 -0.5207  0.4147 -0.6429
  158TMC2    C3 2405   3.137   3.251  13.375 -0.0506  0.1118 -0.0610
  158TMC2    C4 2406   2.969   3.207  13.576  0.0048 -0.2361  0.1078
  158TMC2    C5 2407   2.926   3.196  13.449 -0.0095  0.1184  0.4961
  158TMC2    C6 2408   3.007   3.220  13.341  1.1174  0.1556 -0.5247
  158TMC2     C 2409   3.166   3.181  13.730  0.1731  0.1503 -0.3966
  158TMC2     O 2410   3.281   3.212  13.757 -0.4518 -1.0183  0.3769
  158TMC2     H 2411   3.292   3.238  13.509 -0.2903  3.0742 -0.2543
  158TMC2    H1 2412   2.903   3.202  13.662  0.0558 -0.1244  0.1544
  158TMC2    H2 2413   2.971   3.214  13.239 -0.8737 -1.9968  0.2882
  158TMC2    C7 2414   2.786   3.228  13.424  0.7664 -0.2691 -0.2352
  158TMC2    C8 2415   3.238   3.256  13.266 -0.5073  0.1012 -0.2101
  158TMC2    O1 2416   2.758   3.298  13.327  0.1513 -0.1913 -0.2867
  158TMC2    O2 2417   3.340   3.319  13.285 -0.0699  0.3992  0.3671
  158TMC2    O5 2418   3.200   3.225  13.141 -0.1202  0.4216 -0.8023
  158TMC2    H5 2419   3.116   3.174  13.139  0.4277 -0.5367  0.3862
  159MPD2     C 2420   3.138   3.014  14.214  0.6381 -0.9290  0.3147
  159MPD2    C1 2421   3.038   2.955  14.146  0.6448 -0.5775 -0.4690
  159MPD2    C2 2422   3.018   2.990  14.015 -0.7434  0.1538 -0.1365
  159MPD2    C3 2423   3.109   3.073  13.945 -0.1329 -0.0389  0.0320
  159MPD2    C4 2424   3.206   3.136  14.024 -0.2764 -0.1058 -0.2703
  159MPD2    C5 2425   3.220   3.102  14.158 -0.1625  0.0166  0.8356
  159MPD2     H 2426   2.934   2.956  13.955 -2.1429  2.4308  0.5437
  159MPD2    H1 2427   3.281   3.203  13.983  1.1115 -0.6634  1.3335
  159MPD2    H2 2428   3.151   2.977  14.315  1.7863 -2.8856 -0.5509
  159MPD2    H3 2429   3.310   3.143  14.204 -1.0948  0.4048  2.3042
  159MPD2     N 2430   3.085   3.102  13.810 -0.0173 -0.3518  0.4444
  159MPD2    H5 2431   3.008   3.056  13.763 -0.9353  1.6288 -0.0033
  159MPD2    N1 2432   2.968   2.852  14.220  0.3594  0.0572  0.0118
  159MPD2    H7 2433   3.005   2.821  14.309 -0.3743  1.8010  0.9331
  160TMC2    C1 2434   2.151   1.636   1.317  0.1440  0.4770 -0.0446
  160TMC2    C2 2435   2.050   1.612   1.402 -0.0593 -0.4794 -0.2060
  160TMC2    C3 2436   2.020   1.490   1.448  0.1623  0.2579  0.3512
  160TMC2    C4 2437   2.225   1.530   1.262 -0.3792  0.2828 -0.1859
  160TMC2    C5 2438   2.182   1.404   1.298 -0.0971  0.2721 -0.0803
  160TMC2    C6 2439   2.084   1.379   1.396 -0.3600 -0.2928  0.0237
  160TMC2     C 2440   2.175   1.764   1.249 -0.5552  0.5107 -0.0292
  160TMC2     O 2441   2.277   1.773   1.186  0.0876 -0.1919 -0.4985
  160TMC2     H 2442   2.005   1.699   1.448  0.4432  0.2726 -1.1437
  160TMC2    H1 2443   2.282   1.548   1.171 -0.8839  1.7357 -0.2205
  160TMC2    H2 2444   2.054   1.280   1.426 -0.6467 -0.0015  0.7057
  160TMC2    C7 2445   2.285   1.298   1.309  0.3909 -0.0785 -0.8666
  160TMC2    C8 2446   1.916   1.488   1.543 -0.0089  0.2235 -0.0179
  160TMC2    O1 2447   2.265   1.193   1.369  0.3255 -0.3380  0.4957
  160TMC2    O2 2448   1.828   1.573   1.553 -0.3528 -0.4546 -0.3634
  160TMC2    O5 2449   1.915   1.373   1.610 -0.1004  0.2171 -0.7905
  160TMC2    H5 2450   2.007   1.338   1.617 -0.5244 -0.2541  2.5559
  161MPD2     C 2451   2.180   2.055   1.206  0.0225 -0.1236  0.4301
  161MPD2    C1 2452   2.063   1.983   1.217  0.6762 -0.5722  0.3566
  161MPD2    C2 2453   1.942   2.035   1.193 -0.0333  0.3437  0.0574
  161MPD2    C3 2454   1.934   2.165   1.139 -0.0000  0.7785 -0.0009
  161MPD2    C4 2455   2.043   2.244   1.136  0.3387  0.1909 -0.0690
  161MPD2    C5 2456   2.166   2.187   1.169 -0.0120  0.8380  0.6632
  161MPD2     H 2457   1.851   1.976   1.196  0.0449  0.2275  0.1425
  161MPD2    H1 2458   2.034   2.348   1.105  2.6809 -0.0168 -1.4539
  161MPD2    H2 2459   2.278   2.021   1.237  1.1609  0.7941 -2.1779
  161MPD2    H3 2460   2.254   2.251   1.167  0.4650  0.2054  1.6608
  161MPD2     N 2461   1.811   2.231   1.096 -0.0952 -0.0913  0.4201
  161MPD2    H5 2462   1.806   2.332   1.097  0.7898 -0.0258 -1.4064
  161MPD2    N1 2463   2.068   1.848   1.261 -0.8313 -0.9544 -0.7408
  161MPD2    H7 2464   1.978   1.807   1.285 -0.3788 -0.6921  1.3974
  162TMC2    C1 2465   4.672   3.269   0.622 -0.0281  0.1832  0.5456
  162TMC2    C2 2466   4.586   3.297   0.519  0.7735 -0.0210 -1.2461
  162TMC2    C3 2467   4.454   3.298   0.547  0.0523  0.0323  0.5156
  162TMC2    C4 2468   4.631   3.224   0.745 -0.5827 -0.6086  0.8374
  162TMC2    C5 2469   4.490   3.219   0.766  0.2676  0.0539  0.3009
  162TMC2    C6 2470   4.405   3.264   0.667 -0.8450  0.8095 -0.2637
  162TMC2     C 2471   0.090   3.247   0.583 -0.9713 -0.1046  0.1132
  162TMC2     O 2472   0.112   3.261   0.462 -0.7065  0.0213  0.7059
  162TMC2     H 2473   4.625   3.331   0.424  2.8820 -1.1651 -0.7905
  162TMC2    H1 2474   4.697   3.172   0.813 -0.0762 -1.4126 -0.2693
  162TMC2    H2 2475   4.303   3.268   0.703 -0.8947  0.6344 -0.3836
  162TMC2    C7 2476   4.436   3.160   0.885  0.0171  0.7981  0.6576
  162TMC2    C8 2477   4.368   3.297   0.431 -0.3107  0.1218 -0.1492
  162TMC2    O1 2478   4.321   3.126   0.872  0.4170 -0.2044 -0.3390
  162TMC2    O2 2479   4.395   3.250   0.319 -0.8169 -0.5505  0.6772
  162TMC2    O5 2480   4.247   3.347   0.461  0.1477 -0.2333 -0.3865
  162TMC2    H5 2481   4.241   3.401   0.543  1.9002  2.1693 -1.8405
  163MPD2     C 2482   0.581   3.164   0.705  0.2431 -0.3252  0.9984
  163MPD2    C1 2483   0.518   3.166   0.582  0.3512 -0.3414 -0.2642
  163MPD2    C2 2484   0.379   3.195   0.572 -0.5867  0.3250  0.5909
  163MPD2    C3 2485   0.313   3.234   0.689  0.2335 -0.3483  0.6007
  163MPD2    C4 2486   0.380   3.245   0.811  0.5079  0.5615 -0.0791
  163MPD2    C5 2487   0.506   3.204   0.818 -0.3261 -0.3321  0.0443
  163MPD2     H 2488   0.327   3.188   0.477  1.4665 -1.9779 -0.3831
  163MPD2    H1 2489   0.334   3.289   0.899  0.0571 -1.7983  0.8887
  163MPD2    H2 2490   0.685   3.136   0.712  0.2885 -0.4161  0.0130
  163MPD2    H3 2491   0.557   3.212   0.913 -2.2764  2.3425  0.8872
  163MPD2     N 2492   0.172   3.259   0.692 -0.5613 -0.2891  0.4172
  163MPD2    H5 2493   0.141   3.259   0.788  1.6354 -0.0541  1.1430
  163MPD2    N1 2494   0.598   3.132   0.467 -0.1953  0.0384 -0.4212
  163MPD2    H7 2495   0.690   3.092   0.481  0.7427  0.7485 -4.6137
  164TCq2    C1 2496   1.156   3.130  10.762  0.3165 -0.8577 -0.4602
  164TCq2    O2 2497   1.037   3.104  10.737  0.7743  0.6765  0.0050
  164TCq2    C2 2498   1.185   3.253  10.837  0.8137  0.9933  0.7690
  164TCq2    C3 2499   1.317   3.293  10.875  0.1837  0.4687  0.2570
  164TCq2    C4 2500   1.322   3.399  10.965 -0.3091 -0.0520 -0.4646
  164TCq2    C5 2501   1.207   3.454  11.017  0.2044 -0.4450  0.3249
  164TCq2    C6 2502   1.082   3.418  10.979 -0.2993 -0.5840  0.4086
  164TCq2    C7 2503   1.066   3.314  10.888  0.4509 -0.1715  0.2012
  164TCq2    C8 2504   0.965   3.471  11.042 -0.1312  0.1892 -0.1818
  164TCq2    O4 2505   0.863   3.491  10.975  0.0261  0.5520 -0.3246
  164TCq2    C9 2506   1.448   3.452  11.012  0.1283 -0.4968 -0.0988
  164TCq2    O5 2507   1.543   3.384  10.966 -0.4485  0.5670  0.4361
  164TCq2    O6 2508   1.459   3.574  11.034  0.0664 -0.7805 -0.2450
  164TCq2    H2 2509   1.410   3.252  10.837  0.5828  0.0213  1.7048
  164TCq2    H3 2510   1.216   3.539  11.084 -2.4514 -0.0632  0.2166
  164TCq2    H4 2511   0.968   3.290  10.850 -0.6386  1.3476  2.0273
  165MPD2     C 2512   1.481   0.504   1.284 -0.0451 -0.6933  0.2242
  165MPD2    C1 2513   1.527   0.395   1.356 -0.8775 -0.0059 -0.4871
  165MPD2    C2 2514   1.649   0.401   1.423  0.1972 -0.1102 -0.0542
  165MPD2    C3 2515   1.723   0.522   1.419 -0.1342 -0.5862  0.8728
  165MPD2    C4 2516   1.675   0.629   1.343  0.3265  0.0920  0.2180
  165MPD2    C5 2517   1.557   0.624   1.273  0.2516  0.4616  0.2826
  165MPD2     H 2518   1.680   0.324   1.493 -0.6637 -1.5449 -1.2572
  165MPD2    H1 2519   1.738   0.718   1.348 -2.7662  2.2907  0.0893
  165MPD2    H2 2520   1.396   0.498   1.216 -1.6083  2.2780  1.8947
  165MPD2    H3 2521   1.529   0.709   1.212  0.6549 -0.0601 -0.6254
  165MPD2     N 2522   1.836   0.543   1.495  0.0445 -0.4075  0.5838
  165MPD2    H5 2523   1.871   0.638   1.503 -0.0376 -0.2055 -1.3358
  165MPD2    N1 2524   1.447   0.276   1.339  0.7691 -0.3911  0.4481
  165MPD2    H7 2525   1.361   0.271   1.285  1.7356  0.0351 -1.1161
  166TCq2    C1 2526   1.929   0.444   1.515 -0.4997  1.0974 -0.0283
  166TCq2    O2 2527   1.927   0.327   1.470  0.0916 -0.2049 -0.0806
  166TCq2    C2 2528   2.063   0.489   1.556 -0.4623 -0.3637 -0.2231
  166TCq2    C3 2529   2.073   0.612   1.622  0.4073  0.0943 -0.0287
  166TCq2    C4 2530   2.199   0.651   1.657 -0.3506 -0.6457  0.7687
  166TCq2    C5 2531   2.303   0.580   1.626 -0.7302 -0.1556  0.7053
  166TCq2    C6 2532   2.288   0.468   1.550  0.1448 -0.6630 -0.2513
  166TCq2    C7 2533   2.167   0.415   1.517 -0.3850  0.5734  0.6663
  166TCq2    C8 2534   2.407   0.404   1.502 -0.5020  0.1177  1.2604
  166TCq2    O4 2535   2.512   0.449   1.548  0.0786  0.2044  0.0720
  166TCq2    C9 2536   2.206   0.775   1.730 -0.2459  0.0296 -0.3307
  166TCq2    O5 2537   2.111   0.856   1.728 -0.2039 -0.6176 -0.5850
  166TCq2    O6 2538   2.316   0.794   1.786  0.0348 -0.0075  0.6879
  166TCq2    H2 2539   1.990   0.672   1.657  0.4934 -1.6488  3.1890
  166TCq2    H3 2540   2.402   0.617   1.650 -0.0347 -2.1012  0.8241
  166TCq2    H4 2541   2.153   0.340   1.441  1.9443 -1.5210  2.2813
  167TMC2    C1 2542   0.214   2.724  12.481  0.3882 -0.3615 -0.3598
  167TMC2    C2 2543   0.112   2.709  12.571 -0.1733  0.1597  0.1392
  167TMC2    C3 2544   0.090   2.585  12.628  0.0019  0.7315  0.5328
  167TMC2    C4 2545   0.299   2.619  12.449  0.6482  0.4429  0.2751
  167TMC2    C5 2546   0.272   2.494  12.508 -0.1132 -0.3126  0.3275
  167TMC2    C6 2547   0.167   2.474  12.598  0.3886  0.6461  0.2644
  167TMC2     C 2548   0.238   2.849  12.426 -0.0277  0.0521 -0.2415
  167TMC2     O 2549   0.176   2.932  12.488 -0.0130  0.3119 -0.9250
  167TMC2     H 2550   0.032   2.783  12.570 -0.4762 -0.1568  1.9107
  167TMC2    H1 2551   0.374   2.625  12.372  0.5641 -0.4128  0.1212
  167TMC2    H2 2552   0.148   2.375  12.639  0.7341  0.1773 -0.7281
  167TMC2    C7 2553   0.339   2.376  12.464  0.2020  0.4894  0.2032
  167TMC2    C8 2554   4.714   2.566  12.726 -0.2186  0.3355  0.2153
  167TMC2    O1 2555   0.335   2.279  12.542  0.2943  0.1537  0.0206
  167TMC2    O2 2556   4.674   2.453  12.751  0.0491  0.0004  0.1448
  167TMC2    O5 2557   4.636   2.673  12.740 -0.0153  0.5387  0.1975
  167TMC2    H5 2558   4.683   2.760  12.737 -0.1066  0.5829  0.0243
  168MPD2     C 2559   0.226   3.067  12.228  0.3039 -0.6452  0.3818
  168MPD2    C1 2560   0.289   2.951  12.201  0.2351  0.4566 -0.3599
  168MPD2    C2 2561   0.341   2.918  12.078  0.0206  0.4916 -0.2516
  168MPD2    C3 2562   0.321   3.000  11.970 -0.2628 -0.1047 -0.0660
  168MPD2    C4 2563   0.257   3.117  11.995  0.3048  0.5572 -0.0412
  168MPD2    C5 2564   0.197   3.145  12.119  0.5098  0.3789  0.0324
  168MPD2     H 2565   0.391   2.821  12.072  0.5940  0.9334 -2.6560
  168MPD2    H1 2566   0.227   3.186  11.916 -1.8216  0.2403  0.5201
  168MPD2    H2 2567   0.176   3.086  12.322  2.0360  0.0013  1.1718
  168MPD2    H3 2568   0.125   3.225  12.131  0.0892  0.1169 -0.7425
  168MPD2     N 2569   0.325   2.942  11.838 -0.6364  0.2785  1.1809
  168MPD2    H5 2570   0.297   2.995  11.756  1.7129  1.1165  0.9151
  168MPD2    N1 2571   0.285   2.845  12.299 -0.3145  0.1775 -0.5954
  168MPD2    H7 2572   0.312   2.751  12.273 -2.2771 -0.4184 -0.5294
  169MPD1     C 2573   3.134   2.536   8.772  0.1028  0.0155 -0.8949
  169MPD1    C1 2574   3.054   2.428   8.761 -0.4176 -0.0753 -0.2253
  169MPD1    C2 2575   3.101   2.302   8.816  0.6610 -0.4595 -0.2547
  169MPD1    C3 2576   3.211   2.304   8.905 -0.1292  1.1603  0.1696
  169MPD1    C4 2577   3.279   2.429   8.922 -0.3344 -0.4756  0.9343
  169MPD1    C5 2578   3.248   2.537   8.849  0.5970 -0.0170 -0.0978
  169MPD1     H 2579   3.051   2.209   8.793  0.1306  0.2590 -2.0487
  169MPD1    H1 2580   3.365   2.441   8.987 -0.9214  1.4127  1.3633
  169MPD1    H2 2581   3.105   2.626   8.718  0.1079 -0.1292 -1.1386
  169MPD1    H3 2582   3.310   2.624   8.864  0.3779  0.4154 -1.7253
  169MPD1     N 2583   3.260   2.177   8.956  0.0468 -0.4275  0.7085
  169MPD1    H5 2584   3.206   2.094   8.936  2.6062 -1.7218 -0.8061
  169MPD1    N1 2585   2.969   2.418   8.649 -0.2232 -0.0983  0.4939
  169MPD1    H6 2586   2.911   2.499   8.630  1.2462  1.2702  1.8271
  169MPD1    H7 2587   2.906   2.338   8.656 -0.2758 -0.1241 -0.3275
  170MPD1     C 2588   1.089   0.406  12.924 -0.6919 -0.3440  0.5787
  170MPD1    C1 2589   1.096   0.547  12.929 -0.5995 -0.1481 -0.5089
  170MPD1    C2 2590   1.134   0.606  13.051  0.0641  0.1458  0.9049
  170MPD1    C3 2591   1.206   0.533  13.137 -0.8830 -0.1784  0.0651
  170MPD1    C4 2592   1.216   0.392  13.122 -0.1071  0.7083  0.4785
  170MPD1    C5 2593   1.155   0.334  13.016 -0.1072  0.8732 -0.0833
  170MPD1     H 2594   1.110   0.708  13.078  0.5235  0.4548  0.1547
  170MPD1    H1 2595   1.282   0.334  13.185 -0.1023  1.8248  1.5117
  170MPD1    H2 2596   1.040   0.355  12.842 -1.5123  0.2448  0.7013
  170MPD1    H3 2597   1.153   0.226  13.013  4.6242  0.7616 -0.0802
  170MPD1     N 2598   1.260   0.603  13.248 -0.0264 -0.3543  0.2749
  170MPD1    H5 2599   1.238   0.702  13.237  1.7471  0.0927  0.8397
  170MPD1    N1 2600   1.025   0.632  12.837  0.0336 -0.2843 -0.1370
  170MPD1    H6 2601   1.068   0.723  12.820 -0.0997  0.0829  1.5265
  170MPD1    H7 2602   1.016   0.588  12.746  2.0771 -0.8239 -0.0788
  171MPD1     C 2603   4.286   1.499  15.744  0.1644  0.4247  0.1264
  171MPD1    C1 2604   4.289   1.383  15.673  0.3482  0.3224  0.2883
  171MPD1    C2 2605   4.409   1.316  15.677  0.0567 -0.2702 -0.3466
  171MPD1    C3 2606   4.513   1.350  15.757  0.0856 -0.7796 -1.3134
  171MPD1    C4 2607   4.503   1.463  15.841 -0.5774  0.2819  0.2432
  171MPD1    C5 2608   4.388   1.533  15.834 -0.2441  0.8960  0.0591
  171MPD1     H 2609   4.418   1.223  15.621 -0.6742  0.0589 -1.0247
  171MPD1    H1 2610   4.582   1.498  15.907 -1.5717  1.1717  0.9683
  171MPD1    H2 2611   4.198   1.562  15.738 -0.7034 -0.8120 -0.0229
  171MPD1    H3 2612   4.369   1.621  15.894 -2.3296  0.4418  0.0692
  171MPD1     N 2613   4.635   1.284  15.769 -1.0216 -0.4310 -0.5391
  171MPD1    H5 2614   4.699   1.312  15.842 -1.5165 -0.5129 -0.0765
  171MPD1    N1 2615   4.194   1.364  15.565  0.3596 -0.2068  0.3158
  171MPD1    H6 2616   4.191   1.265  15.542 -0.8000 -0.3258  0.9996
  171MPD1    H7 2617   4.099   1.398  15.577  0.3492  0.0014 -0.3667
  172MPD1     C 2618   3.711   0.940   0.736  0.6912 -0.5215 -0.4917
  172MPD1    C1 2619   3.596   0.951   0.656 -0.2694  0.0571  0.4074
  172MPD1    C2 2620   3.605   0.963   0.517  0.2682  0.1040  0.2665
  172MPD1    C3 2621   3.733   0.965   0.455  0.4990  0.2915  0.4793
  172MPD1    C4 2622   3.842   0.942   0.533  0.2808 -0.8678  0.0489
  172MPD1    C5 2623   3.828   0.927   0.673  0.0767 -0.2889 -0.3324
  172MPD1     H 2624   3.516   0.989   0.461  0.6934 -0.7244 -0.7969
  172MPD1    H1 2625   3.939   0.944   0.485 -0.1172 -0.6090 -0.7484
  172MPD1    H2 2626   3.718   0.925   0.843  3.7245 -1.9636 -0.8767
  172MPD1    H3 2627   3.917   0.912   0.734 -1.1576  2.3194  2.1354
  172MPD1     N 2628   3.762   0.983   0.317 -0.1063 -0.3174  0.9619
  172MPD1    H5 2629   3.856   0.964   0.283 -0.0179  0.5552  0.7009
  172MPD1    N1 2630   3.464   0.934   0.718 -0.2335  0.1727 -0.5223
  172MPD1    H6 2631   3.461   0.958   0.817  1.6829  2.0356 -0.9153
  172MPD1    H7 2632   3.407   1.001   0.667 -0.1689  1.3263  0.9115
  173MPD1     C 2633   0.033   1.164  14.653 -0.0195 -0.2870  0.5817
  173MPD1    C1 2634   0.079   1.110  14.767 -0.7953  0.0566 -0.2266
  173MPD1    C2 2635   0.166   1.000  14.749  0.6090  0.0193  0.0756
  173MPD1    C3 2636   0.187   0.943  14.625 -0.3221 -0.1477 -0.2848
  173MPD1    C4 2637   0.129   0.997  14.510 -0.4860 -0.6706 -0.0420
  173MPD1    C5 2638   0.062   1.117  14.529 -0.0346  0.4990  0.2982
  173MPD1     H 2639   0.214   0.964  14.840 -0.1282  1.2041  0.9423
  173MPD1    H1 2640   0.138   0.960  14.409 -0.8337  1.7273 -0.9250
  173MPD1    H2 2641   4.695   1.254  14.667  0.2297 -0.5103  3.0523
  173MPD1    H3 2642   0.024   1.171  14.443 -0.9051  0.9764  0.9830
  173MPD1     N 2643   0.274   0.831  14.616  0.4577  0.7212  0.8199
  173MPD1    H5 2644   0.313   0.791  14.701 -0.1488 -1.4778  0.0596
  173MPD1    N1 2645   0.066   1.180  14.883 -0.1300 -0.2962 -0.0884
  173MPD1    H6 2646   0.091   1.136  14.972 -0.5555 -0.3267  0.0179
  173MPD1    H7 2647   4.691   1.211  14.900  0.3277  0.3158  1.3136
  174MPD1     C 2648   0.756   0.370  13.822  0.6689  0.2327 -0.3078
  174MPD1    C1 2649   0.774   0.288  13.927 -0.2386 -0.7375  0.6366
  174MPD1    C2 2650   0.723   0.329  14.044  0.4050 -0.1850 -0.0229
  174MPD1    C3 2651   0.621   0.433  14.051  0.5160  0.0800  0.2474
  174MPD1    C4 2652   0.585   0.497  13.935 -0.2115  0.8675 -0.0677
  174MPD1    C5 2653   0.654   0.468  13.817 -1.0902  0.2649 -0.1742
  174MPD1     H 2654   0.761   0.283  14.134 -1.1260 -0.3500  0.5335
  174MPD1    H1 2655   0.506   0.570  13.925  0.9505  1.7318 -2.8670
  174MPD1    H2 2656   0.827   0.344  13.744  0.9724  1.4134 -0.4202
  174MPD1    H3 2657   0.632   0.519  13.724  0.2310 -1.0719 -1.2216
  174MPD1     N 2658   0.565   0.477  14.175 -0.3163 -0.6935  0.0594
  174MPD1    H5 2659   0.485   0.537  14.162  0.5241 -0.0143 -2.0255
  174MPD1    N1 2660   0.872   0.193  13.931  0.0927 -0.3614  0.2877
  174MPD1    H6 2661   0.871   0.146  13.841  0.8877  0.8416 -0.3453
  174MPD1    H7 2662   0.860   0.120  14.001  1.3663 -2.3738 -1.5645
  175MPD1     C 2663   3.815   1.765  14.864 -0.0652 -0.4728  0.8742
  175MPD1    C1 2664   3.839   1.633  14.896 -0.0021  0.0494  0.1731
  175MPD1    C2 2665   3.808   1.583  15.022 -0.0997 -0.2477  0.1920
  175MPD1    C3 2666   3.767   1.674  15.119 -0.1219  0.3229 -0.5032
  175MPD1    C4 2667   3.749   1.806  15.089  0.8713  0.9009  0.3040
  175MPD1    C5 2668   3.772   1.845  14.965 -0.4794  0.0005  0.2493
  175MPD1     H 2669   3.823   1.476  15.034  2.3420  0.1946  0.9586
  175MPD1    H1 2670   3.705   1.878  15.156  2.1044 -0.1767  2.2933
  175MPD1    H2 2671   3.831   1.809  14.766 -0.5149 -2.4042 -0.0560
  175MPD1    H3 2672   3.765   1.951  14.941  0.3544  0.0383  0.1501
  175MPD1     N 2673   3.719   1.627  15.245  0.3736  0.0742 -0.2240
  175MPD1    H5 2674   3.669   1.692  15.304 -0.2482 -2.0049  1.5137
  175MPD1    N1 2675   3.858   1.539  14.788 -0.3765 -0.6658 -0.1311
  175MPD1    H6 2676   3.920   1.460  14.804  0.4665 -0.0219 -0.2355
  175MPD1    H7 2677   3.903   1.591  14.713 -0.6974 -1.8252 -1.1392
  176MPD1     C 2678   0.496   2.687  17.023 -0.5527 -0.0981  0.4034
  176MPD1    C1 2679   0.400   2.767  17.088 -0.5723  0.4525 -0.3700
  176MPD1    C2 2680   0.347   2.882  17.028  0.8137  0.1315 -0.2092
  176MPD1    C3 2681   0.399   2.920  16.906  0.4532 -0.4798  0.0646
  176MPD1    C4 2682   0.488   2.835  16.843 -0.2348  0.3231 -0.3565
  176MPD1    C5 2683   0.544   2.730  16.904 -0.3584 -0.0700  0.1862
  176MPD1     H 2684   0.271   2.935  17.085 -1.4972 -1.0210 -2.2190
  176MPD1    H1 2685   0.519   2.857  16.741 -0.2854  0.9707 -0.2332
  176MPD1    H2 2686   0.540   2.599  17.069  0.8471  1.6167  2.3244
  176MPD1    H3 2687   0.619   2.674  16.848 -0.4783  1.3988 -1.4603
  176MPD1     N 2688   0.373   3.052  16.848 -0.5266  0.3146  0.4971
  176MPD1    H5 2689   0.312   3.115  16.898 -0.7234  0.7101 -0.2378
  176MPD1    N1 2690   0.335   2.713  17.195 -0.1377 -0.2921 -0.5772
  176MPD1    H6 2691   0.275   2.778  17.245  2.0752  0.8519  0.5865
  176MPD1    H7 2692   0.408   2.676  17.256 -0.9099  0.0622  0.5545
  177MPD1     C 2693   4.165   3.139  10.208  0.1819 -0.5852  0.0391
  177MPD1    C1 2694   4.084   3.074  10.115 -0.0640  0.0196  0.0206
  177MPD1    C2 2695   4.018   3.156  10.023 -0.7681  0.6246 -0.4354
  177MPD1    C3 2696   4.042   3.293  10.007 -0.0365  0.3038  0.3704
  177MPD1    C4 2697   4.137   3.346  10.090  0.0202 -0.1684  0.4964
  177MPD1    C5 2698   4.199   3.274  10.189  0.0675  0.7161  0.6162
  177MPD1     H 2699   3.937   3.114   9.964  1.1107  0.5005 -2.9168
  177MPD1    H1 2700   4.160   3.452  10.084 -0.9187  0.0827  1.3212
  177MPD1    H2 2701   4.221   3.077  10.276  1.5064 -0.4404 -0.9143
  177MPD1    H3 2702   4.269   3.328  10.251  2.2925 -3.7757  2.0431
  177MPD1     N 2703   3.981   3.362   9.903 -0.1498 -0.0079 -0.0352
  177MPD1    H5 2704   3.916   3.310   9.845 -0.0708 -1.4839  1.1919
  177MPD1    N1 2705   4.043   2.937  10.148 -0.6668 -0.2490  0.0956
  177MPD1    H6 2706   4.026   2.871  10.072 -1.9154  0.3076 -0.1062
  177MPD1    H7 2707   4.118   2.897  10.203  1.1876  3.0729  0.0193
  178MPD1     C 2708   0.801   3.697  17.448  0.1937  0.0659  0.9347
  178MPD1    C1 2709   0.814   3.625  17.338 -0.3537 -0.5790 -0.8015
  178MPD1    C2 2710   0.890   3.668  17.232 -0.6750 -0.6561  0.1909
  178MPD1    C3 2711   0.959   3.782  17.248 -0.5396  0.8914  0.1094
  178MPD1    C4 2712   0.957   3.854  17.367 -0.5734 -0.5866  0.7591
  178MPD1    C5 2713   0.870   3.818  17.469  0.6002  0.1851 -0.3379
  178MPD1     H 2714   0.903   3.602  17.148  1.3897 -1.1149  0.8559
  178MPD1    H1 2715   1.017   3.944  17.369 -0.7208 -0.5892  4.2080
  178MPD1    H2 2716   0.748   3.657  17.534  1.2044 -1.3180  0.9144
  178MPD1    H3 2717   0.870   3.881  17.557  1.1056  1.0910 -0.9922
  178MPD1     N 2718   1.057   3.827  17.147  0.2469  1.0926 -0.0023
  178MPD1    H5 2719   1.093   3.920  17.163  3.1808  0.6644 -4.0938
  178MPD1    N1 2720   0.714   3.523  17.313  0.2437 -0.5641 -0.3901
  178MPD1    H6 2721   0.762   3.447  17.266  0.8137 -1.6924  1.9752
  178MPD1    H7 2722   0.670   3.488  17.398  0.3194  0.9848  0.2882
  179MPD1     C 2723   1.105   2.545  15.314 -1.3826  0.2183  0.0583
  179MPD1    C1 2724   1.114   2.414  15.347  0.1694  0.4566 -0.6872
  179MPD1    C2 2725   1.065   2.358  15.462 -0.2779  0.4622  0.1404
  179MPD1    C3 2726   0.987   2.438  15.550 -0.8930 -0.1444  0.2104
  179MPD1    C4 2727   0.968   2.569  15.510  0.0244 -0.7887  0.5802
  179MPD1    C5 2728   1.032   2.624  15.400 -0.3549 -0.4640 -0.3163
  179MPD1     H 2729   1.068   2.251  15.473  0.7101  0.6508  1.7179
  179MPD1    H1 2730   0.898   2.624  15.570  0.4176 -1.5071  1.7017
  179MPD1    H2 2731   1.149   2.585  15.223 -1.0842 -0.8294 -0.2544
  179MPD1    H3 2732   1.019   2.730  15.381 -0.2190 -0.3066  0.4632
  179MPD1     N 2733   0.927   2.392  15.668 -0.0382  0.1878  0.4647
  179MPD1    H5 2734   0.864   2.450  15.722 -1.6356 -1.3688  0.2669
  179MPD1    N1 2735   1.197   2.325  15.276  0.1964  0.1246  0.0217
  179MPD1    H6 2736   1.218   2.352  15.180 -0.0886  1.3215  0.2945
  179MPD1    H7 2737   1.158   2.231  15.278  0.1406  0.1421 -0.2758
  180MPD1     C 2738   1.498   3.861  14.699  0.6436 -0.0824  0.6180
  180MPD1    C1 2739   1.382   3.803  14.742  0.0147 -0.1254  0.0920
  180MPD1    C2 2740   1.266   3.866  14.706  0.9193  0.7219 -0.1071
  180MPD1    C3 2741   1.265   3.975  14.616  0.2799  0.0954 -0.4733
  180MPD1    C4 2742   1.381   4.030  14.568  0.8817  0.2664 -0.3051
  180MPD1    C5 2743   1.498   3.979  14.620  0.2090 -0.1129  0.3943
  180MPD1     H 2744   1.171   3.842  14.752 -0.1221  3.3681 -0.8837
  180MPD1    H1 2745   1.387   4.116  14.502 -1.2596  2.0842  1.8893
  180MPD1    H2 2746   1.594   3.826  14.737  0.2831 -1.1977  0.5118
  180MPD1    H3 2747   1.596   4.015  14.589 -0.5153 -0.5347 -2.3990
  180MPD1     N 2748   1.139   4.023  14.579 -0.3501 -0.1961 -1.1741
  180MPD1    H5 2749   1.056   3.992  14.628  1.1996 -0.4785  1.2571
  180MPD1    N1 2750   1.373   3.709  14.844  0.5689 -0.1286 -0.4627
  180MPD1    H6 2751   1.288   3.653  14.838  0.1534  0.6089 -1.4857
  180MPD1    H7 2752   1.449   3.641  14.839  0.4269 -0.2084 -1.5910
  181MPD1     C 2753   2.958   0.454   9.740 -0.1811  0.1682  0.2726
  181MPD1    C1 2754   2.939   0.557   9.830  0.2164  0.1278 -0.5939
  181MPD1    C2 2755   3.051   0.624   9.871 -0.1153 -0.3970 -0.8896
  181MPD1    C3 2756   3.177   0.584   9.827  0.2478  0.4259 -0.1092
  181MPD1    C4 2757   3.188   0.472   9.744  0.3771 -0.6957 -0.2810
  181MPD1    C5 2758   3.077   0.411   9.699 -0.4755 -0.7073  0.1677
  181MPD1     H 2759   3.040   0.712   9.934  0.7077 -0.7664 -0.2349
  181MPD1    H1 2760   3.289   0.439   9.721  1.1215  2.3074 -1.3476
  181MPD1    H2 2761   2.873   0.395   9.709  0.5952 -0.9903  0.3728
  181MPD1    H3 2762   3.085   0.323   9.637  0.7401 -0.8317  0.5058
  181MPD1     N 2763   3.293   0.653   9.859 -0.5247  0.1388  0.6151
  181MPD1    H5 2764   3.382   0.606   9.847 -1.4242 -1.9643  2.0952
  181MPD1    N1 2765   2.813   0.620   9.840 -0.0412  0.2502 -0.1958
  181MPD1    H6 2766   2.736   0.558   9.816  0.3774 -0.6260  0.7269
  181MPD1    H7 2767   2.795   0.670   9.927 -0.3365 -0.8303  0.3569
  182MPD1     C 2768   4.116   4.668   1.806 -0.1942 -0.2473 -0.2108
  182MPD1    C1 2769   4.137   4.552   1.731 -0.0095  0.3352  0.2320
  182MPD1    C2 2770   4.021   4.489   1.679 -0.2968  0.3397  0.1625
  182MPD1    C3 2771   3.895   4.541   1.697  0.0782  0.1449 -0.2769
  182MPD1    C4 2772   3.876   4.660   1.769 -0.0708 -0.2621  0.5385
  182MPD1    C5 2773   3.990   0.005   1.820 -0.4781  0.7167  0.2881
  182MPD1     H 2774   4.035   4.399   1.622 -1.4315  0.0514  0.3329
  182MPD1    H1 2775   3.777   4.703   1.775  1.1858  2.7275 -0.0849
  182MPD1    H2 2776   4.198   4.712   1.860  0.2985  0.2387 -1.3671
  182MPD1    H3 2777   3.982   0.077   1.900  0.3997 -0.9929  1.9103
  182MPD1     N 2778   3.773   4.484   1.653  0.3197  0.7126 -0.1468
  182MPD1    H5 2779   3.684   4.532   1.663  0.0031 -0.2522  1.7089
  182MPD1    N1 2780   4.262   4.490   1.734  0.2446 -0.1882 -0.9902
  182MPD1    H6 2781   4.337   4.555   1.710  0.0670 -0.3150 -1.8856
  182MPD1    H7 2782   4.268   4.409   1.672 -2.9861 -1.0363 -0.1622
  183MPD1     C 2783   4.531   1.495   9.281 -0.5914  0.3834  0.0708
  183MPD1    C1 2784   4.592   1.378   9.327 -0.3595 -0.1076  0.2824
  183MPD1    C2 2785   4.532   1.256   9.294  0.5438 -0.6642  0.6862
  183MPD1    C3 2786   4.414   1.251   9.226  0.2165  0.2574  0.2761
  183MPD1    C4 2787   4.363   1.369   9.174  0.0315  0.5656  0.1498
  183MPD1    C5 2788   4.419   1.487   9.201  0.1102  0.0481  0.8005
  183MPD1     H 2789   4.582   1.166   9.327  0.4290 -0.2105  2.0978
  183MPD1    H1 2790   4.275   1.380   9.112  0.1068  2.4613  0.3674
  183MPD1    H2 2791   4.572   1.592   9.308 -1.2381  1.0520 -1.3640
  183MPD1    H3 2792   4.380   1.586   9.178 -1.7665 -1.1828 -1.3002
  183MPD1     N 2793   4.350   1.130   9.231 -0.4423  0.3731  0.1243
  183MPD1    H5 2794   4.400   1.048   9.263  0.9401  1.3115  0.3290
  183MPD1    N1 2795   0.003   1.381   9.378  0.2235  0.2873  0.0252
  183MPD1    H6 2796   0.015   1.466   9.433  1.4928  2.0369 -2.9165
  183MPD1    H7 2797   0.026   1.296   9.428 -2.2935  0.0189  0.6712
  184MPD1     C 2798   3.210   2.593  10.015 -0.6848 -0.3120 -0.0400
  184MPD1    C1 2799   3.237   2.719  10.064  0.0753 -0.0748  0.2642
  184MPD1    C2 2800   3.279   2.825   9.989  0.2120 -0.6484 -0.3871
  184MPD1    C3 2801   3.289   2.800   9.857  0.6939  0.2429 -0.4158
  184MPD1    C4 2802   3.269   2.678   9.803  0.0755 -0.5986 -0.0312
  184MPD1    C5 2803   3.226   2.578   9.878 -0.1845 -0.3246  0.6061
  184MPD1     H 2804   3.304   2.922  10.030  0.0354 -1.3146  1.3259
  184MPD1    H1 2805   3.291   2.653   9.700  1.2980 -1.5371  0.4637
  184MPD1    H2 2806   3.198   2.500  10.069  1.3008 -0.6898 -0.2692
  184MPD1    H3 2807   3.237   2.479   9.835 -0.3242  0.1267 -0.4621
  184MPD1     N 2808   3.336   2.899   9.766  0.5349 -0.9466 -0.3413
  184MPD1    H5 2809   3.327   2.873   9.668  0.3277 -2.1023 -0.0155
  184MPD1    N1 2810   3.235   2.724  10.206  0.6866  0.3535  0.2766
  184MPD1    H6 2811   3.172   2.658  10.252  1.1236 -0.3254 -0.1001
  184MPD1    H7 2812   3.206   2.813  10.247 -1.4669  0.0044 -0.4920
  185MPD1     C 2813   3.351   3.142   8.799  0.1585  0.7366 -0.1472
  185MPD1    C1 2814   3.369   3.031   8.878 -0.7076 -0.3754 -0.6371
  185MPD1    C2 2815   3.403   3.047   9.013  0.5239  0.3080 -0.6414
  185MPD1    C3 2816   3.409   3.176   9.067  0.0445 -0.2608 -0.7768
  185MPD1    C4 2817   3.398   3.289   8.989  0.2858 -0.3339 -0.1386
  185MPD1    C5 2818   3.370   3.268   8.854  0.3321  0.5180 -0.2966
  185MPD1     H 2819   3.414   2.962   9.079 -1.8080 -0.5834 -1.4048
  185MPD1    H1 2820   3.408   3.385   9.039  0.4070 -1.1114  1.3461
  185MPD1    H2 2821   3.326   3.133   8.694  2.5572  3.4326 -0.9546
  185MPD1    H3 2822   3.370   3.349   8.782 -0.4061 -0.1752 -1.0816
  185MPD1     N 2823   3.432   3.190   9.203  0.4833 -0.4784  0.2467
  185MPD1    H5 2824   3.435   3.288   9.229 -3.0215 -0.2600 -0.1520
  185MPD1    N1 2825   3.332   2.908   8.827 -0.4060 -0.1679  0.3119
  185MPD1    H6 2826   3.348   2.897   8.727  0.8070 -1.3612  0.6432
  185MPD1    H7 2827   3.381   2.830   8.870 -1.1018 -0.0385  1.3249
  186MPD1     C 2828   1.660   1.901  15.587  0.1890 -0.0474 -0.1640
  186MPD1    C1 2829   1.766   1.982  15.637  0.0458 -0.2149  0.0263
  186MPD1    C2 2830   1.737   2.105  15.698 -0.2624 -0.1563  0.4115
  186MPD1    C3 2831   1.609   2.141  15.729 -0.9043  0.1242 -0.6341
  186MPD1    C4 2832   1.507   2.056  15.684  0.5575  0.9347 -0.4357
  186MPD1    C5 2833   1.534   1.941  15.607 -0.0396 -0.2852 -0.0364
  186MPD1     H 2834   1.820   2.170  15.722 -1.3817  1.2992  0.2909
  186MPD1    H1 2835   1.407   2.081  15.715 -0.0929 -0.7859 -1.1634
  186MPD1    H2 2836   1.694   1.810  15.539 -0.9783 -1.4914  1.7424
  186MPD1    H3 2837   1.453   1.885  15.561 -1.1364  2.3577 -1.3008
  186MPD1     N 2838   1.570   2.257  15.804  0.6527  0.4575  0.0152
  186MPD1    H5 2839   1.470   2.261  15.822  1.0279  1.8301  1.7336
  186MPD1    N1 2840   1.890   1.951  15.586 -0.5546 -0.4061 -0.3269
  186MPD1    H6 2841   1.961   1.978  15.654 -0.4302  1.3818 -1.1833
  186MPD1    H7 2842   1.907   1.851  15.571  0.0399 -0.4378  0.5733
  187MPD1     C 2843   0.116   0.435   0.510 -0.2113 -1.0393 -0.2286
  187MPD1    C1 2844   0.062   0.312   0.494 -0.0580  0.0925 -0.0902
  187MPD1    C2 2845   0.089   0.238   0.381  0.6740 -0.5570 -0.6044
  187MPD1    C3 2846   0.179   0.272   0.287  0.0221  0.1257  0.6491
  187MPD1    C4 2847   0.233   0.396   0.297 -0.2268  0.4358  0.8761
  187MPD1    C5 2848   0.196   0.477   0.405 -0.6689 -0.5426 -0.3743
  187MPD1     H 2849   0.054   0.135   0.376  0.1645 -0.3112 -2.0108
  187MPD1    H1 2850   0.298   0.440   0.223  0.0947  0.2501  1.0504
  187MPD1    H2 2851   0.078   0.500   0.588 -0.3576 -1.4582  0.0432
  187MPD1    H3 2852   0.237   0.577   0.408  1.9741 -1.6447  0.5116
  187MPD1     N 2853   0.223   0.184   0.188 -0.6295  0.8619  0.0893
  187MPD1    H5 2854   0.299   0.221   0.132  0.2418  0.8615  1.2691
  187MPD1    N1 2855   4.688   0.268   0.591  0.6651 -0.1708 -0.3298
  187MPD1    H6 2856   4.707   0.311   0.681 -1.4976 -0.1106  0.1028
  187MPD1    H7 2857   4.664   0.169   0.589 -0.1096  0.0299 -1.5288
  188MPD1     C 2858   4.620   0.191   9.418  0.5224 -0.0917  0.1398
  188MPD1    C1 2859   4.643   0.079   9.339 -1.0514 -0.4390 -0.1748
  188MPD1    C2 2860   4.713   4.692   9.396 -0.3789  0.0094  0.1250
  188MPD1    C3 2861   0.042   4.701   9.517 -0.0062  0.1174 -0.0713
  188MPD1    C4 2862   4.717   0.079   9.599  0.4108 -0.8521  0.1563
  188MPD1    C5 2863   4.659   0.189   9.553 -0.0941  0.4244 -0.0560
  188MPD1     H 2864   4.717   4.606   9.330  1.2106 -0.8706  1.3823
  188MPD1    H1 2865   0.047   0.090   9.694  1.2674  1.2490 -0.5551
  188MPD1    H2 2866   4.587   0.283   9.371 -2.4341 -1.2246  0.0077
  188MPD1    H3 2867   4.626   0.271   9.616  1.3033  0.8993  0.0514
  188MPD1     N 2868   0.118   4.597   9.577  0.0354  0.2663 -0.2413
  188MPD1    H5 2869   0.151   4.616   9.671 -1.7272  2.9460 -0.1632
  188MPD1    N1 2870   4.650   0.103   9.201 -0.9555 -0.3105 -0.8595
  188MPD1    H6 2871   4.572   0.156   9.162 -0.4096  1.2749  0.1997
  188MPD1    H7 2872   4.640   0.018   9.145 -3.7261  1.0143 -2.3723
  189MPD1     C 2873   1.971   3.992   0.358  0.1219  0.2208  0.9905
  189MPD1    C1 2874   1.838   4.020   0.336 -0.2960  0.0529  0.6985
  189MPD1    C2 2875   1.800   4.153   0.356  0.1659 -0.0646 -1.0824
  189MPD1    C3 2876   1.894   4.252   0.391 -0.4074  0.5283  0.2063
  189MPD1    C4 2877   2.032   4.224   0.407  0.2262 -0.4715 -0.2268
  189MPD1    C5 2878   2.058   4.089   0.395  0.8306 -0.6247 -0.6082
  189MPD1     H 2879   1.697   4.186   0.354 -0.8626 -3.2189  0.6732
  189MPD1    H1 2880   2.101   4.306   0.423 -0.5568  0.6078 -2.3879
  189MPD1    H2 2881   2.008   3.892   0.343 -1.2738 -0.5999  3.0651
  189MPD1    H3 2882   2.162   4.060   0.409  0.3743 -1.9122  0.1790
  189MPD1     N 2883   1.843   4.386   0.378  0.0678 -0.6666  0.2400
  189MPD1    H5 2884   1.758   4.397   0.323 -0.0988 -1.7676  0.2668
  189MPD1    N1 2885   1.746   3.916   0.305  0.2014 -0.6017 -0.7870
  189MPD1    H6 2886   1.661   3.966   0.280  0.1220 -0.6644 -0.6396
  189MPD1    H7 2887   1.775   3.846   0.237 -1.2513  0.5716 -2.5971
  190MPD1     C 2888   0.581   2.848  14.711  0.3310 -0.5279  0.3828
  190MPD1    C1 2889   0.711   2.841  14.753  0.7550  0.7873 -0.3049
  190MPD1    C2 2890   0.756   2.917  14.856 -0.9575  0.4946 -0.5979
  190MPD1    C3 2891   0.656   2.992  14.932  0.2831 -0.3934 -0.2265
  190MPD1    C4 2892   0.519   2.996  14.889 -0.4595  0.4119  0.0908
  190MPD1    C5 2893   0.490   2.928  14.771  0.0148 -0.3983 -0.4212
  190MPD1     H 2894   0.853   2.893  14.898 -2.1171 -2.9177  0.1138
  190MPD1    H1 2895   0.448   3.056  14.945 -0.8996  0.3791 -0.4325
  190MPD1    H2 2896   0.545   2.778  14.636 -0.3401 -1.4779  1.5922
  190MPD1    H3 2897   0.388   2.933  14.736 -0.1395  0.3804  0.1468
  190MPD1     N 2898   0.708   3.068  15.042  0.1788 -0.2077  0.1034
  190MPD1    H5 2899   0.806   3.062  15.068  0.1970 -0.3264  0.0085
  190MPD1    N1 2900   0.807   2.772  14.677  0.0178  0.4373  0.3582
  190MPD1    H6 2901   0.885   2.746  14.738 -0.6193  0.4486  1.1734
  190MPD1    H7 2902   0.767   2.684  14.647  0.0891  0.7114 -0.5292
  191MPD1     C 2903   0.110   0.816  13.204  0.1351  0.3102 -0.6064
  191MPD1    C1 2904   4.698   0.855  13.185  0.0303 -0.1003 -0.0003
  191MPD1    C2 2905   4.670   0.924  13.062  0.6216  0.1554 -0.6842
  191MPD1    C3 2906   0.043   0.932  12.959  0.4093 -0.6099 -0.9567
  191MPD1    C4 2907   0.166   0.862  12.977  0.2971  0.0093 -0.1055
  191MPD1    C5 2908   0.199   0.818  13.106  0.0244 -0.5349  0.6365
  191MPD1     H 2909   4.575   0.976  13.055  1.4679  1.2371 -4.1980
  191MPD1    H1 2910   0.242   0.855  12.901  2.6210  0.1776  2.2205
  191MPD1    H2 2911   0.148   0.771  13.295  0.0961  1.2388 -0.1241
  191MPD1    H3 2912   0.298   0.781  13.129  0.2312 -2.3265 -3.1936
  191MPD1     N 2913   0.006   0.997  12.839  0.3177 -0.2224 -0.0888
  191MPD1    H5 2914   4.629   1.028  12.840  0.8272  1.4005 -0.5923
  191MPD1    N1 2915   4.602   0.851  13.288  0.3168  0.5346  0.0537
  191MPD1    H6 2916   4.507   0.863  13.254 -0.1347 -1.7179  0.5077
  191MPD1    H7 2917   4.605   0.762  13.338  1.6355  1.3429  1.3808
  192MPD1     C 2918   4.089   1.303  12.134  1.0845  0.9662 -0.3125
  192MPD1    C1 2919   4.104   1.182  12.202 -0.2241  0.1538 -0.1591
  192MPD1    C2 2920   4.225   1.156  12.271  0.0874 -0.0973 -0.2488
  192MPD1    C3 2921   4.322   1.258  12.270  0.0031 -0.6090  0.1785
  192MPD1    C4 2922   4.315   1.376  12.193  0.0621  0.8763 -0.5997
  192MPD1    C5 2923   4.198   1.391  12.125 -0.0299  0.1456  0.3240
  192MPD1     H 2924   4.243   1.060  12.318  0.1684  0.9504  1.8249
  192MPD1    H1 2925   4.384   1.459  12.183  1.6277 -0.1058  2.0975
  192MPD1    H2 2926   3.998   1.331  12.082  0.1325  0.3668  1.0298
  192MPD1    H3 2927   4.185   1.477  12.061  1.5800  1.0572  1.2151
  192MPD1     N 2928   4.448   1.246  12.322  0.2154 -0.0054 -0.1437
  192MPD1    H5 2929   4.525   1.310  12.308  0.5714 -0.1098  1.2784
  192MPD1    N1 2930   3.996   1.092  12.224  0.1767  0.3343 -0.3306
  192MPD1    H6 2931   4.027   0.996  12.235 -2.0156  0.0066  2.9470
  192MPD1    H7 2932   3.919   1.091  12.158 -1.7604 -2.1098  1.9912
  193MPD1     C 2933   4.691   0.844  15.913 -0.5180 -0.2016  0.3386
  193MPD1    C1 2934   4.654   0.942  16.000 -0.5549  0.4712 -0.2097
  193MPD1    C2 2935   0.015   0.964  16.109 -0.5285 -0.6760 -0.6252
  193MPD1    C3 2936   0.131   0.882  16.134  0.0790 -0.1542 -0.0851
  193MPD1    C4 2937   0.159   0.782  16.039  0.2925 -0.3094  0.0704
  193MPD1    C5 2938   0.073   0.759  15.942  0.1936 -0.3499 -0.1593
  193MPD1     H 2939   4.717   1.046  16.177 -0.6983 -1.3072  0.0841
  193MPD1    H1 2940   0.237   0.712  16.064 -2.0888 -2.4461  1.5877
  193MPD1    H2 2941   4.625   0.820  15.831  0.4795 -1.5392 -0.0694
  193MPD1    H3 2942   0.086   0.670  15.881 -1.5141 -0.7660  0.0614
  193MPD1     N 2943   0.213   0.901  16.249  0.1695  0.1570  0.2647
  193MPD1    H5 2944   0.310   0.872  16.241 -0.4788 -1.7399 -0.6975
  193MPD1    N1 2945   4.549   1.030  15.963  0.1997 -0.2881  0.2903
  193MPD1    H6 2946   4.553   1.116  16.017 -1.9960  0.4237 -0.7065
  193MPD1    H7 2947   4.460   0.982  15.970 -1.1920  2.5134  1.5429
  194MPD1     C 2948   1.601   2.376  17.131 -0.1201 -0.0745 -0.0443
  194MPD1    C1 2949   1.674   2.458  17.048  0.5835  0.1638 -0.6721
  194MPD1    C2 2950   1.797   2.426  17.014  0.4348  0.4516  0.4093
  194MPD1    C3 2951   1.854   2.305  17.048  0.0267  0.5878  0.5983
  194MPD1    C4 2952   1.784   2.225  17.133 -0.5005  0.2676 -0.1930
  194MPD1    C5 2953   1.659   2.257  17.167  0.0026 -0.0897  0.1363
  194MPD1     H 2954   1.851   2.495  16.949  0.7026 -0.1504 -0.0082
  194MPD1    H1 2955   1.838   2.138  17.171  1.8115  1.6559 -0.2859
  194MPD1    H2 2956   1.500   2.393  17.165 -0.5855 -1.9314 -0.5138
  194MPD1    H3 2957   1.598   2.187  17.223 -0.0601  0.7277  1.0890
  194MPD1     N 2958   1.991   2.270  17.032  1.0088 -0.2857  0.8755
  194MPD1    H5 2959   2.017   2.184  17.078  0.6533 -0.8394  0.0385
  194MPD1    N1 2960   1.618   2.579  17.002 -0.4844  0.0120  0.1720
  194MPD1    H6 2961   1.655   2.595  16.909  2.3201  1.3837  1.4971
  194MPD1    H7 2962   1.517   2.581  16.999 -0.4699 -0.9999 -0.8940
  195MPD1     C 2963   0.576   3.934   0.020 -0.2050 -0.0743  0.9543
  195MPD1    C1 2964   0.474   3.932   0.117 -0.2302 -0.3693  0.4791
  195MPD1    C2 2965   0.344   3.924   0.074 -0.6641 -0.7990 -0.0269
  195MPD1    C3 2966   0.312   3.887  17.626 -0.6774 -0.8915  0.2479
  195MPD1    C4 2967   0.416   3.874  17.539 -0.0485 -0.7019 -0.3304
  195MPD1    C5 2968   0.537   3.911  17.575 -0.0613 -0.8505  0.1901
  195MPD1     H 2969   0.268   3.924   0.152 -0.1991  3.1855  0.4418
  195MPD1    H1 2970   0.393   3.847  17.437 -1.1606  1.2856 -0.5968
  195MPD1    H2 2971   0.679   3.953   0.046  1.0381 -3.2298 -1.6408
  195MPD1    H3 2972   0.607   3.897  17.493 -1.4822 -3.0540 -0.6459
  195MPD1     N 2973   0.187   3.860  17.568 -0.3633 -0.1094  0.1211
  195MPD1    H5 2974   0.192   3.822  17.475 -1.2539  0.3839 -0.1291
  195MPD1    N1 2975   0.500   3.965   0.248 -0.4812  0.1203 -0.2072
  195MPD1    H6 2976   0.593   3.939   0.281 -0.6568  1.0512  1.0273
  195MPD1    H7 2977   0.430   3.929   0.312  0.2219  0.9339  1.0310
  196MPD1     C 2978   4.716   3.528   0.164  0.1249  0.4047 -0.4068
  196MPD1    C1 2979   0.071   3.637   0.199  0.4779 -0.5916  0.7193
  196MPD1    C2 2980   0.021   3.723   0.294 -0.0484  0.7098 -0.2466
  196MPD1    C3 2981   4.610   3.709   0.337 -0.3946  0.4931 -0.0562
  196MPD1    C4 2982   4.531   3.608   0.291  0.6323  0.0689 -0.0326
  196MPD1    C5 2983   4.583   3.520   0.209  0.0088 -0.1522 -0.5584
  196MPD1     H 2984   0.084   3.805   0.326 -0.6154  2.0599 -2.6479
  196MPD1    H1 2985   4.425   3.604   0.310  0.7995 -0.2751  0.8165
  196MPD1    H2 2986   0.038   3.453   0.097  0.3913 -0.8327  1.1415
  196MPD1    H3 2987   4.526   3.438   0.165 -0.0738  0.0038 -0.7399
  196MPD1     N 2988   4.549   3.804   0.422  0.1995  0.3979  0.3397
  196MPD1    H5 2989   4.452   3.787   0.448 -0.1819  0.6707 -0.8670
  196MPD1    N1 2990   0.201   3.647   0.142 -0.6493 -0.2132 -0.4018
  196MPD1    H6 2991   0.232   3.743   0.151 -1.6278  0.3111 -2.7237
  196MPD1    H7 2992   0.214   3.606   0.050 -1.1720 -2.5070  0.5435
  197MPD1     C 2993   2.880   1.271  17.231  0.4018  0.1423  0.2973
  197MPD1    C1 2994   2.997   1.316  17.276 -0.6032  0.3422  0.1112
  197MPD1    C2 2995   3.075   1.377  17.183  0.1229  0.0033 -0.1925
  197MPD1    C3 2996   3.041   1.381  17.046 -0.7058  0.1203 -0.2162
  197MPD1    C4 2997   2.931   1.321  17.005 -1.0047 -1.1829  0.2200
  197MPD1    C5 2998   2.853   1.266  17.102  0.4681 -0.0689 -0.2695
  197MPD1     H 2999   3.166   1.425  17.217  0.1139 -0.1511  0.0484
  197MPD1    H1 3000   2.897   1.321  16.902  0.3355 -0.8933 -0.2213
  197MPD1    H2 3001   2.816   1.230  17.308 -1.0687  1.5211 -0.1770
  197MPD1    H3 3002   2.759   1.220  17.074 -1.0849  3.3954 -0.7082
  197MPD1     N 3003   3.111   1.446  16.940  0.0447  0.0868 -0.7418
  197MPD1    H5 3004   3.080   1.429  16.845 -1.3700  2.5484 -0.7373
  197MPD1    N1 3005   3.035   1.326  17.411 -0.3406 -0.6647 -0.3480
  197MPD1    H6 3006   3.135   1.329  17.433 -0.8942 -1.6968  2.3048
  197MPD1    H7 3007   2.991   1.258  17.472 -0.0886 -0.2245  0.3197
  198MPD1     C 3008   0.851   4.296  16.503 -0.2090 -0.0685  0.5745
  198MPD1    C1 3009   0.870   4.320  16.365 -0.5490 -0.0402 -0.4760
  198MPD1    C2 3010   0.932   4.440  16.334  0.7459 -0.3477 -0.1026
  198MPD1    C3 3011   0.991   4.530  16.428 -0.4272 -0.3470  0.5461
  198MPD1    C4 3012   0.983   4.489  16.559  0.6278 -0.0752  0.2564
  198MPD1    C5 3013   0.917   4.376  16.597 -0.0612  0.0286 -0.3603
  198MPD1     H 3014   0.943   4.477  16.232  1.2268  0.8631  0.3932
  198MPD1    H1 3015   1.031   4.550  16.634  1.9624 -0.0826 -0.5966
  198MPD1    H2 3016   0.791   4.215  16.545  0.5746 -0.2000  1.4209
  198MPD1    H3 3017   0.895   4.353  16.701 -1.9274 -1.8569 -1.1614
  198MPD1     N 3018   1.042   4.651  16.377  0.3373  1.1608 -0.6283
  198MPD1    H5 3019   1.033   4.664  16.276  0.6373  0.0349 -0.7939
  198MPD1    N1 3020   0.796   4.245  16.270 -0.2622 -0.3701 -0.5398
  198MPD1    H6 3021   0.828   4.248  16.173  1.0207  0.0879 -0.1031
  198MPD1    H7 3022   0.778   4.147  16.290  1.8399 -0.4913  0.7828
  199MPD1     C 3023   4.022   0.751   9.629  0.2309 -0.3758  0.8345
  199MPD1    C1 3024   3.976   0.869   9.582 -0.3414  0.0803  0.3069
  199MPD1    C2 3025   3.844   0.903   9.601 -0.3136  0.0738 -0.4275
  199MPD1    C3 3026   3.753   0.806   9.641  0.2034  0.2885 -0.0152
  199MPD1    C4 3027   3.801   0.682   9.669 -0.2616  0.0889 -0.4072
  199MPD1    C5 3028   3.937   0.657   9.671 -0.2293 -0.5613  0.2943
  199MPD1     H 3029   3.812   1.006   9.588 -2.4915 -0.4892  0.6361
  199MPD1    H1 3030   3.740   0.595   9.692 -0.7887  0.6995  0.4545
  199MPD1    H2 3031   4.126   0.731   9.650 -0.3178 -2.3205  1.6254
  199MPD1    H3 3032   3.981   0.562   9.699 -1.1128 -1.2334 -0.5975
  199MPD1     N 3033   3.614   0.818   9.633 -0.3547 -0.6326  0.2037
  199MPD1    H5 3034   3.559   0.733   9.627 -0.8833 -0.3137  0.5246
  199MPD1    N1 3035   4.071   0.967   9.554  0.7595  0.1262  0.3815
  199MPD1    H6 3036   4.035   1.038   9.490  1.2313  0.4884  0.5145
  199MPD1    H7 3037   4.153   0.920   9.518  0.3405 -0.3886  0.1126
  200MPD1     C 3038   2.458   1.550  15.463  0.1513  0.2501  0.2473
  200MPD1    C1 3039   2.538   1.440  15.481  0.4292  0.1364 -0.2347
  200MPD1    C2 3040   2.634   1.417  15.390  0.1397 -0.2589 -1.1034
  200MPD1    C3 3041   2.662   1.502  15.283 -0.0851 -0.3125 -0.2942
  200MPD1    C4 3042   2.587   1.614  15.271  0.0629  0.2376 -0.0041
  200MPD1    C5 3043   2.483   1.634  15.358  0.3764  0.5417  0.0362
  200MPD1     H 3044   2.694   1.328  15.399  0.7473  0.2752  0.2612
  200MPD1    H1 3045   2.584   1.677  15.183  1.6918 -0.2572 -0.4186
  200MPD1    H2 3046   2.378   1.574  15.532 -0.2774 -3.1282  0.9623
  200MPD1    H3 3047   2.412   1.714  15.337  0.4982  0.6526  0.0476
  200MPD1     N 3048   2.766   1.468  15.199 -0.4238 -0.4071  0.4831
  200MPD1    H5 3049   2.791   1.370  15.197 -1.2375 -0.5711 -1.0866
  200MPD1    N1 3050   2.494   1.331  15.560  0.4705  0.0598  0.2410
  200MPD1    H6 3051   2.433   1.363  15.635  0.0080 -0.0842 -0.0713
  200MPD1    H7 3052   2.570   1.272  15.593  0.2145 -0.1482  0.4567
  201MPD1     C 3053   3.944   0.627  13.704 -0.0193  0.1818  0.4410
  201MPD1    C1 3054   4.069   0.624  13.646 -0.9299 -0.3195  0.3890
  201MPD1    C2 3055   4.121   0.498  13.609 -0.0171  0.5670  0.6058
  201MPD1    C3 3056   4.032   0.391  13.608 -1.5059 -0.0640  0.3076
  201MPD1    C4 3057   3.903   0.409  13.642 -0.1383 -0.4238  0.3905
  201MPD1    C5 3058   3.858   0.525  13.685  0.1056  0.2667  0.1797
  201MPD1     H 3059   4.219   0.478  13.568 -1.1322 -2.2610 -0.7266
  201MPD1    H1 3060   3.830   0.329  13.641 -1.5516  0.8640  0.7721
  201MPD1    H2 3061   3.905   0.721  13.740 -1.5808 -1.6780  3.6157
  201MPD1    H3 3062   3.753   0.518  13.709  0.6765 -1.2316  2.2494
  201MPD1     N 3063   4.078   0.269  13.563  0.2037  0.1437  0.1623
  201MPD1    H5 3064   4.177   0.253  13.548 -0.0338 -0.0869 -1.1774
  201MPD1    N1 3065   4.153   0.733  13.645  0.2459 -0.3675 -0.2820
  201MPD1    H6 3066   4.099   0.819  13.647 -0.6417 -0.9519  1.3198
  201MPD1    H7 3067   4.198   0.735  13.736  0.0639  1.2645 -0.2326
  202MPD1     C 3068   4.500   4.634   8.789  0.5708  0.4329 -0.4468
  202MPD1    C1 3069   4.584   4.543   8.843  0.0296  0.0781 -0.1595
  202MPD1    C2 3070   4.568   4.527   8.980  0.1249  0.6721 -0.5452
  202MPD1    C3 3071   4.455   4.569   9.052 -0.0853  0.5575  0.1756
  202MPD1    C4 3072   4.375   4.657   8.983 -0.1361  0.5238  0.2085
  202MPD1    C5 3073   4.403   4.686   8.850  0.1530  0.3291 -0.1139
  202MPD1     H 3074   4.640   4.463   9.031 -0.8672 -0.4894 -0.5946
  202MPD1    H1 3075   4.300   4.710   9.040 -1.0320 -0.9490  0.4071
  202MPD1    H2 3076   4.514   4.676   8.690 -1.3427  0.3309 -0.7670
  202MPD1    H3 3077   4.346   0.041   8.796  0.7246  0.9529  0.1626
  202MPD1     N 3078   4.437   4.557   9.193 -0.6143  0.5293 -0.1703
  202MPD1    H5 3079   4.362   4.615   9.229 -0.3217  0.4548  0.5551
  202MPD1    N1 3080   4.708   4.537   8.770 -0.7551  0.3255 -0.7177
  202MPD1    H6 3081   0.052   4.460   8.792 -1.2279  0.3757  0.8248
  202MPD1    H7 3082   4.685   4.522   8.672 -0.0411  1.8499 -1.1138
  203MPD1     C 3083   2.404   0.834  12.818 -0.1798 -0.3497 -0.0029
  203MPD1    C1 3084   2.482   0.765  12.905 -0.3668  0.2571  0.9339
  203MPD1    C2 3085   2.574   0.678  12.851 -0.1917  0.4263  0.0905
  203MPD1    C3 3086   2.584   0.656  12.715  0.1497 -0.5143  0.0168
  203MPD1    C4 3087   2.510   0.732  12.629  0.2267 -0.1705  0.6476
  203MPD1    C5 3088   2.424   0.820  12.686  0.1094  0.1288 -0.7361
  203MPD1     H 3089   2.627   0.606  12.912 -3.2349 -1.0310  1.0105
  203MPD1    H1 3090   2.525   0.723  12.522 -1.8463 -0.2842  0.3786
  203MPD1    H2 3091   2.333   0.910  12.844  2.3269  1.1114  2.5334
  203MPD1    H3 3092   2.369   0.878  12.613 -0.7421  0.2533  0.0140
  203MPD1     N 3093   2.676   0.553  12.672  0.0003  0.1429 -0.2014
  203MPD1    H5 3094   2.733   0.498  12.736 -0.3787  0.6634  0.5725
  203MPD1    N1 3095   2.464   0.770  13.048 -0.1576  0.6658  0.2952
  203MPD1    H6 3096   2.426   0.857  13.085  1.5691  1.6007 -0.0891
  203MPD1    H7 3097   2.551   0.756  13.100  0.0734  0.1443 -0.2224
  204MPD1     C 3098   2.304   1.365   0.400  0.5167  0.5661 -0.2378
  204MPD1    C1 3099   2.427   1.406   0.356 -1.0401  0.3288 -0.6603
  204MPD1    C2 3100   2.501   1.310   0.290  0.2939 -0.5041  0.0066
  204MPD1    C3 3101   2.477   1.174   0.299 -0.3898  0.3513 -0.2369
  204MPD1    C4 3102   2.371   1.133   0.370  0.5988 -0.9825 -0.6822
  204MPD1    C5 3103   2.287   1.229   0.413 -0.4764 -0.2093  0.1248
  204MPD1     H 3104   2.584   1.348   0.232 -0.7541  1.3898 -0.2337
  204MPD1    H1 3105   2.353   1.026   0.380 -0.9632 -0.7917 -1.4903
  204MPD1    H2 3106   2.236   1.432   0.452  2.2006  1.4038  0.8955
  204MPD1    H3 3107   2.194   1.195   0.459 -0.9735  3.0061  1.4711
  204MPD1     N 3108   2.558   1.082   0.221 -0.3784 -0.5934 -0.0645
  204MPD1    H5 3109   2.644   1.121   0.184 -0.1432 -0.7412  0.3263
  204MPD1    N1 3110   2.455   1.542   0.339  0.1868 -0.6026 -0.4418
  204MPD1    H6 3111   2.424   1.605   0.412 -0.0604  0.7669 -1.7351
  204MPD1    H7 3112   2.554   1.552   0.315  0.4826  2.3414  2.0781
  205MPD1     C 3113   1.896   4.674  17.087  0.6897  0.2754  0.1083
  205MPD1    C1 3114   1.954   4.552  17.089  0.0959 -0.4952  0.0429
  205MPD1    C2 3115   2.059   4.526  17.175  0.6802  0.4918  0.7149
  205MPD1    C3 3116   2.098   4.621  17.268 -0.3615  0.2797 -0.2768
  205MPD1    C4 3117   2.027   0.019  17.271  0.6189  0.3044 -0.5313
  205MPD1    C5 3118   1.927   0.047  17.183  0.5427  0.0095 -0.2424
  205MPD1     H 3119   2.103   4.428  17.166 -0.5289 -0.2851  3.1399
  205MPD1    H1 3120   2.045   0.091  17.350 -2.0125  0.4116 -0.0273
  205MPD1    H2 3121   1.823   4.700  17.012 -0.2977 -0.9266  0.6428
  205MPD1    H3 3122   1.886   0.147  17.177 -0.2952 -0.2107  1.7891
  205MPD1     N 3123   2.203   4.608  17.357  0.4651 -0.1791  0.4542
  205MPD1    H5 3124   2.234   4.689  17.410 -1.2142  0.1004  1.0143
  205MPD1    N1 3125   1.903   4.453  17.010 -0.0071 -0.0816 -0.3409
  205MPD1    H6 3126   1.820   4.469  16.953  1.4428  1.1737 -2.0957
  205MPD1    H7 3127   1.914   4.356  17.037 -1.8586 -0.8477 -2.2659
  206MPD1     C 3128   2.741   3.386  16.551 -0.1769 -0.5738  0.3264
  206MPD1    C1 3129   2.831   3.306  16.486  0.3236 -0.1788  0.1140
  206MPD1    C2 3130   2.805   3.265  16.359  0.3980  0.6531  0.1405
  206MPD1    C3 3131   2.704   3.324  16.286  0.0853 -0.7513  0.0426
  206MPD1    C4 3132   2.613   3.408  16.347 -0.0291 -0.2424 -0.3479
  206MPD1    C5 3133   2.627   3.435  16.482  0.1844 -0.2942  0.3750
  206MPD1     H 3134   2.868   3.187  16.319 -1.4503 -0.3858 -0.7533
  206MPD1    H1 3135   2.533   3.455  16.292  1.2578 -0.6219 -2.5395
  206MPD1    H2 3136   2.751   3.418  16.654 -0.3869  0.8762 -0.1046
  206MPD1    H3 3137   2.564   3.503  16.537 -0.8737 -0.3014 -0.8386
  206MPD1     N 3138   2.681   3.320  16.144  0.0502  0.6692 -0.1624
  206MPD1    H5 3139   2.605   3.374  16.104 -2.8700 -2.1095  1.6366
  206MPD1    N1 3140   2.920   3.242  16.567 -0.4850 -0.1153  1.1241
  206MPD1    H6 3141   2.956   3.304  16.640  0.7962 -0.6270  0.9038
  206MPD1    H7 3142   3.001   3.195  16.528 -0.4374  0.1483  0.9033
  207MPD1     C 3143   0.515   1.372   9.421 -0.2431 -0.1157 -0.3446
  207MPD1    C1 3144   0.494   1.266   9.503  0.0494 -0.0475  0.6311
  207MPD1    C2 3145   0.584   1.241   9.610 -0.3956 -0.8153 -0.6567
  207MPD1    C3 3146   0.674   1.343   9.642 -0.3851 -0.6748  0.0914
  207MPD1    C4 3147   0.677   1.460   9.563  0.5921  0.5550 -0.3776
  207MPD1    C5 3148   0.593   1.473   9.452  0.6876  0.7880  0.0180
  207MPD1     H 3149   0.577   1.143   9.656 -1.4956  0.2654  1.4505
  207MPD1    H1 3150   0.726   1.544   9.611  0.6082  0.3056  0.0391
  207MPD1    H2 3151   0.439   1.386   9.344 -0.7131  1.6938  0.4572
  207MPD1    H3 3152   0.592   1.571   9.406 -1.8810  0.5827 -0.4031
  207MPD1     N 3153   0.757   1.334   9.755 -0.2343 -0.0531 -0.3058
  207MPD1    H5 3154   0.812   1.419   9.760  1.6325 -1.2883  0.4452
  207MPD1    N1 3155   0.403   1.166   9.456 -0.1154 -0.0286 -0.3297
  207MPD1    H6 3156   0.333   1.196   9.389  0.4716  2.8917  0.3584
  207MPD1    H7 3157   0.366   1.106   9.530 -0.9554  0.0694 -0.6741
  208MPD1     C 3158   3.904   4.688   0.365  0.2421 -0.2876  0.3357
  208MPD1    C1 3159   3.953   4.587   0.445 -0.8530  0.0975 -0.3643
  208MPD1    C2 3160   3.873   4.474   0.472  0.0755 -0.3884 -0.7317
  208MPD1    C3 3161   3.744   4.469   0.423  0.1797  0.5038  0.0795
  208MPD1    C4 3162   3.702   4.570   0.341  0.5411 -0.2165 -0.2226
  208MPD1    C5 3163   3.779   4.680   0.315  0.7059 -0.4081  0.9355
  208MPD1     H 3164   3.908   4.390   0.531 -1.7789 -0.5175  0.1887
  208MPD1    H1 3165   3.606   4.569   0.290 -0.0855 -1.4479  0.9782
  208MPD1    H2 3166   3.966   0.049   0.330 -0.0009 -0.1683  0.1845
  208MPD1    H3 3167   3.722   0.038   0.267 -0.4771 -0.5182  2.1313
  208MPD1     N 3168   3.668   4.353   0.448 -0.0790  0.1036  0.0791
  208MPD1    H5 3169   3.683   4.301   0.534 -1.2938  0.9690  0.8135
  208MPD1    N1 3170   4.083   4.594   0.472 -0.4385  0.0488 -0.3177
  208MPD1    H6 3171   4.106   4.687   0.507 -1.7397 -0.0205  0.6948
  208MPD1    H7 3172   4.110   4.530   0.547 -0.1666 -0.5037 -0.8881
  209MPD1     C 3173   1.665   1.143  11.310  0.3179 -0.1918  0.1056
  209MPD1    C1 3174   1.537   1.101  11.274  0.7068  0.1097 -0.5445
  209MPD1    C2 3175   1.512   1.023  11.166 -0.3849 -0.5304  0.1240
  209MPD1    C3 3176   1.616   0.976  11.089  0.2734 -0.2241  0.8505
  209MPD1    C4 3177   1.750   0.999  11.135  0.1333 -0.2043  0.2661
  209MPD1    C5 3178   1.772   1.091  11.239 -0.6400  0.5298  0.5742
  209MPD1     H 3179   1.412   1.004  11.130 -0.5591  0.7010 -0.0435
  209MPD1    H1 3180   1.845   0.968  11.093 -0.6283 -1.6022 -0.4298
  209MPD1    H2 3181   1.684   1.224  11.380 -0.4795  1.0817 -1.1291
  209MPD1    H3 3182   1.871   1.127  11.265 -0.8243  0.4340  1.4195
  209MPD1     N 3183   1.578   0.893  10.979  0.1701  0.0593 -0.0956
  209MPD1    H5 3184   1.479   0.886  10.960 -0.0720  1.4566  0.6760
  209MPD1    N1 3185   1.431   1.147  11.346  0.0642 -0.1751  0.2196
  209MPD1    H6 3186   1.403   1.238  11.310 -0.0875 -0.9005 -1.5078
  209MPD1    H7 3187   1.356   1.078  11.340  0.1643 -0.1561 -1.3677
  210MPD1     C 3188   1.649   4.687  10.962  0.7135  0.5479 -0.0779
  210MPD1    C1 3189   1.549   4.714  10.868  0.5355  0.0542 -0.2831
  210MPD1    C2 3190   1.553   0.123  10.815 -0.4105 -0.0420  0.7500
  210MPD1    C3 3191   1.659   0.215  10.841  0.1230  0.0855  0.0136
  210MPD1    C4 3192   1.764   0.180  10.925  0.2510 -0.4151  0.0364
  210MPD1    C5 3193   1.750   0.058  10.985  0.0330  0.0842 -0.4022
  210MPD1     H 3194   1.474   0.143  10.745  0.4158 -1.4118 -0.5685
  210MPD1    H1 3195   1.838   0.252  10.957 -0.0464  0.9069 -2.2927
  210MPD1    H2 3196   1.661   4.597  11.019 -2.0694  0.0491 -0.2867
  210MPD1    H3 3197   1.823   0.023  11.058  0.8696 -0.5277 -1.5283
  210MPD1     N 3198   1.654   0.351  10.796  0.2778  0.5066  0.5224
  210MPD1    H5 3199   1.733   0.411  10.818 -0.3626  1.5956 -0.1587
  210MPD1    N1 3200   1.443   4.623  10.844 -0.0939  0.0488 -0.7067
  210MPD1    H6 3201   1.409   4.634  10.749  2.0854 -0.7768 -1.5825
  210MPD1    H7 3202   1.475   4.530  10.871 -0.4754  0.3380  0.7415
  211MPD1     C 3203   3.775   0.120  16.463  0.1020  0.1569  0.1494
  211MPD1    C1 3204   3.680   0.066  16.542  0.2486  0.2718  1.0386
  211MPD1    C2 3205   3.540   0.076  16.522 -0.2166 -0.2906 -0.2495
  211MPD1    C3 3206   3.499   0.130  16.409 -0.3220 -0.2227  0.2007
  211MPD1    C4 3207   3.596   0.171  16.314  0.1729  0.3013 -0.0971
  211MPD1    C5 3208   3.728   0.168  16.345 -0.1180 -0.9614  0.8368
  211MPD1     H 3209   3.476   0.025  16.594 -0.7331  0.7232  0.0114
  211MPD1    H1 3210   3.571   0.230  16.227 -2.1474 -1.9036 -0.9296
  211MPD1    H2 3211   3.882   0.120  16.477  0.1042  1.0622  0.1444
  211MPD1    H3 3212   3.800   0.210  16.276 -0.4041 -1.5146  0.2054
  211MPD1     N 3213   3.358   0.141  16.380 -0.2536  0.6465  0.2114
  211MPD1    H5 3214   3.287   0.134  16.453 -0.8925 -0.5376 -0.5281
  211MPD1    N1 3215   3.734   0.032  16.661  0.2696  0.6177  0.0585
  211MPD1    H6 3216   3.672   4.696  16.719  0.3873 -1.8453 -2.1964
  211MPD1    H7 3217   3.818   4.695  16.661 -0.0036  0.2192 -0.6597
  212MPD1     C 3218   2.252   3.457  16.424 -0.1834 -0.0268  0.1762
  212MPD1    C1 3219   2.235   3.472  16.558  0.0400 -0.1003  0.1374
  212MPD1    C2 3220   2.163   3.373  16.629 -0.9398  0.6833  0.6303
  212MPD1    C3 3221   2.108   3.265  16.560 -0.6880 -0.7027 -0.5634
  212MPD1    C4 3222   2.137   3.254  16.423 -0.6290  0.2454  0.1864
  212MPD1    C5 3223   2.205   3.351  16.355  0.4130  0.2351 -0.7127
  212MPD1     H 3224   2.147   3.391  16.734  0.0770  4.0309  0.2193
  212MPD1    H1 3225   2.128   3.175  16.349 -1.3547  0.6599 -0.1702
  212MPD1    H2 3226   2.310   3.528  16.366 -3.5877  1.0188 -1.9356
  212MPD1    H3 3227   2.227   3.335  16.250 -0.5462 -0.3694 -0.8236
  212MPD1     N 3228   2.035   3.158  16.620  0.1658 -0.4715 -0.4620
  212MPD1    H5 3229   2.002   3.087  16.556  1.0770  0.7475 -2.2851
  212MPD1    N1 3230   2.268   3.591  16.620  0.1978 -0.5575 -0.3979
  212MPD1    H6 3231   2.345   3.639  16.573  3.3156 -2.3126  2.9237
  212MPD1    H7 3232   2.303   3.581  16.715 -0.9851 -0.9695 -0.0073
  213MPD1     C 3233   0.526   4.374  15.865 -0.1838 -0.0072  0.8084
  213MPD1    C1 3234   0.396   4.396  15.834  0.8518 -0.7160  0.0703
  213MPD1    C2 3235   0.373   4.404  15.700 -0.5329  0.0282 -0.1271
  213MPD1    C3 3236   0.463   4.370  15.598 -0.1727 -0.1609 -0.2521
  213MPD1    C4 3237   0.589   4.323  15.632 -0.1027  0.3347  0.1020
  213MPD1    C5 3238   0.616   4.329  15.767 -0.4515 -0.1743 -1.1370
  213MPD1     H 3239   0.273   4.430  15.666 -0.3107  1.3333  0.2406
  213MPD1    H1 3240   0.658   4.280  15.561  2.6591  3.7583  0.7314
  213MPD1    H2 3241   0.559   4.340  15.962 -1.6995  1.7151  1.9096
  213MPD1    H3 3242   0.708   4.289  15.808 -0.5544  1.6105  0.8312
  213MPD1     N 3243   0.409   4.362  15.469 -0.1845  0.0866 -0.3337
  213MPD1    H5 3244   0.310   4.377  15.453  0.0470  1.4290 -0.5246
  213MPD1    N1 3245   0.323   4.475  15.923  0.0380 -0.0583  0.1452
  213MPD1    H6 3246   0.224   4.455  15.914  0.0676 -0.9541  1.7936
  213MPD1    H7 3247   0.347   4.458  16.021 -1.5962 -1.4244  0.2968
  214MPD1     C 3248   4.569   3.794  14.868 -0.2901 -0.0617 -0.5442
  214MPD1    C1 3249   4.559   3.831  15.004 -0.1263 -0.4764  0.4368
  214MPD1    C2 3250   4.646   3.931  15.050  0.2564 -0.0467 -0.0357
  214MPD1    C3 3251   0.030   3.976  14.968 -0.3757  0.3991  0.3392
  214MPD1    C4 3252   0.040   3.928  14.842  0.2766  0.1879  0.0492
  214MPD1    C5 3253   4.674   3.839  14.792  0.5361 -0.5109  0.3826
  214MPD1     H 3254   4.629   3.978  15.146 -0.0764  2.8726 -1.5188
  214MPD1    H1 3255   0.127   3.954  14.783  0.8801 -0.1825  0.7744
  214MPD1    H2 3256   4.494   3.728  14.826 -0.9576 -0.0125  0.5761
  214MPD1    H3 3257   4.695   3.805  14.691  0.9567 -0.5377  0.4820
  214MPD1     N 3258   0.122   4.072  15.000 -0.2314  0.0688  0.1964
  214MPD1    H5 3259   0.191   4.081  14.926 -0.0719 -1.1551  0.1984
  214MPD1    N1 3260   4.437   3.806  15.067 -0.0046  0.9933  0.0415
  214MPD1    H6 3261   4.399   3.715  15.040  2.6981 -0.2317  0.3956
  214MPD1    H7 3262   4.443   3.792  15.168  1.2337 -0.5807 -0.2499
  215MPD1     C 3263   0.824   4.587  10.498  0.6535  0.0156 -0.5669
  215MPD1    C1 3264   0.855   4.602  10.626 -0.0417  0.4590 -0.3085
  215MPD1    C2 3265   0.830   0.006  10.684 -0.1799 -0.0608 -0.1047
  215MPD1    C3 3266   0.778   0.117  10.614  0.5786 -0.1214 -0.5256
  215MPD1    C4 3267   0.745   0.094  10.487 -0.2247 -1.0591 -1.0048
  215MPD1    C5 3268   0.777   4.692  10.428 -0.3312 -0.7446 -0.5148
  215MPD1     H 3269   0.858   0.014  10.788  0.6055  0.4069 -0.3501
  215MPD1    H1 3270   0.705   0.168  10.419  1.4065  0.3813 -0.3782
  215MPD1    H2 3271   0.832   4.496  10.439  0.1801 -0.7516  0.5413
  215MPD1    H3 3272   0.752   4.679  10.323  0.6880 -1.9293 -0.6223
  215MPD1     N 3273   0.740   0.237  10.680 -0.1019  0.1011  0.4202
  215MPD1    H5 3274   0.763   0.232  10.779  3.8890  1.7572 -0.4365
  215MPD1    N1 3275   0.907   4.483  10.689  0.0837 -0.6759 -0.0271
  215MPD1    H6 3276   0.973   4.507  10.762  1.0691 -3.4734 -0.0090
  215MPD1    H7 3277   0.960   4.425  10.625  2.2105  1.0675  0.1534
  216MPD1     C 3278   0.817   2.296   0.233 -0.1807 -0.2431  0.4232
  216MPD1    C1 3279   0.855   2.172   0.190  0.2420  0.3458 -0.3554
  216MPD1    C2 3280   0.987   2.147   0.166 -1.0383 -0.6886  0.3893
  216MPD1    C3 3281   1.084   2.242   0.200  0.3807  0.5112  0.3249
  216MPD1    C4 3282   1.039   2.366   0.247 -0.0728  0.6361  0.0745
  216MPD1    C5 3283   0.909   2.389   0.268  0.0303  0.3537 -0.1152
  216MPD1     H 3284   1.012   2.050   0.123  1.5646  0.1690 -0.0274
  216MPD1    H1 3285   1.106   2.446   0.279  1.1952 -0.5957  0.5241
  216MPD1    H2 3286   0.713   2.313   0.257  0.1005  1.5713  0.3908
  216MPD1    H3 3287   0.888   2.476   0.329 -0.6940  0.9559 -1.2116
  216MPD1     N 3288   1.222   2.202   0.188 -0.2806 -0.2623  0.8589
  216MPD1    H5 3289   1.230   2.103   0.167 -1.3549  0.2318 -1.9430
  216MPD1    N1 3290   0.757   2.072   0.164 -0.4612 -0.3345  0.4720
  216MPD1    H6 3291   0.673   2.085   0.221 -1.1119 -3.3939  0.2479
  216MPD1    H7 3292   0.799   1.980   0.178 -0.8814 -0.7850 -1.2636
  217MPD1     C 3293   3.374   4.071   8.336 -0.0197 -0.8288 -0.2059
  217MPD1    C1 3294   3.294   4.150   8.416  0.0389  0.6945 -0.6788
  217MPD1    C2 3295   3.346   4.208   8.532 -0.0303 -0.3028  0.4926
  217MPD1    C3 3296   3.477   4.191   8.565  0.8050 -0.4755 -0.2331
  217MPD1    C4 3297   3.561   4.123   8.477  0.1795  0.3537  0.7254
  217MPD1    C5 3298   3.507   4.069   8.364  0.1110 -0.4847 -0.0352
  217MPD1     H 3299   3.275   4.259   8.595  0.2128  0.7569 -0.0898
  217MPD1    H1 3300   3.665   4.114   8.503  0.5435 -1.2585 -1.2623
  217MPD1    H2 3301   3.342   4.044   8.237  0.1394 -2.1670  0.1059
  217MPD1    H3 3302   3.572   4.026   8.288  0.1797 -1.5076  0.6159
  217MPD1     N 3303   3.526   4.245   8.685  0.0743 -0.0407 -0.4121
  217MPD1    H5 3304   3.625   4.228   8.702  0.1280 -1.2757 -2.0408
  217MPD1    N1 3305   3.157   4.158   8.394 -0.2555 -0.1712  0.0956
  217MPD1    H6 3306   3.110   4.232   8.446  2.6545  2.4081 -1.0136
  217MPD1    H7 3307   3.134   4.162   8.295 -0.7544  0.8823  0.2536
  218MPD1     C 3308   4.018   0.800  12.051  0.4090 -0.3037  0.0096
  218MPD1    C1 3309   3.988   0.777  12.179  0.0335 -0.3180 -0.3280
  218MPD1    C2 3310   4.091   0.768  12.266 -0.0844 -0.6793  0.4152
  218MPD1    C3 3311   4.225   0.797  12.235  0.0129 -0.0568  0.5053
  218MPD1    C4 3312   4.249   0.841  12.108  0.5126 -0.2599 -0.2301
  218MPD1    C5 3313   4.141   0.845  12.024 -0.0240  0.9692 -0.4310
  218MPD1     H 3314   4.076   0.736  12.369 -1.6485 -1.6258 -0.1055
  218MPD1    H1 3315   4.343   0.875  12.067 -0.9257  0.6940 -2.6975
  218MPD1    H2 3316   3.946   0.793  11.970 -0.2989 -0.1914  0.6296
  218MPD1    H3 3317   4.167   0.878  11.924 -0.0694 -1.2805 -1.1905
  218MPD1     N 3318   4.327   0.790  12.335  0.7950 -0.3854 -0.5386
  218MPD1    H5 3319   4.306   0.746  12.424  0.2661 -0.5849 -0.7611
  218MPD1    N1 3320   3.860   0.719  12.212 -0.3941 -0.1425  0.3853
  218MPD1    H6 3321   3.840   0.718  12.312 -0.7010  2.0569  0.3457
  218MPD1    H7 3322   3.784   0.761  12.160  0.1756 -0.2388 -0.5159
  219MPD1     C 3323   0.702   0.723  12.456  0.2611  0.2569 -0.0036
  219MPD1    C1 3324   0.632   0.838  12.426  0.2460  0.4886 -0.2224
  219MPD1    C2 3325   0.500   0.832  12.457  0.4473 -0.5592 -0.1561
  219MPD1    C3 3326   0.433   0.716  12.495  0.4527 -0.8120  0.5467
  219MPD1    C4 3327   0.505   0.599  12.508  0.0739  0.2312  0.1338
  219MPD1    C5 3328   0.641   0.606  12.496  0.2704 -0.6523 -0.5405
  219MPD1     H 3329   0.440   0.922  12.457  0.1885 -0.7318 -1.1038
  219MPD1    H1 3330   0.456   0.504  12.529 -0.9361  0.8302  0.5334
  219MPD1    H2 3331   0.810   0.723  12.451  0.2216  2.0775 -0.7352
  219MPD1    H3 3332   0.700   0.517  12.515 -1.0909 -1.3441  0.4651
  219MPD1     N 3333   0.289   0.712  12.511 -0.0033  0.5110 -0.3280
  219MPD1    H5 3334   0.255   0.623  12.546 -1.4454  2.3778  3.0429
  219MPD1    N1 3335   0.698   0.962  12.414  0.8090  0.3528 -0.3163
  219MPD1    H6 3336   0.782   0.959  12.356 -0.3286  0.7268 -2.0059
  219MPD1    H7 3337   0.640   1.040  12.383 -0.4645  0.2910  1.9105
  220MPD1     C 3338   0.240   0.414   9.782  0.3422  0.2815  0.3686
  220MPD1    C1 3339   0.286   0.417   9.913  0.4719 -0.7664 -0.3535
  220MPD1    C2 3340   0.195   0.408  10.021  0.1115 -0.4294  0.1216
  220MPD1    C3 3341   0.061   0.374   9.998 -0.1310  0.1816  0.7031
  220MPD1    C4 3342   0.015   0.361   9.866  0.5845 -0.1177 -1.0878
  220MPD1    C5 3343   0.107   0.389   9.762  0.0660 -0.4489 -0.3698
  220MPD1     H 3344   0.226   0.420  10.124  2.3392  0.5116 -0.6418
  220MPD1    H1 3345   4.632   0.339   9.842  0.7705 -3.2084  1.0800
  220MPD1    H2 3346   0.297   0.453   9.699  0.7350  0.6934  0.8331
  220MPD1    H3 3347   0.081   0.378   9.657 -0.9714  0.4905 -0.2187
  220MPD1     N 3348   4.705   0.362  10.118 -0.5204  0.1605 -0.2152
  220MPD1    H5 3349   0.036   0.377  10.204  0.7530 -0.9283 -0.7957
  220MPD1    N1 3350   0.420   0.463   9.937 -0.4067  0.2100  0.6374
  220MPD1    H6 3351   0.487   0.441   9.864 -3.3473 -0.0182 -1.9745
  220MPD1    H7 3352   0.461   0.418  10.019  0.0934  0.1323  0.3463
  221MPD1     C 3353   2.010   0.220  16.005 -0.6037 -0.5738 -0.2706
  221MPD1    C1 3354   2.037   0.189  15.878 -0.3396 -0.4604 -0.0659
  221MPD1    C2 3355   2.159   0.124  15.862  0.4005  0.2930  0.2761
  221MPD1    C3 3356   2.248   0.105  15.965 -0.2003  0.2425  0.4581
  221MPD1    C4 3357   2.209   0.138  16.088  0.3085 -0.4234 -0.3485
  221MPD1    C5 3358   2.094   0.202  16.112 -0.0695 -0.0547 -0.4515
  221MPD1     H 3359   2.178   0.077  15.766  3.6472 -0.9643  1.5302
  221MPD1    H1 3360   2.277   0.138  16.173 -1.2260 -2.2775  0.8616
  221MPD1    H2 3361   1.919   0.270  16.033 -1.0096 -0.6625 -1.4680
  221MPD1    H3 3362   2.077   0.252  16.207  0.0177 -2.6142  0.9038
  221MPD1     N 3363   2.378   0.051  15.946  0.2997 -0.0913  0.1699
  221MPD1    H5 3364   2.429   0.047  16.034  0.4719 -0.8538  0.0384
  221MPD1    N1 3365   1.936   0.187  15.779  0.3701  0.6458  0.1112
  221MPD1    H6 3366   1.989   0.209  15.695  0.8566  1.6710  0.6920
  221MPD1    H7 3367   1.876   0.265  15.806 -1.1454 -0.1519 -0.9221
  222MPD1     C 3368   2.580   4.336   1.081 -0.7022 -0.6029  0.1334
  222MPD1    C1 3369   2.695   4.272   1.033  0.1395 -0.7091 -0.6137
  222MPD1    C2 3370   2.673   4.137   1.011  0.3375  0.3972  0.5189
  222MPD1    C3 3371   2.554   4.073   1.013 -0.9662 -0.3673  0.3468
  222MPD1    C4 3372   2.440   4.145   1.037  0.3412  0.0700 -0.0655
  222MPD1    C5 3373   2.452   4.277   1.070  0.1832 -0.0260  0.1201
  222MPD1     H 3374   2.760   4.076   0.987  0.2537 -0.3115  1.9932
  222MPD1    H1 3375   2.339   4.105   1.026  0.7763 -0.0434 -3.5986
  222MPD1    H2 3376   2.590   4.440   1.111 -1.6369 -0.5341  0.2337
  222MPD1    H3 3377   2.366   4.343   1.080 -0.1959 -0.7098  1.3496
  222MPD1     N 3378   2.535   3.939   0.973 -0.1447 -0.4085 -0.1017
  222MPD1    H5 3379   2.436   3.918   0.966 -0.7300  2.4961 -0.6879
  222MPD1    N1 3380   2.822   4.327   1.052  0.5386  0.5597 -0.9324
  222MPD1    H6 3381   2.890   4.292   0.985 -1.1507 -0.2718 -2.2265
  222MPD1    H7 3382   2.834   4.428   1.055 -0.0649  0.5276  2.7675
  223MPD1     C 3383   2.851   2.909   0.688  0.4827 -0.7667  0.0658
  223MPD1    C1 3384   2.817   2.980   0.576  0.1869  0.0699  0.2024
  223MPD1    C2 3385   2.778   3.110   0.587 -0.0008 -1.1073 -0.5183
  223MPD1    C3 3386   2.761   3.173   0.711  0.1138 -0.2959  0.1950
  223MPD1    C4 3387   2.806   3.101   0.823 -0.8568 -0.3910  0.0608
  223MPD1    C5 3388   2.841   2.969   0.811 -0.7175  0.4854  0.5106
  223MPD1     H 3389   2.756   3.158   0.492  0.8014  1.5916  0.6800
  223MPD1    H1 3390   2.827   3.143   0.920  0.3896  2.8383 -1.6296
  223MPD1    H2 3391   2.882   2.806   0.674 -0.4547 -0.9436 -0.7132
  223MPD1    H3 3392   2.862   2.912   0.900 -0.4564  0.6333  0.5439
  223MPD1     N 3393   2.720   3.307   0.707  0.2171  0.2972  0.5543
  223MPD1    H5 3394   2.697   3.335   0.613  1.5610  1.9946  0.7374
  223MPD1    N1 3395   2.852   2.927   0.452 -0.2670  0.2216 -0.2349
  223MPD1    H6 3396   2.795   2.952   0.371 -0.4640 -1.1832 -0.5299
  223MPD1    H7 3397   2.879   2.829   0.453  0.4399  0.4178 -0.1980
  224MPD1     C 3398   3.658   0.291   8.929  0.4832 -0.3064  0.0695
  224MPD1    C1 3399   3.736   0.177   8.923 -0.3554  0.2574  0.7279
  224MPD1    C2 3400   3.774   0.136   9.045 -0.2721 -0.0457  0.1816
  224MPD1    C3 3401   3.734   0.193   9.164  0.0983  0.0335 -0.5616
  224MPD1    C4 3402   3.642   0.298   9.163 -0.3667 -0.0802  0.7390
  224MPD1    C5 3403   3.607   0.346   9.041 -0.7678  0.4995  0.0270
  224MPD1     H 3404   3.838   0.049   9.046  1.2040  1.0245 -2.0704
  224MPD1    H1 3405   3.611   0.347   9.254 -1.6918 -1.3775  0.9871
  224MPD1    H2 3406   3.625   0.339   8.838  0.0737 -0.0957  0.3318
  224MPD1    H3 3407   3.522   0.413   9.043 -0.2096  1.1218  2.5342
  224MPD1     N 3408   3.764   0.143   9.287 -0.0134  0.5070 -0.0760
  224MPD1    H5 3409   3.728   0.197   9.364 -0.2060 -1.4815  1.2120
  224MPD1    N1 3410   3.791   0.124   8.807  0.1163  0.2419 -0.8899
  224MPD1    H6 3411   3.732   0.136   8.725  0.8123 -0.4769 -1.4875
  224MPD1    H7 3412   3.809   0.025   8.817 -0.9321  0.0835 -0.5873
  225MPD1     C 3413   3.926   1.649  12.344 -0.3432  0.5712  0.3761
  225MPD1    C1 3414   3.882   1.691  12.225  0.2644  0.5414  0.3726
  225MPD1    C2 3415   3.976   1.732  12.134  0.3935 -0.5939 -0.4571
  225MPD1    C3 3416   4.116   1.732  12.168  1.1112 -0.5353 -0.0960
  225MPD1    C4 3417   4.157   1.685  12.293 -0.3821  0.5028  0.3929
  225MPD1    C5 3418   4.054   1.633  12.371 -0.2384 -0.2292 -0.1161
  225MPD1     H 3419   3.941   1.767  12.038  2.6058  0.0500 -1.0299
  225MPD1    H1 3420   4.254   1.656  12.330  0.2784  2.1772 -0.0296
  225MPD1    H2 3421   3.850   1.632  12.419 -1.0629 -0.1948 -0.5198
  225MPD1    H3 3422   4.080   1.572  12.457  0.1864 -0.8761 -0.7048
  225MPD1     N 3423   4.219   1.768  12.076  0.8681 -0.6949 -0.1442
  225MPD1    H5 3424   4.316   1.749  12.098  0.6992 -1.9520 -0.5277
  225MPD1    N1 3425   3.745   1.702  12.198 -0.1263  0.9116  0.0349
  225MPD1    H6 3426   3.717   1.675  12.103  0.8516  2.2657 -0.6304
  225MPD1    H7 3427   3.703   1.637  12.264  2.0852 -0.6018 -0.0440
  226MPD1     C 3428   3.313   4.669   8.736 -0.0841 -0.3511 -0.4795
  226MPD1    C1 3429   3.187   4.664   8.786  0.6093 -0.5928 -0.2623
  226MPD1    C2 3430   3.133   0.062   8.846 -0.4176 -0.1178  0.3476
  226MPD1    C3 3431   3.210   0.172   8.860  0.2380 -0.0182 -0.4932
  226MPD1    C4 3432   3.338   0.166   8.812  0.2171  0.0557 -0.1868
  226MPD1    C5 3433   3.386   0.059   8.744 -0.3393 -0.4060  0.5232
  226MPD1     H 3434   3.032   0.060   8.886 -0.5995 -2.1982 -0.2130
  226MPD1    H1 3435   3.401   0.254   8.801 -0.3560  0.2296 -2.0772
  226MPD1    H2 3436   3.349   4.589   8.672 -0.2071 -0.8043  0.0181
  226MPD1    H3 3437   3.491   0.067   8.716 -0.2062  0.8120  1.3533
  226MPD1     N 3438   3.151   0.288   8.913  0.2285  0.5079  1.1388
  226MPD1    H5 3439   3.058   0.286   8.954 -0.1302 -1.1342  0.2391
  226MPD1    N1 3440   3.120   4.543   8.766 -0.6898  0.5796  0.7009
  226MPD1    H6 3441   3.040   4.543   8.829 -1.4311  0.5454 -0.2478
  226MPD1    H7 3442   3.188   4.472   8.791 -0.5200  0.1296 -1.0322
  227MPD1     C 3443   2.329   0.749   9.216  0.1020  0.0743  0.2835
  227MPD1    C1 3444   2.430   0.838   9.253 -0.7754 -0.2515  0.0351
  227MPD1    C2 3445   2.562   0.811   9.228  0.0351  0.1030  0.2529
  227MPD1    C3 3446   2.592   0.707   9.142  0.2568 -0.1881  0.1696
  227MPD1    C4 3447   2.488   0.630   9.090 -0.1857  0.2597 -0.7521
  227MPD1    C5 3448   2.363   0.655   9.126 -0.0356 -0.3601 -0.8117
  227MPD1     H 3449   2.641   0.876   9.266  2.2853 -2.3010 -0.3024
  227MPD1    H1 3450   2.507   0.540   9.032  1.5443 -0.6249  1.1502
  227MPD1    H2 3451   2.227   0.765   9.248  0.6273  0.8113  1.5949
  227MPD1    H3 3452   2.293   0.574   9.109 -2.0322  1.0023  0.8521
  227MPD1     N 3453   2.729   0.683   9.116 -0.3341 -0.4451  0.4691
  227MPD1    H5 3454   2.798   0.741   9.163 -0.8548  0.7907 -0.2974
  227MPD1    N1 3455   2.395   0.936   9.349  0.5521 -0.1072  0.3208
  227MPD1    H6 3456   2.298   0.964   9.333  0.9924  2.4508  2.1303
  227MPD1    H7 3457   2.452   1.020   9.343  0.2317 -0.0069 -1.3940
  228MPD1     C 3458   0.950   4.440  13.166 -0.0987  0.6368 -0.0394
  228MPD1    C1 3459   1.013   4.321  13.183 -0.7482  0.4128  0.2164
  228MPD1    C2 3460   0.948   4.212  13.130 -0.9122 -0.9227  0.2325
  228MPD1    C3 3461   0.818   4.223  13.080  0.6443  0.1987  0.6038
  228MPD1    C4 3462   0.751   4.341  13.082  0.0491  0.3301 -0.4042
  228MPD1    C5 3463   0.821   4.449  13.116  0.6124  0.1647  0.8932
  228MPD1     H 3464   1.007   4.124  13.108 -1.6543 -1.6571  1.2026
  228MPD1    H1 3465   0.649   4.357  13.052 -0.1188  0.1863  0.0968
  228MPD1    H2 3466   1.004   4.530  13.193  2.1734 -0.9353  0.6733
  228MPD1    H3 3467   0.772   4.543  13.138  0.4957  0.2131  0.4242
  228MPD1     N 3468   0.767   4.116  13.002 -0.1384 -0.1893  0.3717
  228MPD1    H5 3469   0.811   4.024  13.009 -3.4297 -1.6161  2.0874
  228MPD1    N1 3470   1.151   4.323  13.203 -0.3125  0.1089 -0.2223
  228MPD1    H6 3471   1.178   4.230  13.233 -0.0156  0.3306  0.1929
  228MPD1    H7 3472   1.173   4.387  13.279 -2.2450  1.1822 -0.5705
  229MPD1     C 3473   2.449   2.357  13.902  0.1024  0.8226  0.7951
  229MPD1    C1 3474   2.339   2.370  13.817  0.6827  0.2209 -0.3814
  229MPD1    C2 3475   2.209   2.353  13.872  0.4563  0.6676  0.6812
  229MPD1    C3 3476   2.192   2.312  14.006 -0.0910 -0.1745 -0.6977
  229MPD1    C4 3477   2.302   2.284  14.082 -0.4131  0.8250 -0.0712
  229MPD1    C5 3478   2.432   2.309  14.029  0.2526  0.0277  1.2961
  229MPD1     H 3479   2.123   2.383  13.814  0.2053  0.2852  0.8590
  229MPD1    H1 3480   2.285   2.265  14.188 -0.2843  0.6255 -0.0881
  229MPD1    H2 3481   2.549   2.383  13.871 -0.3278 -1.1383 -2.2790
  229MPD1    H3 3482   2.520   2.310  14.092  1.8270  0.4940 -0.9454
  229MPD1     N 3483   2.065   2.309  14.073 -0.3133 -0.0564 -0.3203
  229MPD1    H5 3484   2.067   2.289  14.172  2.6091  1.4653 -0.0762
  229MPD1    N1 3485   2.354   2.433  13.692  0.7078  0.2992  0.0188
  229MPD1    H6 3486   2.431   2.392  13.640  0.8455  0.5232  0.0505
  229MPD1    H7 3487   2.275   2.444  13.628  0.8126 -0.5106 -0.2566
  230MPD1     C 3488   1.115   2.777  14.299  0.2723 -0.2126 -0.0949
  230MPD1    C1 3489   1.130   2.673  14.386  0.2204  0.0571  0.0432
  230MPD1    C2 3490   1.232   2.583  14.377  0.3424 -0.4537 -0.1429
  230MPD1    C3 3491   1.320   2.587  14.273 -0.0378  0.5632  0.1404
  230MPD1    C4 3492   1.301   2.685  14.179 -0.2662 -0.0437  0.0640
  230MPD1    C5 3493   1.200   2.780  14.198  0.4220 -0.2059  0.8250
  230MPD1     H 3494   1.237   2.509  14.457 -1.0663  1.0561  1.3454
  230MPD1    H1 3495   1.368   2.715  14.099  0.0268 -1.9196 -0.3889
  230MPD1    H2 3496   1.035   2.850  14.302 -0.4681 -1.0547  0.5682
  230MPD1    H3 3497   1.189   2.859  14.124 -0.7365 -1.8699 -0.8034
  230MPD1     N 3498   1.431   2.498  14.270 -0.3779 -0.2303  0.0614
  230MPD1    H5 3499   1.446   2.435  14.348 -0.6926 -0.8630 -0.3970
  230MPD1    N1 3500   1.040   2.667  14.497 -0.1355  0.0439 -0.5361
  230MPD1    H6 3501   0.954   2.722  14.491 -0.3093 -0.3509 -1.6985
  230MPD1    H7 3502   1.013   2.574  14.530  0.0188  1.1456  2.7176
  231MPD1     C 3503   4.031   4.028  15.341  0.4649  0.0472  0.0802
  231MPD1    C1 3504   4.039   4.009  15.200  0.3020 -0.3341 -0.1190
  231MPD1    C2 3505   4.150   4.050  15.130 -0.4252  0.1637 -0.1906
  231MPD1    C3 3506   4.239   4.132  15.193  0.1339 -0.8046  0.3403
  231MPD1    C4 3507   4.235   4.161  15.322  0.0089  0.2059 -0.0523
  231MPD1    C5 3508   4.124   4.109  15.396  0.2036  0.2427  0.0319
  231MPD1     H 3509   4.153   4.040  15.022 -0.0076  0.5886 -0.2172
  231MPD1    H1 3510   4.307   4.219  15.378  0.2573 -0.2601  0.1106
  231MPD1    H2 3511   3.956   3.983  15.405  2.2031 -1.4270  1.0878
  231MPD1    H3 3512   4.120   4.123  15.504 -0.7273  0.3338 -0.0139
  231MPD1     N 3513   4.332   4.195  15.109  0.1448  0.0278 -0.2370
  231MPD1    H5 3514   4.327   4.174  15.010 -2.4780  0.5198 -0.2306
  231MPD1    N1 3515   3.948   3.921  15.138  0.5125  0.0974  0.1982
  231MPD1    H6 3516   3.858   3.922  15.186  0.5169 -0.5643  0.2277
  231MPD1    H7 3517   3.929   3.949  15.042 -2.0442  2.0763  1.2686
  232MPD1     C 3518   2.489   2.751   0.647  0.2005  0.1619  0.0770
  232MPD1    C1 3519   2.372   2.796   0.708 -0.3408 -0.0120  0.2285
  232MPD1    C2 3520   2.288   2.686   0.744  0.7489  0.0939  0.2054
  232MPD1    C3 3521   2.332   2.553   0.716 -0.8793 -0.2463 -0.1835
  232MPD1    C4 3522   2.453   2.522   0.651 -0.1768 -0.0716 -0.5385
  232MPD1    C5 3523   2.530   2.626   0.616  0.6034 -0.0971  1.1368
  232MPD1     H 3524   2.195   2.702   0.796 -0.4001  0.1528 -1.8474
  232MPD1    H1 3525   2.484   2.423   0.620 -1.2888 -0.8313  0.8080
  232MPD1    H2 3526   2.563   2.830   0.635 -0.7005  0.7393 -1.6942
  232MPD1    H3 3527   2.632   2.614   0.582  0.7549  1.7735  0.9544
  232MPD1     N 3528   2.242   2.442   0.741 -0.1983 -0.6288  0.0294
  232MPD1    H5 3529   2.149   2.467   0.772 -0.0525  1.0046 -0.8162
  232MPD1    N1 3530   2.346   2.930   0.739 -0.1981 -0.0733  0.3927
  232MPD1    H6 3531   2.245   2.940   0.736 -0.0116  1.5170 -0.5589
  232MPD1    H7 3532   2.385   2.988   0.665  1.1138  0.1998  1.2971
  233MPD1     C 3533   2.114   0.350   1.889 -0.5784  0.1505  0.5198
  233MPD1    C1 3534   2.048   0.253   1.815  0.6631  0.2765 -0.5792
  233MPD1    C2 3535   2.124   0.147   1.764 -0.2731 -1.1733  0.3550
  233MPD1    C3 3536   2.259   0.155   1.763 -0.3801  0.1844  0.4817
  233MPD1    C4 3537   2.322   0.257   1.832 -0.0908 -0.4322 -0.7935
  233MPD1    C5 3538   2.253   0.350   1.899 -0.3575  0.1767 -0.9729
  233MPD1     H 3539   2.074   0.063   1.718 -1.3412 -0.0158 -0.5910
  233MPD1    H1 3540   2.429   0.268   1.846 -0.5493  0.7138  1.7219
  233MPD1    H2 3541   2.054   0.425   1.938 -1.7144 -0.0874 -0.5081
  233MPD1    H3 3542   2.301   0.429   1.956  0.8865  0.3662 -2.2921
  233MPD1     N 3543   2.344   0.059   1.704  0.4448 -0.1042 -0.1579
  233MPD1    H5 3544   2.445   0.068   1.711  0.0425  2.6501  2.1746
  233MPD1    N1 3545   1.910   0.264   1.803  0.2374 -0.5081  0.3503
  233MPD1    H6 3546   1.865   0.248   1.713  0.7816 -2.1784  0.3849
  233MPD1    H7 3547   1.882   0.354   1.841 -3.1862 -0.8370 -1.3243
  234MPD1     C 3548   4.165   3.015   9.591 -0.3493  0.4293  0.8312
  234MPD1    C1 3549   4.151   3.072   9.469 -0.4551 -0.1409  0.1311
  234MPD1    C2 3550   4.185   3.203   9.455 -0.5123 -0.0364 -0.4061
  234MPD1    C3 3551   4.227   3.278   9.564  0.1712 -0.8540  0.0373
  234MPD1    C4 3552   4.207   3.232   9.693 -0.5867 -0.0740  0.1195
  234MPD1    C5 3553   4.180   3.102   9.704  0.1203  0.5043  0.2295
  234MPD1     H 3554   4.194   3.242   9.354  2.5628  1.3963  0.4196
  234MPD1    H1 3555   4.219   3.299   9.778 -1.8000 -0.5161  0.6426
  234MPD1    H2 3556   4.146   2.909   9.598  1.5309  0.0888  0.8835
  234MPD1    H3 3557   4.170   3.055   9.802  3.9480 -0.0279  0.3653
  234MPD1     N 3558   4.261   3.416   9.539 -0.3805  0.2372  0.2717
  234MPD1    H5 3559   4.249   3.456   9.447  1.3377 -1.0627 -0.5209
  234MPD1    N1 3560   4.137   2.979   9.360 -0.4195  0.7999  0.7630
  234MPD1    H6 3561   4.103   3.023   9.275  0.9868  2.4325  1.0548
  234MPD1    H7 3562   4.089   2.890   9.376 -0.0209  0.8935  2.4268
  235MPD1     C 3563   1.913   1.808   9.114 -0.1596  0.3319  0.0191
  235MPD1    C1 3564   1.968   1.898   9.203 -0.1132  0.3806 -0.7829
  235MPD1    C2 3565   1.879   1.937   9.304 -0.0368  0.8563  0.2126
  235MPD1    C3 3566   1.749   1.882   9.329  0.4669 -0.3437  0.2356
  235MPD1    C4 3567   1.702   1.785   9.234  0.2975  0.1344  0.2766
  235MPD1    C5 3568   1.790   1.756   9.132 -0.3996 -0.3421  0.2472
  235MPD1     H 3569   1.907   2.015   9.375 -0.8820  2.4021 -1.1520
  235MPD1    H1 3570   1.603   1.739   9.237 -0.0690  0.9013  0.0225
  235MPD1    H2 3571   1.980   1.762   9.041  0.6784  1.1988  0.2454
  235MPD1    H3 3572   1.757   1.681   9.063  2.5851  0.5091 -2.1155
  235MPD1     N 3573   1.673   1.942   9.430 -0.1674 -0.0978  0.6379
  235MPD1    H5 3574   1.721   2.013   9.484  1.3358 -0.6870  0.0470
  235MPD1    N1 3575   2.086   1.964   9.183  0.2316  0.7538  0.3436
  235MPD1    H6 3576   2.146   1.903   9.129 -0.4438  1.7042 -1.4699
  235MPD1    H7 3577   2.128   1.997   9.270  0.5864  0.4851  0.2726
  236MPD1     C 3578   4.680   3.361   9.816  0.2340  0.2926 -0.0790
  236MPD1    C1 3579   4.640   3.234   9.810  0.2621  0.1051  0.5641
  236MPD1    C2 3580   0.010   3.139   9.872  0.0130  0.7503 -0.6570
  236MPD1    C3 3581   0.109   3.172   9.958  0.0503 -0.3326  0.1037
  236MPD1    C4 3582   0.131   3.306   9.981 -0.6497 -0.4603  0.7312
  236MPD1    C5 3583   0.063   3.394   9.897 -0.3302  0.8166 -0.1401
  236MPD1     H 3584   4.702   3.038   9.843  1.5620  0.3424 -0.7287
  236MPD1    H1 3585   0.200   3.344  10.055 -0.4757  0.6207 -0.0029
  236MPD1    H2 3586   4.624   3.441   9.767  1.3706 -0.5906 -2.7952
  236MPD1    H3 3587   0.081   3.499   9.915  0.1156  0.4897  1.2877
  236MPD1     N 3588   0.189   3.083  10.030  0.4316  0.0478  0.4059
  236MPD1    H5 3589   0.254   3.120  10.098 -1.0935 -1.2813  2.6039
  236MPD1    N1 3590   4.534   3.201   9.730  0.1951  0.0182 -0.4212
  236MPD1    H6 3591   4.477   3.285   9.719  0.1825  0.1518  0.6249
  236MPD1    H7 3592   4.488   3.116   9.761 -2.3786  1.9902  1.2638
  237MPD1     C 3593   0.259   1.329  15.367 -0.4023 -0.0788  0.0026
  237MPD1    C1 3594   0.321   1.209  15.334 -0.4571 -0.0182 -0.1843
  237MPD1    C2 3595   0.242   1.107  15.274 -0.1896 -0.3295  0.2122
  237MPD1    C3 3596   0.105   1.126  15.251  0.0446 -0.3721 -0.2039
  237MPD1    C4 3597   0.053   1.247  15.297 -0.3525  0.1848  0.4352
  237MPD1    C5 3598   0.127   1.345  15.353  0.4557 -0.2436 -0.7393
  237MPD1     H 3599   0.279   1.010  15.244  0.1398  0.1063 -0.7833
  237MPD1    H1 3600   4.667   1.268  15.287 -0.4865 -0.3875  0.6228
  237MPD1    H2 3601   0.317   1.410  15.411  1.3129  0.9105 -4.0673
  237MPD1    H3 3602   0.069   1.425  15.397 -1.2197 -0.9946 -1.6036
  237MPD1     N 3603   0.016   1.029  15.203 -0.0552  0.2199  0.4920
  237MPD1    H5 3604   4.636   1.045  15.210  0.4744  3.1375  1.1623
  237MPD1    N1 3605   0.460   1.182  15.370  0.2695 -0.1313  0.1538
  237MPD1    H6 3606   0.482   1.099  15.424  0.8875 -0.9855 -1.4242
  237MPD1    H7 3607   0.501   1.262  15.417  2.9738  0.2497 -2.8936
  238MPD1     C 3608   1.970   3.942  14.756 -0.3099  0.8149 -0.4755
  238MPD1    C1 3609   1.966   4.064  14.694  0.1553 -0.1888 -0.1973
  238MPD1    C2 3610   1.857   4.142  14.698  0.0011  0.1149 -0.1082
  238MPD1    C3 3611   1.755   4.113  14.795  0.0072 -0.1141 -0.7250
  238MPD1    C4 3612   1.763   4.005  14.863 -0.0683  0.3580 -0.4779
  238MPD1    C5 3613   1.866   3.916  14.847 -0.3191 -0.1884 -0.7135
  238MPD1     H 3614   1.855   4.239  14.650  0.0209 -1.4529 -3.2793
  238MPD1    H1 3615   1.688   3.976  14.937 -1.7625  1.0189 -1.9467
  238MPD1    H2 3616   2.044   3.863  14.753 -0.4316  0.5635  2.5818
  238MPD1    H3 3617   1.867   3.833  14.916 -0.2814 -0.3837 -0.9518
  238MPD1     N 3618   1.629   4.179  14.799 -0.2709  0.2710  0.5958
  238MPD1    H5 3619   1.561   4.139  14.863 -1.0986  1.9316  0.7755
  238MPD1    N1 3620   2.067   4.092  14.595  0.0281  0.0231 -0.7795
  238MPD1    H6 3621   2.071   4.193  14.580 -2.3561  0.3686  0.8514
  238MPD1    H7 3622   2.160   4.059  14.617  0.2305  1.6081  0.7411
  239MPD1     C 3623   1.969   0.574  14.954 -0.0771  0.1383  0.3136
  239MPD1    C1 3624   2.004   0.523  14.836 -0.1048 -0.0139 -0.3022
  239MPD1    C2 3625   1.937   0.551  14.715  0.4367  0.5479  0.9174
  239MPD1    C3 3626   1.837   0.637  14.720 -0.2313 -1.3561  0.1304
  239MPD1    C4 3627   1.795   0.693  14.840  0.4608  0.2437 -0.3438
  239MPD1    C5 3628   1.862   0.656  14.956 -0.1060  0.1441 -0.4547
  239MPD1     H 3629   1.969   0.505  14.622  1.5283 -0.2497  1.7009
  239MPD1    H1 3630   1.713   0.763  14.851 -1.1179 -1.6138 -0.4456
  239MPD1    H2 3631   2.022   0.549  15.045  0.4379  0.8214  0.1979
  239MPD1    H3 3632   1.848   0.713  15.047  0.6181  0.1303 -0.3358
  239MPD1     N 3633   1.761   0.679  14.606  0.0707  0.3908 -0.4860
  239MPD1    H5 3634   1.687   0.742  14.635 -0.1270  0.1763 -0.5259
  239MPD1    N1 3635   2.120   0.440  14.826 -0.3925 -0.0382  0.4827
  239MPD1    H6 3636   2.138   0.387  14.911 -1.3731 -3.1348 -1.2548
  239MPD1    H7 3637   2.124   0.373  14.749 -0.3981  0.4878  0.0248
  240MPD1     C 3638   0.722   0.846  14.503 -0.7341 -0.3829 -0.1574
  240MPD1    C1 3639   0.717   0.758  14.604  0.2156  0.2041  0.2725
  240MPD1    C2 3640   0.783   0.637  14.598  0.1449 -0.2055  0.1287
  240MPD1    C3 3641   0.855   0.608  14.481 -1.3388 -0.0115  0.2905
  240MPD1    C4 3642   0.854   0.696  14.374 -0.1107  0.1634  0.1612
  240MPD1    C5 3643   0.802   0.818  14.393  0.1921 -0.3287 -0.5981
  240MPD1     H 3644   0.780   0.577  14.688  2.3342 -0.2185  0.1892
  240MPD1    H1 3645   0.897   0.687  14.275  0.3970  0.3252  0.3663
  240MPD1    H2 3646   0.666   0.939  14.496  0.7442  0.3229 -2.8069
  240MPD1    H3 3647   0.790   0.879  14.305  0.0503  1.3693  0.6011
  240MPD1     N 3648   0.911   0.479  14.469 -0.6442  0.7541  0.1264
  240MPD1    H5 3649   0.890   0.424  14.552 -1.1275 -0.8931 -1.0872
  240MPD1    N1 3650   0.650   0.793  14.723  0.0528 -0.6577 -0.1275
  240MPD1    H6 3651   0.604   0.720  14.777  0.7276 -2.0360 -1.4176
  240MPD1    H7 3652   0.583   0.866  14.698 -1.2654 -2.3581 -1.5885
  241MPD1     C 3653   1.150   0.307  15.164 -0.4118  0.6131 -0.7393
  241MPD1    C1 3654   1.076   0.194  15.124  0.4388  0.8362  0.3495
  241MPD1    C2 3655   1.066   0.165  14.990 -0.1547 -0.6101 -0.1792
  241MPD1    C3 3656   1.154   0.225  14.899  0.3072  0.2607  0.5892
  241MPD1    C4 3657   1.233   0.330  14.944  0.0741  0.1442 -0.2365
  241MPD1    C5 3658   1.227   0.375  15.071  0.6847  0.7287 -0.5317
  241MPD1     H 3659   0.992   0.088  14.971  0.5243 -1.2438 -0.2814
  241MPD1    H1 3660   1.303   0.385  14.883  0.5391 -0.6079 -0.3770
  241MPD1    H2 3661   1.147   0.334  15.269 -4.0892 -1.4542 -0.3273
  241MPD1    H3 3662   1.273   0.467  15.105  2.4477 -0.4969  0.4408
  241MPD1     N 3663   1.156   0.199  14.758  0.4448 -0.1804 -0.1139
  241MPD1    H5 3664   1.215   0.253  14.696  1.2532 -0.1576  0.6816
  241MPD1    N1 3665   0.994   0.133  15.224 -0.6773  0.6073  0.7149
  241MPD1    H6 3666   0.907   0.186  15.232 -1.4516 -0.8852  2.2268
  241MPD1    H7 3667   0.948   0.049  15.191  0.2822  0.1136  0.6423
  242MPD1     C 3668   0.387   2.742  15.761  0.4210  0.5515  0.1773
  242MPD1    C1 3669   0.381   2.604  15.746  0.4740  1.0124  0.7862
  242MPD1    C2 3670   0.468   2.544  15.659 -0.7313  0.2459  0.1728
  242MPD1    C3 3671   0.551   2.612  15.576  0.2083  0.3958  0.3383
  242MPD1    C4 3672   0.556   2.750  15.584 -1.1849  0.7110  0.8200
  242MPD1    C5 3673   0.475   2.812  15.680 -0.8455 -0.8588 -0.2096
  242MPD1     H 3674   0.459   2.437  15.651 -1.2898  0.3274 -0.3499
  242MPD1    H1 3675   0.603   2.817  15.514  2.7016 -1.9196  0.8905
  242MPD1    H2 3676   0.314   2.799  15.819  1.3979 -1.1900  3.1401
  242MPD1    H3 3677   0.481   2.920  15.678 -0.0465 -0.8375  2.5896
  242MPD1     N 3678   0.632   2.555  15.472  0.4645  0.2243 -0.2891
  242MPD1    H5 3679   0.675   2.625  15.412 -1.1632  0.8080 -0.7647
  242MPD1    N1 3680   0.302   2.527  15.834  0.0681 -0.0259 -0.1677
  242MPD1    H6 3681   0.245   2.465  15.777  1.5736 -0.8479 -0.7692
  242MPD1    H7 3682   0.227   2.588  15.864 -0.1678 -0.3536 -0.0869
  243MPD1     C 3683   2.168   1.902   0.475 -0.3410 -0.5057 -0.0079
  243MPD1    C1 3684   2.218   1.771   0.450  0.0718 -0.0509 -1.0363
  243MPD1    C2 3685   2.197   1.723   0.323 -0.0008  0.3879  0.3226
  243MPD1    C3 3686   2.126   1.794   0.225  0.1894  0.1059 -0.9512
  243MPD1    C4 3687   2.067   1.915   0.266  0.1122 -0.5521 -0.1585
  243MPD1    C5 3688   2.086   1.967   0.386  0.3596 -0.3662 -0.4331
  243MPD1     H 3689   2.229   1.625   0.289 -0.0711  0.5620 -0.2528
  243MPD1    H1 3690   2.017   1.981   0.197 -0.7042 -2.4701 -1.4160
  243MPD1    H2 3691   2.189   1.946   0.572  1.2365  0.9721 -1.0098
  243MPD1    H3 3692   2.041   2.061   0.414 -1.0455 -1.1191 -0.1809
  243MPD1     N 3693   2.113   1.747   0.093 -0.0237 -0.0441 -0.7045
  243MPD1    H5 3694   2.153   1.654   0.087  0.9379  0.3000  0.2658
  243MPD1    N1 3695   2.297   1.716   0.555 -0.1531  0.7041 -0.6134
  243MPD1    H6 3696   2.249   1.743   0.641 -1.3595  0.2203 -1.1257
  243MPD1    H7 3697   2.306   1.616   0.567  0.1491  1.2242  3.3240
  244MPD1     C 3698   2.255   0.969  17.583 -0.1229 -0.4004  0.4974
  244MPD1    C1 3699   2.234   1.054   0.003 -0.1828  0.1742 -0.4110
  244MPD1    C2 3700   2.215   1.189  17.661 -0.6728 -0.3182  0.4634
  244MPD1    C3 3701   2.232   1.236  17.528  0.1188 -0.6683  0.6891
  244MPD1    C4 3702   2.255   1.147  17.429  0.0189  0.6884 -0.1444
  244MPD1    C5 3703   2.281   1.015  17.458  0.4654  0.3190  0.5571
  244MPD1     H 3704   2.197   1.258   0.058 -1.9171 -0.0237 -0.0438
  244MPD1    H1 3705   2.272   1.173  17.324  1.4598  0.7927  0.1126
  244MPD1    H2 3706   2.267   0.862  17.597  0.5122 -0.3293  0.4897
  244MPD1    H3 3707   2.301   0.944  17.377 -1.0589  2.4669 -1.6985
  244MPD1     N 3708   2.211   1.375  17.506 -0.5222  0.5679  0.1861
  244MPD1    H5 3709   2.208   1.432  17.590  0.8149 -1.8049  1.8533
  244MPD1    N1 3710   2.222   1.001   0.129  0.7032 -0.4227  0.3051
  244MPD1    H6 3711   2.241   0.905   0.155 -0.2737 -0.8427 -0.5539
  244MPD1    H7 3712   2.263   1.061   0.200  0.9284  0.4802 -0.5798
  245MPD1     C 3713   4.573   1.771  13.484 -0.2798  0.3708 -0.3301
  245MPD1    C1 3714   4.626   1.821  13.602 -0.5379 -0.2806 -0.2155
  245MPD1    C2 3715   4.622   1.955  13.623 -0.2599  0.2362 -0.5675
  245MPD1    C3 3716   4.546   2.038  13.540 -0.1125 -0.5610 -0.1511
  245MPD1    C4 3717   4.500   1.980  13.421 -0.9535 -0.1709  0.4075
  245MPD1    C5 3718   4.521   1.851  13.386 -0.2483 -0.1092 -0.4303
  245MPD1     H 3719   4.652   1.992  13.720  1.0754  1.4898 -1.4557
  245MPD1    H1 3720   4.452   2.040  13.345 -0.1891 -0.5808 -0.4054
  245MPD1    H2 3721   4.587   1.669  13.451 -1.9152 -0.4179  1.4307
  245MPD1    H3 3722   4.473   1.815  13.296 -0.0680  1.0196 -0.9784
  245MPD1     N 3723   4.528   2.178  13.574 -0.0566  0.1995  0.1675
  245MPD1    H5 3724   4.570   2.207  13.661  2.1991  1.8940 -1.4980
  245MPD1    N1 3725   4.692   1.739  13.690 -0.1976  0.1979  0.2643
  245MPD1    H6 3726   4.662   1.643  13.675 -2.8053  1.2948 -1.5018
  245MPD1    H7 3727   4.666   1.762  13.786 -0.9813  0.2034  0.0497
  246MPD1     C 3728   0.634   4.656  10.020  0.3179  0.1715 -0.3008
  246MPD1    C1 3729   0.667   0.001   9.901  0.1623 -0.0302  0.3673
  246MPD1    C2 3730   0.738   4.647   9.804  0.4341 -0.4154  0.3044
  246MPD1    C3 3731   0.766   4.512   9.829  0.4921 -0.3342 -0.5393
  246MPD1    C4 3732   0.728   4.451   9.946  0.2710  0.6582  0.5128
  246MPD1    C5 3733   0.664   4.521  10.045  0.0324 -0.0113  0.1247
  246MPD1     H 3734   0.759   4.702   9.713 -0.0343 -3.2545 -1.5527
  246MPD1    H1 3735   0.750   4.347   9.966 -1.1630  0.0750 -0.9673
  246MPD1    H2 3736   0.577   4.703  10.099 -0.6187 -1.5401  0.0516
  246MPD1    H3 3737   0.643   4.482  10.144 -1.3937  1.7495  0.5116
  246MPD1     N 3738   0.849   4.461   9.729 -0.2521  0.4161  0.0838
  246MPD1    H5 3739   0.877   4.529   9.659 -1.8077  0.5821 -0.3705
  246MPD1    N1 3740   0.614   0.125   9.865  0.5256  0.6616  0.3586
  246MPD1    H6 3741   0.602   0.182   9.950 -0.4963 -0.0659  0.7048
  246MPD1    H7 3742   0.660   0.176   9.791  1.3905  0.7569  0.9654
  247MPD1     C 3743   3.469   3.125  16.054  0.3980 -0.5737  0.1852
  247MPD1    C1 3744   3.504   3.067  16.172  0.3753  0.8314 -0.0685
  247MPD1    C2 3745   3.520   2.924  16.172 -0.4430 -0.5407 -0.2201
  247MPD1    C3 3746   3.514   2.849  16.056  0.4078 -0.5062 -0.4290
  247MPD1    C4 3747   3.488   2.913  15.936  0.3310 -0.7223  0.5892
  247MPD1    C5 3748   3.472   3.053  15.935 -0.1882  0.1777 -0.4586
  247MPD1     H 3749   3.524   2.877  16.269  0.9408 -0.1166 -0.0622
  247MPD1    H1 3750   3.485   2.844  15.852  0.1237  0.4999 -0.4140
  247MPD1    H2 3751   3.433   3.226  16.044  0.5050 -0.3576  1.9939
  247MPD1    H3 3752   3.470   3.101  15.838  3.1302  1.1876 -0.0265
  247MPD1     N 3753   3.507   2.707  16.055  0.8360  0.0279  0.0015
  247MPD1    H5 3754   3.502   2.659  15.965 -1.3691  0.3249 -0.0331
  247MPD1    N1 3755   3.497   3.139  16.288 -0.1751  0.1811 -0.4498
  247MPD1    H6 3756   3.567   3.115  16.358 -1.2660 -1.7679 -0.0300
  247MPD1    H7 3757   3.521   3.237  16.274  0.4947  0.2839  1.4008
  248MPD1     C 3758   2.402   2.626  16.628 -0.5613 -0.0816 -0.2413
  248MPD1    C1 3759   2.293   2.618  16.712  0.6338  0.4141  0.0282
  248MPD1    C2 3760   2.320   2.597  16.844  0.8956 -0.2506  0.9433
  248MPD1    C3 3761   2.445   2.565  16.885 -0.0791  0.0704  0.5558
  248MPD1    C4 3762   2.549   2.556  16.800 -0.6280 -0.5211 -0.9507
  248MPD1    C5 3763   2.524   2.591  16.671  0.1721  0.7308 -0.1549
  248MPD1     H 3764   2.239   2.608  16.915  0.6050  1.2875  0.3884
  248MPD1    H1 3765   2.649   2.534  16.835 -0.6234  1.7917  0.5172
  248MPD1    H2 3766   2.386   2.633  16.521  1.1410 -1.0345 -0.5546
  248MPD1    H3 3767   2.601   2.590  16.595 -0.3676 -0.8142 -0.6957
  248MPD1     N 3768   2.454   2.528  17.025  0.4582 -0.0332 -0.7211
  248MPD1    H5 3769   2.391   2.567  17.094 -0.8515  1.4137 -2.7068
  248MPD1    N1 3770   2.173   2.673  16.665  0.1177 -0.3096  0.5056
  248MPD1    H6 3771   2.149   2.651  16.568  0.9610 -2.6294  0.8115
  248MPD1    H7 3772   2.096   2.640  16.722 -2.6998  0.6079 -2.7825
  249MPD1     C 3773   1.150   0.951   9.881 -0.0875 -0.1748 -0.3603
  249MPD1    C1 3774   1.152   1.000   9.756  0.3453 -0.5711  0.0903
  249MPD1    C2 3775   1.268   1.059   9.709  0.3555  0.0751  0.9987
  249MPD1    C3 3776   1.370   1.096   9.793 -0.4879  0.2015  0.3899
  249MPD1    C4 3777   1.363   1.051   9.919  0.2686 -0.1214 -0.1311
  249MPD1    C5 3778   1.253   0.975   9.958  0.4388  0.1058 -0.6013
  249MPD1     H 3779   1.290   1.088   9.607  2.0729 -0.5461  1.1887
  249MPD1    H1 3780   1.436   1.075   9.996  1.5332 -1.8625 -0.7959
  249MPD1    H2 3781   1.071   0.888   9.919  0.9114 -2.5092 -2.1814
  249MPD1    H3 3782   1.238   0.940  10.059 -0.2225  2.4528  0.1189
  249MPD1     N 3783   1.467   1.184   9.740  0.2488 -0.3176  0.1263
  249MPD1    H5 3784   1.456   1.211   9.642 -1.0136 -1.4979 -0.0455
  249MPD1    N1 3785   1.042   0.966   9.668  0.0607  0.4663 -0.0906
  249MPD1    H6 3786   0.952   0.965   9.715 -0.5594  0.2693 -1.2686
  249MPD1    H7 3787   1.025   1.018   9.582 -1.5690  0.9883  0.5447
  250MPD2     C 3788   2.257   1.039  13.286  0.3539 -0.4786  0.4285
  250MPD2    C1 3789   2.234   1.105  13.168  0.4565  0.3161 -0.1297
  250MPD2    C2 3790   2.168   1.029  13.068  0.1002 -0.4848 -0.0273
  250MPD2    C3 3791   2.120   0.899  13.087 -0.1089  0.1902  0.2503
  250MPD2    C4 3792   2.157   0.837  13.205  0.0634  0.3997  0.6290
  250MPD2    C5 3793   2.216   0.912  13.308  0.1630 -0.2496  0.4603
  250MPD2     H 3794   2.143   1.092  12.983  1.3482  0.5555  0.3888
  250MPD2    H1 3795   2.136   0.733  13.225 -3.0059  0.6918 -1.0466
  250MPD2    H2 3796   2.306   1.091  13.367 -0.6410 -0.9259  1.3071
  250MPD2    H3 3797   2.243   0.866  13.402 -0.3168  0.9759  1.1921
  250MPD2     N 3798   2.043   0.826  13.003  0.5184  0.0061 -0.3577
  250MPD2    H5 3799   2.019   0.732  13.033  2.2870 -0.5748 -0.7815
  250MPD2    N1 3800   2.296   1.232  13.157  0.0802  0.3299  0.0268
  250MPD2    H7 3801   2.358   1.265  13.230 -0.4510 -1.0432  1.1192
  251TMC3    C1 3802   2.374   1.426  13.042 -0.0776 -0.5340  0.4478
  251TMC3    C2 3803   2.347   1.534  12.964  0.4377 -0.1460 -0.3893
  251TMC3    C3 3804   2.427   1.646  12.998  0.4961 -0.0977 -0.4598
  251TMC3    C4 3805   2.477   1.411  13.130  0.1519 -0.0144 -0.3714
  251TMC3    C5 3806   2.553   1.518  13.155 -0.1097 -0.3642  0.2502
  251TMC3    C6 3807   2.533   1.637  13.090 -0.0361  0.5345 -1.1297
  251TMC3     C 3808   2.281   1.313  13.048 -0.4453  1.0208  0.0931
  251TMC3     O 3809   2.206   1.307  12.951 -0.0332  0.4043 -0.3958
  251TMC3     H 3810   2.258   1.546  12.903 -0.0511 -1.6016  0.0513
  251TMC3    H1 3811   2.503   1.318  13.179 -2.0526 -1.2255 -1.5192
  251TMC3    H2 3812   2.586   1.724  13.126 -0.9002  1.4076 -1.9586
  251TMC3    C7 3813   2.684   1.489  13.209  0.7004 -0.3988 -0.7542
  251TMC3    C8 3814   2.403   1.769  12.925  0.6656  0.3585  0.6327
  251TMC3    O1 3815   2.696   1.404  13.297  0.2790  0.0754 -0.1103
  251TMC3    O2 3816   2.310   1.790  12.856 -0.2807 -0.5523 -0.0279
  252TMC3    C1 3817   3.369   2.011   9.081  0.1511 -0.4730 -0.0015
  252TMC3    C2 3818   3.497   1.969   9.090 -0.1781  0.0744 -0.7614
  252TMC3    C3 3819   3.516   1.836   9.095 -0.0284 -0.1315 -0.0550
  252TMC3    C4 3820   3.263   1.921   9.073  0.3595  1.3396 -0.3149
  252TMC3    C5 3821   3.289   1.791   9.075 -0.1743  0.2073  0.3537
  252TMC3    C6 3822   3.415   1.748   9.087 -0.1445 -1.2514 -0.2611
  252TMC3     C 3823   3.358   2.156   9.045 -1.0260 -0.4044  0.4769
  252TMC3     O 3824   3.450   2.230   9.066 -0.4421 -0.0842  0.1168
  252TMC3     H 3825   3.586   2.031   9.086  0.4302 -0.6593  1.6386
  252TMC3    H1 3826   3.158   1.950   9.076  0.1958  0.7950 -0.7907
  252TMC3    H2 3827   3.434   1.641   9.097 -0.6090 -1.3115 -0.0444
  252TMC3    C7 3828   3.174   1.704   9.089 -0.6203  0.0315  0.2203
  252TMC3    C8 3829   3.652   1.783   9.089 -0.8815 -0.5050  0.4388
  252TMC3    O1 3830   3.075   1.733   9.029  0.1068 -0.1930  0.0474
  252TMC3    O2 3831   3.681   1.681   9.024 -0.4363 -0.1349 -0.2775
  253MPD2     C 3832   4.033   0.981  15.560 -0.2230  0.6920  0.4222
  253MPD2    C1 3833   3.909   0.925  15.543  0.3448  1.0474 -0.2981
  253MPD2    C2 3834   3.845   0.871  15.657 -0.1299  0.1165 -0.6033
  253MPD2    C3 3835   3.909   0.857  15.774  0.1155 -0.6973  0.2114
  253MPD2    C4 3836   4.035   0.914  15.784 -0.1430  0.6453  0.7844
  253MPD2    C5 3837   4.098   0.973  15.680  0.6691 -0.3611 -0.0411
  253MPD2     H 3838   3.742   0.838  15.646  0.0527 -0.9493  0.8953
  253MPD2    H1 3839   4.091   0.916  15.876  1.7625  0.8916 -0.3738
  253MPD2    H2 3840   4.093   1.017  15.477  2.0599  1.8897  2.6284
  253MPD2    H3 3841   4.201   1.005  15.689  0.1432  1.4237 -0.2293
  253MPD2     N 3842   3.866   0.779  15.883 -0.0927 -0.4123  0.5747
  253MPD2    H5 3843   3.918   0.786  15.970 -2.2143  3.1247  1.5812
  253MPD2    N1 3844   3.843   0.914  15.420 -0.1596  0.6892 -0.3990
  253MPD2    H7 3845   3.768   0.846  15.422 -0.5953  1.1304 -2.1427
  254TMC3    C1 3846   3.736   0.620  16.003  0.0797  0.9863 -0.1863
  254TMC3    C2 3847   3.608   0.574  16.022 -0.3980  0.2136  0.2980
  254TMC3    C3 3848   3.582   0.517  16.139  0.3479  0.0985 -0.0928
  254TMC3    C4 3849   3.835   0.609  16.093  0.6709 -0.7017 -0.0416
  254TMC3    C5 3850   3.803   0.554  16.213  0.1171 -1.0246 -0.2233
  254TMC3    C6 3851   3.679   0.505  16.231  0.2151  0.4376 -0.6156
  254TMC3     C 3852   3.752   0.700  15.882  0.2049 -0.3378 -0.0073
  254TMC3     O 3853   3.668   0.685  15.794  0.1364 -0.4166 -0.2308
  254TMC3     H 3854   3.533   0.597  15.947  0.8256  1.1168 -0.6563
  254TMC3    H1 3855   3.936   0.632  16.060  0.4333  1.2186  0.5325
  254TMC3    H2 3856   3.650   0.464  16.327  0.9211 -0.9677 -1.0074
  254TMC3    C7 3857   3.900   0.539  16.317  0.0343  0.1500  0.2408
  254TMC3    C8 3858   3.446   0.498  16.176 -0.4410  0.3030 -0.4963
  254TMC3    O1 3859   3.884   0.448  16.395 -0.3422  0.2737  0.7352
  254TMC3    O2 3860   3.434   0.499  16.297  0.4614 -0.5074 -0.2185
  255MPD2     C 3861   2.452   3.054  10.394 -0.6062  0.4590 -0.6847
  255MPD2    C1 3862   2.552   3.082  10.304  0.2454  0.4901  0.0611
  255MPD2    C2 3863   2.622   2.978  10.249 -0.5232 -0.2539  0.1519
  255MPD2    C3 3864   2.622   2.847  10.302 -0.0196  0.2002  1.1021
  255MPD2    C4 3865   2.538   2.822  10.407 -0.2127 -0.4712  0.2282
  255MPD2    C5 3866   2.454   2.927  10.450 -0.7112  0.0932 -0.4083
  255MPD2     H 3867   2.687   3.011  10.169 -0.2523 -2.2800 -0.4829
  255MPD2    H1 3868   2.533   2.723  10.451 -1.8267 -0.7739 -0.6328
  255MPD2    H2 3869   2.388   3.133  10.432 -1.5142  0.0779 -1.4168
  255MPD2    H3 3870   2.377   2.898  10.520 -0.3880 -1.7144 -0.7860
  255MPD2     N 3871   2.703   2.738  10.253  0.2097 -0.1382 -0.2702
  255MPD2    H5 3872   2.682   2.645  10.286 -1.1849 -0.2585 -1.4890
  255MPD2    N1 3873   2.568   3.222  10.273  0.4222 -1.0437 -0.1526
  255MPD2    H7 3874   2.525   3.290  10.335  2.3637  1.6937 -1.8490
  256TMC3    C1 3875   2.654   3.415  10.159 -0.4134  0.2016  0.2071
  256TMC3    C2 3876   2.769   3.468  10.100  0.4922  0.0538 -0.0810
  256TMC3    C3 3877   2.797   3.602  10.124  0.8157  0.1934  0.5400
  256TMC3    C4 3878   2.569   3.488  10.236 -0.2461 -0.1064 -0.3421
  256TMC3    C5 3879   2.604   3.617  10.264  0.3790  0.2359  0.0154
  256TMC3    C6 3880   2.717   3.682  10.211 -0.1172 -0.1698  0.2307
  256TMC3     C 3881   2.645   3.268  10.167  1.2111 -0.0494  0.1646
  256TMC3     O 3882   2.704   3.202  10.082 -0.0344 -0.8823 -0.3779
  256TMC3     H 3883   2.827   3.408  10.032  0.3600 -0.9503  0.6938
  256TMC3    H1 3884   2.476   3.450  10.277 -2.0164  0.4212 -3.8555
  256TMC3    H2 3885   2.736   3.788  10.200  0.3977 -0.5598 -2.6741
  256TMC3    C7 3886   2.485   3.696  10.276  0.2701  0.5960 -0.0021
  256TMC3    C8 3887   2.895   3.664  10.034  0.8605  0.2865  0.1470
  256TMC3    O1 3888   2.380   3.651  10.229 -0.0204  0.0803 -0.7040
  256TMC3    O2 3889   2.963   3.579   9.978 -0.3958  0.2548  0.4596
  257MPD2     C 3890   1.513   1.340  13.049  0.2692 -0.2267  0.2322
  257MPD2    C1 3891   1.404   1.261  13.010  0.4532 -0.6061  1.2571
  257MPD2    C2 3892   1.364   1.162  13.104  0.2358  0.6725 -0.3658
  257MPD2    C3 3893   1.421   1.147  13.228  0.0382  0.3577 -0.0692
  257MPD2    C4 3894   1.528   1.225  13.259 -0.0156  0.5995 -0.0032
  257MPD2    C5 3895   1.576   1.315  13.170  0.3396 -0.1170  0.4749
  257MPD2     H 3896   1.284   1.096  13.071 -1.1118  2.1863 -0.0840
  257MPD2    H1 3897   1.579   1.220  13.355 -0.4610 -0.7526  0.1606
  257MPD2    H2 3898   1.545   1.424  12.989  0.2236 -0.0758  0.4162
  257MPD2    H3 3899   1.666   1.371  13.194 -0.5251  1.8944 -0.9591
  257MPD2     N 3900   1.390   1.031  13.308 -1.0179 -0.7790  0.7306
  257MPD2    H5 3901   1.336   0.962  13.256 -1.2793  0.9920 -1.3786
  257MPD2    N1 3902   1.329   1.295  12.892  0.0665  0.5052 -0.2969
  257MPD2    H7 3903   1.360   1.376  12.839  0.9498 -1.0057 -2.1447
  258TMC3    C1 3904   1.391   0.879  13.489  0.8864  0.5498  0.3022
  258TMC3    C2 3905   1.397   0.775  13.402  0.2113  0.7196  0.2794
  258TMC3    C3 3906   1.370   0.651  13.453 -0.0477 -0.2936 -0.8995
  258TMC3    C4 3907   1.381   0.865  13.625  0.5130 -0.2888  0.4136
  258TMC3    C5 3908   1.376   0.738  13.666  0.1030 -0.0207  0.0456
  258TMC3    C6 3909   1.364   0.630  13.589  0.8211  0.3021  0.3519
  258TMC3     C 3910   1.426   1.015  13.436 -0.5800 -0.3853  0.1543
  258TMC3     O 3911   1.460   1.107  13.517  0.7505  0.4461 -0.2703
  258TMC3     H 3912   1.422   0.784  13.297  1.1344 -0.7664  0.3798
  258TMC3    H1 3913   1.386   0.954  13.687 -1.3317 -0.2764  0.5515
  258TMC3    H2 3914   1.347   0.529  13.622 -0.0537  0.4825  0.4523
  258TMC3    C7 3915   1.366   0.722  13.810 -0.5089  0.1311 -0.7553
  258TMC3    C8 3916   1.312   0.555  13.360  0.0485 -0.0787 -0.5192
  258TMC3    O1 3917   1.297   0.799  13.869  0.6095 -0.3098  0.0073
  258TMC3    O2 3918   1.320   0.434  13.394 -0.3157 -0.2396 -0.5043
  259MPD2     C 3919   0.197   2.294   0.635  0.2583 -0.3353  0.4000
  259MPD2    C1 3920   0.247   2.185   0.716  0.0019 -0.2896 -0.2112
  259MPD2    C2 3921   0.374   2.141   0.690 -0.9060  0.6212  0.4410
  259MPD2    C3 3922   0.458   2.214   0.606  0.9436 -0.5037  0.1145
  259MPD2    C4 3923   0.412   2.324   0.536  0.2556  0.5289  0.0558
  259MPD2    C5 3924   0.286   2.361   0.550  0.9865 -0.3907 -0.0338
  259MPD2     H 3925   0.417   2.053   0.738  1.4373  0.1989 -2.4283
  259MPD2    H1 3926   0.477   2.389   0.480 -1.7513  2.6582  0.1941
  259MPD2    H2 3927   0.098   2.329   0.661  0.1292 -1.0816  0.9263
  259MPD2    H3 3928   0.262   2.456   0.504 -0.5603 -0.5304  0.4853
  259MPD2     N 3929   0.595   2.173   0.602 -0.2335  0.3868  0.1769
  259MPD2    H5 3930   0.618   2.076   0.624  0.7277  0.5052 -0.2910
  259MPD2    N1 3931   0.165   2.141   0.820 -0.5144 -0.4584  0.0669
  259MPD2    H7 3932   0.082   2.199   0.831 -0.3201  0.1369 -1.6678
  260TMC3    C1 3933   0.835   2.210   0.584  0.2023  0.0008 -0.3731
  260TMC3    C2 3934   0.931   2.303   0.591 -0.3402  0.2477 -1.1209
  260TMC3    C3 3935   1.060   2.258   0.563 -0.1103  0.3051  0.6280
  260TMC3    C4 3936   0.855   2.084   0.534 -0.1464  0.1129  0.4866
  260TMC3    C5 3937   0.981   2.049   0.489 -0.4731 -0.1387 -0.3208
  260TMC3    C6 3938   1.090   2.133   0.513 -0.4584  0.1961 -0.8489
  260TMC3     C 3939   0.698   2.260   0.591 -0.0807  0.1888 -0.1162
  260TMC3     O 3940   0.693   2.382   0.580 -0.0477 -0.1397 -0.0109
  260TMC3     H 3941   0.917   2.407   0.620  0.1849 -0.4658  1.7235
  260TMC3    H1 3942   0.776   2.018   0.500  1.5724 -1.9078  0.3751
  260TMC3    H2 3943   1.181   2.113   0.458  0.6711  0.9774  0.7361
  260TMC3    C7 3944   1.005   1.924   0.426 -1.0009 -0.6711 -0.4659
  260TMC3    C8 3945   1.165   2.362   0.578 -0.0146 -0.2305 -0.4526
  260TMC3    O1 3946   0.915   1.876   0.358 -0.4097  0.5316 -0.4660
  260TMC3    O2 3947   1.133   2.478   0.597 -1.1362 -0.5187 -0.9143
  261MPD2     C 3948   1.575   0.803  12.268 -0.6503 -0.5375  0.6650
  261MPD2    C1 3949   1.675   0.865  12.338 -0.5784  0.6265 -0.2785
  261MPD2    C2 3950   1.733   0.983  12.297 -0.9601  0.3390 -0.5107
  261MPD2    C3 3951   1.687   1.037  12.182  0.2974 -0.8078  0.1673
  261MPD2    C4 3952   1.575   0.986  12.119 -0.4651  0.2341 -0.1464
  261MPD2    C5 3953   1.524   0.867  12.161  0.0637 -0.2138  0.2102
  261MPD2     H 3954   1.812   1.022  12.359  1.8420 -2.8795 -2.0446
  261MPD2    H1 3955   1.534   1.017  12.023 -2.7345 -1.1407  0.3968
  261MPD2    H2 3956   1.523   0.714  12.300 -2.4352  0.7684  1.4160
  261MPD2    H3 3957   1.440   0.820  12.111  0.4466 -0.6436 -0.0249
  261MPD2     N 3958   1.757   1.159  12.143 -0.4065  0.0256  0.4201
  261MPD2    H5 3959   1.834   1.191  12.200 -1.3968 -0.8373  2.2600
  261MPD2    N1 3960   1.722   0.816  12.461  0.4837  0.0099  0.4100
  261MPD2    H7 3961   1.794   0.874  12.503  0.6925 -0.0223  0.0943
  262TMC3    C1 3962   1.806   1.357  12.018  0.1369  0.3254 -0.2850
  262TMC3    C2 3963   1.745   1.466  11.955 -0.2761 -0.4493 -0.6025
  262TMC3    C3 3964   1.837   1.541  11.876 -1.1288 -0.0713  1.1013
  262TMC3    C4 3965   1.941   1.338  12.018 -0.0482 -0.1988  0.9169
  262TMC3    C5 3966   2.017   1.414  11.949 -0.7571  0.3478  0.2892
  262TMC3    C6 3967   1.976   1.512  11.873 -0.2653 -0.1925 -0.4863
  262TMC3     C 3968   1.720   1.240  12.036 -0.5566 -1.2215 -0.0213
  262TMC3     O 3969   1.635   1.218  11.956  0.4554 -0.2127 -0.0480
  262TMC3     H 3970   1.637   1.475  11.963 -0.1242 -0.2032  1.1269
  262TMC3    H1 3971   1.991   1.258  12.071  0.5088 -0.7546 -0.4628
  262TMC3    H2 3972   2.047   1.567  11.811 -1.2649  2.7135  0.9216
  262TMC3    C7 3973   2.144   1.360  11.921 -0.0762  0.2710 -0.1809
  262TMC3    C8 3974   1.810   1.673  11.830  0.2350 -0.6129 -0.2052
  262TMC3    O1 3975   2.206   1.315  12.017  0.2625  0.3395 -0.0099
  262TMC3    O2 3976   1.900   1.734  11.768 -0.0241 -0.5226  0.2815
  263MPD2     C 3977   2.937   0.490  11.504 -0.4491  0.2332  0.0383
  263MPD2    C1 3978   3.044   0.554  11.454  0.2833 -0.3829  0.3942
  263MPD2    C2 3979   3.036   0.619  11.331 -0.1029 -0.3486 -0.1285
  263MPD2    C3 3980   2.920   0.581  11.255  0.3590 -0.7591 -0.0106
  263MPD2    C4 3981   2.817   0.508  11.306 -0.0202  1.0586  0.2889
  263MPD2    C5 3982   2.828   0.458  11.431  0.1651 -0.6634 -0.3895
  263MPD2     H 3983   3.112   0.689  11.300 -0.2299 -0.0182  0.2918
  263MPD2    H1 3984   2.740   0.461  11.246  1.1894 -0.9077  0.2831
  263MPD2    H2 3985   2.952   0.441  11.600 -0.6312 -1.4153 -0.7811
  263MPD2    H3 3986   2.751   0.392  11.469  0.8792 -1.5818 -0.5328
  263MPD2     N 3987   2.925   0.639  11.125  0.1359 -0.5144  0.0034
  263MPD2    H5 3988   3.005   0.695  11.097  0.2251 -0.2241  0.8494
  263MPD2    N1 3989   3.160   0.554  11.539 -0.1182  0.3505  0.4037
  263MPD2    H7 3990   3.168   0.488  11.616  1.0164  2.8257  2.3993
  264TMC3    C1 3991   2.887   0.646  10.896  0.6163  0.4597 -0.4650
  264TMC3    C2 3992   2.952   0.763  10.879  0.0149  0.2253 -0.0903
  264TMC3    C3 3993   3.036   0.771  10.771  0.4029  0.3398  0.3281
  264TMC3    C4 3994   2.895   0.536  10.815  0.1328 -0.3343  0.0858
  264TMC3    C5 3995   2.959   0.555  10.695  0.3278 -0.0178  1.1841
  264TMC3    C6 3996   3.037   0.670  10.676 -0.9241  0.3830 -0.3669
  264TMC3     C 3997   2.839   0.606  11.025  0.0075 -0.4117  0.7237
  264TMC3     O 3998   2.743   0.531  11.030  0.0207 -0.5958 -0.4127
  264TMC3     H 3999   2.944   0.832  10.962  1.0591 -1.9817  1.8257
  264TMC3    H1 4000   2.829   0.453  10.839 -0.5879  1.1690  3.3444
  264TMC3    H2 4001   3.089   0.691  10.583 -0.0020  3.3396  0.8077
  264TMC3    C7 4002   2.985   0.449  10.599 -0.4181 -0.1675  0.0265
  264TMC3    C8 4003   3.105   0.895  10.744  0.1503  0.8701  0.4216
  264TMC3    O1 4004   3.094   0.453  10.544 -0.2272 -0.3100  0.0511
  264TMC3    O2 4005   3.189   0.883  10.656  0.4270 -0.3713 -0.5334
  265MPD2     C 4006   0.164   0.663  15.330  0.2935 -0.2508  0.1492
  265MPD2    C1 4007   0.274   0.733  15.370  0.4237 -0.0136  0.4366
  265MPD2    C2 4008   0.394   0.721  15.303 -0.0391  0.2490  0.1806
  265MPD2    C3 4009   0.400   0.634  15.196  0.1835  0.1993  0.4079
  265MPD2    C4 4010   0.290   0.564  15.159 -0.0912  0.2380  0.6662
  265MPD2    C5 4011   0.176   0.575  15.223  0.3106  0.1256  0.8802
  265MPD2     H 4012   0.479   0.786  15.323  0.2240 -0.8588  2.7111
  265MPD2    H1 4013   0.292   0.485  15.085 -0.9185  0.4710  0.3893
  265MPD2    H2 4014   0.078   0.667  15.395 -1.2739 -0.4977 -1.9127
  265MPD2    H3 4015   0.093   0.514  15.191 -0.8811  2.8791 -1.3075
  265MPD2     N 4016   0.515   0.616  15.114  0.2705 -0.1857 -0.7242
  265MPD2    H5 4017   0.500   0.536  15.054 -0.9192 -2.7350  2.9862
  265MPD2    N1 4018   0.251   0.829  15.474  0.3641 -0.2156 -0.0338
  265MPD2    H7 4019   0.156   0.841  15.510  1.0375  0.9138  1.3570
  266TMC3    C1 4020   0.269   0.995  15.637 -0.0778  0.3562 -0.1111
  266TMC3    C2 4021   0.347   1.035  15.742  0.1666  0.3085  0.1682
  266TMC3    C3 4022   0.293   1.118  15.841 -0.4408  0.8789  0.0180
  266TMC3    C4 4023   0.146   1.052  15.624  0.1876  0.4155  0.0284
  266TMC3    C5 4024   0.092   1.130  15.722 -0.3100 -0.7583  0.0421
  266TMC3    C6 4025   0.157   1.161  15.841 -0.3247 -0.2138  0.0376
  266TMC3     C 4026   0.337   0.923  15.526  0.0948 -0.2914  0.2783
  266TMC3     O 4027   0.459   0.930  15.510  0.3926  0.3959 -0.4970
  266TMC3     H 4028   0.453   1.012  15.739 -0.8665 -3.9200 -3.5858
  266TMC3    H1 4029   0.104   1.051  15.524  0.3856  0.1883 -0.0522
  266TMC3    H2 4030   0.102   1.199  15.926  0.9271 -0.2850  0.8765
  266TMC3    C7 4031   4.679   1.180  15.685  0.2940  0.7214  0.4252
  266TMC3    C8 4032   0.371   1.120  15.965  0.2787 -0.5334 -0.4291
  266TMC3    O1 4033   4.621   1.132  15.588  0.2112  0.5089  0.6001
  266TMC3    O2 4034   0.470   1.050  15.962  0.7978 -0.1212  0.4703
  267MPD2     C 4035   2.201   2.540   0.428  0.1322 -0.4367  0.4294
  267MPD2    C1 4036   2.202   2.416   0.366 -0.0079  0.4605 -0.0151
  267MPD2    C2 4037   2.082   2.351   0.340  0.0160  0.3833  0.1434
  267MPD2    C3 4038   1.960   2.412   0.366  0.2752  0.3415  0.2542
  267MPD2    C4 4039   1.959   2.540   0.415  0.0896  0.1829 -0.5797
  267MPD2    C5 4040   2.077   2.605   0.441 -0.5648 -0.2175  0.1011
  267MPD2     H 4041   2.087   2.248   0.307  1.7027  0.2855  0.7008
  267MPD2    H1 4042   1.866   2.593   0.431  0.5404  0.8532 -0.1861
  267MPD2    H2 4043   2.289   2.603   0.438 -1.1434  1.5293 -0.8347
  267MPD2    H3 4044   2.071   2.704   0.485 -2.3920 -0.4091  0.2654
  267MPD2     N 4045   1.833   2.346   0.345  0.2640  0.0146 -0.4341
  267MPD2    H5 4046   1.748   2.380   0.390  1.8066  1.7823  1.0823
  267MPD2    N1 4047   2.321   2.350   0.336  0.2347 -0.5358  0.3154
  267MPD2    H7 4048   2.409   2.375   0.381  0.4478  0.0088 -0.3998
  268TMC3    C1 4049   2.439   2.164   0.258 -0.4027  0.5682 -0.3647
  268TMC3    C2 4050   2.453   2.086   0.146  0.0582  0.5450  0.6162
  268TMC3    C3 4051   2.445   1.953   0.166  0.5889  0.3834 -0.3828
  268TMC3    C4 4052   2.444   2.111   0.386 -0.1725  0.4032  0.0301
  268TMC3    C5 4053   2.484   1.981   0.395 -0.3293  0.0015 -0.4206
  268TMC3    C6 4054   2.476   1.902   0.289  0.6022  0.2183 -0.5203
  268TMC3     C 4055   2.330   2.257   0.237 -0.2205 -0.7722 -0.5564
  268TMC3     O 4056   2.256   2.254   0.143 -0.0213  0.7579  0.1785
  268TMC3     H 4057   2.436   2.129   0.048  0.9688  0.1710  0.2926
  268TMC3    H1 4058   2.436   2.168   0.478 -3.4968 -0.1278  0.0456
  268TMC3    H2 4059   2.516   1.802   0.298  0.5915  0.1869 -0.8242
  268TMC3    C7 4060   2.572   1.930   0.497 -0.2464  0.2395  0.0020
  268TMC3    C8 4061   2.447   1.860   0.057 -0.6805 -0.5728 -0.4756
  268TMC3    O1 4062   2.661   1.845   0.469  0.2372 -1.2047  0.1241
  268TMC3    O2 4063   2.496   1.750   0.079 -0.4917 -0.5174  0.1588
  269MPD2     C 4064   3.170   1.244  15.498  0.4388  0.1221  0.3760
  269MPD2    C1 4065   3.036   1.251  15.532 -0.0516 -0.2404  0.2940
  269MPD2    C2 4066   2.981   1.374  15.508 -0.1498 -0.0821  0.3124
  269MPD2    C3 4067   3.045   1.479  15.443  0.7845 -0.4681 -0.7821
  269MPD2    C4 4068   3.176   1.465  15.413 -0.0664  0.4374 -0.3950
  269MPD2    C5 4069   3.243   1.349  15.447 -0.2918 -0.3386  0.7837
  269MPD2     H 4070   2.874   1.386  15.520 -0.2560 -0.0785 -0.6262
  269MPD2    H1 4071   3.242   1.546  15.385 -0.4237 -0.2970 -3.3779
  269MPD2    H2 4072   3.233   1.157  15.509 -0.9802 -0.9077  0.3384
  269MPD2    H3 4073   3.349   1.345  15.423 -0.1758  1.3075  1.0504
  269MPD2     N 4074   2.969   1.597  15.421  0.5245  0.1546  0.2208
  269MPD2    H5 4075   2.872   1.587  15.449  0.2412  1.5567 -0.2898
  269MPD2    N1 4076   2.970   1.135  15.583 -0.2017 -0.0352 -0.0351
  269MPD2    H7 4077   3.029   1.054  15.596 -1.4665 -0.4256  3.2568
  270TMC3    C1 4078   2.800   0.975  15.626 -0.3319  0.5779 -0.0594
  270TMC3    C2 4079   2.669   0.949  15.618 -0.5326 -0.6296  0.3047
  270TMC3    C3 4080   2.635   0.814  15.636  0.1428  0.1772  0.3159
  270TMC3    C4 4081   2.901   0.879  15.634 -0.9457 -0.1182  0.4456
  270TMC3    C5 4082   2.859   0.749  15.649  0.0230 -0.2337 -0.1147
  270TMC3    C6 4083   2.727   0.719  15.670 -0.0656 -0.3314 -0.7640
  270TMC3     C 4084   2.836   1.115  15.601 -0.4660  0.4343  0.1402
  270TMC3     O 4085   2.755   1.208  15.592 -0.4348  0.4613 -0.8806
  270TMC3     H 4086   2.598   1.030  15.600  2.3692  1.5822 -1.3032
  270TMC3    H1 4087   3.006   0.894  15.612 -1.1557  0.4841 -0.1210
  270TMC3    H2 4088   2.689   0.623  15.704 -0.6257 -0.3868 -1.5508
  270TMC3    C7 4089   2.941   0.643  15.594  0.5786  0.0453  0.0154
  270TMC3    C8 4090   2.537   0.752  15.542 -0.0448 -0.4763 -0.1139
  270TMC3    O1 4091   3.064   0.672  15.589 -0.2604 -0.1305 -0.1443
  270TMC3    O2 4092   2.566   0.635  15.515 -0.3645 -0.2799 -0.3378
  271MPD2     C 4093   2.057   0.872  13.843 -0.4940 -0.0680 -0.2377
  271MPD2    C1 4094   2.033   0.937  13.964 -0.4037  0.3291 -0.0026
  271MPD2    C2 4095   1.994   1.068  13.964  0.1023 -0.1701 -0.4824
  271MPD2    C3 4096   1.984   1.147  13.849  0.1225 -0.8832 -0.3566
  271MPD2    C4 4097   2.026   1.087  13.731  0.2961  0.3704 -0.2439
  271MPD2    C5 4098   2.050   0.947  13.726 -0.0437 -0.1191  0.4410
  271MPD2     H 4099   1.967   1.111  14.060 -1.1730 -1.9313 -0.0540
  271MPD2    H1 4100   2.035   1.138  13.636 -1.1810 -1.0271 -1.1242
  271MPD2    H2 4101   2.083   0.768  13.826 -2.1101 -0.2286 -1.6943
  271MPD2    H3 4102   2.069   0.897  13.632  2.2446 -0.1230  0.8975
  271MPD2     N 4103   1.947   1.274  13.839 -0.4676 -0.2508  0.3665
  271MPD2    H5 4104   1.940   1.311  13.744 -2.3182  0.7275  0.8878
  271MPD2    N1 4105   2.048   0.862  14.088  0.0373 -0.0494 -0.2135
  271MPD2    H7 4106   2.026   0.917  14.171  0.1870 -1.1336  0.5516
  272TMC3    C1 4107   2.139   0.692  14.233 -1.3818 -0.1068 -0.4354
  272TMC3    C2 4108   2.192   0.571  14.257 -0.2048  0.2094 -0.4646
  272TMC3    C3 4109   2.203   0.531  14.385  0.1318 -0.3708  0.5886
  272TMC3    C4 4110   2.109   0.780  14.331  0.7207  0.0462 -0.7439
  272TMC3    C5 4111   2.137   0.738  14.451  0.2479  0.3137  0.2758
  272TMC3    C6 4112   2.178   0.615  14.488 -0.0169  0.7746  0.1457
  272TMC3     C 4113   2.122   0.743  14.093 -1.0524 -0.1776  0.4368
  272TMC3     O 4114   2.157   0.668  14.004 -0.2840 -0.7775 -0.1370
  272TMC3     H 4115   2.226   0.504  14.179 -0.1717 -0.0773 -0.2029
  272TMC3    H1 4116   2.105   0.887  14.311  1.4904 -0.0432 -1.3939
  272TMC3    H2 4117   2.218   0.590  14.586  0.2484  2.7523  0.5410
  272TMC3    C7 4118   2.101   0.828  14.560 -0.4340 -0.2786 -0.0343
  272TMC3    C8 4119   2.304   0.425  14.404  0.3640 -0.4047  0.4330
  272TMC3    O1 4120   2.033   0.926  14.527 -0.7570 -0.9534 -0.0938
  272TMC3    O2 4121   2.300   0.357  14.505  0.0297 -0.4754  0.3213
  273MPD2     C 4122   3.674   4.053  11.583 -0.3095 -0.0539 -0.2590
  273MPD2    C1 4123   3.797   4.106  11.545  0.0062 -0.4035  0.3747
  273MPD2    C2 4124   3.812   4.134  11.415 -0.0218 -0.2938 -0.2342
  273MPD2    C3 4125   3.712   4.107  11.318 -0.2181 -0.3683  0.0630
  273MPD2    C4 4126   3.591   4.049  11.355 -0.0540 -0.2801 -0.4929
  273MPD2    C5 4127   3.577   4.033  11.490 -0.5817  0.1025  0.6880
  273MPD2     H 4128   3.911   4.150  11.375  0.0333 -1.1176 -0.4377
  273MPD2    H1 4129   3.514   4.037  11.281 -1.3759 -2.4312  1.2483
  273MPD2    H2 4130   3.658   4.032  11.688 -1.2984 -1.6858 -0.7364
  273MPD2    H3 4131   3.479   3.999  11.521  0.0074 -1.1722  1.1516
  273MPD2     N 4132   3.720   4.163  11.184  0.1618  0.5249  0.1817
  273MPD2    H5 4133   3.638   4.147  11.126  0.4128 -1.4994  0.3899
  273MPD2    N1 4134   3.893   4.130  11.650 -0.3178  0.2665 -0.3773
  273MPD2    H7 4135   3.871   4.093  11.742  0.7160 -2.0309 -1.0677
  274TMC3    C1 4136   3.791   4.332  11.046 -0.4129  0.2195 -0.3202
  274TMC3    C2 4137   3.696   4.305  10.966  0.1949  0.9108 -0.2766
  274TMC3    C3 4138   3.623   4.416  10.911 -0.0422 -0.0105 -0.3617
  274TMC3    C4 4139   3.830   4.456  11.083 -0.2156  0.7656 -0.4825
  274TMC3    C5 4140   3.761   4.562  11.032 -0.6066 -0.5840  0.2622
  274TMC3    C6 4141   3.648   4.545  10.954 -0.1478  0.0950  0.0184
  274TMC3     C 4142   3.831   4.229  11.140 -0.1002  0.0882 -0.0741
  274TMC3     O 4143   3.948   4.237  11.176 -0.3400 -0.3492 -0.0354
  274TMC3     H 4144   3.681   4.205  10.929 -0.6841 -0.2487  3.2391
  274TMC3    H1 4145   3.913   4.463  11.153  1.2383 -1.3160 -1.9989
  274TMC3    H2 4146   3.609   4.626  10.893  0.5478  1.5627  1.5162
  274TMC3    C7 4147   3.760   4.674  11.120 -0.6380 -0.0679 -0.2986
  274TMC3    C8 4148   3.487   4.406  10.849 -0.2252  0.1744 -0.6825
  274TMC3    O1 4149   3.653   0.012  11.135 -0.8225  0.2002  0.1365
  274TMC3    O2 4150   3.407   4.495  10.858  0.5858 -0.3681  0.1595
  275MPD2     C 4151   3.591   1.443  14.119  0.1958 -0.9843 -0.1256
  275MPD2    C1 4152   3.593   1.422  14.252  0.4026 -0.0463  0.4085
  275MPD2    C2 4153   3.549   1.302  14.301  0.0237 -0.2092 -0.3133
  275MPD2    C3 4154   3.498   1.201  14.219  0.0592 -0.2984  0.3448
  275MPD2    C4 4155   3.505   1.225  14.086  0.0454  0.2447 -0.3883
  275MPD2    C5 4156   3.552   1.345  14.036  0.1001  0.1315 -0.0562
  275MPD2     H 4157   3.561   1.287  14.408  0.2073 -0.0730 -0.3147
  275MPD2    H1 4158   3.475   1.152  14.012  0.8174  0.5143 -0.9649
  275MPD2    H2 4159   3.612   1.538  14.071  1.3454  0.5858  3.4650
  275MPD2    H3 4160   3.536   1.364  13.930  1.6278 -4.7623 -1.1565
  275MPD2     N 4161   3.428   1.089  14.272  0.0556  0.0128  0.2723
  275MPD2    H5 4162   3.420   1.008  14.211  3.2846  2.1014 -2.9489
  275MPD2    N1 4163   3.627   1.527  14.343  0.8510 -0.2801 -0.5927
  275MPD2    H7 4164   3.637   1.503  14.441  0.7207  1.2240 -0.2127
  276TMC3    C1 4165   3.660   1.738  14.440 -0.3908  0.3757 -0.4519
  276TMC3    C2 4166   3.568   1.705  14.533  0.3724 -0.2584  0.2407
  276TMC3    C3 4167   3.539   1.810  14.622  0.0751 -0.6039  0.2679
  276TMC3    C4 4168   3.723   1.860  14.445 -0.4251 -0.9025  0.0735
  276TMC3    C5 4169   3.688   1.959  14.532  0.2785 -0.3982  0.5936
  276TMC3    C6 4170   3.589   1.935  14.622 -0.3612 -0.6415  0.0625
  276TMC3     C 4171   3.650   1.660  14.314  0.3608 -0.1365 -0.3163
  276TMC3     O 4172   3.664   1.719  14.206  0.2323 -0.2743  0.4514
  276TMC3     H 4173   3.506   1.617  14.535 -0.4285  0.2789 -1.4237
  276TMC3    H1 4174   3.784   1.882  14.358 -2.0893  2.0514 -0.3342
  276TMC3    H2 4175   3.574   2.003  14.705  2.4841  0.0338  0.0096
  276TMC3    C7 4176   3.805   2.035  14.574 -0.0317 -0.2551 -0.2530
  276TMC3    C8 4177   3.485   1.777  14.749  0.6169 -0.1343  0.6053
  276TMC3    O1 4178   3.783   2.109  14.667 -0.6759  0.3806  0.3304
  276TMC3    O2 4179   3.440   1.867  14.820  0.0896  0.1312 -0.3510
  277MPD2     C 4180   0.606   0.942  13.166 -0.1930  0.7132  0.7502
  277MPD2    C1 4181   0.501   1.017  13.211 -0.0304 -0.5266 -0.6966
  277MPD2    C2 4182   0.454   0.990  13.331  0.1164  0.3182 -0.9745
  277MPD2    C3 4183   0.506   0.891  13.412 -0.5542 -0.4325  0.0789
  277MPD2    C4 4184   0.616   0.825  13.369  0.3727  0.6646 -0.3758
  277MPD2    C5 4185   0.668   0.851  13.245  0.2069  0.2168  0.1144
  277MPD2     H 4186   0.359   1.040  13.351 -0.3661 -1.3450  0.8928
  277MPD2    H1 4187   0.654   0.739  13.422 -0.9078  0.4340  0.1809
  277MPD2    H2 4188   0.647   0.951  13.066 -0.2745  0.6721  0.7127
  277MPD2    H3 4189   0.750   0.797  13.200  0.8491  0.0644  1.4690
  277MPD2     N 4190   0.438   0.835  13.521  0.0018 -0.0858 -0.1616
  277MPD2    H5 4191   0.467   0.751  13.571  2.3445  0.5900 -0.4035
  277MPD2    N1 4192   0.455   1.114  13.122 -0.2098 -0.1792 -0.0762
  277MPD2    H7 4193   0.488   1.113  13.025  1.3103  0.8940  0.4144
  278TMC3    C1 4194   0.260   0.805  13.669  0.1211  0.3080  0.0639
  278TMC3    C2 4195   0.284   0.668  13.664 -0.4077 -0.3435 -0.0153
  278TMC3    C3 4196   0.188   0.589  13.723  0.0805 -0.1641  0.4331
  278TMC3    C4 4197   0.167   0.865  13.751  0.0115 -0.0222  0.0814
  278TMC3    C5 4198   0.064   0.784  13.788 -0.9592  0.1924 -0.3485
  278TMC3    C6 4199   0.076   0.646  13.780 -0.3888 -0.4626 -0.1780
  278TMC3     C 4200   0.324   0.898  13.577 -0.5384 -0.0582  0.4952
  278TMC3     O 4201   0.269   1.005  13.553  0.0070 -0.0700  0.2623
  278TMC3     H 4202   0.359   0.614  13.608  0.3644 -0.2688  0.9499
  278TMC3    H1 4203   0.148   0.972  13.742 -0.1169 -0.0420  0.1104
  278TMC3    H2 4204   0.012   0.579  13.836  0.1265 -0.2347  0.6856
  278TMC3    C7 4205   4.667   0.850  13.849  0.1137 -0.1291  0.6410
  278TMC3    C8 4206   0.198   0.444  13.706  0.9945  0.8726  0.1757
  278TMC3    O1 4207   4.662   0.975  13.847 -0.7603 -0.0390 -0.0006
  278TMC3    O2 4208   0.308   0.394  13.727  0.2023  0.1599 -0.0991
  279MPD2     C 4209   4.261   1.412  17.458  0.3646 -0.1737 -0.4313
  279MPD2    C1 4210   4.240   1.300  17.534 -0.6198  0.0959  0.1459
  279MPD2    C2 4211   4.353   1.225  17.578  0.0505 -0.0050  0.3436
  279MPD2    C3 4212   4.480   1.261  17.537  0.0220  0.5381 -0.1779
  279MPD2    C4 4213   4.492   1.381  17.457  0.1270 -0.0402 -0.1449
  279MPD2    C5 4214   4.384   1.459  17.423  0.0022 -0.0587 -0.3404
  279MPD2     H 4215   4.342   1.138  17.642 -3.6887  1.2248  1.3909
  279MPD2    H1 4216   4.586   1.408  17.410  0.4053  0.9004  0.9570
  279MPD2    H2 4217   4.177   1.471  17.423  0.0548 -0.8312 -0.7948
  279MPD2    H3 4218   4.399   1.548  17.363  1.8947  0.5735  1.0567
  279MPD2     N 4219   4.594   1.175  17.557  0.3926 -0.4282 -0.5529
  279MPD2    H5 4220   4.679   1.217  17.521  1.8380 -1.5683  1.5709
  279MPD2    N1 4221   4.102   1.273  17.562  0.2616  0.2714 -0.6997
  279MPD2    H7 4222   4.041   1.326  17.502  0.0776  0.5375 -0.2755
  280TMC3    C1 4223   3.917   1.159  17.661 -0.2597 -0.4870  0.9265
  280TMC3    C2 4224   3.870   1.102   0.096 -0.0574  0.1978 -0.1353
  280TMC3    C3 4225   3.743   1.055   0.097 -0.4379  0.2483 -0.2040
  280TMC3    C4 4226   3.837   1.179  17.550  0.2101 -0.0537  0.4400
  280TMC3    C5 4227   3.711   1.134  17.561 -0.3270 -0.2768  0.6294
  280TMC3    C6 4228   3.665   1.062  17.672  0.4576  0.1524 -0.1229
  280TMC3     C 4229   4.063   1.175  17.652 -0.1369  0.4266 -0.0260
  280TMC3     O 4230   4.133   1.106   0.041  0.5253 -0.3718 -0.2205
  280TMC3     H 4231   3.943   1.094   0.176 -1.4102  0.9461  1.1777
  280TMC3    H1 4232   3.883   1.208  17.457  0.5008  1.3462  1.0188
  280TMC3    H2 4233   3.561   1.035   0.005  0.9192 -1.8183 -0.3558
  280TMC3    C7 4234   3.621   1.151  17.450 -0.0344  0.6790 -1.4657
  280TMC3    C8 4235   3.677   1.032   0.225  0.5699  0.7359  0.3696
  280TMC3    O1 4236   3.523   1.077  17.438  0.4824 -0.4833  0.0277
  280TMC3    O2 4237   3.561   1.058   0.246  0.4854  0.1060 -0.2534
  281TMC3    C1 4238   2.892   1.323  13.602  0.1279  0.2237  0.0242
  281TMC3    C2 4239   2.989   1.303  13.506 -0.8859  0.2090  0.4880
  281TMC3    C3 4240   2.995   1.185  13.429 -0.3212 -0.5316 -0.0017
  281TMC3    C4 4241   2.807   1.218  13.625 -0.7157 -0.9048 -0.7430
  281TMC3    C5 4242   2.813   1.107  13.549  0.5229 -0.1717  0.3345
  281TMC3    C6 4243   2.902   1.089  13.444  0.0454 -0.0017  0.5301
  281TMC3     C 4244   2.874   1.455  13.661 -0.0308  1.0649  0.2310
  281TMC3     O 4245   2.873   1.460  13.785  0.1821  0.6960 -0.3633
  281TMC3     H 4246   3.064   1.381  13.495  1.4123 -2.3971 -2.1321
  281TMC3    H1 4247   2.737   1.227  13.708 -0.4437 -0.0895 -0.6019
  281TMC3    H2 4248   2.911   0.991  13.398 -2.7710  0.3242 -0.6939
  281TMC3    C7 4249   2.691   1.036  13.563 -0.4741 -0.8646 -0.3034
  281TMC3    C8 4250   3.103   1.159  13.336 -0.7141 -0.5128 -0.4864
  281TMC3    O1 4251   2.593   1.105  13.562 -0.3257 -0.4236  0.0534
  281TMC3    O2 4252   3.145   1.046  13.344  0.1368 -0.1629 -0.1799
  282MPD2     C 4253   0.356   2.242  15.065 -0.3041  1.1307 -0.6034
  282MPD2    C1 4254   0.237   2.304  15.063 -0.4656  0.8198  0.3175
  282MPD2    C2 4255   0.159   2.300  14.949  0.1746 -1.0008  0.0320
  282MPD2    C3 4256   0.202   2.245  14.832 -0.6156 -0.1551 -0.0514
  282MPD2    C4 4257   0.327   2.185  14.831  0.0516  0.3523  0.3154
  282MPD2    C5 4258   0.403   2.185  14.946  0.5862  0.4110 -0.6018
  282MPD2     H 4259   0.065   2.354  14.960  0.9535  0.1895  0.7933
  282MPD2    H1 4260   0.366   2.134  14.744 -0.7757  0.7094 -0.2642
  282MPD2    H2 4261   0.410   2.231  15.159 -0.2953 -3.2151 -1.1444
  282MPD2    H3 4262   0.489   2.122  14.964 -0.0489  0.6213  3.2682
  282MPD2     N 4263   0.128   2.259  14.710  0.6688 -0.2378  0.1072
  282MPD2    H5 4264   0.037   2.301  14.720  0.9187  0.7901 -1.8182
  282MPD2    N1 4265   0.188   2.377  15.174 -0.2915  0.2411  0.4159
  282MPD2    H7 4266   0.087   2.380  15.186 -0.3998 -1.1006 -0.2156
  283TMC3    C1 4267   0.185   2.500  15.370  0.7107 -0.1384  0.0386
  283TMC3    C2 4268   0.207   2.632  15.411 -0.2954 -0.1648 -0.5418
  283TMC3    C3 4269   0.120   2.683  15.505  0.3192  0.1020 -0.1743
  283TMC3    C4 4270   0.076   2.428  15.409 -0.7394 -0.7780 -0.0601
  283TMC3    C5 4271   4.708   2.491  15.498  0.0106  0.0737  0.0837
  283TMC3    C6 4272   0.017   2.615  15.551  0.4934  0.1833  0.1228
  283TMC3     C 4273   0.267   2.446  15.265 -0.1809  0.1417  0.3679
  283TMC3     O 4274   0.387   2.460  15.273 -0.1045 -0.0505 -0.0075
  283TMC3     H 4275   0.280   2.698  15.366 -2.7074  2.8233 -0.0761
  283TMC3    H1 4276   0.065   2.322  15.389 -2.4386 -0.5892 -0.0934
  283TMC3    H2 4277   4.660   2.662  15.610  1.5249  1.9585  0.0454
  283TMC3    C7 4278   4.593   2.413  15.541  0.3518  0.1329  0.4535
  283TMC3    C8 4279   0.139   2.814  15.566  0.2691 -0.2493 -0.1207
  283TMC3    O1 4280   4.539   2.442  15.647 -0.6622  0.5636  0.3949
  283TMC3    O2 4281   0.085   2.839  15.673  0.0327  0.7606 -0.0394
  284MPD2     C 4282   3.348   2.027  11.474 -0.0183  0.4955  0.1886
  284MPD2    C1 4283   3.441   1.937  11.434 -0.0352  0.0439 -0.1279
  284MPD2    C2 4284   3.402   1.808  11.410 -0.3885 -0.1057  0.9189
  284MPD2    C3 4285   3.277   1.768  11.442  0.9409 -0.2556  0.1431
  284MPD2    C4 4286   3.191   1.852  11.509  0.6850 -0.0310 -0.2539
  284MPD2    C5 4287   3.220   1.986  11.505  0.6178 -0.2264 -0.6118
  284MPD2     H 4288   3.469   1.745  11.353 -0.4447  0.8193 -0.1632
  284MPD2    H1 4289   3.089   1.828  11.536  1.1409 -0.6183  0.9769
  284MPD2    H2 4290   3.373   2.132  11.470 -1.6287  0.9500  2.2340
  284MPD2    H3 4291   3.154   2.064  11.542  0.9685 -0.4151  0.4009
  284MPD2     N 4292   3.219   1.645  11.413  0.1575  0.4961  0.1065
  284MPD2    H5 4293   3.121   1.631  11.436  0.0584  0.8867 -0.0826
  284MPD2    N1 4294   3.575   1.970  11.404 -0.2968 -0.2715  0.0220
  284MPD2    H7 4295   3.636   1.895  11.374  0.3618  0.5235 -0.6474
  285TMC3    C1 4296   3.779   2.066  11.368  0.1500 -0.4071 -0.2157
  285TMC3    C2 4297   3.801   1.958  11.279 -1.2223 -0.2001  0.0014
  285TMC3    C3 4298   3.925   1.959  11.216  0.3558 -0.0436 -0.5756
  285TMC3    C4 4299   3.874   2.156  11.405  0.0242 -0.0033 -0.3792
  285TMC3    C5 4300   3.996   2.145  11.345  0.8028  0.0851  0.1623
  285TMC3    C6 4301   4.024   2.048  11.250  0.2142  0.2705  0.3893
  285TMC3     C 4302   3.649   2.085  11.427 -0.1118 -0.2789  0.3268
  285TMC3     O 4303   3.618   2.181  11.492  0.0295 -0.6827 -0.6727
  285TMC3     H 4304   3.727   1.886  11.247 -0.5225 -1.3112  0.8596
  285TMC3    H1 4305   3.842   2.234  11.474 -0.4122  0.8186 -1.5044
  285TMC3    H2 4306   4.124   2.034  11.211 -1.1458 -5.0128 -1.2215
  285TMC3    C7 4307   4.100   2.227  11.395  0.0029 -0.2545  0.1219
  285TMC3    C8 4308   3.948   1.853  11.121  0.4977 -0.7595 -0.1732
  285TMC3    O1 4309   4.216   2.190  11.377 -0.0901 -0.6028 -0.8751
  285TMC3    O2 4310   3.862   1.769  11.104  0.3390 -0.2850  0.0924
  286MPD2     C 4311   3.359   4.509   0.941  0.8984 -0.4332 -0.0473
  286MPD2    C1 4312   3.420   4.597   1.036 -0.8442 -0.3486 -0.0735
  286MPD2    C2 4313   3.538   4.558   1.093  0.2383  0.9590  0.6842
  286MPD2    C3 4314   3.596   4.437   1.065  0.1976  0.0853 -0.6927
  286MPD2    C4 4315   3.532   4.353   0.976  0.1291  0.0281 -0.2419
  286MPD2    C5 4316   3.417   4.386   0.916 -0.0819  0.6203  0.1860
  286MPD2     H 4317   3.580   4.635   1.157  0.7091  0.8149  0.5453
  286MPD2    H1 4318   3.579   4.258   0.952  2.3693  1.4544 -1.4599
  286MPD2    H2 4319   3.265   4.543   0.899  1.6988  0.2422 -1.2751
  286MPD2    H3 4320   3.367   4.324   0.843  1.1592 -0.4935  0.2881
  286MPD2     N 4321   3.710   4.384   1.131  0.3596  0.1650  0.1600
  286MPD2    H5 4322   3.739   4.289   1.112  1.2023  0.2150  1.1948
  286MPD2    N1 4323   3.359   4.715   1.073 -0.5341 -0.2110 -0.5559
  286MPD2    H7 4324   3.388   0.031   1.162 -0.9165 -1.2682  0.0073
  287TMC3    C1 4325   3.917   4.391   1.244  0.1500  0.3320  0.4164
  287TMC3    C2 4326   3.920   4.266   1.186 -0.0571  0.4825  0.3161
  287TMC3    C3 4327   4.038   4.217   1.134 -0.1607  0.1924 -0.2309
  287TMC3    C4 4328   4.030   4.463   1.252 -0.4490  0.3169 -0.1984
  287TMC3    C5 4329   4.148   4.403   1.215  1.4314  0.1470 -0.5736
  287TMC3    C6 4330   4.155   4.284   1.149  0.5088 -0.2853  0.4890
  287TMC3     C 4331   3.803   4.468   1.196 -0.2379 -0.2911  0.1547
  287TMC3     O 4332   3.812   4.588   1.212 -0.2596 -0.3455  0.3689
  287TMC3     H 4333   3.837   4.198   1.195  1.3029 -1.1106  0.9176
  287TMC3    H1 4334   4.034   4.560   1.300 -1.3343  0.5090 -0.5042
  287TMC3    H2 4335   4.248   4.240   1.116 -0.0823 -1.0781 -0.1192
  287TMC3    C7 4336   4.270   4.461   1.265 -0.3797  0.9542 -0.0153
  287TMC3    C8 4337   4.012   4.130   1.014 -0.6213 -0.3430 -0.3427
  287TMC3    O1 4338   4.257   4.565   1.331 -0.1898 -0.5353 -0.0358
  287TMC3    O2 4339   3.898   4.079   1.009  0.4445  0.0463 -0.0373
  288TMC3    C1 4340   0.506   0.470  14.409 -0.4418 -0.2333 -0.1589
  288TMC3    C2 4341   0.489   0.391  14.522 -0.2549 -0.3402 -0.3021
  288TMC3    C3 4342   0.445   0.455  14.635 -0.3013  0.4093  0.7811
  288TMC3    C4 4343   0.464   0.601  14.398  0.0242 -0.3900 -0.6074
  288TMC3    C5 4344   0.414   0.660  14.514 -0.5543  0.5895 -0.0644
  288TMC3    C6 4345   0.413   0.588  14.629  0.0271 -0.2027 -0.1039
  288TMC3     C 4346   0.582   0.408  14.295 -0.5337 -0.0072 -0.2421
  288TMC3     O 4347   0.643   0.304  14.316 -0.3903  0.6331  0.2419
  288TMC3     H 4348   0.525   0.289  14.530  1.1842  0.1376 -0.6381
  288TMC3    H1 4349   0.475   0.661  14.309  0.0374 -0.9514 -0.9807
  288TMC3    H2 4350   0.375   0.633  14.720 -0.9035 -2.3219  0.5607
  288TMC3    C7 4351   0.332   0.783  14.496  0.1765 -0.3699 -0.1470
  288TMC3    C8 4352   0.431   0.393  14.765  0.2783  0.4225 -0.2511
  288TMC3    O1 4353   0.325   0.839  14.390  0.0604 -0.1096 -0.2639
  288TMC3    O2 4354   0.443   0.472  14.862  0.0076 -0.3157 -0.3619
  289MPD2     C 4355   0.707   4.412  14.445 -0.4141 -0.1068 -0.0736
  289MPD2    C1 4356   0.733   4.501  14.343 -0.8574  1.0862 -0.6543
  289MPD2    C2 4357   0.628   4.513  14.248 -0.7414 -0.1404 -0.1967
  289MPD2    C3 4358   0.505   4.438  14.259  0.4951  0.4997 -0.1656
  289MPD2    C4 4359   0.491   4.349  14.362 -0.4881  0.0195 -0.5889
  289MPD2    C5 4360   0.591   4.338  14.455  0.1929 -0.3354  0.0115
  289MPD2     H 4361   0.636   4.589  14.171  3.0059 -0.9988 -0.6503
  289MPD2    H1 4362   0.400   4.293  14.380  1.5333 -3.7560 -2.0782
  289MPD2    H2 4363   0.784   4.395  14.520 -1.1971  0.2102  0.7877
  289MPD2    H3 4364   0.589   4.268  14.538 -1.9960 -1.3522 -0.9066
  289MPD2     N 4365   0.399   4.451  14.162  0.3993  0.2164  0.1495
  289MPD2    H5 4366   0.333   4.376  14.173  0.2658  0.7037  2.5963
  289MPD2    N1 4367   0.842   4.585  14.355  0.2173  1.1287 -0.7161
  289MPD2    H7 4368   0.913   4.560  14.423  0.9630 -0.8676 -2.2345
  290TMC3    C1 4369   0.247   4.586  14.033 -0.1075  0.1850 -0.0984
  290TMC3    C2 4370   0.184   4.704  14.047  0.2698  0.1309  0.2778
  290TMC3    C3 4371   0.053   4.714  14.005 -0.3568  0.2136  0.5770
  290TMC3    C4 4372   0.190   4.469  13.991 -0.5215  0.3353  0.0813
  290TMC3    C5 4373   0.060   4.481  13.949 -0.1445  0.6296 -1.0442
  290TMC3    C6 4374   4.712   4.601  13.950 -0.5369 -0.5089 -0.4544
  290TMC3     C 4375   0.379   4.564  14.090 -0.3961 -0.6131 -0.4905
  290TMC3     O 4376   0.451   4.665  14.084 -0.2706  0.1453  0.4386
  290TMC3     H 4377   0.248   0.052  14.103  2.7396 -0.5389 -1.7467
  290TMC3    H1 4378   0.246   4.376  13.987 -0.2124  0.5572 -0.7364
  290TMC3    H2 4379   4.610   4.609  13.916 -0.4366  2.0217 -0.1676
  290TMC3    C7 4380   4.704   4.356  13.925  0.3216 -0.4796 -0.6990
  290TMC3    C8 4381   4.688   0.110  14.033  0.0149  0.3950 -0.1190
  290TMC3    O1 4382   4.607   4.381  13.858  0.1027  0.3645  0.3956
  290TMC3    O2 4383   4.566   0.097  14.048 -0.9302 -0.7343  0.4747
  291MPD2     C 4384   4.057   3.715   0.378 -0.3637  0.1176  0.0367
  291MPD2    C1 4385   4.062   3.633   0.267 -0.1652 -0.8744 -0.4137
  291MPD2    C2 4386   4.143   3.670   0.161  0.0310 -0.4130  0.9926
  291MPD2    C3 4387   4.231   3.774   0.185 -0.2654  0.3173  0.1784
  291MPD2    C4 4388   4.235   3.847   0.303  0.0901 -0.3539  0.0946
  291MPD2    C5 4389   4.144   3.816   0.397  0.6817  0.1011 -0.6194
  291MPD2     H 4390   4.140   3.606   0.074  0.9726 -0.4186  0.9709
  291MPD2    H1 4391   4.291   3.939   0.314  0.1835 -0.0804 -2.5150
  291MPD2    H2 4392   3.976   3.706   0.450 -0.4963  1.0488  0.0020
  291MPD2    H3 4393   4.143   3.885   0.480  0.4661 -1.1881  0.4375
  291MPD2     N 4394   4.320   3.818   0.085 -0.0565  0.1414 -0.0474
  291MPD2    H5 4395   4.398   3.880   0.101 -2.5207  3.1450  0.2365
  291MPD2    N1 4396   3.960   3.535   0.229  1.2034 -0.2978 -0.0636
  291MPD2    H7 4397   3.939   3.513   0.133  0.4020 -0.8663  0.2395
  292TMC3    C1 4398   3.767   3.404   0.241  0.3803  0.4066  0.4259
  292TMC3    C2 4399   3.647   3.388   0.296 -0.4900  0.3443  0.2388
  292TMC3    C3 4400   3.539   3.360   0.213  0.3403 -0.1962 -0.1169
  292TMC3    C4 4401   3.784   3.366   0.111 -0.0296  0.2430 -0.5650
  292TMC3    C5 4402   3.671   3.338   0.027  0.4960  0.6798 -0.6135
  292TMC3    C6 4403   3.547   3.335   0.078 -0.9089 -0.1141  0.4636
  292TMC3     C 4404   3.860   3.498   0.312  0.2729 -0.6929  0.1191
  292TMC3     O 4405   3.850   3.514   0.432 -0.6201  0.0604  0.0607
  292TMC3     H 4406   3.627   3.426   0.395 -0.4758 -0.8294  0.6843
  292TMC3    H1 4407   3.882   3.345   0.071  1.0877 -0.9437  2.7406
  292TMC3    H2 4408   3.447   3.331   0.036 -0.5270 -0.4452 -0.4180
  292TMC3    C7 4409   3.705   3.235  17.613  0.1566  0.4503  0.4500
  292TMC3    C8 4410   3.405   3.356   0.277  0.4123  0.2910  0.3921
  292TMC3    O1 4411   3.817   3.181  17.611 -0.1229 -0.1548  0.2239
  292TMC3    O2 4412   3.300   3.370   0.213 -0.1790 -0.2922  0.3366
  293MPD2     C 4413   1.543   1.212  12.462  0.0875  0.1248  0.0981
  293MPD2    C1 4414   1.484   1.117  12.538  0.9300 -0.2680 -0.7784
  293MPD2    C2 4415   1.547   1.081  12.658 -0.4903 -0.3182  0.0984
  293MPD2    C3 4416   1.664   1.143  12.699  0.5082 -0.6007 -0.2275
  293MPD2    C4 4417   1.726   1.237  12.618  0.1008  0.0493  0.2626
  293MPD2    C5 4418   1.666   1.269  12.502 -0.0445 -0.5938 -0.8623
  293MPD2     H 4419   1.489   1.022  12.729 -1.7646 -0.1734 -0.8196
  293MPD2    H1 4420   1.821   1.287  12.632 -0.3709  1.0261 -0.0698
  293MPD2    H2 4421   1.500   1.248  12.370  1.1816 -1.8579 -1.1905
  293MPD2    H3 4422   1.713   1.346  12.443 -0.3335  0.4423  0.2574
  293MPD2     N 4423   1.711   1.133  12.830  0.6451  0.3203 -0.6309
  293MPD2    H5 4424   1.653   1.081  12.894 -0.6478  0.9693 -1.2789
  293MPD2    N1 4425   1.381   1.050  12.472  0.8424  0.2708 -0.1531
  293MPD2    H7 4426   1.360   1.084  12.379  0.4041 -0.4198 -0.3021
  294TMC3    C1 4427   1.238   0.854  12.428 -0.3314  0.1401 -0.0751
  294TMC3    C2 4428   1.206   0.724  12.461 -0.2937 -0.8038  0.0515
  294TMC3    C3 4429   1.112   0.655  12.383 -0.2724 -0.9926 -0.7085
  294TMC3    C4 4430   1.170   0.915  12.327  0.3461  0.0856  0.6026
  294TMC3    C5 4431   1.085   0.838  12.251  0.9853 -0.5178 -0.5688
  294TMC3    C6 4432   1.048   0.710  12.282  0.3210 -0.3004  0.5260
  294TMC3     C 4433   1.322   0.928  12.517 -0.5811  0.1916  0.1136
  294TMC3     O 4434   1.343   0.868  12.620  0.3397 -0.1506 -0.2190
  294TMC3     H 4435   1.259   0.666  12.537  0.3175 -2.7200 -1.8482
  294TMC3    H1 4436   1.176   1.021  12.307  1.7201  0.2918  2.0946
  294TMC3    H2 4437   0.972   0.657  12.225  0.3503  0.6483 -0.4058
  294TMC3    C7 4438   0.977   0.910  12.186  0.8757 -0.6046  0.2793
  294TMC3    C8 4439   1.046   0.550  12.461  0.0809  0.2519  0.3429
  294TMC3    O1 4440   0.915   0.980  12.266 -0.0200  0.1693  0.5471
  294TMC3    O2 4441   1.061   0.561  12.581 -0.5254 -0.6754  0.4529
  295MPD2     C 4442   1.492   3.921  17.459 -0.0630 -0.3447  0.3431
  295MPD2    C1 4443   1.553   4.008  17.545 -0.5844 -0.0449 -0.0858
  295MPD2    C2 4444   1.471   4.070  17.634  0.1609 -0.4175  0.5829
  295MPD2    C3 4445   1.333   4.046  17.634 -0.2657 -0.5155  0.0804
  295MPD2    C4 4446   1.279   3.958  17.551  0.1131 -0.3439  0.3056
  295MPD2    C5 4447   1.354   3.897  17.452  0.7443  0.0661 -0.2347
  295MPD2     H 4448   1.511   4.147   0.016  1.1396  0.5291 -1.1048
  295MPD2    H1 4449   1.175   3.927  17.543  0.5506 -1.9444  0.7615
  295MPD2    H2 4450   1.556   3.873  17.386  0.4743  0.0615  0.5480
  295MPD2    H3 4451   1.305   3.831  17.382  0.6374 -0.3817  0.2596
  295MPD2     N 4452   1.254   4.110   0.054  1.0667 -0.5587 -0.0214
  295MPD2    H5 4453   1.308   4.165   0.120  2.7020 -2.6875  0.4516
  295MPD2    N1 4454   1.694   4.020  17.544 -0.2265 -0.1857  0.7291
  295MPD2    H7 4455   1.742   3.970  17.470 -1.3402 -0.0978 -0.0419
  296TMC3    C1 4456   1.074   4.178   0.199  0.7231 -0.5427 -0.6504
  296TMC3    C2 4457   1.143   4.274   0.258  0.7929 -0.0970  0.3408
  296TMC3    C3 4458   1.117   4.317   0.386 -0.1820  0.3201 -0.4301
  296TMC3    C4 4459   0.964   4.125   0.265  0.4176 -0.4129  0.5635
  296TMC3    C5 4460   0.939   4.164   0.392 -1.1475  0.5192 -0.6658
  296TMC3    C6 4461   1.008   4.263   0.456  0.2975  0.6250 -0.5485
  296TMC3     C 4462   1.123   4.094   0.085  0.1126  0.4135 -0.3237
  296TMC3     O 4463   1.035   4.022   0.035  0.0321  0.4169  0.1926
  296TMC3     H 4464   1.216   4.330   0.200 -0.5834  1.2319 -0.0930
  296TMC3    H1 4465   0.901   4.055   0.213 -2.2305  0.9999  1.8699
  296TMC3    H2 4466   0.965   4.300   0.548  0.9567 -1.3155  0.5455
  296TMC3    C7 4467   0.829   4.100   0.452 -0.1574  0.2804  0.1497
  296TMC3    C8 4468   1.161   4.450   0.427  0.0452 -0.0376  0.0372
  296TMC3    O1 4469   0.745   4.037   0.386  0.4334 -0.2002  0.4617
  296TMC3    O2 4470   1.182   4.527   0.335  0.1193 -0.1998 -0.3468
  297MPD2     C 4471   4.058   1.288  15.917  0.4462  0.4673  0.3399
  297MPD2    C1 4472   3.995   1.410  15.931 -0.0474  0.7156 -0.2155
  297MPD2    C2 4473   4.053   1.498  16.025  0.3513 -0.0780 -0.2514
  297MPD2    C3 4474   4.175   1.469  16.090 -0.1230  0.1312 -0.3490
  297MPD2    C4 4475   4.226   1.342  16.083  0.4183 -0.3273  0.8266
  297MPD2    C5 4476   4.163   1.257  15.995  0.6881 -0.5204 -0.7621
  297MPD2     H 4477   4.009   1.597  16.021 -2.6075 -1.3695  0.1509
  297MPD2    H1 4478   4.318   1.313  16.132  0.1787  0.2689  1.6151
  297MPD2    H2 4479   4.031   1.215  15.842 -2.1089  2.3258 -0.5377
  297MPD2    H3 4480   4.211   1.164  15.965  0.2261 -0.6057 -1.2440
  297MPD2     N 4481   4.240   1.572  16.160  0.3315 -0.6568 -0.3516
  297MPD2    H5 4482   4.202   1.666  16.159 -0.8300 -1.1080  0.9806
  297MPD2    N1 4483   3.888   1.455  15.847 -0.3217 -0.9793  0.0779
  297MPD2    H7 4484   3.856   1.551  15.855 -1.9732 -1.4250 -0.9887
  298TMC3    C1 4485   3.755   1.462  15.644  0.0702  0.2510  0.2274
  298TMC3    C2 4486   3.778   1.444  15.512  0.4525  0.4675  0.7888
  298TMC3    C3 4487   3.686   1.502  15.430 -0.3569 -0.0350  0.2765
  298TMC3    C4 4488   3.640   1.519  15.693  0.0927 -0.3896 -0.7810
  298TMC3    C5 4489   3.560   1.582  15.607 -0.3494 -0.7916  0.2485
  298TMC3    C6 4490   3.588   1.579  15.476 -0.1383  0.1138  0.2221
  298TMC3     C 4491   3.844   1.387  15.738  0.5351  0.1690 -0.8145
  298TMC3     O 4492   3.887   1.283  15.688  0.1148 -0.0745  0.3530
  298TMC3     H 4493   3.865   1.385  15.487 -0.6785 -0.9527  0.2008
  298TMC3    H1 4494   3.623   1.504  15.799 -3.6504  1.0317 -1.1978
  298TMC3    H2 4495   3.517   1.626  15.409 -2.6986 -0.5489  2.5115
  298TMC3    C7 4496   3.450   1.660  15.653 -0.6287  0.3503  0.0258
  298TMC3    C8 4497   3.732   1.500  15.295 -0.5238 -0.3017 -0.1372
  298TMC3    O1 4498   3.433   1.654  15.773  0.1755  0.0309 -0.7544
  298TMC3    O2 4499   3.780   1.397  15.250 -0.0724 -0.3702  0.2195
  299MPD2     C 4500   0.473   0.902   9.684  0.0102  0.0664  0.3096
  299MPD2    C1 4501   0.387   0.943   9.784 -0.2388  0.1309  0.2585
  299MPD2    C2 4502   0.257   0.889   9.798  0.3360  0.2920 -0.6503
  299MPD2    C3 4503   0.218   0.793   9.707  0.0591  0.2137  0.6466
  299MPD2    C4 4504   0.303   0.741   9.613 -0.1559 -0.5356 -0.2965
  299MPD2    C5 4505   0.425   0.805   9.595  0.2453  0.0855 -0.7118
  299MPD2     H 4506   0.193   0.933   9.874  0.2327 -0.9885 -0.0024
  299MPD2    H1 4507   0.264   0.657   9.557 -0.5443 -0.4932 -0.0948
  299MPD2    H2 4508   0.575   0.938   9.673  0.8405 -1.1956  3.8112
  299MPD2    H3 4509   0.495   0.771   9.519 -1.5467  1.0552 -2.8285
  299MPD2     N 4510   0.081   0.750   9.724  0.8390 -0.4858 -0.2090
  299MPD2    H5 4511   0.046   0.708   9.639  1.3397 -1.4888  0.0750
  299MPD2    N1 4512   0.431   1.050   9.861 -0.1127  0.0151  0.4301
  299MPD2    H7 4513   0.527   1.082   9.848 -0.9938  2.6305  0.3409
  300TMC3    C1 4514   4.580   0.732   9.801 -1.5681 -0.0253 -0.2357
  300TMC3    C2 4515   4.528   0.813   9.701  0.0012 -0.2390  0.2922
  300TMC3    C3 4516   4.412   0.885   9.734  0.1636  0.1057  0.0444
  300TMC3    C4 4517   4.516   0.717   9.921 -0.4064  0.3292 -0.4918
  300TMC3    C5 4518   4.399   0.783   9.947  0.6395 -0.9494 -0.1446
  300TMC3    C6 4519   4.344   0.869   9.852 -0.0190 -0.3923 -0.2202
  300TMC3     C 4520   0.004   0.748   9.836 -0.2177  0.0764 -0.6454
  300TMC3     O 4521   0.044   0.767   9.949 -0.3301 -0.0476  0.0470
  300TMC3     H 4522   4.587   0.858   9.621  1.8283  0.5166  2.0572
  300TMC3    H1 4523   4.563   0.644   9.986  0.1680  0.1939 -1.0670
  300TMC3    H2 4524   4.253   0.926   9.863  0.5518  0.6018 -0.6662
  300TMC3    C7 4525   4.379   0.801  10.092 -0.4695  0.7293  1.0382
  300TMC3    C8 4526   4.385   1.016   9.676 -0.6214  0.0549 -0.0176
  300TMC3    O1 4527   4.445   0.727  10.163 -0.0118 -0.6035  0.5544
  300TMC3    O2 4528   4.387   1.016   9.552  0.1143  0.1582 -0.6455
  301MPD2     C 4529   1.353   2.706   1.674 -0.2065  0.6890  0.4340
  301MPD2    C1 4530   1.283   2.737   1.557  0.7263 -0.0373  0.4540
  301MPD2    C2 4531   1.302   2.670   1.438  0.4958  0.0196 -1.5179
  301MPD2    C3 4532   1.396   2.568   1.434  0.2562 -0.6998  0.6916
  301MPD2    C4 4533   1.474   2.542   1.547  0.6167 -1.1536  0.6799
  301MPD2    C5 4534   1.438   2.603   1.663 -0.2366 -0.3378  0.6801
  301MPD2     H 4535   1.228   2.680   1.359  0.2292  1.9648 -1.0174
  301MPD2    H1 4536   1.542   2.457   1.550  0.5194 -1.1718  2.3010
  301MPD2    H2 4537   1.325   2.741   1.773 -0.3288  4.0628 -0.8243
  301MPD2    H3 4538   1.477   2.550   1.748  0.3266  0.0873  0.6879
  301MPD2     N 4539   1.431   2.494   1.319 -0.1244  0.0267 -0.2297
  301MPD2    H5 4540   1.503   2.424   1.331 -1.9904 -1.3338  3.1022
  301MPD2    N1 4541   1.175   2.832   1.558 -0.7859 -0.3793  0.8283
  301MPD2    H7 4542   1.113   2.836   1.477 -0.1966 -1.5128  0.3249
  302TMC3    C1 4543   1.437   2.406   1.104 -0.9734 -0.3249  0.2424
  302TMC3    C2 4544   1.556   2.342   1.112  0.2794  0.1918  0.0606
  302TMC3    C3 4545   1.596   2.247   1.020  0.2116 -0.2991  1.1540
  302TMC3    C4 4546   1.349   2.369   1.008 -0.1005 -0.7374  0.3421
  302TMC3    C5 4547   1.381   2.266   0.919 -0.6430 -0.1033  0.4522
  302TMC3    C6 4548   1.508   2.207   0.918  0.1760 -0.2355  0.5249
  302TMC3     C 4549   1.393   2.516   1.188  0.2034  0.4987 -0.8082
  302TMC3     O 4550   1.307   2.592   1.148 -0.3434 -0.0057 -0.1429
  302TMC3     H 4551   1.626   2.360   1.192 -0.8492 -0.0668  1.1101
  302TMC3    H1 4552   1.253   2.418   1.006  0.8372  1.0051 -2.1274
  302TMC3    H2 4553   1.530   2.116   0.862 -0.6449  0.5201 -1.0231
  302TMC3    C7 4554   1.276   2.169   0.877  0.0733 -0.9754  0.1552
  302TMC3    C8 4555   1.708   2.159   1.047 -0.7241  0.0202 -0.4425
  302TMC3    O1 4556   1.312   2.072   0.811 -0.5890  0.1238  0.3025
  302TMC3    O2 4557   1.703   2.038   1.030  0.1876 -0.7377  0.5785
  303MPD2     C 4558   2.538   0.839  10.172  0.3415 -0.3394 -0.2210
  303MPD2    C1 4559   2.430   0.756  10.171 -0.1342 -0.6133  0.4121
  303MPD2    C2 4560   2.377   0.728  10.053  0.3958 -0.4221  0.2137
  303MPD2    C3 4561   2.437   0.752   9.935 -0.2735  0.2126  0.1719
  303MPD2    C4 4562   2.565   0.805   9.932  0.0959 -0.0331 -1.0335
  303MPD2    C5 4563   2.611   0.856  10.058 -0.3861  0.3191  0.2784
  303MPD2     H 4564   2.283   0.674  10.056  0.4255 -0.6357 -2.7882
  303MPD2    H1 4565   2.622   0.832   9.844  0.2180  1.9227 -0.3559
  303MPD2    H2 4566   2.574   0.886  10.262  0.1879  1.0348 -0.8806
  303MPD2    H3 4567   2.709   0.903  10.060 -0.3178  0.1032  1.5338
  303MPD2     N 4568   2.383   0.727   9.810 -0.1335 -0.4106  0.1888
  303MPD2    H5 4569   2.435   0.760   9.729 -0.3809  2.6986  1.2806
  303MPD2    N1 4570   2.368   0.728  10.299 -0.4407  0.0268 -0.0157
  303MPD2    H7 4571   2.388   0.786  10.380  2.0747  1.1933 -1.4561
  304TMC3    C1 4572   2.205   0.641  10.441 -0.3003  0.2760 -0.1529
  304TMC3    C2 4573   2.150   0.762  10.467  0.4505 -0.7411 -0.6632
  304TMC3    C3 4574   2.038   0.764  10.539 -0.3359 -0.3082  0.4030
  304TMC3    C4 4575   2.147   0.528  10.483  0.3697  0.4516  0.2262
  304TMC3    C5 4576   2.049   0.530  10.573 -0.3594  0.0621 -0.3772
  304TMC3    C6 4577   1.995   0.653  10.610 -0.3169 -0.6643  0.1915
  304TMC3     C 4578   2.273   0.629  10.310 -0.3588 -0.2745 -0.1922
  304TMC3     O 4579   2.230   0.544  10.233  0.4433 -0.1439 -0.1066
  304TMC3     H 4580   2.173   0.850  10.408  3.7568 -1.7858 -0.9506
  304TMC3    H1 4581   2.188   0.437  10.441  1.3191 -0.3808  2.9940
  304TMC3    H2 4582   1.910   0.660  10.676  0.9694  2.5338  1.5242
  304TMC3    C7 4583   1.942   0.426  10.563 -0.3065 -0.6646 -1.1039
  304TMC3    C8 4584   1.935   0.844  10.478 -0.0829 -0.5508 -0.1834
  304TMC3    O1 4585   1.832   0.475  10.553  0.1187 -0.3096 -0.1556
  304TMC3    O2 4586   1.958   0.950  10.418  0.0319 -0.1666  0.3041
  305MPD2     C 4587   0.174   2.621  13.719 -0.0020  0.5048  0.1815
  305MPD2    C1 4588   0.188   2.497  13.769  0.1294 -0.5479  0.3676
  305MPD2    C2 4589   0.185   2.387  13.679 -0.9587  0.1037  0.3925
  305MPD2    C3 4590   0.151   2.403  13.545 -0.7609  0.1799 -0.3674
  305MPD2    C4 4591   0.122   2.523  13.496 -0.3760  0.7138  0.0151
  305MPD2    C5 4592   0.133   2.628  13.583  1.0469  0.3715  0.1177
  305MPD2     H 4593   0.206   2.288  13.717 -2.3246  0.5223  2.2213
  305MPD2    H1 4594   0.095   2.535  13.391  0.9064 -0.3408 -0.4402
  305MPD2    H2 4595   0.163   2.704  13.787  0.3993  0.4705  0.2884
  305MPD2    H3 4596   0.094   2.719  13.539 -0.9988 -0.2162  0.7070
  305MPD2     N 4597   0.149   2.298  13.453 -0.1193 -0.5982 -0.0999
  305MPD2    H5 4598   0.115   2.327  13.361  2.2419  1.7675 -0.2293
  305MPD2    N1 4599   0.217   2.490  13.913 -0.0505  0.0551 -0.2106
  305MPD2    H7 4600   0.247   2.579  13.951  2.0737  1.1030 -4.3358
  306TMC3    C1 4601   0.317   2.395  14.109 -0.1607  0.1649  0.1218
  306TMC3    C2 4602   0.410   2.302  14.133 -0.3188  0.1394 -1.1217
  306TMC3    C3 4603   0.493   2.333  14.241  0.3001  0.0123 -0.3347
  306TMC3    C4 4604   0.294   2.506  14.185 -0.5307 -0.1013 -0.2599
  306TMC3    C5 4605   0.372   2.520  14.293 -0.0856  0.5009  0.5329
  306TMC3    C6 4606   0.485   2.440  14.320 -0.4813 -0.0829 -0.7035
  306TMC3     C 4607   0.249   2.373  13.982  0.0351 -0.2632 -0.2804
  306TMC3     O 4608   0.219   2.255  13.963 -0.4845 -0.2889  0.0693
  306TMC3     H 4609   0.431   2.213  14.075  0.5099  1.2772 -2.5683
  306TMC3    H1 4610   0.202   2.562  14.175 -0.8795 -0.3508  1.5947
  306TMC3    H2 4611   0.561   2.457  14.394 -0.1182  2.1891 -1.5877
  306TMC3    C7 4612   0.294   2.548  14.410 -0.8299  0.0023  0.9720
  306TMC3    C8 4613   0.580   2.227  14.287 -0.4568  0.3924 -0.9213
  306TMC3    O1 4614   0.176   2.579  14.417  0.0127  0.6413 -0.1092
  306TMC3    O2 4615   0.668   2.190  14.208  0.1562 -0.0435  0.3508
  307MPD2     C 4616   2.292   4.044   0.686  0.4548 -0.4141  0.1040
  307MPD2    C1 4617   2.257   4.172   0.730 -0.5150  1.4893 -0.2143
  307MPD2    C2 4618   2.125   4.183   0.774  0.2851 -0.1289 -0.0908
  307MPD2    C3 4619   2.032   4.082   0.761  0.1369  0.2096  0.4422
  307MPD2    C4 4620   2.074   3.956   0.716  0.9341  0.7487 -0.2055
  307MPD2    C5 4621   2.208   3.937   0.688  0.5471  0.3074  0.8639
  307MPD2     H 4622   2.081   4.273   0.816 -1.4945 -2.3378  2.8231
  307MPD2    H1 4623   2.007   3.871   0.707  0.1288  1.2295  1.2780
  307MPD2    H2 4624   2.394   4.018   0.659  1.0254  1.4214  0.4612
  307MPD2    H3 4625   2.244   3.838   0.662 -0.7013  0.6751 -2.2451
  307MPD2     N 4626   1.904   4.116   0.793  0.0867  0.1079 -0.2721
  307MPD2    H5 4627   1.884   4.213   0.816 -1.3322  0.3229 -2.4355
  307MPD2    N1 4628   2.353   4.278   0.736  0.2369 -0.3690  0.1870
  307MPD2    H7 4629   2.314   4.371   0.749 -1.8543 -1.1021 -0.7582
  308TMC3    C1 4630   1.597   4.320   0.707 -0.1120  0.1412 -0.1090
  308TMC3    C2 4631   1.591   4.381   0.831  0.2855  0.4960  0.4602
  308TMC3    C3 4632   1.636   4.310   0.932 -1.4939  0.0472 -0.5782
  308TMC3    C4 4633   1.649   4.191   0.690  0.1280 -0.6364 -0.2539
  308TMC3    C5 4634   1.682   4.122   0.804 -0.1239  0.3588 -0.3245
  308TMC3    C6 4635   1.693   4.187   0.922  0.1401 -0.8053  0.1103
  308TMC3     C 4636   1.565   4.392   0.586 -0.0022 -0.0505  0.1705
  308TMC3     O 4637   1.524   4.335   0.485 -0.1701  0.1537  0.0110
  308TMC3     H 4638   1.543   4.478   0.845  1.1784  1.0905 -0.5402
  308TMC3    H1 4639   1.648   4.147   0.591  0.3137  0.5187 -0.7607
  308TMC3    H2 4640   1.732   4.135   1.009 -1.5542 -0.9998  0.7570
  308TMC3    C7 4641   1.791   4.041   0.775 -0.7119 -0.1056 -0.3887
  308TMC3    C8 4642   1.628   4.358   1.072  0.2012  0.3988  0.5928
  308TMC3    O1 4643   1.780   3.926   0.738 -0.1983  0.0408 -0.3434
  308TMC3    O2 4644   1.649   4.277   1.158  0.0715  0.7554  0.1106
  309MPD2     C 4645   2.208   0.771  17.146 -0.2699 -1.0554 -0.3584
  309MPD2    C1 4646   2.175   0.862  17.051 -0.2485 -0.2416 -0.1925
  309MPD2    C2 4647   2.063   0.939  17.073  0.0067  0.6255  0.0711
  309MPD2    C3 4648   1.998   0.941  17.197 -0.2582  0.3183 -0.0880
  309MPD2    C4 4649   2.048   0.867  17.296  0.4541 -0.2136  0.8902
  309MPD2    C5 4650   2.147   0.773  17.269 -0.0319  0.1401 -0.0140
  309MPD2     H 4651   2.030   1.004  16.993 -0.8498  0.3904  0.2276
  309MPD2    H1 4652   2.006   0.879  17.395  0.1006  1.1379  0.5834
  309MPD2    H2 4653   2.290   0.702  17.129 -1.9098 -2.5403 -2.2485
  309MPD2    H3 4654   2.192   0.713  17.347  0.0979 -1.7035 -1.5131
  309MPD2     N 4655   1.879   1.009  17.226 -0.2505 -0.2639 -0.5936
  309MPD2    H5 4656   1.839   1.003  17.319 -1.4545 -0.3566 -1.1223
  309MPD2    N1 4657   2.247   0.859  16.926 -0.1941  0.6489  0.2440
  309MPD2    H7 4658   2.315   0.785  16.916 -1.1606 -0.1921 -0.0642
  310TMC3    C1 4659   2.271   0.904  16.706 -0.8535  0.3217  0.3259
  310TMC3    C2 4660   2.249   0.991  16.606 -1.2155  0.5472  0.2312
  310TMC3    C3 4661   2.245   0.935  16.479  0.4670 -0.5253 -0.4531
  310TMC3    C4 4662   2.289   0.768  16.689  0.5365  0.0614 -0.1906
  310TMC3    C5 4663   2.283   0.719  16.561 -0.7475  0.3437 -0.4480
  310TMC3    C6 4664   2.263   0.805  16.451 -0.1294  0.2561  0.3917
  310TMC3     C 4665   2.227   0.952  16.833  0.7265  0.6829  0.0158
  310TMC3     O 4666   2.181   1.065  16.840  0.4478  0.4092 -0.2106
  310TMC3     H 4667   2.214   1.093  16.616  1.1335  1.4802 -1.1785
  310TMC3    H1 4668   2.309   0.698  16.769  0.4649 -0.4140 -0.5844
  310TMC3    H2 4669   2.284   0.767  16.352  2.2586 -0.5353  1.2028
  310TMC3    C7 4670   2.362   0.603  16.521 -0.4032 -0.0032  0.2005
  310TMC3    C8 4671   2.229   1.023  16.364 -0.1082 -0.3472 -0.5796
  310TMC3    O1 4672   2.436   0.629  16.427 -0.1261  0.3857 -0.2774
  310TMC3    O2 4673   2.227   0.973  16.256  0.5254  0.2712  0.6620
  311MPD2     C 4674   3.930   2.326  12.415 -0.4146  0.4671  0.3873
  311MPD2    C1 4675   3.957   2.394  12.531  0.3622  0.1411  0.9648
  311MPD2    C2 4676   3.852   2.414  12.622 -0.2555  0.5666  0.1840
  311MPD2    C3 4677   3.727   2.362  12.607  0.2623 -0.0876  0.1530
  311MPD2    C4 4678   3.709   2.279  12.501 -1.0993 -0.1293 -0.0551
  311MPD2    C5 4679   3.806   2.265  12.401 -0.2013  0.1847  0.7486
  311MPD2     H 4680   3.896   2.465  12.707 -1.3644  2.6900 -0.5311
  311MPD2    H1 4681   3.614   2.226  12.497 -1.1688 -0.1160  1.2888
  311MPD2    H2 4682   4.005   2.296  12.342  0.4871  0.3557  1.3521
  311MPD2    H3 4683   3.779   2.212  12.310  1.6551 -2.4196  1.7169
  311MPD2     N 4684   3.629   2.392  12.703  0.3717  0.0056 -0.2048
  311MPD2    H5 4685   3.664   2.440  12.786  1.9620 -1.1009 -0.2451
  311MPD2    N1 4686   4.085   2.440  12.574  0.0149 -0.3234  0.2717
  311MPD2    H7 4687   4.092   2.491  12.661  0.4045  1.2912 -0.7246
  312TMC3    C1 4688   3.418   2.456  12.784  0.1088  0.1419  0.1323
  312TMC3    C2 4689   3.304   2.529  12.746  0.2631 -0.1597  0.0422
  312TMC3    C3 4690   3.244   2.604  12.842  0.1490  0.4277  0.7138
  312TMC3    C4 4691   3.461   2.454  12.913 -0.0435  0.9712 -0.0252
  312TMC3    C5 4692   3.399   2.535  13.007  0.1714  0.3716  0.0546
  312TMC3    C6 4693   3.287   2.609  12.969  0.3447  0.2154 -0.1715
  312TMC3     C 4694   3.496   2.390  12.680  0.5877 -0.2600  0.1297
  312TMC3     O 4695   3.437   2.354  12.574  0.3685  0.5404 -0.2147
  312TMC3     H 4696   3.279   2.529  12.640 -2.0045 -1.7641  0.5929
  312TMC3    H1 4697   3.539   2.386  12.944  0.0679  0.9931 -0.2565
  312TMC3    H2 4698   3.232   2.660  13.047 -0.4855  1.5317 -1.6100
  312TMC3    C7 4699   3.431   2.529  13.146  0.2467  0.2015  0.5995
  312TMC3    C8 4700   3.108   2.651  12.822  0.5599  0.0603 -0.3740
  312TMC3    O1 4701   3.374   2.608  13.220  0.5343  0.1714  0.5149
  312TMC3    O2 4702   3.060   2.743  12.885  0.4491 -0.4485  0.1122
  313MPD2     C 4703   3.298   1.949  11.099 -0.3767  0.6380  0.4606
  313MPD2    C1 4704   3.334   1.977  10.970 -0.0039  0.0583 -0.3752
  313MPD2    C2 4705   3.262   1.925  10.865  0.1158 -0.1892 -0.2929
  313MPD2    C3 4706   3.147   1.849  10.884  0.4436  0.7117 -0.4086
  313MPD2    C4 4707   3.105   1.825  11.015 -0.5839  0.0649 -0.1145
  313MPD2    C5 4708   3.191   1.860  11.119  0.1794  0.2275 -0.2882
  313MPD2     H 4709   3.303   1.937  10.766 -0.2878  0.2561 -0.4058
  313MPD2    H1 4710   3.028   1.751  11.036  0.3810 -1.1539 -0.8496
  313MPD2    H2 4711   3.356   1.976  11.187  0.0981  4.0673 -0.9210
  313MPD2    H3 4712   3.168   1.806  11.210  0.9907  2.3873  1.2043
  313MPD2     N 4713   3.085   1.790  10.774 -0.0628 -0.7226 -0.1466
  313MPD2    H5 4714   3.135   1.808  10.687  0.3842 -1.1893  0.0140
  313MPD2    N1 4715   3.445   2.052  10.929  0.3612  0.3619 -0.6215
  313MPD2    H7 4716   3.454   2.038  10.828 -0.6314  1.3591 -0.8491
  314TMC3    C1 4717   3.677   2.065  10.936 -0.5548 -0.2077 -0.2632
  314TMC3    C2 4718   3.775   2.158  10.955 -0.0874  0.5071 -0.5926
  314TMC3    C3 4719   3.879   2.152  10.866  0.1611 -0.1634  0.3781
  314TMC3    C4 4720   3.676   1.981  10.826  0.2207 -0.1261 -0.3265
  314TMC3    C5 4721   3.782   1.983  10.733  0.2249 -0.4956 -0.9866
  314TMC3    C6 4722   3.886   2.069  10.761 -0.6047  0.5817  0.2780
  314TMC3     C 4723   3.554   2.078  11.009  0.1113 -0.0195 -0.1503
  314TMC3     O 4724   3.564   2.113  11.127  0.1943 -0.8069  0.0332
  314TMC3     H 4725   3.766   2.236  11.029  1.3093 -0.7742  0.9480
  314TMC3    H1 4726   3.600   1.905  10.814  0.7877 -0.8772  0.8343
  314TMC3    H2 4727   3.972   2.075  10.695 -0.2630  1.5502  0.8072
  314TMC3    C7 4728   3.784   1.882  10.629  0.1112  0.2010  0.3061
  314TMC3    C8 4729   4.006   2.213  10.903 -0.2165 -0.1623  0.0774
  314TMC3    O1 4730   3.713   1.784  10.650 -0.0970  0.1086 -0.1149
  314TMC3    O2 4731   4.112   2.191  10.848  0.3135 -0.5531  0.4753
  315MPD2     C 4732   2.971   0.705  17.447 -0.1615  0.2997  0.9313
  315MPD2    C1 4733   2.971   0.841  17.461 -0.2360 -0.2227  0.0061
  315MPD2    C2 4734   2.965   0.914  17.349 -0.9458 -0.1791  0.3473
  315MPD2    C3 4735   2.949   0.853  17.223  0.5695  0.5495 -0.1280
  315MPD2    C4 4736   2.960   0.713  17.216 -0.6611 -0.4914 -0.0723
  315MPD2    C5 4737   2.976   0.644  17.331 -0.3723  0.4951 -0.3156
  315MPD2     H 4738   2.971   1.022  17.355 -0.3057 -0.3634  3.0360
  315MPD2    H1 4739   2.966   0.663  17.120 -0.7656 -0.0188 -0.3246
  315MPD2    H2 4740   2.967   0.644  17.536  0.9622  0.9218  1.4089
  315MPD2    H3 4741   2.982   0.535  17.332  0.4527  0.5359 -0.5229
  315MPD2     N 4742   2.956   0.935  17.108 -0.8793 -0.9880 -0.5025
  315MPD2    H5 4743   2.934   1.033  17.121  1.3023 -0.2280 -2.5854
  315MPD2    N1 4744   2.986   0.913  17.580  0.4167  0.4278 -0.1869
  315MPD2    H7 4745   2.985   1.014  17.582 -2.3533  0.4366 -1.4283
  316TMC3    C1 4746   2.996   1.000  16.888  0.0172  0.4265  0.2581
  316TMC3    C2 4747   3.111   1.065  16.934  0.5448 -0.0434 -0.3687
  316TMC3    C3 4748   3.184   1.115  16.827  0.2747 -0.3526  0.0358
  316TMC3    C4 4749   2.957   0.984  16.761  0.3084  0.2055  0.4733
  316TMC3    C5 4750   3.040   1.042  16.673 -0.6145  0.0408 -0.0871
  316TMC3    C6 4751   3.154   1.110  16.695 -1.1647  0.6540 -0.5284
  316TMC3     C 4752   2.960   0.891  16.974  0.3064 -0.4963  0.3010
  316TMC3     O 4753   2.942   0.777  16.925 -0.4248  0.0933 -0.4647
  316TMC3     H 4754   3.133   1.069  17.040 -2.7355 -2.4674  0.3855
  316TMC3    H1 4755   2.866   0.927  16.743  1.6138 -1.7492 -0.0346
  316TMC3    H2 4756   3.217   1.145  16.614 -0.1834  0.4209  0.1212
  316TMC3    C7 4757   2.993   1.021  16.535 -0.4088 -0.7176 -0.1626
  316TMC3    C8 4758   3.314   1.185  16.852  0.2211 -0.3915  0.1634
  316TMC3    O1 4759   2.962   0.909  16.507  0.4016 -0.2118  0.1861
  316TMC3    O2 4760   3.346   1.258  16.759 -0.2822  0.1286  0.2828
  317MPD2     C 4761   4.436   4.587  13.053  0.7928 -0.3684  0.6870
  317MPD2    C1 4762   4.476   4.470  12.998 -0.4078 -0.5177 -1.1124
  317MPD2    C2 4763   4.588   4.410  13.047  0.5829  0.0514  0.2359
  317MPD2    C3 4764   4.664   4.459  13.148  0.3964 -0.1030 -0.1606
  317MPD2    C4 4765   4.628   4.582  13.200  0.6716  0.1126  0.2538
  317MPD2    C5 4766   4.517   4.645  13.144  0.7176 -0.3884 -0.1087
  317MPD2     H 4767   4.634   4.321  13.005 -0.3856  0.4006 -1.5744
  317MPD2    H1 4768   4.687   4.634  13.274 -0.2369 -0.8892  1.6834
  317MPD2    H2 4769   4.364   4.655  13.010  0.6728  0.1761  1.7411
  317MPD2    H3 4770   4.497   0.026  13.176 -3.1202 -1.4457  0.8540
  317MPD2     N 4771   0.065   4.388  13.192  0.7267  0.0178 -0.5130
  317MPD2    H5 4772   0.074   4.302  13.138 -1.2599 -0.8699  0.5560
  317MPD2    N1 4773   4.413   4.418  12.879 -0.1554  0.1346  0.0983
  317MPD2    H7 4774   4.452   4.333  12.840  0.0250 -0.6457  2.0161
  318TMC3    C1 4775   0.236   4.330  13.335 -0.5434  0.5246 -0.4493
  318TMC3    C2 4776   0.200   4.197  13.321  0.5347  0.2072  0.1841
  318TMC3    C3 4777   0.291   4.094  13.334 -0.3267 -0.6817  0.2176
  318TMC3    C4 4778   0.363   4.363  13.371 -0.4393 -0.2126  0.2728
  318TMC3    C5 4779   0.455   4.262  13.381 -0.4950  0.1617 -0.2812
  318TMC3    C6 4780   0.415   4.128  13.371  0.6493  0.6201  0.0990
  318TMC3     C 4781   0.149   4.434  13.289 -0.0195 -0.0101 -0.3288
  318TMC3     O 4782   0.155   4.545  13.345 -0.4122 -0.1200  0.0063
  318TMC3     H 4783   0.095   4.169  13.320  0.8059 -0.8530  1.8631
  318TMC3    H1 4784   0.398   4.466  13.365 -0.8343 -0.1733 -1.4263
  318TMC3    H2 4785   0.485   4.046  13.361  3.8101  3.4440 -0.6740
  318TMC3    C7 4786   0.594   4.298  13.413  0.7252 -0.3823 -0.8743
  318TMC3    C8 4787   0.268   3.963  13.282 -0.3149 -0.1841  0.0256
  318TMC3    O1 4788   0.616   4.414  13.435 -0.1687  0.6574  0.2658
  318TMC3    O2 4789   0.348   3.876  13.314  0.2342 -0.4048  0.3537
  319MPD2     C 4790   1.817   0.843  16.608 -0.2969  0.3128  0.0520
  319MPD2    C1 4791   1.707   0.794  16.680  0.4190  0.3079  0.2852
  319MPD2    C2 4792   1.586   0.787  16.617 -0.5474  0.1043  0.0846
  319MPD2    C3 4793   1.569   0.825  16.481 -0.4489 -0.2070 -0.4017
  319MPD2    C4 4794   1.676   0.878  16.416  0.5246 -0.3585  0.1563
  319MPD2    C5 4795   1.797   0.883  16.478 -0.5720 -0.0728  0.6159
  319MPD2     H 4796   1.506   0.753  16.682 -0.8611  1.5335  0.4523
  319MPD2    H1 4797   1.667   0.916  16.315 -0.7922 -0.7848  0.1128
  319MPD2    H2 4798   1.916   0.864  16.647 -0.2463  0.0308  0.0712
  319MPD2    H3 4799   1.889   0.923  16.440  1.0829 -1.2090  3.4026
  319MPD2     N 4800   1.445   0.819  16.411 -0.3074  0.2706 -0.6589
  319MPD2    H5 4801   1.444   0.858  16.317  1.9753  1.3045 -0.2521
  319MPD2    N1 4802   1.721   0.754  16.813  0.4715 -0.0309  0.0469
  319MPD2    H7 4803   1.638   0.733  16.868  0.4680  0.8000  0.3580
  320TMC3    C1 4804   1.222   0.761  16.365  0.2446  0.1040 -0.7577
  320TMC3    C2 4805   1.203   0.876  16.293  0.1336  0.0740  0.3133
  320TMC3    C3 4806   1.085   0.883  16.229  0.2129 -0.0627  0.2579
  320TMC3    C4 4807   1.130   0.657  16.368  0.5799  0.2592 -0.6001
  320TMC3    C5 4808   1.003   0.679  16.312 -0.1940 -0.2300 -0.2020
  320TMC3    C6 4809   0.980   0.794  16.239 -0.3435 -0.5034 -0.1018
  320TMC3     C 4810   1.332   0.750  16.458 -0.2642  0.0065  0.5299
  320TMC3     O 4811   1.311   0.685  16.559 -0.7512 -0.1526 -0.3761
  320TMC3     H 4812   1.275   0.956  16.287 -1.4400  1.5316  0.7162
  320TMC3    H1 4813   1.158   0.570  16.426  0.9725  0.7788 -0.0026
  320TMC3    H2 4814   0.882   0.825  16.206  0.0345 -0.3075 -1.0483
  320TMC3    C7 4815   0.899   0.585  16.312  0.1675  0.1719  0.4436
  320TMC3    C8 4816   1.062   1.005  16.158  0.2409 -0.1610 -0.1358
  320TMC3    O1 4817   0.815   0.594  16.221 -0.1638 -0.0470 -0.1402
  320TMC3    O2 4818   1.137   1.098  16.184  0.2233  0.3872  0.8904
  321TMC3    C1 4819   1.824   0.673  17.009 -0.5680  0.5828 -0.7017
  321TMC3    C2 4820   1.873   0.546  17.021 -0.0704 -0.2513 -0.0106
  321TMC3    C3 4821   1.842   0.484  17.136  0.2428  0.1241 -0.4392
  321TMC3    C4 4822   1.733   0.740  17.087 -0.6836  0.4751  0.1058
  321TMC3    C5 4823   1.704   0.668  17.206  0.6229  0.0276 -1.0154
  321TMC3    C6 4824   1.761   0.544  17.228 -0.4899  0.3867 -0.1523
  321TMC3     C 4825   1.838   0.727  16.876  0.0982  0.3610  0.4533
  321TMC3     O 4826   1.952   0.715  16.831  0.3364  0.2400 -0.2792
  321TMC3     H 4827   1.944   0.511  16.946  0.2603 -1.6184  0.9290
  321TMC3    H1 4828   1.699   0.841  17.072  1.6501  1.4354  1.1191
  321TMC3    H2 4829   1.715   0.479  17.303  1.1955 -0.5362  0.0735
  321TMC3    C7 4830   1.702   0.732  17.332 -0.1306 -0.5778  0.2922
  321TMC3    C8 4831   1.951   0.416  17.199 -0.5665  0.6840  0.4505
  321TMC3    O1 4832   1.658   0.842  17.358 -0.9849  0.2791 -0.2481
  321TMC3    O2 4833   1.945   0.427  17.321 -0.6137 -0.1622  0.1598
  322MPD2     C 4834   0.203   1.708  13.320 -0.2720 -0.1420  0.8811
  322MPD2    C1 4835   0.274   1.661  13.429 -0.2284 -0.0228 -0.4483
  322MPD2    C2 4836   0.384   1.576  13.407 -0.2969  0.3813 -0.4964
  322MPD2    C3 4837   0.437   1.544  13.281  0.1822 -0.7169  0.0829
  322MPD2    C4 4838   0.363   1.595  13.175  0.4371 -0.1108  0.5023
  322MPD2    C5 4839   0.250   1.673  13.195  0.2489  0.4973  0.2085
  322MPD2     H 4840   0.439   1.540  13.493 -0.1819  2.3968  0.2552
  322MPD2    H1 4841   0.382   1.581  13.069 -0.3952 -0.2159  0.3700
  322MPD2    H2 4842   0.120   1.774  13.340  1.4695  1.9387  1.2979
  322MPD2    H3 4843   0.194   1.703  13.107  1.6171 -0.5258 -1.0131
  322MPD2     N 4844   0.550   1.466  13.269 -0.6302  0.3641 -0.5455
  322MPD2    H5 4845   0.604   1.450  13.354 -0.6549  2.1406 -0.2080
  322MPD2    N1 4846   0.237   1.709  13.556  0.2912  0.5297  0.7109
  322MPD2    H7 4847   0.163   1.779  13.556 -0.0206  0.1980  0.5416
  323TMC3    C1 4848   0.279   1.771  13.780  0.2837 -0.7603 -0.2161
  323TMC3    C2 4849   0.315   1.895  13.744  0.3895  0.4860  0.3554
  323TMC3    C3 4850   0.327   1.998  13.840  0.4568  0.0790  0.1057
  323TMC3    C4 4851   0.258   1.734  13.910 -0.2145 -0.4576 -0.3174
  323TMC3    C5 4852   0.267   1.834  14.003 -0.3209  0.6246 -0.6022
  323TMC3    C6 4853   0.299   1.966  13.973 -0.1554  0.0823  0.6230
  323TMC3     C 4854   0.289   1.668  13.678 -0.0594  0.0491  0.4292
  323TMC3     O 4855   0.329   1.555  13.706 -0.1653  0.0596  0.4254
  323TMC3     H 4856   0.320   1.916  13.638 -0.9388 -3.4421 -0.5062
  323TMC3    H1 4857   0.229   1.634  13.936 -0.7043 -0.3033 -0.2813
  323TMC3    H2 4858   0.319   2.039  14.050 -0.7202  0.8073  0.0865
  323TMC3    C7 4859   0.316   1.790  14.125  0.5158 -0.2180  0.2557
  323TMC3    C8 4860   0.458   2.063  13.829 -0.0885 -0.5633 -0.3119
  323TMC3    O1 4861   0.398   1.697  14.113 -0.6518 -0.1231 -0.6762
  323TMC3    O2 4862   0.528   2.055  13.926  0.6436  0.0985  0.3194
  324MPD2     C 4863   1.679   2.808  14.517  0.6972 -0.4991 -0.1058
  324MPD2    C1 4864   1.706   2.915  14.430  0.3093  0.5087 -0.0797
  324MPD2    C2 4865   1.606   2.990  14.373  0.1545 -0.2654 -0.1389
  324MPD2    C3 4866   1.475   2.977  14.406 -0.7201  0.1369 -0.7574
  324MPD2    C4 4867   1.445   2.868  14.485 -0.1296 -0.5917  0.6810
  324MPD2    C5 4868   1.546   2.791  14.538  0.7426 -0.0983 -0.5027
  324MPD2     H 4869   1.637   3.049  14.287  1.9308 -2.0956 -0.7647
  324MPD2    H1 4870   1.343   2.848  14.516 -1.3089 -0.5274 -3.2052
  324MPD2    H2 4871   1.751   2.743  14.565 -1.9703 -2.0653  1.7455
  324MPD2    H3 4872   1.530   2.706  14.604  1.7394 -0.1387 -0.3156
  324MPD2     N 4873   1.379   3.068  14.357  0.2563 -0.5601  0.1733
  324MPD2    H5 4874   1.284   3.036  14.373  0.0117  0.0673 -0.0100
  324MPD2    N1 4875   1.839   2.953  14.401 -0.2480 -0.5596  0.1737
  324MPD2    H7 4876   1.854   3.028  14.335 -0.1347  0.9279  1.8792
  325TMC3    C1 4877   1.301   3.272  14.266  0.5098 -0.2241  0.2092
  325TMC3    C2 4878   1.185   3.205  14.251 -0.2097 -0.5741  0.0366
  325TMC3    C3 4879   1.100   3.262  14.164 -1.1237 -0.1597 -0.1371
  325TMC3    C4 4880   1.332   3.395  14.211 -0.1729 -0.2576 -0.5168
  325TMC3    C5 4881   1.233   3.464  14.140  0.3108  0.2063  0.2530
  325TMC3    C6 4882   1.119   3.391  14.111  0.6554  0.4301 -0.6815
  325TMC3     C 4883   1.411   3.189  14.307 -0.7197 -0.1258  0.1086
  325TMC3     O 4884   1.523   3.235  14.294 -0.0152 -0.0356 -0.2701
  325TMC3     H 4885   1.159   3.108  14.290 -0.7880 -0.0428  0.9853
  325TMC3    H1 4886   1.429   3.436  14.238 -0.4183 -0.2382  0.3197
  325TMC3    H2 4887   1.044   3.431  14.043  0.7927 -0.9468 -1.6323
  325TMC3    C7 4888   1.269   3.587  14.080 -0.1146 -0.4309  0.3223
  325TMC3    C8 4889   1.004   3.165  14.109 -0.1943 -0.4035  0.5385
  325TMC3    O1 4890   1.383   3.614  14.055 -0.1411 -0.1034  0.2572
  325TMC3    O2 4891   1.037   3.049  14.113 -0.4753 -0.2521  0.4566
  326MPD2     C 4892   2.768   0.070  11.065 -0.0854  0.7722  0.1634
  326MPD2    C1 4893   2.831   0.041  10.942 -1.2473  0.1745  0.7974
  326MPD2    C2 4894   2.954   0.091  10.907  0.2747  0.5389 -0.1680
  326MPD2    C3 4895   3.007   0.198  10.985 -0.1345 -0.0335  0.7543
  326MPD2    C4 4896   2.954   0.222  11.112 -0.1030  0.2027  0.0685
  326MPD2    C5 4897   2.837   0.152  11.148 -0.4531  0.6294 -0.2844
  326MPD2     H 4898   2.986   0.060  10.808 -2.4589 -0.5270 -0.7059
  326MPD2    H1 4899   3.000   0.300  11.171 -1.0863  1.2161 -0.5038
  326MPD2    H2 4900   2.674   0.025  11.096 -0.4695  0.2947 -1.6849
  326MPD2    H3 4901   2.793   0.168  11.246  1.3452 -1.8653  0.9381
  326MPD2     N 4902   3.122   0.277  10.949  0.4865  0.0400  0.1526
  326MPD2    H5 4903   3.165   0.343  11.013  0.3730 -0.6039  0.8843
  326MPD2    N1 4904   2.773   4.661  10.854  0.2420 -0.1720 -0.0517
  326MPD2    H7 4905   2.838   4.626  10.785  0.7955 -1.5172  1.1523
  327TMC3    C1 4906   2.639   4.490  10.786 -0.1267  0.2875  0.0514
  327TMC3    C2 4907   2.536   4.497  10.691 -0.2498 -0.2697  0.4690
  327TMC3    C3 4908   2.539   4.411  10.587 -0.0703 -0.4649 -0.1311
  327TMC3    C4 4909   2.749   4.404  10.779 -0.0931  0.0067 -0.5534
  327TMC3    C5 4910   2.751   4.327  10.667  0.1543  0.2423 -0.1744
  327TMC3    C6 4911   2.641   4.321  10.578  0.1367  0.3429 -0.3282
  327TMC3     C 4912   2.645   4.604  10.868 -0.4341  0.5099 -0.1622
  327TMC3     O 4913   2.541   4.664  10.899 -0.9536 -0.7882  0.4271
  327TMC3     H 4914   2.459   4.574  10.702  0.1438  0.5570 -2.3910
  327TMC3    H1 4915   2.818   4.387  10.861  0.1577 -0.0262 -0.7705
  327TMC3    H2 4916   2.643   4.257  10.491  1.0175 -0.9175  0.6107
  327TMC3    C7 4917   2.861   4.230  10.650  0.1371 -0.1521 -0.1707
  327TMC3    C8 4918   2.507   4.469  10.463 -0.6975  0.5171 -0.5126
  327TMC3    O1 4919   2.838   4.122  10.596  0.5457 -0.2344 -0.2964
  327TMC3    O2 4920   2.597   4.452  10.378  0.1833 -0.3929  0.3206
  328MPD2     C 4921   0.783   3.547  16.631 -0.3105  0.0773  0.0172
  328MPD2    C1 4922   0.652   3.569  16.596 -0.5971 -0.1143 -0.0283
  328MPD2    C2 4923   0.573   3.640  16.687  0.2297  0.0985 -0.8560
  328MPD2    C3 4924   0.619   3.702  16.802  0.1632  0.9032  0.1849
  328MPD2    C4 4925   0.752   3.680  16.835  0.0221  0.3594  0.4907
  328MPD2    C5 4926   0.828   3.604  16.749 -0.2790 -0.8558  0.5623
  328MPD2     H 4927   0.473   3.664  16.653 -0.0763  0.7021  0.4785
  328MPD2    H1 4928   0.801   3.722  16.922  2.1417 -0.6114 -0.2487
  328MPD2    H2 4929   0.852   3.484  16.576 -0.2016  0.4834 -0.3165
  328MPD2    H3 4930   0.931   3.582  16.777 -0.0203 -1.1643 -0.6533
  328MPD2     N 4931   0.544   3.795  16.879 -0.4312 -0.1173  0.9866
  328MPD2    H5 4932   0.592   3.847  16.952  2.5927 -2.2719  0.5887
  328MPD2    N1 4933   0.600   3.524  16.472  0.6776 -0.0759 -0.0068
  328MPD2    H7 4934   0.665   3.524  16.394 -1.4510 -0.6901 -1.8153
  329TMC3    C1 4935   0.399   3.425  16.559 -0.1143 -0.1290  0.0097
  329TMC3    C2 4936   0.277   3.478  16.604 -0.0032 -0.1590 -0.6107
  329TMC3    C3 4937   0.218   3.409  16.700 -0.9703 -0.7059  0.0241
  329TMC3    C4 4938   0.439   3.300  16.596 -0.1384  0.6674 -0.7135
  329TMC3    C5 4939   0.378   3.234  16.695 -0.3966 -0.0020  0.8780
  329TMC3    C6 4940   0.259   3.283  16.740 -0.2820 -0.1346 -0.3553
  329TMC3     C 4941   0.471   3.489  16.450 -0.2311 -0.2775 -0.1814
  329TMC3     O 4942   0.415   3.487  16.345  0.3473  0.2924 -0.1145
  329TMC3     H 4943   0.247   3.579  16.576 -1.5648  0.1313  2.1098
  329TMC3    H1 4944   0.528   3.266  16.543  0.2095 -0.2543  0.4864
  329TMC3    H2 4945   0.198   3.226  16.808  0.2929  2.8154  2.6571
  329TMC3    C7 4946   0.429   3.099  16.731  0.0745  0.4258  0.2906
  329TMC3    C8 4947   0.133   3.480  16.786 -0.1853  0.2424  0.8204
  329TMC3    O1 4948   0.522   3.060  16.659  0.5250 -0.4662  0.6991
  329TMC3    O2 4949   0.099   3.437  16.898  0.4470  0.6040  0.1052
  330TMC3    C1 4950   3.931   3.708   9.584  0.4724  0.1024 -0.4331
  330TMC3    C2 4951   3.906   3.617   9.487  0.5225 -0.5143  0.7546
  330TMC3    C3 4952   3.900   3.487   9.518 -0.0893  0.3390 -0.2543
  330TMC3    C4 4953   3.956   3.664   9.712 -0.4248 -0.4525  0.2588
  330TMC3    C5 4954   3.946   3.528   9.738  0.2021 -0.2605 -0.3166
  330TMC3    C6 4955   3.922   3.434   9.646  0.1756  0.7687  0.1646
  330TMC3     C 4956   3.922   3.853   9.571  0.2599  0.5156 -0.1747
  330TMC3     O 4957   3.999   3.910   9.648  0.2556 -0.7080  0.7894
  330TMC3     H 4958   3.885   3.649   9.386  2.0209  0.3369  0.7174
  330TMC3    H1 4959   3.961   3.738   9.791  0.5047 -0.7203  0.4498
  330TMC3    H2 4960   3.949   3.329   9.658 -2.7744 -0.1444 -1.2085
  330TMC3    C7 4961   3.997   3.495   9.870  0.0475 -0.2234  0.7034
  330TMC3    C8 4962   3.880   3.397   9.402  0.4249  0.0413 -1.2403
  330TMC3    O1 4963   4.048   3.584   9.934 -0.7871  0.8140 -0.2681
  330TMC3    O2 4964   3.927   3.429   9.293  0.1850  0.4746  0.0832
  331MPD2     C 4965   0.888   2.521  12.689 -0.4063  0.0828 -0.3545
  331MPD2    C1 4966   1.011   2.562  12.635 -0.3670 -0.4756 -0.0868
  331MPD2    C2 4967   1.084   2.467  12.565  0.0539  0.0638 -0.2270
  331MPD2    C3 4968   1.054   2.339  12.573 -0.1737  0.3624 -0.7725
  331MPD2    C4 4969   0.931   2.299  12.617 -0.0433 -0.2385 -0.1289
  331MPD2    C5 4970   0.846   2.386  12.673  0.0916 -0.1950  0.6325
  331MPD2     H 4971   1.175   2.496  12.515  0.7780  0.4811  1.3158
  331MPD2    H1 4972   0.897   2.197  12.609 -0.9485 -0.1483  2.7250
  331MPD2    H2 4973   0.829   2.601  12.733 -0.5022 -0.2030  0.0395
  331MPD2    H3 4974   0.745   2.357  12.702 -0.6388  1.4817 -0.2715
  331MPD2     N 4975   1.149   2.247  12.522 -0.3536  0.6049 -0.9995
  331MPD2    H5 4976   1.240   2.273  12.485  0.4027 -1.4525 -0.5783
  331MPD2    N1 4977   1.057   2.690  12.657  0.7469  0.1862  0.4119
  331MPD2    H7 4978   0.994   2.756  12.702  2.0934  0.7459  1.4726
  332TMC3    C1 4979   1.253   2.055  12.452 -0.1499 -0.1477  0.5575
  332TMC3    C2 4980   1.309   2.139  12.359 -0.1625  0.3806  0.1978
  332TMC3    C3 4981   1.447   2.126  12.342  0.3056 -0.3094  0.9442
  332TMC3    C4 4982   1.326   1.974  12.531 -0.2267 -0.3797  0.3290
  332TMC3    C5 4983   1.461   1.967  12.516  0.0695  0.1526 -0.1508
  332TMC3    C6 4984   1.525   2.038  12.414  0.4651  0.0627 -0.2081
  332TMC3     C 4985   1.142   2.113  12.523 -0.1952  0.2317 -0.3001
  332TMC3     O 4986   1.054   2.033  12.561 -0.0547 -0.3516  0.1955
  332TMC3     H 4987   1.252   2.215  12.307 -0.7438 -0.4499 -0.3749
  332TMC3    H1 4988   1.282   1.911  12.608  0.5522 -0.2598  0.8698
  332TMC3    H2 4989   1.632   2.038  12.395  0.4235 -1.4682 -0.4398
  332TMC3    C7 4990   1.536   1.866  12.589 -0.6095  0.2590 -0.1641
  332TMC3    C8 4991   1.511   2.197  12.232  0.4739  0.4169  0.4061
  332TMC3    O1 4992   1.481   1.778  12.656 -0.6021 -0.4238  0.2835
  332TMC3    O2 4993   1.635   2.213  12.244 -0.4200 -0.0668 -0.0268
  333MPD2     C 4994   1.655   2.744  10.968  0.2487  0.3239 -0.0775
  333MPD2    C1 4995   1.765   2.668  10.961 -0.3290  0.1517 -0.8878
  333MPD2    C2 4996   1.754   2.532  10.992 -0.2214  0.1236  1.0986
  333MPD2    C3 4997   1.636   2.470  11.010 -0.1751 -0.2185  0.5265
  333MPD2    C4 4998   1.523   2.544  11.010 -0.0043  0.3458  0.4656
  333MPD2    C5 4999   1.530   2.682  10.997  0.2403  0.0840 -0.2968
  333MPD2     H 5000   1.847   2.477  10.995  0.0408  0.5377  0.6448
  333MPD2    H1 5001   1.421   2.506  11.012 -0.4016  1.3752 -0.0547
  333MPD2    H2 5002   1.652   2.852  10.953 -2.9904  0.4510  1.2939
  333MPD2    H3 5003   1.439   2.739  10.999  0.3482  0.2633 -0.6247
  333MPD2     N 5004   1.629   2.330  11.041 -0.4868 -0.0712  0.0036
  333MPD2    H5 5005   1.712   2.272  11.035 -1.0949 -0.8507 -0.8456
  333MPD2    N1 5006   1.882   2.740  10.935  0.3307 -0.0137 -0.2060
  333MPD2    H7 5007   1.877   2.835  10.900 -1.3138 -0.4815 -1.2425
  334TMC3    C1 5008   2.109   2.764  10.885 -0.5631 -0.1917 -0.0861
  334TMC3    C2 5009   2.238   2.717  10.911 -0.2458 -0.2775  0.0915
  334TMC3    C3 5010   2.340   2.794  10.860  0.8094  0.0397 -0.1162
  334TMC3    C4 5011   2.084   2.869  10.796 -0.0369  0.0791 -0.2596
  334TMC3    C5 5012   2.191   2.930  10.738  0.1410 -0.4312  0.0976
  334TMC3    C6 5013   2.320   2.900  10.775 -1.0468 -0.8960 -0.0605
  334TMC3     C 5014   2.005   2.680  10.925 -0.1589  0.0338  0.5856
  334TMC3     O 5015   2.028   2.573  10.970  0.0921  0.0774 -0.2573
  334TMC3     H 5016   2.262   2.625  10.963 -0.5594 -0.0800  0.5892
  334TMC3    H1 5017   1.982   2.901  10.777  0.0064  0.5505  0.2945
  334TMC3    H2 5018   2.395   2.972  10.742 -1.9336 -0.5131 -1.2226
  334TMC3    C7 5019   2.177   3.054  10.656 -0.5958  0.1462  0.0004
  334TMC3    C8 5020   2.465   2.724  10.833  0.3796 -0.8778  0.0314
  334TMC3    O1 5021   2.269   3.136  10.658 -0.4764  0.1149 -0.0860
  334TMC3    O2 5022   2.474   2.601  10.856 -0.7097  0.1639 -0.1592
  335TMC3    C1 5023   1.182   3.831  16.942 -0.2570 -0.5561  0.3788
  335TMC3    C2 5024   1.166   3.806  16.806  0.8436 -0.4771 -0.2576
  335TMC3    C3 5025   1.274   3.810  16.723  0.2798 -0.6071  0.4716
  335TMC3    C4 5026   1.303   3.868  16.993 -0.2408  0.0253 -0.2074
  335TMC3    C5 5027   1.414   3.862  16.910  0.2493 -0.2806 -0.0102
  335TMC3    C6 5028   1.403   3.824  16.777 -0.3554 -0.2932 -0.3816
  335TMC3     C 5029   1.084   3.764  17.027  0.4368  0.1385  0.7016
  335TMC3     O 5030   1.044   3.660  16.975  0.2356 -0.2878  0.1802
  335TMC3     H 5031   1.065   3.784  16.773 -0.1680  2.1723  1.0147
  335TMC3    H1 5032   1.312   3.901  17.096 -0.0082 -0.0542 -0.2008
  335TMC3    H2 5033   1.489   3.827  16.711  0.8102 -0.7495  1.1219
  335TMC3    C7 5034   1.547   3.893  16.956  0.5023 -0.2828  0.2814
  335TMC3    C8 5035   1.291   3.698  16.623 -0.6251  0.1767  0.1662
  335TMC3    O1 5036   1.639   3.842  16.897  0.0805  0.4378  0.2981
  335TMC3    O2 5037   1.381   3.696  16.544 -0.0235  0.2632  0.3476
  336MPD2     C 5038   1.048   1.980  16.344  0.3419  0.2663 -0.5148
  336MPD2    C1 5039   1.053   1.923  16.221 -0.3191  0.1374 -0.1115
  336MPD2    C2 5040   1.134   1.815  16.191 -0.1944 -0.6978  0.3869
  336MPD2    C3 5041   1.176   1.737  16.295  0.2738  0.4566 -0.0852
  336MPD2    C4 5042   1.172   1.793  16.419 -0.1618 -0.0498  0.8591
  336MPD2    C5 5043   1.100   1.905  16.445  0.4356 -0.4405  0.0425
  336MPD2     H 5044   1.119   1.771  16.093 -0.7743 -1.2241  0.7136
  336MPD2    H1 5045   1.221   1.744  16.503 -0.8001 -2.5287 -0.2009
  336MPD2    H2 5046   0.972   2.051  16.375 -1.4086 -2.2093  0.8854
  336MPD2    H3 5047   1.081   1.940  16.546 -1.0540  2.2336 -1.1537
  336MPD2     N 5048   1.242   1.613  16.291  0.3033 -0.0320 -0.6428
  336MPD2    H5 5049   1.277   1.584  16.381 -0.7753  1.9371  0.4049
  336MPD2    N1 5050   0.969   1.966  16.114 -0.6923  0.3101  0.2358
  336MPD2    H7 5051   0.979   1.938  16.017 -3.3999 -3.9846  1.2282
  337TMC3    C1 5052   0.813   2.078  16.000  0.8016  0.9519  0.0371
  337TMC3    C2 5053   0.683   2.108  15.995 -0.0102 -0.0971 -0.2932
  337TMC3    C3 5054   0.630   2.188  15.900  0.2587 -0.8243 -0.2312
  337TMC3    C4 5055   0.901   2.137  15.906  0.3064  0.3634  0.2145
  337TMC3    C5 5056   0.846   2.220  15.814  0.1307  0.1021  0.0960
  337TMC3    C6 5057   0.714   2.251  15.805 -0.1445  0.1834  0.2956
  337TMC3     C 5058   0.857   2.048  16.130  0.2801  0.6004  0.0306
  337TMC3     O 5059   0.781   2.062  16.223 -0.2505 -0.2900 -0.8488
  337TMC3     H 5060   0.619   2.073  16.075  0.8023 -1.1168 -0.0933
  337TMC3    H1 5061   1.009   2.133  15.915  0.2515 -0.7602  0.3643
  337TMC3    H2 5062   0.679   2.333  15.744  0.0960 -0.8167 -1.1850
  337TMC3    C7 5063   0.955   2.268  15.728 -0.3384  0.4813 -0.1667
  337TMC3    C8 5064   0.488   2.176  15.871 -0.5914 -0.1127 -0.2388
  337TMC3    O1 5065   1.060   2.201  15.713 -0.4966 -0.2000 -0.0727
  337TMC3    O2 5066   0.414   2.138  15.960 -0.3875 -0.5697  0.0657
  338MPD2     C 5067   1.381   0.789   0.974  0.0421 -0.1756  0.2372
  338MPD2    C1 5068   1.456   0.865   0.880 -0.1141  0.3963  0.2269
  338MPD2    C2 5069   1.463   1.001   0.902 -1.3553  0.1520 -0.4842
  338MPD2    C3 5070   1.404   1.068   1.007 -0.5155  0.9511  0.4084
  338MPD2    C4 5071   1.323   0.991   1.093 -0.3868  0.1067  0.1808
  338MPD2    C5 5072   1.323   0.854   1.081 -0.7866 -0.2192  0.0028
  338MPD2     H 5073   1.531   1.055   0.837  0.9797 -0.2850  1.5901
  338MPD2    H1 5074   1.284   1.026   1.188 -1.8337 -1.5076  0.1867
  338MPD2    H2 5075   1.368   0.681   0.984  0.0422 -0.1574  0.4379
  338MPD2    H3 5076   1.284   0.794   1.162 -0.1735  0.8641  1.0943
  338MPD2     N 5077   1.434   1.200   1.030  0.3742  0.4258  0.3077
  338MPD2    H5 5078   1.520   1.230   0.986 -0.0010 -0.0260 -0.7396
  338MPD2    N1 5079   1.521   0.808   0.769 -0.5968  0.0325  0.4430
  338MPD2    H7 5080   1.567   0.869   0.702  0.9003 -0.6108  0.8780
  339TMC3    C1 5081   1.425   1.412   1.140  0.6412 -0.4172 -0.2711
  339TMC3    C2 5082   1.344   1.494   1.211 -0.0550  0.0819  0.5641
  339TMC3    C3 5083   1.402   1.579   1.300  0.7059  0.9447  0.1135
  339TMC3    C4 5084   1.559   1.406   1.167  0.4266  0.6032 -0.0337
  339TMC3    C5 5085   1.607   1.492   1.262  0.0369 -0.4360 -0.0011
  339TMC3    C6 5086   1.536   1.578   1.329  0.0933  0.5519  0.5840
  339TMC3     C 5087   1.362   1.293   1.107  0.5258 -0.0623  0.1134
  339TMC3     O 5088   1.241   1.291   1.123 -0.3801 -0.0866 -0.0507
  339TMC3     H 5089   1.241   1.510   1.182  0.0072 -1.4856 -0.5370
  339TMC3    H1 5090   1.620   1.335   1.112 -0.0198  0.3098 -0.1485
  339TMC3    H2 5091   1.564   1.631   1.419  0.3638  2.0750 -0.3976
  339TMC3    C7 5092   1.733   1.551   1.228  0.4619 -0.0480 -0.1654
  339TMC3    C8 5093   1.315   1.665   1.384  0.2821 -0.5369  0.1150
  339TMC3    O1 5094   1.753   1.663   1.273 -0.2946  0.4903  0.3037
  339TMC3    O2 5095   1.370   1.758   1.434  0.2266  0.0086 -0.5626
  340MPD2     C 5096   2.308   4.151  10.439 -0.1823 -0.0710  0.0412
  340MPD2    C1 5097   2.268   4.080  10.327  0.6080  0.9433 -0.3320
  340MPD2    C2 5098   2.322   3.957  10.305 -0.3140  0.1035 -0.1078
  340MPD2    C3 5099   2.429   3.914  10.382 -1.1006 -0.5439 -0.4005
  340MPD2    C4 5100   2.470   3.993  10.486  0.0892  0.0016  0.4260
  340MPD2    C5 5101   2.399   4.098  10.522  0.1453  0.4053 -0.2226
  340MPD2     H 5102   2.296   3.891  10.224 -2.4406 -1.2693  1.6908
  340MPD2    H1 5103   2.563   3.977  10.539 -0.0732  2.6339  1.4830
  340MPD2    H2 5104   2.266   4.246  10.470 -1.4337  0.6662 -3.8292
  340MPD2    H3 5105   2.437   4.154  10.606 -1.7534  0.6117  0.4989
  340MPD2     N 5106   2.518   3.809  10.348  0.3787  0.0654  0.1887
  340MPD2    H5 5107   2.606   3.800  10.397 -0.2971 -1.2197  1.1731
  340MPD2    N1 5108   2.170   4.148  10.253 -0.1326  0.1986 -0.5176
  340MPD2    H7 5109   2.133   4.232  10.296  0.6974 -0.8154  2.1649
  341TMC3    C1 5110   2.174   4.012  10.053 -0.6803  0.1837 -0.4555
  341TMC3    C2 5111   2.092   3.904  10.053 -0.0197  0.4043 -0.2505
  341TMC3    C3 5112   2.155   3.784  10.022 -0.2594 -0.1896  0.5060
  341TMC3    C4 5113   2.301   4.009  10.009  0.2559 -0.0923 -0.4434
  341TMC3    C5 5114   2.362   3.888   9.976  0.5699  0.3464  0.2581
  341TMC3    C6 5115   2.289   3.771   9.989  0.8437 -0.3882 -0.0465
  341TMC3     C 5116   2.119   4.119  10.130  0.1241 -0.1118  0.7765
  341TMC3     O 5117   2.026   4.173  10.075  0.1457  0.6489 -0.1843
  341TMC3     H 5118   1.984   3.912  10.064  0.0684 -0.0430  0.9156
  341TMC3    H1 5119   2.367   4.095  10.020  1.1087 -0.2699 -4.4244
  341TMC3    H2 5120   2.324   3.678   9.948 -1.1283 -1.9516  1.8428
  341TMC3    C7 5121   2.474   3.887   9.888 -0.3407  1.4859 -0.4227
  341TMC3    C8 5122   2.071   3.664  10.041 -0.3623 -0.5524 -0.6083
  341TMC3    O1 5123   2.554   3.795   9.879  0.3962 -0.4444  0.6619
  341TMC3    O2 5124   1.949   3.672  10.049  0.1411  0.4888 -0.6001
  342MPD2     C 5125   3.827   1.846  16.946  0.4239 -0.3587 -0.4844
  342MPD2    C1 5126   3.933   1.844  17.037 -0.1732  0.4030  0.2957
  342MPD2    C2 5127   3.936   1.938  17.131  0.0629 -0.2169  0.3457
  342MPD2    C3 5128   3.854   2.050  17.129 -0.0020  0.0772  0.0432
  342MPD2    C4 5129   3.752   2.055  17.034 -0.2211  0.5501 -0.0513
  342MPD2    C5 5130   3.745   1.950  16.950 -0.1574  0.5198  0.2147
  342MPD2     H 5131   4.020   1.937  17.200  0.5701 -1.2338 -0.2874
  342MPD2    H1 5132   3.675   2.131  17.039 -1.8094 -1.0108 -0.7004
  342MPD2    H2 5133   3.815   1.770  16.870  2.5063 -1.8572  0.6891
  342MPD2    H3 5134   3.668   1.954  16.874 -0.1970 -0.9413  0.1793
  342MPD2     N 5135   3.872   2.167  17.202 -0.0716  0.3633 -0.3259
  342MPD2    H5 5136   3.802   2.239  17.187 -0.2756  0.7701  2.4502
  342MPD2    N1 5137   4.016   1.734  17.035  0.2990  0.1544 -0.3582
  342MPD2    H7 5138   4.084   1.730  17.110 -1.1115  1.0063  0.9641
  343TMC3    C1 5139   4.082   1.509  17.025 -0.4083  0.2593 -0.2795
  343TMC3    C2 5140   4.216   1.538  17.025  0.0879 -0.0996  0.5564
  343TMC3    C3 5141   4.300   1.437  17.048 -0.0290 -1.0259 -0.0977
  343TMC3    C4 5142   4.026   1.389  17.059  0.3563  0.8165 -0.7741
  343TMC3    C5 5143   4.120   1.290  17.088  0.3396 -0.6690  0.4069
  343TMC3    C6 5144   4.253   1.310  17.078  0.8047  0.1180  0.0489
  343TMC3     C 5145   3.991   1.615  16.977  0.5496 -0.0781  0.4952
  343TMC3     O 5146   3.909   1.568  16.896  0.0578  0.1708  0.4068
  343TMC3     H 5147   4.259   1.632  16.993 -0.6744 -0.0546 -0.3343
  343TMC3    H1 5148   3.920   1.366  17.053 -0.1632  3.0996 -0.3873
  343TMC3    H2 5149   4.325   1.228  17.084  1.0233  0.4128  1.3652
  343TMC3    C7 5150   4.070   1.168  17.153  0.2899 -0.7004  0.1139
  343TMC3    C8 5151   4.438   1.465  17.043 -0.1963  0.0435  0.1588
  343TMC3    O1 5152   3.959   1.135  17.113 -0.2024 -0.6812  0.1223
  343TMC3    O2 5153   4.478   1.579  17.064  0.6083  0.1179 -0.3056
  344MPD2     C 5154   0.522   1.787   9.733 -0.3608  0.4679 -0.6977
  344MPD2    C1 5155   0.579   1.775   9.863 -0.0701 -0.8838  0.7078
  344MPD2    C2 5156   0.665   1.876   9.899 -0.0557  0.5209  0.6085
  344MPD2    C3 5157   0.692   1.987   9.827 -0.1214  0.9792 -0.0703
  344MPD2    C4 5158   0.639   1.990   9.705 -0.3051  0.5863  1.0166
  344MPD2    C5 5159   0.557   1.888   9.648  0.2307  0.0715  0.6541
  344MPD2     H 5160   0.707   1.868   9.999 -0.7883 -1.4110  0.7725
  344MPD2    H1 5161   0.662   2.070   9.636  1.4577 -1.5957 -0.9298
  344MPD2    H2 5162   0.448   1.721   9.690  0.0677 -0.6307  0.2404
  344MPD2    H3 5163   0.529   1.886   9.544  2.2561  1.8407  0.0807
  344MPD2     N 5164   0.766   2.090   9.888  0.0074 -0.4171 -0.0202
  344MPD2    H5 5165   0.800   2.068   9.981 -1.4641 -1.7553  0.1827
  344MPD2    N1 5166   0.563   1.662   9.961  0.1366 -0.4192 -0.4953
  344MPD2    H7 5167   0.603   1.669  10.054 -0.2401 -3.1379 -0.1277
  345TMC3    C1 5168   0.852   2.308   9.921 -0.1465 -0.0230  0.0821
  345TMC3    C2 5169   0.970   2.280   9.990 -0.2750  0.6418 -0.0708
  345TMC3    C3 5170   1.043   2.390  10.028  0.1258  0.1977 -0.5675
  345TMC3    C4 5171   0.804   2.437   9.904 -0.1241 -0.4008 -0.0449
  345TMC3    C5 5172   0.878   2.540   9.956 -0.1829  0.5796 -0.2644
  345TMC3    C6 5173   1.002   2.520  10.009  0.1434  0.2552  0.4347
  345TMC3     C 5174   0.801   2.211   9.829 -0.5741  0.2341  0.2557
  345TMC3     O 5175   0.755   2.254   9.725 -0.0601 -0.5816 -0.0420
  345TMC3     H 5176   1.002   2.179  10.011 -0.6996 -0.0535 -2.7725
  345TMC3    H1 5177   0.700   2.448   9.875 -0.2508 -0.1173  0.5111
  345TMC3    H2 5178   1.076   2.596  10.034  1.0417 -1.0993  1.9057
  345TMC3    C7 5179   0.849   2.679   9.930 -0.6191  0.1240 -0.0330
  345TMC3    C8 5180   1.171   2.357  10.086 -0.2369 -0.8822 -0.2680
  345TMC3    O1 5181   0.919   2.760   9.991  0.2478 -0.1908 -0.1674
  345TMC3    O2 5182   1.229   2.253  10.056  0.1080 -0.4956  0.0132
  346MPD2     C 5183   0.526   3.491  14.240 -0.5297 -0.3856  0.0153
  346MPD2    C1 5184   0.522   3.597  14.147 -0.3644  0.2677  0.0737
  346MPD2    C2 5185   0.578   3.715  14.182  1.1860 -0.0760 -0.4919
  346MPD2    C3 5186   0.629   3.732  14.311 -0.2687 -0.1906 -0.1309
  346MPD2    C4 5187   0.634   3.629  14.402  0.5316 -1.0939 -0.0305
  346MPD2    C5 5188   0.579   3.512  14.364  0.1376  0.6756  0.4838
  346MPD2     H 5189   0.595   3.794  14.110 -0.9465  0.8738  0.0320
  346MPD2    H1 5190   0.666   3.643  14.504  1.5695  2.2698 -0.7942
  346MPD2    H2 5191   0.494   3.391  14.214 -1.1144 -0.2514  0.2132
  346MPD2    H3 5192   0.577   3.435  14.440 -0.0207 -0.4729 -0.6835
  346MPD2     N 5193   0.670   3.862  14.323  0.5853 -0.0887 -0.6940
  346MPD2    H5 5194   0.686   3.923  14.244 -1.6717  0.0923 -0.9964
  346MPD2    N1 5195   0.467   3.592  14.019 -0.1256 -0.7124  0.0360
  346MPD2    H7 5196   0.474   3.676  13.963 -2.3372 -0.3194  0.3510
  347TMC3    C1 5197   0.758   4.040  14.431  0.2585 -0.0830  0.0566
  347TMC3    C2 5198   0.738   4.098  14.311 -0.7023  0.3501 -0.0176
  347TMC3    C3 5199   0.837   4.162  14.242 -0.3659  0.2403  0.6067
  347TMC3    C4 5200   0.877   4.060  14.496  0.1242 -0.4210 -0.2005
  347TMC3    C5 5201   0.979   4.122  14.432 -0.5673  0.3164  0.3766
  347TMC3    C6 5202   0.953   4.186  14.317 -0.0566 -0.5034 -0.5826
  347TMC3     C 5203   0.701   3.911  14.445 -0.7485 -0.2436 -0.0618
  347TMC3     O 5204   0.705   3.868  14.558  0.2628 -0.3513  0.2088
  347TMC3     H 5205   0.640   4.098  14.266 -1.4293  1.0574  1.5653
  347TMC3    H1 5206   0.891   4.015  14.594  0.7508 -2.5833 -1.2857
  347TMC3    H2 5207   1.034   4.239  14.266  0.0002 -0.3068 -0.2855
  347TMC3    C7 5208   1.116   4.096  14.466 -0.5590  0.3031  0.2835
  347TMC3    C8 5209   0.869   4.071  14.136 -0.0467 -0.1438 -0.1837
  347TMC3    O1 5210   1.197   4.138  14.383 -0.4653  0.1631  0.0357
  347TMC3    O2 5211   0.782   3.984  14.118  0.4042  0.3821  0.6251
  348MPD2     C 5212   3.884   3.435  12.119  0.0113  0.4501 -0.6559
  348MPD2    C1 5213   4.013   3.409  12.068 -0.0438  0.4938 -0.8586
  348MPD2    C2 5214   4.044   3.476  11.951 -0.2153 -0.0724 -0.1529
  348MPD2    C3 5215   3.955   3.563  11.882 -1.0233  0.7465  0.1611
  348MPD2    C4 5216   3.829   3.585  11.935  0.4627  0.6078 -1.2285
  348MPD2    C5 5217   3.799   3.521  12.057 -0.5810 -0.3568  0.7656
  348MPD2     H 5218   4.136   3.455  11.896  1.1269  4.4067  0.3691
  348MPD2    H1 5219   3.754   3.646  11.885 -2.2361  0.7675  3.0186
  348MPD2    H2 5220   3.851   3.402  12.217  0.1516  0.8816 -0.4614
  348MPD2    H3 5221   3.706   3.539  12.110 -1.4623 -1.2344 -0.4737
  348MPD2     N 5222   4.008   3.613  11.758  0.0395 -0.2382  0.4086
  348MPD2    H5 5223   4.099   3.578  11.732  0.2446 -0.2547  1.1313
  348MPD2    N1 5224   4.098   3.318  12.117  0.8387  0.2223 -0.8569
  348MPD2    H7 5225   4.186   3.319  12.065 -1.0593  0.9803 -4.0885
  349TMC3    C1 5226   4.190   3.126  12.223 -0.4728 -0.1508 -0.7930
  349TMC3    C2 5227   4.162   2.994  12.212  0.8037 -0.2572 -0.0527
  349TMC3    C3 5228   4.270   2.908  12.197 -0.2793 -0.3721 -0.0661
  349TMC3    C4 5229   4.313   3.184  12.200  0.2771 -0.2380 -0.0222
  349TMC3    C5 5230   4.410   3.092  12.172  0.5009  0.0263  0.1405
  349TMC3    C6 5231   4.394   2.959  12.166 -0.6227  0.7706  0.8856
  349TMC3     C 5232   4.072   3.215  12.206  0.4479  0.4345 -0.4881
  349TMC3     O 5233   3.964   3.197  12.265  0.3002 -0.1213 -0.2683
  349TMC3     H 5234   4.065   2.952  12.237  0.2047 -0.2060 -2.2769
  349TMC3    H1 5235   4.331   3.291  12.210  0.0890 -0.1226 -0.8965
  349TMC3    H2 5236   4.465   2.882  12.139  0.0650  1.1196  1.7156
  349TMC3    C7 5237   4.548   3.134  12.152 -0.1107 -0.0413  0.2532
  349TMC3    C8 5238   4.238   2.764  12.190  0.2673 -0.4298  0.1963
  349TMC3    O1 5239   4.630   3.074  12.217 -0.1586 -0.3887 -0.1265
  349TMC3    O2 5240   4.177   2.709  12.277  0.6100  0.0042  0.5845
  350MPD2     C 5241   3.613   1.378  10.081 -0.1484  0.6934  0.2261
  350MPD2    C1 5242   3.533   1.276  10.121  0.2758  0.0806 -0.0862
  350MPD2    C2 5243   3.427   1.302  10.212 -0.4357  0.3649 -0.3446
  350MPD2    C3 5244   3.408   1.431  10.257 -0.1584 -0.3895 -0.0233
  350MPD2    C4 5245   3.497   1.538  10.219  0.8225  0.0388  1.4144
  350MPD2    C5 5246   3.600   1.507  10.135 -0.4014  1.1558 -0.3299
  350MPD2     H 5247   3.355   1.224  10.234  0.4431 -0.1929  0.5316
  350MPD2    H1 5248   3.477   1.638  10.256  0.2441  0.1183  0.8901
  350MPD2    H2 5249   3.698   1.365  10.015  0.8385  0.4277  1.5373
  350MPD2    H3 5250   3.667   1.584  10.097 -1.9626  1.6231 -2.1270
  350MPD2     N 5251   3.290   1.447  10.333  0.2622  0.5819  0.1670
  350MPD2    H5 5252   3.248   1.359  10.360  0.3157 -0.0963 -1.9218
  350MPD2    N1 5253   3.542   1.145  10.073  0.5731 -0.1926 -0.0126
  350MPD2    H7 5254   3.478   1.075  10.110 -1.2710  0.9391 -1.0604
  351TMC3    C1 5255   3.610   0.965   9.957  0.4621 -0.7452 -0.2604
  351TMC3    C2 5256   3.686   0.871  10.026  0.1872 -0.3558  0.3207
  351TMC3    C3 5257   3.637   0.742  10.036 -0.3199  0.0250  0.3111
  351TMC3    C4 5258   3.480   0.938   9.930 -0.3128  0.0069 -0.2725
  351TMC3    C5 5259   3.432   0.815   9.965 -0.0665  0.2559  0.1709
  351TMC3    C6 5260   3.508   0.712  10.007  0.2601  0.4027 -0.2170
  351TMC3     C 5261   3.636   1.097   9.984  0.5640  0.2576 -0.9534
  351TMC3     O 5262   3.744   1.137   9.937 -0.0550 -0.1455  0.1327
  351TMC3     H 5263   3.789   0.899  10.046 -0.0034 -1.6636  3.1116
  351TMC3    H1 5264   3.428   1.017   9.877  1.4085  1.4223  0.1639
  351TMC3    H2 5265   3.464   0.617  10.033  1.8918 -0.0114  1.0183
  351TMC3    C7 5266   3.298   0.776   9.916 -0.1783 -0.2796 -0.6567
  351TMC3    C8 5267   3.721   0.616  10.041  1.2464 -0.2194  0.1312
  351TMC3    O1 5268   3.221   0.872   9.909  0.0844  0.3889  0.5283
  351TMC3    O2 5269   3.662   0.521   9.992  0.6092  0.2483 -0.1313
  352MPD2     C 5270   1.104   3.583   1.121  0.5764 -0.4653 -0.0042
  352MPD2    C1 5271   0.985   3.527   1.105  0.4301  0.2379 -0.2074
  352MPD2    C2 5272   0.938   3.434   1.200 -0.2444 -0.2309 -0.0346
  352MPD2    C3 5273   1.021   3.415   1.314  0.5039 -0.0642  0.9672
  352MPD2    C4 5274   1.149   3.473   1.328  0.9036 -0.7006 -0.3245
  352MPD2    C5 5275   1.181   3.567   1.232 -0.3093  1.3721 -0.0058
  352MPD2     H 5276   0.841   3.388   1.188 -0.7650  0.7252  0.5903
  352MPD2    H1 5277   1.218   3.457   1.410  0.3406  0.1038  0.3082
  352MPD2    H2 5278   1.145   3.649   1.046 -1.6842  2.0554  0.9928
  352MPD2    H3 5279   1.263   3.637   1.234  0.0824  0.9299 -0.3427
  352MPD2     N 5280   0.986   3.323   1.415 -0.0337 -0.7411  0.0102
  352MPD2    H5 5281   1.040   3.334   1.500  0.5997  0.0806 -0.4915
  352MPD2    N1 5282   0.908   3.570   0.993 -0.8412  0.2552 -1.1650
  352MPD2    H7 5283   0.959   3.631   0.929 -0.0201  1.7878  0.9443
  353TMC3    C1 5284   0.889   3.131   1.506 -0.1073 -0.2806  0.5106
  353TMC3    C2 5285   1.000   3.102   1.579  0.3567  0.0647  0.0440
  353TMC3    C3 5286   1.012   2.980   1.631 -0.0967  0.2774 -0.3791
  353TMC3    C4 5287   0.787   3.038   1.496  0.7350  0.4734  0.2506
  353TMC3    C5 5288   0.801   2.918   1.559  0.1741  0.3249 -0.4752
  353TMC3    C6 5289   0.916   2.884   1.627 -0.6611  0.3989  0.1898
  353TMC3     C 5290   0.889   3.232   1.403  0.2671  0.1922  0.0185
  353TMC3     O 5291   0.839   3.197   1.301  0.0850 -0.0484 -0.4268
  353TMC3     H 5292   1.089   3.163   1.584 -0.4795  1.3947 -1.0748
  353TMC3    H1 5293   0.696   3.063   1.443  0.4438 -0.8219  0.1343
  353TMC3    H2 5294   0.933   2.789   1.675  0.9981  0.2949 -0.6083
  353TMC3    C7 5295   0.695   2.826   1.543  0.6958  0.6025  0.2422
  353TMC3    C8 5296   1.142   2.928   1.653 -0.6476 -0.6844  0.2297
  353TMC3    O1 5297   0.665   2.820   1.423  0.0065 -0.3109  0.0702
  353TMC3    O2 5298   1.210   2.968   1.746 -0.2321 -0.4571  0.6754
  354TMC3    C1 5299   3.142   4.122  13.255  0.0231 -0.3509  0.0050
  354TMC3    C2 5300   3.028   4.120  13.187 -0.1300 -0.7626  0.0934
  354TMC3    C3 5301   3.035   4.190  13.065  0.2288  0.1394  0.2695
  354TMC3    C4 5302   3.264   4.158  13.206 -0.1879  0.7913 -0.3721
  354TMC3    C5 5303   3.270   4.220  13.085  0.5760 -0.8714  0.7702
  354TMC3    C6 5304   3.152   4.248  13.018  0.0535  0.6728 -0.1886
  354TMC3     C 5305   3.143   4.055  13.391 -0.1130 -0.1682  0.4361
  354TMC3     O 5306   3.253   4.031  13.442  0.0885  0.3262  0.2130
  354TMC3     H 5307   2.937   4.068  13.216  1.0033 -3.4246 -1.0968
  354TMC3    H1 5308   3.356   4.159  13.264 -0.8149 -3.4712  0.6874
  354TMC3    H2 5309   3.152   4.291  12.919  0.3370  0.9401 -0.0768
  354TMC3    C7 5310   3.391   4.204  13.009  0.1676  0.0434  0.0559
  354TMC3    C8 5311   2.903   4.243  13.017 -0.2366 -0.1581 -0.1114
  354TMC3    O1 5312   3.473   4.122  13.051  0.1436 -0.1096  0.5671
  354TMC3    O2 5313   2.810   4.167  13.010 -0.1431 -0.4087  0.6597
  355MPD2     C 5314   3.748   0.552  11.905  0.2129  0.4139 -0.4323
  355MPD2    C1 5315   3.778   0.650  11.811 -0.0931 -0.9398 -0.6339
  355MPD2    C2 5316   3.889   0.636  11.726 -0.2833 -0.3960 -0.5062
  355MPD2    C3 5317   3.981   0.528  11.740 -0.2946  0.1935  0.7535
  355MPD2    C4 5318   3.953   0.440  11.842 -0.4083  0.6515  0.2267
  355MPD2    C5 5319   3.835   0.449  11.916 -0.3951 -0.3804  0.1242
  355MPD2     H 5320   3.904   0.715  11.653 -1.2711  0.0917 -0.1859
  355MPD2    H1 5321   4.014   0.353  11.861  0.1478  1.4808  2.2063
  355MPD2    H2 5322   3.668   0.571  11.976  0.4460 -1.4685  0.3122
  355MPD2    H3 5323   3.823   0.375  11.995 -0.7671 -1.7039 -1.1672
  355MPD2     N 5324   4.099   0.507  11.667 -0.0458 -0.1357 -0.0426
  355MPD2    H5 5325   4.163   0.433  11.694 -1.0067 -1.8410 -2.4090
  355MPD2    N1 5326   3.696   0.764  11.791  0.2840  0.1467 -0.0196
  355MPD2    H7 5327   3.719   0.819  11.709 -0.2797  0.8640  0.3133
  356TMC3    C1 5328   4.274   0.603  11.538 -0.2053  0.0261  0.2356
  356TMC3    C2 5329   4.301   0.633  11.409  0.3407 -0.7257  0.0749
  356TMC3    C3 5330   4.382   0.740  11.376  0.2258  0.5187  0.1226
  356TMC3    C4 5331   4.333   0.677  11.637 -0.2341 -0.7736  0.1461
  356TMC3    C5 5332   4.398   0.786  11.604  0.2529  0.6422  0.0950
  356TMC3    C6 5333   4.428   0.824  11.473  0.0986 -0.0580  0.1786
  356TMC3     C 5334   4.134   0.584  11.558 -0.3798 -0.3404 -0.2777
  356TMC3     O 5335   4.070   0.671  11.499 -0.2222  0.9053  0.3055
  356TMC3     H 5336   4.257   0.568  11.333 -0.3872  0.3136 -0.3963
  356TMC3    H1 5337   4.289   0.661  11.735  0.3214  0.1205  0.5361
  356TMC3    H2 5338   4.503   0.901  11.461 -0.5342  0.5058 -0.1736
  356TMC3    C7 5339   4.436   0.873  11.716 -0.7232 -0.3068 -0.4061
  356TMC3    C8 5340   4.395   0.773  11.236  0.1631 -0.5819 -0.4915
  356TMC3    O1 5341   4.437   0.804  11.815 -0.7147  0.2284  0.5025
  356TMC3    O2 5342   4.327   0.707  11.155  0.3173  0.0399  0.5979
  357MPD2     C 5343   3.206   0.020   1.740 -0.2252 -0.7423  0.1163
  357MPD2    C1 5344   3.179   4.625   1.673 -0.1881  0.2709 -0.7722
  357MPD2    C2 5345   3.050   4.606   1.629 -0.3044  0.0766  0.4848
  357MPD2    C3 5346   2.943   4.698   1.655  0.3248 -0.3147  0.4174
  357MPD2    C4 5347   2.981   0.089   1.722 -0.1927 -0.5797 -0.3714
  357MPD2    C5 5348   3.105   0.102   1.775 -0.0420 -0.6317  0.5102
  357MPD2     H 5349   3.027   4.512   1.582 -1.3934 -0.8243  2.8268
  357MPD2    H1 5350   2.914   0.167   1.756  0.2371 -0.5729  0.4414
  357MPD2    H2 5351   3.307   0.038   1.776 -0.1414  1.5875 -1.2819
  357MPD2    H3 5352   3.124   0.189   1.836 -3.2940  0.0428  0.5475
  357MPD2     N 5353   2.805   4.667   1.618  0.3210  0.7975  0.0261
  357MPD2    H5 5354   2.740   0.024   1.622 -2.5120 -1.6289  0.7673
  357MPD2    N1 5355   3.290   4.548   1.644  0.2660 -0.1991 -0.1040
  357MPD2    H7 5356   3.380   4.581   1.678  0.0990  0.1223  0.0208
  358TMC3    C1 5357   3.403   4.362   1.534 -0.7767 -0.1660  0.1987
  358TMC3    C2 5358   3.392   4.273   1.429 -0.1367  0.1601 -0.1893
  358TMC3    C3 5359   3.501   4.216   1.378 -0.2701 -0.2434  0.2686
  358TMC3    C4 5360   3.519   4.398   1.590 -0.2833 -1.3701 -0.6010
  358TMC3    C5 5361   3.633   4.336   1.537 -0.4779 -0.5680 -0.0122
  358TMC3    C6 5362   3.621   4.238   1.445 -0.1469  0.1194  0.7101
  358TMC3     C 5363   3.279   4.436   1.564 -0.8890 -0.3961 -0.0498
  358TMC3     O 5364   3.179   4.382   1.526 -0.0392 -0.3418 -0.3124
  358TMC3     H 5365   3.299   4.258   1.375  0.7883 -1.8300 -1.2542
  358TMC3    H1 5366   3.518   4.460   1.679 -1.7065  0.0631 -1.6070
  358TMC3    H2 5367   3.704   4.181   1.405  0.1656  1.7901 -1.0056
  358TMC3    C7 5368   3.766   4.365   1.582  0.4695 -0.6779  0.6082
  358TMC3    C8 5369   3.483   4.134   1.255  0.4607  0.2613 -0.2424
  358TMC3    O1 5370   3.852   4.299   1.525  1.4309  1.2303 -0.1679
  358TMC3    O2 5371   3.580   4.117   1.185 -0.8678  0.3970  0.8648
  359MPD2     C 5372   4.015   3.807  12.250  1.0151  0.6208 -0.9243
  359MPD2    C1 5373   3.933   3.867  12.157 -0.4189  0.1379 -0.2062
  359MPD2    C2 5374   3.796   3.852  12.169  0.1222  0.1205  0.1008
  359MPD2    C3 5375   3.736   3.765  12.261 -0.5406  0.0146  0.5235
  359MPD2    C4 5376   3.820   3.704  12.353  0.2819  0.2577  0.4451
  359MPD2    C5 5377   3.957   3.730  12.353  0.5971 -0.0535 -0.3743
  359MPD2     H 5378   3.737   3.905  12.094  1.9201 -1.2654 -2.2877
  359MPD2    H1 5379   3.781   3.629  12.421 -0.2505  1.5301  1.5442
  359MPD2    H2 5380   4.121   3.827  12.265  1.6209 -2.4908 -1.0316
  359MPD2    H3 5381   4.022   3.673  12.418 -0.0589  1.1630  1.3460
  359MPD2     N 5382   3.601   3.743  12.276  0.2415  0.5711  0.1418
  359MPD2    H5 5383   3.570   3.690  12.357 -0.4844 -0.9977 -1.1494
  359MPD2    N1 5384   3.988   3.951  12.059  0.5380  0.3353 -0.6950
  359MPD2    H7 5385   3.930   4.003  11.994 -0.0734  0.2603 -0.2097
  360TMC3    C1 5386   4.158   4.073  11.940 -0.3171 -0.3453 -0.3908
  360TMC3    C2 5387   4.260   4.160  11.964  0.6988 -0.2131 -0.0587
  360TMC3    C3 5388   4.281   4.260  11.871 -0.7390  0.4485  0.7297
  360TMC3    C4 5389   4.085   4.075  11.829  0.3547  0.1286  0.2432
  360TMC3    C5 5390   4.111   4.172  11.737  0.6367 -0.2030 -0.1877
  360TMC3    C6 5391   4.201   4.271  11.762  0.5638  0.1265 -0.3252
  360TMC3     C 5392   4.122   3.975  12.043  0.2592 -0.5738  0.4455
  360TMC3     O 5393   4.212   3.901  12.081  0.5585 -0.3493 -0.0778
  360TMC3     H 5394   4.307   4.180  12.060  0.9305  0.3727 -0.2947
  360TMC3    H1 5395   4.022   3.988  11.810 -0.1768  0.7398 -0.7850
  360TMC3    H2 5396   4.216   4.352  11.691  0.6272  1.0204  0.6953
  360TMC3    C7 5397   4.018   4.188  11.630  0.2632  0.5257  0.0569
  360TMC3    C8 5398   4.403   4.337  11.883  0.7249  0.5671 -0.0154
  360TMC3    O1 5399   4.061   4.244  11.529  0.3231  0.0089  0.0806
  360TMC3    O2 5400   4.496   4.274  11.934  0.3523 -0.4019 -0.7895
  361MPD2     C 5401   0.158   2.279  16.875 -0.6961  0.0326  0.3322
  361MPD2    C1 5402   0.230   2.370  16.961 -0.1342 -0.2525  0.0309
  361MPD2    C2 5403   0.355   2.345  16.995  0.1745 -0.4430  0.1779
  361MPD2    C3 5404   0.421   2.236  16.941 -0.5684 -0.1411  0.5915
  361MPD2    C4 5405   0.353   2.152  16.856  0.2256 -0.2344  0.7235
  361MPD2    C5 5406   0.225   2.180  16.821  0.0244  0.4536 -0.5173
  361MPD2     H 5407   0.402   2.400  17.076 -0.9603  3.5443 -1.8607
  361MPD2    H1 5408   0.393   2.066  16.805 -0.1001 -0.1897  0.3941
  361MPD2    H2 5409   0.052   2.285  16.852 -0.9492  1.0805  1.7897
  361MPD2    H3 5410   0.171   2.096  16.779  0.0444  0.7484 -1.1405
  361MPD2     N 5411   0.555   2.199  16.959  0.0778 -0.6971  0.0983
  361MPD2    H5 5412   0.583   2.108  16.925 -0.5211 -0.1447 -1.8674
  361MPD2    N1 5413   0.173   2.488  17.012  0.4467  0.1034  0.2422
  361MPD2    H7 5414   0.226   2.566  17.049  0.7126  0.3594 -0.6651
  362TMC3    C1 5415   0.007   2.651  17.053 -0.6545  0.6096 -0.2639
  362TMC3    C2 5416   4.604   2.665  17.109  0.0587 -0.0836 -0.0902
  362TMC3    C3 5417   4.528   2.769  17.061  0.9267  0.1166  0.0583
  362TMC3    C4 5418   0.052   2.740  16.956  0.3019 -0.3083 -0.0116
  362TMC3    C5 5419   4.692   2.847  16.919 -0.4869 -0.6080 -0.3418
  362TMC3    C6 5420   4.563   2.864  16.966  0.4799  0.1430  0.3355
  362TMC3     C 5421   0.037   2.512  17.017 -0.5340  0.3693 -0.3865
  362TMC3     O 5422   4.660   2.437  16.984  0.2062 -0.4184  0.1069
  362TMC3     H 5423   4.561   2.589  17.172 -0.0242 -0.8671 -1.0954
  362TMC3    H1 5424   0.140   2.703  16.905 -0.9071 -2.3674 -0.6102
  362TMC3    H2 5425   4.492   2.929  16.916  0.8620  0.9098  0.7868
  362TMC3    C7 5426   0.008   2.939  16.820  0.3266 -0.5924 -0.4156
  362TMC3    C8 5427   4.384   2.740  17.081  0.1554  0.5071 -0.0829
  362TMC3    O1 5428   4.663   3.041  16.810 -0.2513 -0.0928 -0.2621
  362TMC3    O2 5429   4.341   2.626  17.103 -0.2162 -0.4124 -0.7253
  363TMC3    C1 5430   4.176   0.967   9.213 -0.7837  0.3757 -0.8299
  363TMC3    C2 5431   4.255   0.862   9.259 -0.1071 -0.5815  0.9834
  363TMC3    C3 5432   4.194   0.744   9.288  0.0655 -0.2963  0.6214
  363TMC3    C4 5433   4.040   0.948   9.208 -0.0959  0.2135 -0.3308
  363TMC3    C5 5434   3.980   0.833   9.253 -0.2123  0.9177  0.0114
  363TMC3    C6 5435   4.057   0.729   9.297  0.0470  0.1637 -0.1730
  363TMC3     C 5436   4.217   1.109   9.200  0.1236 -0.0451 -0.3088
  363TMC3     O 5437   4.126   1.191   9.191  0.3597  0.5194  0.3358
  363TMC3     H 5438   4.364   0.864   9.258 -0.1342 -0.1746 -0.7478
  363TMC3    H1 5439   3.981   1.029   9.167  0.5322 -0.2251 -2.1443
  363TMC3    H2 5440   4.007   0.638   9.331  1.9489 -0.2571  1.4768
  363TMC3    C7 5441   3.835   0.827   9.253  0.9561 -0.7964  0.2238
  363TMC3    C8 5442   4.275   0.671   9.389  0.9297 -0.1226  0.1703
  363TMC3    O1 5443   3.778   0.721   9.239 -0.2958 -0.5293  0.4891
  363TMC3    O2 5444   4.382   0.715   9.430 -0.4060 -0.4146 -0.2752
  364MPD2     C 5445   2.275   0.134  10.214 -0.6635 -0.3010  0.0079
  364MPD2    C1 5446   2.398   0.081  10.201  0.2248 -0.0048 -0.7556
  364MPD2    C2 5447   2.440   4.698  10.279 -0.1902 -0.3742 -0.7440
  364MPD2    C3 5448   2.348   4.630  10.364 -0.3587 -0.0411 -0.2170
  364MPD2    C4 5449   2.218   4.680  10.368  0.0727 -1.0542  1.0213
  364MPD2    C5 5450   2.184   0.074  10.293 -0.8087 -0.0312  0.4525
  364MPD2     H 5451   2.542   4.661  10.279 -0.3290 -0.7551  0.1715
  364MPD2    H1 5452   2.140   4.649  10.437 -1.3577  1.8737  0.7101
  364MPD2    H2 5453   2.251   0.227  10.164  0.4238  0.2948  0.5882
  364MPD2    H3 5454   2.086   0.117  10.313  0.0697  2.4510 -0.5972
  364MPD2     N 5455   2.390   4.537  10.463 -0.0847  0.3416  0.1797
  364MPD2    H5 5456   2.329   4.522  10.542 -0.3229  1.2780  0.1724
  364MPD2    N1 5457   2.483   0.166  10.121  0.1978  0.5470 -0.6111
  364MPD2    H7 5458   2.440   0.256  10.098  0.2331  0.9664  0.9432
  365TMC3    C1 5459   2.706   0.246  10.078  0.3879  0.1489  0.0167
  365TMC3    C2 5460   2.826   0.203  10.037 -0.6717 -0.2973  0.5710
  365TMC3    C3 5461   2.931   0.276  10.055  0.1125 -0.1031  1.3992
  365TMC3    C4 5462   2.699   0.350  10.159 -0.3410 -0.2941 -0.2416
  365TMC3    C5 5463   2.812   0.429  10.180  0.4427  0.3971 -0.2374
  365TMC3    C6 5464   2.927   0.394  10.121 -0.6011  0.1558 -0.5168
  365TMC3     C 5465   2.608   0.131  10.100 -0.3810 -0.1098 -0.3249
  365TMC3     O 5466   2.649   0.016  10.099  0.0463 -0.2272 -0.4352
  365TMC3     H 5467   2.829   0.120   9.967 -0.0882  0.1182  0.0998
  365TMC3    H1 5468   2.603   0.373  10.203  0.6018 -2.0919  2.7536
  365TMC3    H2 5469   3.019   0.447  10.146 -1.1875  0.7784  0.3391
  365TMC3    C7 5470   2.818   0.550  10.262 -0.4312  0.5354  0.4643
  365TMC3    C8 5471   3.063   0.221  10.017  0.3359  0.6442 -0.7922
  365TMC3    O1 5472   2.912   0.628  10.241  0.0791 -0.3231 -0.3768
  365TMC3    O2 5473   3.151   0.299   9.997  0.4364  0.0545  0.8681
  366MPD2     C 5474   1.022   0.688  15.433 -0.3321  0.2426 -0.0545
  366MPD2    C1 5475   1.030   0.799  15.355  0.4676  0.1487 -0.5456
  366MPD2    C2 5476   1.135   0.806  15.266  0.5303 -0.2562 -0.2144
  366MPD2    C3 5477   1.231   0.715  15.266 -0.3127  0.4711 -0.0735
  366MPD2    C4 5478   1.218   0.603  15.345 -0.5279 -0.0453  0.1572
  366MPD2    C5 5479   1.118   0.592  15.436  0.3976 -0.2042  0.1186
  366MPD2     H 5480   1.147   0.896  15.207 -2.0325 -0.4092 -1.0010
  366MPD2    H1 5481   1.293   0.526  15.344  0.9035  1.3714 -1.1180
  366MPD2    H2 5482   0.954   0.668  15.516 -0.0797  0.5080  0.2170
  366MPD2    H3 5483   1.115   0.506  15.502 -0.5290  0.0798  0.4456
  366MPD2     N 5484   1.350   0.748  15.201 -0.4030  0.3466 -0.0449
  366MPD2    H5 5485   1.351   0.827  15.138 -1.8734 -0.7160 -1.4047
  366MPD2    N1 5486   0.954   0.917  15.363 -0.0493 -0.1456  0.2342
  366MPD2    H7 5487   0.981   0.995  15.305 -0.8493 -0.3837 -0.4502
  367TMC3    C1 5488   0.867   1.087  15.495 -0.2624  0.0979 -0.2373
  367TMC3    C2 5489   0.959   1.130  15.585 -0.3308 -0.3123 -0.3229
  367TMC3    C3 5490   1.002   1.264  15.573  0.2477  0.0331 -0.0985
  367TMC3    C4 5491   0.822   1.163  15.392  0.4742  0.1759  0.1961
  367TMC3    C5 5492   0.870   1.284  15.382 -0.2368  0.6451 -0.1801
  367TMC3    C6 5493   0.958   1.344  15.471 -0.6468  0.1819 -0.3706
  367TMC3     C 5494   0.875   0.948  15.471 -0.2136 -0.0867 -0.2882
  367TMC3     O 5495   0.851   0.880  15.569 -1.0218 -0.0574 -0.7948
  367TMC3     H 5496   1.005   1.064  15.658  2.9051  1.5263 -0.6639
  367TMC3    H1 5497   0.749   1.116  15.328  0.4609 -1.9851  1.7847
  367TMC3    H2 5498   0.994   1.442  15.442 -1.3005  0.1903 -1.1917
  367TMC3    C7 5499   0.795   1.372  15.299  1.0105 -1.0600 -0.3002
  367TMC3    C8 5500   1.135   1.287  15.622 -0.5208  0.3128  0.2562
  367TMC3    O1 5501   0.769   1.487  15.327 -0.3447  0.1406 -0.4804
  367TMC3    O2 5502   1.200   1.191  15.659 -0.0686  0.2787 -0.0560
  368MPD2     C 5503   2.007   3.340  13.270  0.5198 -1.4084  0.0049
  368MPD2    C1 5504   1.969   3.436  13.179  0.4040 -0.4137 -0.4156
  368MPD2    C2 5505   2.047   3.447  13.068 -0.0203  0.0079 -0.2771
  368MPD2    C3 5506   2.164   3.373  13.040 -0.3518 -0.2112 -0.3284
  368MPD2    C4 5507   2.207   3.290  13.136 -0.5444 -0.7688 -0.5326
  368MPD2    C5 5508   2.130   3.280  13.252  0.2768  0.6968 -0.2140
  368MPD2     H 5509   2.026   3.522  12.992  1.1084  0.7328  0.1204
  368MPD2    H1 5510   2.298   3.232  13.128  0.5031  0.7573  0.3354
  368MPD2    H2 5511   1.950   3.309  13.357  2.0873 -2.2492  0.7293
  368MPD2    H3 5512   2.160   3.190  13.305 -0.2745  1.2989  1.1072
  368MPD2     N 5513   2.250   3.399  12.934  0.1417  0.2209  0.1818
  368MPD2    H5 5514   2.334   3.343  12.938 -1.7678 -2.6391  0.0266
  368MPD2    N1 5515   1.842   3.494  13.203  0.5584 -0.3870  0.1809
  368MPD2    H7 5516   1.790   3.462  13.284 -0.6055  1.5633  0.2131
  369TMC3    C1 5517   1.637   3.615  13.140 -0.0859  0.0260 -0.2434
  369TMC3    C2 5518   1.581   3.703  13.055  0.8242 -0.1046  0.0159
  369TMC3    C3 5519   1.450   3.691  13.028  0.3241 -0.4681 -0.5272
  369TMC3    C4 5520   1.558   3.519  13.208 -0.5390 -0.3350 -0.1814
  369TMC3    C5 5521   1.437   3.499  13.158  0.2462 -0.4464 -0.9669
  369TMC3    C6 5522   1.381   3.585  13.072 -0.7114  0.3941  0.5745
  369TMC3     C 5523   1.782   3.594  13.124  0.6273  0.2116  0.7307
  369TMC3     O 5524   1.821   3.650  13.022  0.2825  0.5442  0.1294
  369TMC3     H 5525   1.639   3.786  13.015  2.8952 -0.6912  1.8554
  369TMC3    H1 5526   1.594   3.468  13.297 -0.9287  2.6419  1.6625
  369TMC3    H2 5527   1.281   3.583  13.029  0.8939 -0.2748 -3.1411
  369TMC3    C7 5528   1.375   3.370  13.179 -0.0850 -0.7250 -0.2507
  369TMC3    C8 5529   1.422   3.731  12.888  0.2096  0.4769  0.4500
  369TMC3    O1 5530   1.403   3.300  13.274 -0.0471  0.1620 -0.2881
  369TMC3    O2 5531   1.309   3.765  12.864 -0.0165 -0.0985  0.0525
  370TMC3    C1 5532   1.398   3.404  16.113 -0.7504  0.6256  0.1366
  370TMC3    C2 5533   1.395   3.306  16.207  0.1918  0.5703  0.0467
  370TMC3    C3 5534   1.376   3.182  16.157  0.3643 -1.2200  0.3297
  370TMC3    C4 5535   1.361   3.389  15.981 -0.1141 -0.1153  0.1503
  370TMC3    C5 5536   1.335   3.256  15.941  0.1086 -0.4473 -0.1362
  370TMC3    C6 5537   1.336   3.156  16.029  0.2663  0.5577  0.6804
  370TMC3     C 5538   1.470   3.524  16.157 -0.0636  0.0300  0.3597
  370TMC3     O 5539   1.502   3.527  16.276  0.4407  0.2970 -0.3327
  370TMC3     H 5540   1.443   3.322  16.302  1.7736 -1.3038 -0.4359
  370TMC3    H1 5541   1.346   3.460  15.900 -0.7389 -0.6335 -0.1892
  370TMC3    H2 5542   1.314   3.052  16.006  2.4800  0.0235  0.9016
  370TMC3    C7 5543   1.365   3.227  15.801  0.0535  0.0817 -0.3002
  370TMC3    C8 5544   1.366   3.063  16.248  0.6199 -0.5121 -0.2476
  370TMC3    O1 5545   1.384   3.320  15.727  0.8271 -0.2467 -0.0179
  370TMC3    O2 5546   1.361   2.950  16.202  0.0301 -0.2304  0.2010
  371TMC3    C1 5547   2.911   1.817  15.355 -0.5263  0.2037  0.4051
  371TMC3    C2 5548   2.811   1.810  15.449  0.3259 -0.5691  0.0651
  371TMC3    C3 5549   2.728   1.917  15.467 -0.1894 -0.2336 -0.2461
  371TMC3    C4 5550   2.923   1.920  15.273  0.5612  0.2911  0.7672
  371TMC3    C5 5551   2.840   2.029  15.297  0.1612  0.1085 -0.4784
  371TMC3    C6 5552   2.740   2.030  15.392  0.0848 -0.6432 -0.0815
  371TMC3     C 5553   3.010   1.712  15.361  0.0929  0.1747  0.3789
  371TMC3     O 5554   3.095   1.719  15.278  0.3101  0.2502 -0.4801
  371TMC3     H 5555   2.792   1.720  15.506 -0.3923 -0.1714  0.4605
  371TMC3    H1 5556   3.013   1.934  15.215 -0.2844  1.3774 -0.2847
  371TMC3    H2 5557   2.680   2.118  15.410 -1.6411 -1.4202 -2.0191
  371TMC3    C7 5558   2.846   2.153  15.208 -0.5312  0.0800  0.1976
  371TMC3    C8 5559   2.617   1.904  15.570  0.6244 -0.5107 -0.1854
  371TMC3    O1 5560   2.811   2.259  15.252  0.0519 -0.1478 -0.6022
  371TMC3    O2 5561   2.624   1.803  15.639  0.5137 -0.0997  0.1001
  372MPD2     C 5562   2.536   3.342  13.483  0.1195  0.3076  0.4277
  372MPD2    C1 5563   2.562   3.207  13.507 -0.4301 -0.3911 -0.1124
  372MPD2    C2 5564   2.451   3.122  13.529  0.4206  0.0292  0.2128
  372MPD2    C3 5565   2.324   3.165  13.547 -0.4447 -0.2792  0.1987
  372MPD2    C4 5566   2.296   3.299  13.523  0.4941 -0.1704  0.0201
  372MPD2    C5 5567   2.402   3.382  13.484 -0.3589 -0.8731  0.0513
  372MPD2     H 5568   2.467   3.015  13.534 -1.3549 -0.2594 -0.1670
  372MPD2    H1 5569   2.198   3.345  13.526  0.2992 -0.6779  1.3272
  372MPD2    H2 5570   2.605   3.422  13.457  2.1376 -2.1554 -1.7318
  372MPD2    H3 5571   2.380   3.485  13.458  0.5802 -1.3668 -2.6958
  372MPD2     N 5572   2.230   3.070  13.588  0.8609  0.2023  0.0196
  372MPD2    H5 5573   2.260   2.973  13.577  0.4108 -0.1716  1.9875
  372MPD2    N1 5574   2.698   3.168  13.507 -0.2645 -0.4072  0.4311
  372MPD2    H7 5575   2.729   3.087  13.559  0.2110  0.2387  1.1517
  373TMC3    C1 5576   2.029   2.964  13.652  0.6181 -0.3669  0.3561
  373TMC3    C2 5577   1.958   2.946  13.766  0.2523  0.2500  0.4966
  373TMC3    C3 5578   1.897   2.822  13.793 -0.4562  0.2235  0.5277
  373TMC3    C4 5579   2.050   2.858  13.573  0.1513 -0.1818  0.4943
  373TMC3    C5 5580   2.001   2.733  13.602 -0.5783 -0.2835  0.2878
  373TMC3    C6 5581   1.937   2.715  13.723 -0.6399 -0.1941 -0.2432
  373TMC3     C 5582   2.104   3.090  13.639  0.2457  0.2676  0.0403
  373TMC3     O 5583   2.069   3.192  13.695 -0.1189  0.3463  0.3240
  373TMC3     H 5584   1.949   3.032  13.830  0.2216 -0.4550  1.4421
  373TMC3    H1 5585   2.103   2.871  13.479 -1.3891 -0.9161 -0.4827
  373TMC3    H2 5586   1.894   2.620  13.752  2.1639 -1.4632 -0.3133
  373TMC3    C7 5587   2.063   2.619  13.536 -0.2421  0.6445  0.0567
  373TMC3    C8 5588   1.894   2.788  13.930 -0.1605 -0.0045  0.1139
  373TMC3    O1 5589   2.172   2.655  13.496  0.4121  0.0296  0.9805
  373TMC3    O2 5590   1.808   2.833  13.999  0.0989 -0.3751  0.3470
  374TMC3    C1 5591   3.421   3.113   9.676 -0.1891  0.6892 -0.4927
  374TMC3    C2 5592   3.454   3.246   9.699  0.7708 -0.2102  0.2201
  374TMC3    C3 5593   3.490   3.324   9.594 -0.4285 -0.3642 -0.1439
  374TMC3    C4 5594   3.424   3.067   9.549 -0.7131  0.1197  0.1323
  374TMC3    C5 5595   3.453   3.150   9.446  0.4803  0.8321  0.4089
  374TMC3    C6 5596   3.478   3.283   9.463 -0.2070  0.0518  0.1315
  374TMC3     C 5597   3.371   3.033   9.793  0.5181 -0.3594  0.1839
  374TMC3     O 5598   3.366   3.095   9.899  0.5156 -0.6744 -0.5186
  374TMC3     H 5599   3.460   3.281   9.801  2.3467 -1.6952  0.6353
  374TMC3    H1 5600   3.403   2.962   9.533  4.6516 -1.1662  1.2967
  374TMC3    H2 5601   3.515   3.347   9.384  0.6823 -0.5009  0.1012
  374TMC3    C7 5602   3.410   3.098   9.310  0.0713  0.6023 -0.2345
  374TMC3    C8 5603   3.525   3.467   9.615 -0.0510 -0.1053 -0.3023
  374TMC3    O1 5604   3.381   2.979   9.303 -0.2303  0.0757 -0.3552
  374TMC3    O2 5605   3.516   3.542   9.521  0.2396  0.6694 -0.2811
  375MPD2     C 5606   2.846   3.784  16.929 -0.9350  0.2925 -0.0329
  375MPD2    C1 5607   2.780   3.795  16.809  0.9340  0.5927 -1.2975
  375MPD2    C2 5608   2.838   3.733  16.700  0.4561 -0.1282 -0.0427
  375MPD2    C3 5609   2.963   3.671  16.700  0.6232  0.7270  0.0877
  375MPD2    C4 5610   3.030   3.676  16.815 -0.4824 -0.0970 -0.1187
  375MPD2    C5 5611   2.972   3.736  16.925 -0.3824 -0.1459  0.0690
  375MPD2     H 5612   2.776   3.714  16.613  2.2165  1.0130 -1.5301
  375MPD2    H1 5613   3.131   3.638  16.823  0.0496  1.4651  0.7082
  375MPD2    H2 5614   2.803   3.822  17.021 -1.1497 -0.3202  0.1228
  375MPD2    H3 5615   3.031   3.728  17.015 -1.2290 -1.7832  0.4848
  375MPD2     N 5616   3.042   3.630  16.587 -0.3842  0.4930  0.4491
  375MPD2    H5 5617   3.129   3.580  16.604 -0.3679  0.4294  0.1764
  375MPD2    N1 5618   2.654   3.865  16.790  0.2110 -0.1297  0.8352
  375MPD2    H7 5619   2.610   3.862  16.699 -0.7145  1.3230  1.2451
  376TMC3    C1 5620   3.063   3.537  16.370  0.0614  0.8649 -0.1508
  376TMC3    C2 5621   3.196   3.509  16.397  0.1796  0.0481  0.2983
  376TMC3    C3 5622   3.257   3.454  16.294  0.5590  0.4638 -0.0515
  376TMC3    C4 5623   3.002   3.509  16.254  0.1044  0.1048  0.5208
  376TMC3    C5 5624   3.066   3.444  16.152 -0.1492  0.5061 -0.1219
  376TMC3    C6 5625   3.206   3.419  16.172 -0.1120 -0.4025 -0.2216
  376TMC3     C 5626   2.989   3.620  16.463 -0.7729 -0.1196 -1.3922
  376TMC3     O 5627   2.885   3.676  16.420  0.7776 -0.1281  0.1441
  376TMC3     H 5628   3.250   3.556  16.478 -1.6432  2.0583  0.3534
  376TMC3    H1 5629   2.898   3.531  16.236  0.4160  1.4129  0.3523
  376TMC3    H2 5630   3.262   3.379  16.089 -0.6162 -0.2473 -0.6369
  376TMC3    C7 5631   3.042   3.509  16.025  0.0537 -0.0919  0.2593
  376TMC3    C8 5632   3.397   3.445  16.298 -0.2580 -0.6542  0.3965
  376TMC3    O1 5633   2.984   3.623  16.025 -0.7490 -0.3050 -0.1590
  376TMC3    O2 5634   3.455   3.462  16.187 -0.1241 -0.3319 -1.0275
  377MPD2     C 5635   0.639   3.406  12.282  0.1217 -0.0110  0.0035
  377MPD2    C1 5636   0.717   3.372  12.394 -0.4186  0.0786  0.0279
  377MPD2    C2 5637   0.665   3.286  12.491 -0.5912  0.3193 -0.5957
  377MPD2    C3 5638   0.538   3.239  12.478  0.0306  0.3440  1.4632
  377MPD2    C4 5639   0.463   3.281  12.371  0.1334  0.0813  0.7293
  377MPD2    C5 5640   0.514   3.362  12.269  1.1595  0.9857 -0.1265
  377MPD2     H 5641   0.733   3.248  12.566 -0.8127 -0.2224 -0.6678
  377MPD2    H1 5642   0.361   3.248  12.356  0.5643 -0.8998 -0.0706
  377MPD2    H2 5643   0.664   3.490  12.218  1.5254  0.0029  0.5619
  377MPD2    H3 5644   0.444   3.389  12.190  0.5873  3.1937  1.1263
  377MPD2     N 5645   0.471   3.159  12.574 -0.1148 -0.5255 -0.1881
  377MPD2    H5 5646   0.370   3.151  12.571 -0.1515 -0.0288 -0.3298
  377MPD2    N1 5647   0.843   3.429  12.406 -0.0540 -0.0778 -0.5477
  377MPD2    H7 5648   0.889   3.481  12.332 -0.1759  0.6135 -0.1379
  378TMC3    C1 5649   1.232   3.554  12.370 -0.2423  0.5790  0.1383
  378TMC3    C2 5650   1.098   3.540  12.389  0.6500 -0.3642 -0.3325
  378TMC3    C3 5651   1.049   3.506  12.512  0.3121  0.3843  1.0513
  378TMC3    C4 5652   1.319   3.537  12.470 -0.2021 -0.5867  0.6781
  378TMC3    C5 5653   1.264   3.502  12.594  0.2818 -0.0888 -0.3403
  378TMC3    C6 5654   1.127   3.494  12.617  0.3292  0.0570  0.2276
  378TMC3     C 5655   1.274   3.575  12.231 -0.3038 -0.0321  0.0432
  378TMC3     O 5656   1.189   3.620  12.157 -0.4811 -0.3816 -0.1234
  378TMC3     H 5657   1.029   3.554  12.306  1.6503  1.4447 -0.8477
  378TMC3    H1 5658   1.426   3.543  12.456 -0.2579 -2.3641 -0.4896
  378TMC3    H2 5659   1.090   3.453  12.710  1.1280 -1.6288 -0.2140
  378TMC3    C7 5660   1.340   3.438  12.701 -0.0658 -0.3913  0.3017
  378TMC3    C8 5661   0.924   3.428  12.520 -0.1338 -0.5424 -0.5175
  378TMC3    O1 5662   1.292   3.434  12.812 -0.6431 -0.0191  0.0480
  378TMC3    O2 5663   0.899   3.387  12.632  0.2317 -0.3649  0.5832
  379MPD2     C 5664   2.388   1.405  16.074 -0.6345 -0.6169 -0.6184
  379MPD2    C1 5665   2.278   1.327  16.058 -0.0989 -0.1921  0.5325
  379MPD2    C2 5666   2.245   1.231  16.158  0.4508  0.6204 -0.4495
  379MPD2    C3 5667   2.322   1.223  16.274  0.1305 -0.2196 -0.6778
  379MPD2    C4 5668   2.419   1.311  16.290  0.3731  0.1868 -0.8503
  379MPD2    C5 5669   2.453   1.402  16.194  0.1569 -0.1179 -0.6909
  379MPD2     H 5670   2.154   1.176  16.140  0.1937  0.6684  0.7520
  379MPD2    H1 5671   2.474   1.315  16.384 -0.8219  1.1423 -0.1954
  379MPD2    H2 5672   2.421   1.477  16.000 -0.8454  1.3890  1.1909
  379MPD2    H3 5673   2.533   1.475  16.205  0.9670 -1.0823 -0.1971
  379MPD2     N 5674   2.285   1.144  16.382  0.4691 -0.6130  0.2745
  379MPD2    H5 5675   2.331   1.159  16.471 -1.0829  4.3935  0.2574
  379MPD2    N1 5676   2.195   1.333  15.943  0.4082 -0.3341  0.7877
  379MPD2    H7 5677   2.107   1.282  15.941  0.7497 -0.8205 -1.5918
  380TMC3    C1 5678   2.102   1.378  15.736 -0.5269 -0.0194 -0.1678
  380TMC3    C2 5679   2.120   1.382  15.604 -0.4066  0.2096  0.3329
  380TMC3    C3 5680   2.011   1.367  15.519 -0.1129  0.2095 -0.8750
  380TMC3    C4 5681   1.974   1.374  15.789 -0.0635 -0.2570  0.1221
  380TMC3    C5 5682   1.871   1.373  15.707  0.1823 -0.9329 -0.8963
  380TMC3    C6 5683   1.885   1.364  15.572  0.2800 -0.1788  0.5785
  380TMC3     C 5684   2.214   1.402  15.824  0.7247  0.5368  0.4125
  380TMC3     O 5685   2.315   1.449  15.773  0.0507 -0.1886  0.2375
  380TMC3     H 5686   2.211   1.396  15.547 -1.2370  2.6741 -0.4423
  380TMC3    H1 5687   1.954   1.398  15.892 -0.3477  0.8652 -0.1875
  380TMC3    H2 5688   1.796   1.360  15.510  0.2906  1.0921  0.4731
  380TMC3    C7 5689   1.761   1.447  15.754  0.0588 -0.2440 -0.6514
  380TMC3    C8 5690   2.041   1.336  15.380 -0.3447  0.2014  0.0671
  380TMC3    O1 5691   1.794   1.538  15.824  0.7009  0.5774 -0.1198
  380TMC3    O2 5692   2.157   1.317  15.347  0.1287  0.5951 -0.3718
  381TMC3    C1 5693   1.583   2.444  15.944  0.5893 -0.1337  0.2762
  381TMC3    C2 5694   1.655   2.552  15.989 -0.4719  0.2916 -0.0160
  381TMC3    C3 5695   1.613   2.621  16.093 -0.4423 -0.1718 -0.6617
  381TMC3    C4 5696   1.473   2.396  16.012 -0.4046 -0.0119  0.0085
  381TMC3    C5 5697   1.438   2.465  16.117  0.5340 -0.3303 -0.0313
  381TMC3    C6 5698   1.497   2.582  16.159  0.1323 -0.1473  0.7037
  381TMC3     C 5699   1.654   2.358  15.850  0.8210 -0.1614 -0.0396
  381TMC3     O 5700   1.773   2.372  15.836 -0.4909 -0.1511  0.6302
  381TMC3     H 5701   1.742   2.584  15.933 -0.8867  0.2962 -0.6640
  381TMC3    H1 5702   1.418   2.307  15.982 -0.6904 -0.5049  1.9974
  381TMC3    H2 5703   1.444   2.641  16.233 -0.1472  0.9225 -0.3436
  381TMC3    C7 5704   1.356   2.392  16.219  0.6385  0.2525  0.0319
  381TMC3    C8 5705   1.648   2.761  16.092 -0.0499  0.5255  0.9554
  381TMC3    O1 5706   1.381   2.275  16.228 -0.1930  0.3855  0.2444
  381TMC3    O2 5707   1.694   2.803  15.989  0.0420  0.1724 -0.4479
  382MPD2     C 5708   0.974   4.666  17.301  0.3188  0.2662  0.3339
  382MPD2    C1 5709   0.957   0.001  17.427  0.5796  0.9206  0.4036
  382MPD2    C2 5710   0.829   0.002  17.474  0.3242  0.2947  0.2675
  382MPD2    C3 5711   0.720   4.665  17.399  0.0604  0.4551  0.7378
  382MPD2    C4 5712   0.745   4.602  17.278 -0.0831  0.1444  0.0225
  382MPD2    C5 5713   0.872   4.613  17.228  0.3868 -0.6135  0.1212
  382MPD2     H 5714   0.814   0.053  17.569 -2.5460 -0.0659  0.0289
  382MPD2    H1 5715   0.658   4.563  17.227  1.3683 -2.7294 -0.2595
  382MPD2    H2 5716   1.068   4.676  17.248 -0.0551  0.3467 -0.3139
  382MPD2    H3 5717   0.901   4.578  17.129  1.1374 -3.7294  1.4454
  382MPD2     N 5718   0.589   4.660  17.448 -0.3389 -0.2605  0.1966
  382MPD2    H5 5719   0.530   4.589  17.407  0.1265 -1.1321  1.0425
  382MPD2    N1 5720   1.055   0.071  17.502  0.2012 -0.2312 -0.7412
  382MPD2    H7 5721   1.028   0.113  17.590  0.4906 -0.4248 -0.5594
  383TMC3    C1 5722   0.404   0.007  17.576 -0.5185  0.0031  0.4517
  383TMC3    C2 5723   0.333   4.650  17.485  0.4104 -0.2906  0.3615
  383TMC3    C3 5724   0.212   4.600  17.529 -0.7611  0.9634 -0.3425
  383TMC3    C4 5725   0.356   0.044   0.009 -0.9703 -0.1013  0.4468
  383TMC3    C5 5726   0.226   0.002   0.039 -0.1380 -0.5519  1.1201
  383TMC3    C6 5727   0.161   4.633  17.655 -0.1840  0.3353 -0.2445
  383TMC3     C 5728   0.548   0.025  17.548  0.1823  0.2449 -0.5221
  383TMC3     O 5729   0.596   0.128  17.593 -0.2271 -0.1544 -0.2139
  383TMC3     H 5730   0.357   4.633  17.380 -0.0932 -0.0478  0.2078
  383TMC3    H1 5731   0.421   0.111   0.065 -0.6632 -2.0433  2.4262
  383TMC3    H2 5732   0.072   4.599   0.022  0.2762  2.6747  2.1287
  383TMC3    C7 5733   0.172   0.058   0.160  0.7729  0.0624 -0.5867
  383TMC3    C8 5734   0.153   4.487  17.456 -0.2676  0.1263 -0.2491
  383TMC3    O1 5735   0.082   4.715   0.210  0.2603 -0.0200  1.0118
  383TMC3    O2 5736   0.189   4.475  17.338 -0.3642  0.5164 -0.1641
  384MPD2     C 5737   2.189   1.736  11.621  0.4401 -0.9077 -0.7572
  384MPD2    C1 5738   2.265   1.716  11.728  0.5967 -0.2953 -0.1352
  384MPD2    C2 5739   2.371   1.630  11.713 -0.0425  0.5332 -0.1153
  384MPD2    C3 5740   2.413   1.579  11.593 -0.1529 -0.0360 -0.0881
  384MPD2    C4 5741   2.348   1.620  11.480  0.2025 -0.0577 -0.2654
  384MPD2    C5 5742   2.230   1.694  11.496  0.4281 -0.1806 -0.7142
  384MPD2     H 5743   2.420   1.594  11.802 -0.2601 -1.2864 -0.7255
  384MPD2    H1 5744   2.381   1.578  11.386  2.9271  2.3865 -0.4189
  384MPD2    H2 5745   2.098   1.795  11.623  0.3886 -0.9446 -1.8980
  384MPD2    H3 5746   2.164   1.724  11.415  1.6162 -0.1586 -1.6820
  384MPD2     N 5747   2.533   1.504  11.603 -0.2124 -0.1679  0.6114
  384MPD2    H5 5748   2.569   1.500  11.698 -0.4969  0.0612  0.7277
  384MPD2    N1 5749   2.216   1.754  11.853 -0.0598 -0.2091 -0.2526
  384MPD2    H7 5750   2.126   1.801  11.857 -0.0493 -0.2913  0.8177
  385TMC3    C1 5751   2.720   1.373  11.566 -0.0966  0.1512 -0.6573
  385TMC3    C2 5752   2.735   1.236  11.560  0.2554  0.1892  0.1914
  385TMC3    C3 5753   2.798   1.168  11.655 -0.4853  0.4810 -0.0094
  385TMC3    C4 5754   2.790   1.451  11.658  0.8651 -0.5459  0.2814
  385TMC3    C5 5755   2.836   1.374  11.763  0.1628 -0.1617 -0.2398
  385TMC3    C6 5756   2.847   1.236  11.761 -0.0277 -0.2559 -0.2548
  385TMC3     C 5757   2.604   1.435  11.510  0.4955 -0.0532  0.0720
  385TMC3     O 5758   2.567   1.400  11.397  0.0160 -0.2354 -0.0881
  385TMC3     H 5759   2.678   1.190  11.480  2.3302 -0.9891 -0.6182
  385TMC3    H1 5760   2.791   1.559  11.648  0.1208 -0.4446  1.2560
  385TMC3    H2 5761   2.890   1.181  11.844 -0.1389  0.9384  0.6050
  385TMC3    C7 5762   2.787   1.432  11.881 -0.3711 -0.3243 -0.1508
  385TMC3    C8 5763   2.776   1.026  11.669 -0.7176  0.3269  0.5911
  385TMC3    O1 5764   2.708   1.521  11.857  0.3188 -0.4591 -0.2977
  385TMC3    O2 5765   2.768   0.998  11.788  0.1552  0.2809 -0.4950
  386TMC3    C1 5766   2.097   3.851  11.788 -0.0692 -0.9478 -0.7696
  386TMC3    C2 5767   2.142   3.825  11.660 -0.0930  0.5966  0.3347
  386TMC3    C3 5768   2.059   3.870  11.561  0.4486  0.3051  0.0210
  386TMC3    C4 5769   1.973   3.909  11.818  0.1223  0.0030  0.1198
  386TMC3    C5 5770   1.897   3.956  11.717 -1.0356 -0.0875 -0.1179
  386TMC3    C6 5771   1.941   3.933  11.586 -0.6505  0.0467  0.0003
  386TMC3     C 5772   2.175   3.809  11.905 -0.2777  0.6387  0.6859
  386TMC3     O 5773   2.113   3.774  12.002 -0.0224 -0.1513 -0.0368
  386TMC3     H 5774   2.227   3.760  11.640 -0.7221 -0.2621  0.4538
  386TMC3    H1 5775   1.938   3.926  11.919 -1.9028  1.0581 -0.7621
  386TMC3    H2 5776   1.872   3.948  11.503  0.3207  0.6516 -0.7016
  386TMC3    C7 5777   1.760   3.998  11.754 -0.2086  0.0102 -0.4611
  386TMC3    C8 5778   2.090   3.847  11.416 -0.1336  0.4467  0.2459
  386TMC3    O1 5779   1.742   4.031  11.872  0.3121  0.5734 -0.4930
  386TMC3    O2 5780   2.005   3.808  11.335 -0.0264  0.0521 -0.2617
  387MPD2     C 5781   0.680   3.926   9.435  0.0306 -0.3326 -1.0817
  387MPD2    C1 5782   0.669   3.978   9.562 -0.0209  0.2194  0.1034
  387MPD2    C2 5783   0.727   3.908   9.669  0.4483 -0.7821 -0.1670
  387MPD2    C3 5784   0.800   3.792   9.657 -0.0509 -0.4826 -0.6661
  387MPD2    C4 5785   0.804   3.730   9.534  0.8447 -0.8239  0.6596
  387MPD2    C5 5786   0.746   3.803   9.429 -0.4072 -0.6391  0.1672
  387MPD2     H 5787   0.706   3.950   9.766  2.5425  1.0880 -0.5115
  387MPD2    H1 5788   0.864   3.641   9.518 -0.2708 -1.6744  1.2415
  387MPD2    H2 5789   0.635   3.975   9.349 -1.7811  1.0464  0.6478
  387MPD2    H3 5790   0.757   3.764   9.328  0.2278  2.0730 -0.8039
  387MPD2     N 5791   0.839   3.731   9.778 -0.4605  0.5255  0.0263
  387MPD2    H5 5792   0.820   3.784   9.862 -0.4377  2.4802 -1.1829
  387MPD2    N1 5793   0.605   4.101   9.591  0.3828 -0.3727  0.1511
  387MPD2    H7 5794   0.608   4.149   9.680  0.8485  0.3750 -0.2692
  388TMC3    C1 5795   0.458   4.278   9.566  0.1210 -0.5314 -1.0358
  388TMC3    C2 5796   0.342   4.330   9.510  0.1118 -0.1865  0.7471
  388TMC3    C3 5797   0.258   4.401   9.591  0.1661 -0.7245  0.5178
  388TMC3    C4 5798   0.490   4.312   9.697 -0.0149 -0.4306 -0.2905
  388TMC3    C5 5799   0.402   4.379   9.773 -0.3955  0.6345 -0.3643
  388TMC3    C6 5800   0.288   4.427   9.720 -0.2248 -0.1250  0.2459
  388TMC3     C 5801   0.517   4.165   9.507  0.1699 -0.1241 -0.6051
  388TMC3     O 5802   0.483   4.140   9.388  0.3267  0.4144 -0.0144
  388TMC3     H 5803   0.309   4.291   9.414 -1.7536 -0.4329  1.5025
  388TMC3    H1 5804   0.585   4.300   9.748 -0.2674  3.0618  0.9581
  388TMC3    H2 5805   0.209   4.470   9.780 -0.8160 -0.6770 -0.1318
  388TMC3    C7 5806   0.405   4.342   9.914  0.2758 -0.0489  0.3147
  388TMC3    C8 5807   0.159   4.480   9.514  0.1825  0.1521 -0.3239
  388TMC3    O1 5808   0.375   4.420  10.005 -0.1492 -0.0245 -0.1855
  388TMC3    O2 5809   0.124   4.450   9.402  0.4314 -0.5803 -0.1828
  389MPD2     C 5810   4.530   1.889  10.699 -0.0993 -0.2324  0.1104
  389MPD2    C1 5811   4.492   1.782  10.617 -0.2950  0.7209 -0.0036
  389MPD2    C2 5812   4.433   1.668  10.674  0.1894 -0.4286 -0.1839
  389MPD2    C3 5813   4.425   1.650  10.811  0.9008 -0.3361  0.1312
  389MPD2    C4 5814   4.482   1.754  10.892 -0.1985  0.3953 -0.5922
  389MPD2    C5 5815   4.529   1.869  10.835  0.7047  0.3947  0.5025
  389MPD2     H 5816   4.383   1.597  10.609 -1.9869  1.7677 -0.9130
  389MPD2    H1 5817   4.503   1.740  10.998 -1.5040 -0.1376 -0.3953
  389MPD2    H2 5818   4.576   1.980  10.664  1.7062 -0.5904  1.5414
  389MPD2    H3 5819   4.559   1.949  10.903  2.0482 -0.3695  0.8209
  389MPD2     N 5820   4.350   1.542  10.858 -0.2368  0.7275  0.0495
  389MPD2    H5 5821   4.315   1.473  10.794  0.3260  0.5410 -0.0526
  389MPD2    N1 5822   4.505   1.797  10.478  0.5424 -0.3225  0.0356
  389MPD2    H7 5823   4.561   1.876  10.449  0.3793 -0.5209 -0.8354
  390TMC3    C1 5824   4.228   1.416  11.019  0.6568  0.6444  0.3496
  390TMC3    C2 5825   4.193   1.403  11.152 -0.2096  0.8288  0.7352
  390TMC3    C3 5826   4.128   1.282  11.191 -0.1232  0.5664 -0.7411
  390TMC3    C4 5827   4.209   1.321  10.925 -0.9440  0.4370  0.3769
  390TMC3    C5 5828   4.131   1.211  10.962  0.5332  0.3502 -0.2689
  390TMC3    C6 5829   4.096   1.188  11.095  0.4113 -0.2162  0.4126
  390TMC3     C 5830   4.313   1.529  10.989 -0.0126 -0.8511  0.6507
  390TMC3     O 5831   4.335   1.605  11.082  0.2897 -0.0486  0.3140
  390TMC3     H 5832   4.207   1.483  11.224  0.0745 -1.0197  2.7275
  390TMC3    H1 5833   4.232   1.328  10.819 -0.1561  1.0843  0.5896
  390TMC3    H2 5834   4.037   1.106  11.134  1.2693  0.2353  2.6433
  390TMC3    C7 5835   4.011   1.191  10.884 -0.0158 -0.0061 -0.0110
  390TMC3    C8 5836   4.023   1.297  11.298  0.3729 -0.1934  0.2667
  390TMC3    O1 5837   4.016   1.152  10.768 -0.5185 -0.3370 -0.1212
  390TMC3    O2 5838   3.919   1.251  11.257 -0.0365 -0.0341  0.3878
  391MPD2     C 5839   3.691   3.416  11.131 -0.6014  0.7263  0.0090
  391MPD2    C1 5840   3.813   3.476  11.124 -0.2985  0.2457  0.8170
  391MPD2    C2 5841   3.863   3.506  10.998  0.3165  0.0088 -1.2096
  391MPD2    C3 5842   3.788   3.503  10.887 -0.2040  0.0012 -0.3183
  391MPD2    C4 5843   3.669   3.439  10.895 -0.3821 -0.1324  0.2041
  391MPD2    C5 5844   3.619   3.392  11.015  0.7312 -0.5021  0.1552
  391MPD2     H 5845   3.955   3.563  10.993  0.8944 -1.0506 -2.6487
  391MPD2    H1 5846   3.602   3.419  10.812  3.6538  0.4806 -3.2238
  391MPD2    H2 5847   3.656   3.388  11.230  3.4516 -0.1135  1.1931
  391MPD2    H3 5848   3.520   3.351  11.031  0.1847  0.5237 -0.5864
  391MPD2     N 5849   3.843   3.562  10.767 -0.6492  0.3907 -0.3440
  391MPD2    H5 5850   3.943   3.577  10.774 -0.7178 -0.4130  2.3606
  391MPD2    N1 5851   3.888   3.504  11.238 -0.7800  0.0048 -0.2015
  391MPD2    H7 5852   3.827   3.489  11.318  0.1376  0.4981  0.5853
  392TMC3    C1 5853   3.851   3.643  10.532  0.2456 -0.3726 -0.1640
  392TMC3    C2 5854   3.784   3.632  10.409  0.4449 -0.2656  0.4259
  392TMC3    C3 5855   3.825   3.712  10.313  0.7959  0.2529 -0.2687
  392TMC3    C4 5856   3.951   3.734  10.550 -1.0306 -0.6468  0.2519
  392TMC3    C5 5857   3.985   3.820  10.447  0.6172  0.0640  0.2651
  392TMC3    C6 5858   3.923   3.808  10.324 -0.0684  0.6741 -0.4674
  392TMC3     C 5859   3.774   3.580  10.645  0.3821  1.1592  0.2154
  392TMC3     O 5860   3.656   3.558  10.623 -0.4857  0.6166  0.4243
  392TMC3     H 5861   3.693   3.574  10.400  1.3135 -1.5762  0.0054
  392TMC3    H1 5862   3.999   3.739  10.647 -1.2037  1.7001  0.2006
  392TMC3    H2 5863   3.939   3.893  10.259 -0.7805  0.9317 -0.2997
  392TMC3    C7 5864   4.107   3.898  10.475 -0.6325 -0.2551 -0.3685
  392TMC3    C8 5865   3.781   3.668  10.181  0.7442  0.4576  0.6552
  392TMC3    O1 5866   4.122   3.932  10.589 -0.0693 -0.2232 -0.0737
  392TMC3    O2 5867   3.740   3.552  10.183  0.4819 -0.5008  0.4909
  393TMC3    C1 5868   2.401   1.127   9.809 -0.1219 -0.3634  0.2628
  393TMC3    C2 5869   2.294   1.066   9.754 -0.3910  0.0814 -0.1195
  393TMC3    C3 5870   2.187   1.023   9.828 -0.3111 -0.4307 -0.8533
  393TMC3    C4 5871   2.399   1.150   9.939 -0.4350  0.5386 -0.0337
  393TMC3    C5 5872   2.298   1.097  10.017 -0.2366  0.2124  0.2522
  393TMC3    C6 5873   2.187   1.044   9.962  0.4538 -0.4673 -0.0051
  393TMC3     C 5874   2.502   1.188   9.724  0.5438  0.5088 -0.0932
  393TMC3     O 5875   2.471   1.201   9.606  0.2311  0.4660 -0.5643
  393TMC3     H 5876   2.289   1.061   9.646 -0.8104  0.3987 -0.1118
  393TMC3    H1 5877   2.483   1.202   9.983  0.6153 -1.2270  0.0354
  393TMC3    H2 5878   2.110   0.999  10.024  0.2797 -1.9284 -1.2792
  393TMC3    C7 5879   2.302   1.101  10.164 -0.0288 -0.7453  0.2033
  393TMC3    C8 5880   2.092   0.934   9.765  0.2442 -0.6273  0.8281
  393TMC3    O1 5881   2.201   1.064  10.223 -0.2976 -0.2633 -0.2256
  393TMC3    O2 5882   2.116   0.902   9.648 -0.2461  0.7443  0.0045
  394TMC3    C1 5883   4.503   1.771  10.246 -0.0379 -0.0878 -0.6851
  394TMC3    C2 5884   4.462   1.706  10.129 -0.2760  0.0750  0.3928
  394TMC3    C3 5885   4.515   1.757  10.014  0.6234 -0.5794 -0.1720
  394TMC3    C4 5886   4.586   1.881  10.239  0.2680 -0.3730 -0.0025
  394TMC3    C5 5887   4.630   1.928  10.113 -0.1413 -0.4715 -0.1504
  394TMC3    C6 5888   4.594   1.866  10.000 -0.3349  0.2421  0.0088
  394TMC3     C 5889   4.464   1.713  10.375  0.5275 -0.2314  0.0355
  394TMC3     O 5890   4.393   1.612  10.377  0.0240  0.0342  0.2567
  394TMC3     H 5891   4.392   1.626  10.148  1.3511 -1.0341  1.6736
  394TMC3    H1 5892   4.633   1.932  10.322  0.4396  1.6245 -1.3226
  394TMC3    H2 5893   4.641   1.888   9.905  0.3643  0.6759  0.4558
  394TMC3    C7 5894   0.009   2.038  10.114  0.1970 -0.2353  0.6915
  394TMC3    C8 5895   4.474   1.701   9.889 -0.6594 -0.2071  0.3000
  394TMC3    O1 5896   0.000   2.114  10.208  0.7744  0.2349  0.1962
  394TMC3    O2 5897   4.478   1.773   9.791  0.0701  0.1166  0.6908
  395TMC3    C1 5898   4.077   3.508  14.286  0.2093  0.3453  0.2109
  395TMC3    C2 5899   3.951   3.544  14.257 -0.3708  0.4803  0.4539
  395TMC3    C3 5900   3.904   3.659  14.312  0.5391  0.6160 -1.1044
  395TMC3    C4 5901   4.160   3.586  14.370 -0.7024  0.0810  0.2126
  395TMC3    C5 5902   4.102   3.696  14.431  0.5055  0.2870 -0.1673
  395TMC3    C6 5903   3.977   3.732  14.397  0.0359 -0.1398 -0.7257
  395TMC3     C 5904   4.114   3.372  14.276 -0.0719  0.5906  0.3316
  395TMC3     O 5905   4.167   3.331  14.376 -0.2209  0.0012 -0.7968
  395TMC3     H 5906   3.905   3.510  14.164 -0.0396  0.8169  0.1688
  395TMC3    H1 5907   4.258   3.548  14.397  0.0442  0.9992 -1.1684
  395TMC3    H2 5908   3.934   3.822  14.440 -1.7884 -0.8653 -1.0011
  395TMC3    C7 5909   4.185   3.804  14.472 -0.0347 -0.7005  0.1086
  395TMC3    C8 5910   3.776   3.629  14.379  0.7768 -0.1597 -0.7911
  395TMC3    O1 5911   4.141   3.886  14.552  0.0128 -0.4359 -0.4231
  395TMC3    O2 5912   3.748   3.709  14.465 -0.0661  0.1375 -0.4172
  396MPD2     C 5913   3.514   4.681  17.147  0.2421 -0.0225  0.1921
  396MPD2    C1 5914   3.651   4.669  17.176  0.3198  0.5036  0.1549
  396MPD2    C2 5915   3.718   0.066  17.214  0.8944  0.3967  0.0507
  396MPD2    C3 5916   3.646   0.183  17.209 -0.1489 -0.1494  0.2389
  396MPD2    C4 5917   3.515   0.194  17.189  0.0635  0.3041  0.1556
  396MPD2    C5 5918   3.446   0.076  17.163 -0.1004 -0.2783 -0.4669
  396MPD2     H 5919   3.826   0.071  17.223  0.8565 -1.2297  1.4697
  396MPD2    H1 5920   3.454   0.284  17.186 -0.7729 -0.2753 -0.2395
  396MPD2    H2 5921   3.452   4.594  17.128  0.8045 -0.3788 -0.0183
  396MPD2    H3 5922   3.338   0.081  17.148 -0.0753 -0.8823 -0.8425
  396MPD2     N 5923   3.723   0.297  17.225  0.4731  0.2911  0.3652
  396MPD2    H5 5924   3.817   0.280  17.260 -0.7924 -2.8928  2.1442
  396MPD2    N1 5925   3.720   4.546  17.149  0.2137 -0.7643 -0.5827
  396MPD2    H7 5926   3.673   4.490  17.079 -0.1771 -0.0964 -0.8474
  397TMC3    C1 5927   3.895   4.398  17.157 -0.0673  0.1319 -0.8519
  397TMC3    C2 5928   3.929   4.408  17.028 -0.6713 -0.3531  0.2432
  397TMC3    C3 5929   3.929   4.288  16.960 -0.4608  0.7889 -0.1684
  397TMC3    C4 5930   3.828   4.285  17.205  0.5320  0.2972  0.1248
  397TMC3    C5 5931   3.826   4.175  17.129 -0.3061  0.0722  0.2585
  397TMC3    C6 5932   3.874   4.173  17.004  0.2128 -0.1198  0.6740
  397TMC3     C 5933   3.845   4.523  17.200  0.0001  0.0635  0.3878
  397TMC3     O 5934   3.913   4.579  17.282  0.0470 -0.8014  0.6214
  397TMC3     H 5935   3.989   4.494  16.998 -2.0062  0.3377 -0.4455
  397TMC3    H1 5936   3.772   4.297  17.297  1.4611  1.1251  0.5789
  397TMC3    H2 5937   3.833   4.098  16.937 -0.1472  1.5575 -0.9833
  397TMC3    C7 5938   3.727   4.076  17.166  0.0094  0.3808  0.1950
  397TMC3    C8 5939   3.959   4.299  16.820 -0.1654  0.2032 -0.5842
  397TMC3    O1 5940   3.693   3.997  17.077 -0.5244 -0.3092  0.1665
  397TMC3    O2 5941   3.895   4.226  16.746 -0.1481  0.2191  0.2687
  398MPD2     C 5942   1.922   0.533   0.403  0.3688 -0.3812 -0.4528
  398MPD2    C1 5943   1.923   0.414   0.479  0.9628  0.2610 -0.7885
  398MPD2    C2 5944   1.911   0.423   0.618 -0.9488 -0.2089  0.7365
  398MPD2    C3 5945   1.887   0.545   0.673 -0.1725  0.4125 -0.0479
  398MPD2    C4 5946   1.885   0.662   0.600 -0.3176  0.3271 -0.1239
  398MPD2    C5 5947   1.913   0.658   0.465 -0.0464 -0.6162  0.7772
  398MPD2     H 5948   1.902   0.332   0.675 -2.7843 -0.4867  0.0137
  398MPD2    H1 5949   1.869   0.756   0.653 -1.9167  0.8418 -1.5139
  398MPD2    H2 5950   1.946   0.527   0.297 -0.5313 -1.0945 -0.6153
  398MPD2    H3 5951   1.918   0.751   0.409 -2.0846  0.3638  2.2077
  398MPD2     N 5952   1.856   0.546   0.813  0.2348  0.1125 -0.4347
  398MPD2    H5 5953   1.849   0.454   0.855  1.7131  1.2782  2.3924
  398MPD2    N1 5954   1.934   0.281   0.436 -0.0654  0.1794 -0.4485
  398MPD2    H7 5955   1.924   0.207   0.504  1.1109 -0.5564 -1.0783
  399TMC3    C1 5956   1.932   0.109   0.273 -0.7327  0.0050 -0.0635
  399TMC3    C2 5957   1.921   0.004   0.367 -0.9475  0.4981 -0.6385
  399TMC3    C3 5958   1.876   4.605   0.330  0.3794 -0.1457 -0.5290
  399TMC3    C4 5959   1.907   0.085   0.145 -0.2164 -0.2141  0.1769
  399TMC3    C5 5960   1.863   4.682   0.111  0.2612  0.0463 -0.5094
  399TMC3    C6 5961   1.835   4.584   0.201  0.8850  0.1973 -0.2048
  399TMC3     C 5962   1.956   0.248   0.307  0.5364 -0.0561 -0.0081
  399TMC3     O 5963   1.977   0.321   0.212 -0.0268  0.1851 -0.2334
  399TMC3     H 5964   1.961   0.020   0.466 -3.7753 -0.5841  0.6963
  399TMC3    H1 5965   1.909   0.165   0.071 -2.1559  0.3349  0.7195
  399TMC3    H2 5966   1.823   4.484   0.160 -0.3020 -0.2583  1.2169
  399TMC3    C7 5967   1.799   4.680  17.665  0.4196  0.4766  0.0322
  399TMC3    C8 5968   1.916   4.495   0.410  0.1423  0.1336 -0.1542
  399TMC3    O1 5969   1.824   0.053  17.589  0.1152 -0.0281 -0.1408
  399TMC3    O2 5970   1.975   4.516   0.515  0.2282  0.0344 -0.0969
  400TMC3    C1 5971   0.373   3.955  16.920  0.4449  0.3224 -0.2449
  400TMC3    C2 5972   0.245   3.997  16.905  0.0198 -0.8483 -0.1586
  400TMC3    C3 5973   0.218   4.128  16.885  0.5511 -0.4987 -0.4525
  400TMC3    C4 5974   0.468   4.057  16.943 -0.0207  0.4473 -0.7564
  400TMC3    C5 5975   0.433   4.189  16.937 -0.3880 -0.1210 -0.4923
  400TMC3    C6 5976   0.310   4.228  16.893 -0.3213 -0.3285  0.4613
  400TMC3     C 5977   0.413   3.823  16.866 -0.4208  0.6628  0.2015
  400TMC3     O 5978   0.333   3.760  16.795  0.5759  0.0245 -0.2761
  400TMC3     H 5979   0.176   3.914  16.895 -0.3836 -0.7504  1.7768
  400TMC3    H1 5980   0.572   4.033  16.963  0.1141  0.5192 -1.3741
  400TMC3    H2 5981   0.281   4.332  16.888 -2.3818 -0.7708  3.1665
  400TMC3    C7 5982   0.541   4.289  16.920  0.5919  0.8797  0.3132
  400TMC3    C8 5983   0.118   4.156  16.789 -0.0875  0.1359  0.0022
  400TMC3    O1 5984   0.651   4.238  16.893 -0.3598  0.3152 -0.3687
  400TMC3    O2 5985   0.109   4.271  16.753  0.0357  0.3541 -0.4603
  401MPD2     C 5986   2.828   2.637   0.994 -0.7970  0.1292  0.2767
  401MPD2    C1 5987   2.957   2.645   0.934 -0.4666  0.3267 -0.3476
  401MPD2    C2 5988   2.987   2.563   0.831 -0.4594  0.3909 -0.6365
  401MPD2    C3 5989   2.899   2.467   0.785 -0.3085 -0.0807  0.6125
  401MPD2    C4 5990   2.769   2.468   0.833  0.6950  0.1992  0.1534
  401MPD2    C5 5991   2.731   2.549   0.939  0.5786  0.4429 -0.1618
  401MPD2     H 5992   3.086   2.573   0.786  0.0282 -1.5473  0.0159
  401MPD2    H1 5993   2.689   2.409   0.790 -0.0933  0.2340  1.5639
  401MPD2    H2 5994   2.795   2.717   1.058 -0.2489  0.0705  0.6408
  401MPD2    H3 5995   2.630   2.544   0.979  0.3040 -0.2083 -0.9411
  401MPD2     N 5996   2.944   2.373   0.686 -0.0162 -0.1119  0.1448
  401MPD2    H5 5997   3.043   2.351   0.679  0.6671  2.5705  1.3409
  401MPD2    N1 5998   3.057   2.736   0.971 -0.0277  0.4554  0.2211
  401MPD2    H7 5999   3.141   2.737   0.914  1.1734 -2.8042  1.9529
  402TMC3    C1 6000   2.961   2.179   0.561 -0.5494 -0.6015  0.8991
  402TMC3    C2 6001   3.036   2.112   0.650 -0.6309 -0.2215  1.0265
  402TMC3    C3 6002   3.092   1.986   0.614  0.2499 -0.4244  0.1468
  402TMC3    C4 6003   2.913   2.114   0.451 -0.0542 -0.1536  0.0846
  402TMC3    C5 6004   2.967   1.991   0.423  0.1366 -0.4464 -0.5378
  402TMC3    C6 6005   3.062   1.931   0.498  0.3999 -0.7550 -0.6346
  402TMC3     C 6006   2.873   2.283   0.614  0.2158  0.8736  0.6843
  402TMC3     O 6007   2.766   2.301   0.555  0.0755 -0.6249  0.4873
  402TMC3     H 6008   3.057   2.157   0.746 -0.2982 -2.6194  2.0754
  402TMC3    H1 6009   2.829   2.153   0.395 -0.4588 -0.6238  0.3660
  402TMC3    H2 6010   3.103   1.835   0.469  0.4828 -1.2713  1.2381
  402TMC3    C7 6011   2.925   1.917   0.303 -0.0326  0.1152 -0.9796
  402TMC3    C8 6012   3.191   1.926   0.698 -0.8831  0.1996 -0.2064
  402TMC3    O1 6013   2.930   1.795   0.300 -0.3816 -0.1909 -0.1977
  402TMC3    O2 6014   3.227   1.811   0.666 -0.3033 -0.3775 -0.0033
  403MPD2     C 6015   2.087   1.746  13.169  0.0385 -0.2615  0.2246
  403MPD2    C1 6016   2.104   1.632  13.241 -0.8324  0.7329  0.4800
  403MPD2    C2 6017   2.212   1.627  13.331 -0.1973  0.3290 -0.6372
  403MPD2    C3 6018   2.297   1.740  13.349  0.5411 -0.6518 -0.4307
  403MPD2    C4 6019   2.262   1.854  13.284  0.0604  0.2897  0.5652
  403MPD2    C5 6020   2.165   1.861  13.193 -0.3165 -0.5758  0.7066
  403MPD2     H 6021   2.245   1.534  13.376 -1.2516  0.5404  0.5898
  403MPD2    H1 6022   2.314   1.948  13.298 -0.2290  0.4811  0.3606
  403MPD2    H2 6023   2.012   1.744  13.091  0.7933  1.6969 -0.5521
  403MPD2    H3 6024   2.151   1.956  13.144  0.7804 -1.1607 -0.7294
  403MPD2     N 6025   2.389   1.739  13.450  0.8870  0.5755 -0.1210
  403MPD2    H5 6026   2.408   1.644  13.481  1.2217  0.7198  0.1252
  403MPD2    N1 6027   2.027   1.513  13.206  0.0279  0.6836  0.6429
  403MPD2    H7 6028   1.952   1.517  13.138 -2.4387  1.2068  3.3614
  404TMC3    C1 6029   1.941   1.295  13.221  0.9383  0.1854 -0.5165
  404TMC3    C2 6030   1.893   1.193  13.299  0.1054 -0.2482  0.2859
  404TMC3    C3 6031   1.829   1.090  13.233 -0.1458 -0.2117  0.2100
  404TMC3    C4 6032   1.913   1.300  13.086 -0.1116 -0.5440 -0.5157
  404TMC3    C5 6033   1.840   1.195  13.027  0.1833 -0.2118  0.4590
  404TMC3    C6 6034   1.803   1.085  13.097  0.4045 -0.6838 -0.6066
  404TMC3     C 6035   2.023   1.398  13.278 -0.0432 -0.3197  1.1176
  404TMC3     O 6036   2.075   1.375  13.382 -0.3624 -0.0733  0.0953
  404TMC3     H 6037   1.929   1.180  13.401  0.4324 -0.4363  0.1478
  404TMC3    H1 6038   1.952   1.381  13.026  2.7322 -2.0337 -0.6587
  404TMC3    H2 6039   1.756   1.000  13.049 -0.3395 -0.4280 -0.3329
  404TMC3    C7 6040   1.822   1.204  12.878  0.3311 -0.5991 -0.6175
  404TMC3    C8 6041   1.790   0.970  13.310  0.0986  0.3389  0.6974
  404TMC3    O1 6042   1.914   1.267  12.830  0.1119  0.3820  0.6451
  404TMC3    O2 6043   1.771   0.870  13.243 -0.7195  0.4271 -0.0401
  405MPD2     C 6044   2.833   1.860  14.610 -0.1081 -0.2370 -0.3803
  405MPD2    C1 6045   2.832   1.727  14.591 -0.6931 -0.4480  0.2630
  405MPD2    C2 6046   2.751   1.671  14.503 -0.0537 -0.4162 -0.1600
  405MPD2    C3 6047   2.668   1.751  14.424 -0.2045  0.5980  0.2465
  405MPD2    C4 6048   2.658   1.887  14.463  0.2653 -0.2287  0.0005
  405MPD2    C5 6049   2.747   1.943  14.550 -0.0723 -0.2305  0.9548
  405MPD2     H 6050   2.757   1.566  14.478  2.0525 -0.2218 -0.4808
  405MPD2    H1 6051   2.585   1.952  14.415 -0.3613 -1.3282 -0.5430
  405MPD2    H2 6052   2.905   1.906  14.677 -0.8284 -1.1876  1.0355
  405MPD2    H3 6053   2.741   2.050  14.570  1.3935 -0.1834  1.1573
  405MPD2     N 6054   2.583   1.689  14.331 -0.1567  0.0261 -0.1578
  405MPD2    H5 6055   2.590   1.588  14.328 -1.0720  0.0644 -3.3446
  405MPD2    N1 6056   2.918   1.634  14.650  0.1125  0.0023  0.5060
  405MPD2    H7 6057   2.900   1.538  14.623 -1.2915  0.5721 -0.5695
  406TMC3    C1 6058   2.170   1.631  14.150 -0.2134 -0.3429 -0.3421
  406TMC3    C2 6059   2.194   1.500  14.166  0.2379  0.4743  0.1824
  406TMC3    C3 6060   2.318   1.454  14.179 -0.0112  0.2724 -0.2778
  406TMC3    C4 6061   2.273   1.724  14.164  0.4207  0.2286  0.3951
  406TMC3    C5 6062   2.400   1.671  14.178 -0.5346 -1.1139  0.1354
  406TMC3    C6 6063   2.424   1.539  14.189  0.2061 -0.5237  0.1496
  406TMC3     C 6064   2.033   1.671  14.147  0.6474  0.4533  0.0143
  406TMC3     O 6065   1.954   1.612  14.221 -0.1651  0.2088 -0.0967
  406TMC3     H 6066   2.112   1.430  14.157  0.5414  0.5116 -2.7522
  406TMC3    H1 6067   2.251   1.828  14.180 -0.5284 -0.2905  2.4769
  406TMC3    H2 6068   2.523   1.501  14.165  0.0149  0.5708 -2.3795
  406TMC3    C7 6069   2.496   1.757  14.248 -0.1292 -0.3692 -0.3308
  406TMC3    C8 6070   2.331   1.330  14.254 -0.0817 -0.0076 -0.3283
  406TMC3    O1 6071   2.493   1.876  14.208  0.0187  0.3320 -0.2155
  406TMC3    O2 6072   2.232   1.258  14.258  0.0637  0.2014 -0.2672
  407MPD2     C 6073   0.525   3.193   9.524  0.2266 -0.6456 -0.5223
  407MPD2    C1 6074   0.609   3.288   9.578  0.5403  0.3208 -0.3590
  407MPD2    C2 6075   0.557   3.390   9.664  0.0348  0.3004 -0.0288
  407MPD2    C3 6076   0.425   3.378   9.707  0.0042  0.5924 -0.5454
  407MPD2    C4 6077   0.343   3.275   9.660  0.3228 -0.2337 -0.3552
  407MPD2    C5 6078   0.388   3.195   9.558 -0.2595 -0.1154 -0.7997
  407MPD2     H 6079   0.634   3.448   9.713  0.4703 -1.3675  1.2457
  407MPD2    H1 6080   0.241   3.279   9.694  0.4223  0.2459 -0.1139
  407MPD2    H2 6081   0.561   3.127   9.446  0.0649  0.0579 -1.1993
  407MPD2    H3 6082   0.327   3.113   9.522 -1.0561  0.7074 -1.3337
  407MPD2     N 6083   0.379   3.449   9.816  0.0175  0.4102  1.1978
  407MPD2    H5 6084   0.291   3.418   9.856 -0.5014 -2.3084 -2.0721
  407MPD2    N1 6085   0.751   3.296   9.553  0.1747  0.0395 -0.2892
  407MPD2    H7 6086   0.803   3.370   9.598  2.0207 -1.2936 -0.2581
  408TMC3    C1 6087   0.960   3.223   9.475 -0.0185 -0.1589  0.2213
  408TMC3    C2 6088   1.051   3.121   9.481  0.6794 -0.5423  0.5194
  408TMC3    C3 6089   1.182   3.158   9.469 -0.8867 -0.1386 -1.1623
  408TMC3    C4 6090   0.994   3.349   9.432 -0.6981 -0.5999  0.3875
  408TMC3    C5 6091   1.128   3.379   9.423 -0.3201  0.3793  0.4456
  408TMC3    C6 6092   1.226   3.286   9.438 -0.2106  0.2146 -0.0410
  408TMC3     C 6093   0.821   3.198   9.491  0.2343  0.6532  0.4423
  408TMC3     O 6094   0.787   3.080   9.486 -0.3706  0.4391  0.3212
  408TMC3     H 6095   1.022   3.018   9.498 -0.4406 -0.2769  0.1556
  408TMC3    H1 6096   0.918   3.426   9.419 -0.4724 -0.2654  1.0532
  408TMC3    H2 6097   1.327   3.317   9.412  0.4197 -1.3839  0.4950
  408TMC3    C7 6098   1.157   3.521   9.395  0.6626 -0.1751 -0.1316
  408TMC3    C8 6099   1.274   3.058   9.515 -0.5913 -0.3471  0.0979
  408TMC3    O1 6100   1.068   3.600   9.380 -0.0422  0.2305 -0.1600
  408TMC3    O2 6101   1.237   2.941   9.514 -0.1929  0.0563 -0.3201
  409MPD2     C 6102   3.790   3.661  16.810 -0.6458  0.5024 -0.7658
  409MPD2    C1 6103   3.835   3.713  16.925  0.2391  0.8880 -0.8368
  409MPD2    C2 6104   3.923   3.828  16.925 -0.3345 -0.4185  0.1568
  409MPD2    C3 6105   3.979   3.879  16.808  0.0028  0.5430  0.0024
  409MPD2    C4 6106   3.928   3.828  16.692  0.1075 -0.4935  0.1509
  409MPD2    C5 6107   3.837   3.719  16.693 -0.4241  0.2621  0.4719
  409MPD2     H 6108   3.950   3.868  17.022  3.8438  0.4645 -1.3785
  409MPD2    H1 6109   3.966   3.864  16.597 -0.6065  2.1508  0.8603
  409MPD2    H2 6110   3.719   3.579  16.803 -1.3845  1.2291 -1.7609
  409MPD2    H3 6111   3.806   3.684  16.596 -0.0744 -1.1150  0.8607
  409MPD2     N 6112   4.089   3.968  16.805 -0.1740  0.0049  0.0444
  409MPD2    H5 6113   4.129   3.987  16.713 -1.1581  1.1824 -0.1270
  409MPD2    N1 6114   3.816   3.658  17.046 -0.0142 -0.5339 -0.1881
  409MPD2    H7 6115   3.878   3.696  17.117 -2.6350  1.0339  1.2367
  410TMC3    C1 6116   4.278   4.097  16.876  0.0954 -0.4621 -0.1977
  410TMC3    C2 6117   4.351   4.137  16.978 -0.3726  0.6620  0.0196
  410TMC3    C3 6118   4.458   4.224  16.957  0.7040 -0.4399  0.3686
  410TMC3    C4 6119   4.303   4.140  16.750 -0.5868  1.0691  0.1678
  410TMC3    C5 6120   4.411   4.219  16.731 -0.2560 -0.2682  0.2343
  410TMC3    C6 6121   4.494   4.264  16.826  0.6694  0.2692 -0.0336
  410TMC3     C 6122   4.156   4.026  16.908  0.2258 -0.0995  0.5398
  410TMC3     O 6123   4.128   4.022  17.028 -0.4869  0.6154  0.1409
  410TMC3     H 6124   4.321   4.122  17.081  0.8314  0.1693  0.2962
  410TMC3    H1 6125   4.250   4.102  16.663  0.9912 -2.5061  0.7859
  410TMC3    H2 6126   4.581   4.323  16.799 -0.0586  1.1943 -0.3781
  410TMC3    C7 6127   4.411   4.282  16.601  0.0905 -0.2060 -0.2334
  410TMC3    C8 6128   4.540   4.272  17.077  0.5032 -0.1459 -0.9307
  410TMC3    O1 6129   4.348   4.230  16.512 -0.0973  0.3209  0.3773
  410TMC3    O2 6130   4.599   4.380  17.059  0.1982 -0.4097 -0.6100
  411MPD2     C 6131   4.392   4.677  14.769 -0.1296 -0.2811  0.0189
  411MPD2    C1 6132   4.386   4.696  14.628  0.0080  0.5842  0.0320
  411MPD2    C2 6133   4.356   4.590  14.545  0.5535  0.1432  0.5260
  411MPD2    C3 6134   4.318   4.464  14.595 -1.0039 -0.4318  0.5990
  411MPD2    C4 6135   4.316   4.454  14.736 -0.1836 -0.0725 -0.0557
  411MPD2    C5 6136   4.359   4.557  14.821 -0.2359  0.0938 -0.4527
  411MPD2     H 6137   4.360   4.602  14.437 -0.2768 -0.6706  0.4054
  411MPD2    H1 6138   4.290   4.358  14.780 -1.9388  1.6603  2.6848
  411MPD2    H2 6139   4.432   0.035  14.832 -1.2339  0.1861  0.1403
  411MPD2    H3 6140   4.377   4.535  14.925 -1.3864  0.6885 -0.1274
  411MPD2     N 6141   4.294   4.348  14.522 -0.1072 -0.4617 -0.5338
  411MPD2    H5 6142   4.258   4.266  14.569 -0.0312 -0.3729 -0.3198
  411MPD2    N1 6143   4.423   0.104  14.581  0.0468  0.4236 -0.7850
  411MPD2    H7 6144   4.459   0.170  14.649 -0.0715  0.5737 -0.8675
  412TMC3    C1 6145   4.257   4.224  14.319  0.1320 -1.1501 -0.0501
  412TMC3    C2 6146   4.129   4.178  14.338 -0.8129 -0.0246 -0.4444
  412TMC3    C3 6147   4.070   4.108  14.233 -0.4509 -0.0065  0.4557
  412TMC3    C4 6148   4.324   4.204  14.205  0.6937 -0.0570 -0.0710
  412TMC3    C5 6149   4.262   4.131  14.103 -1.0299  0.1218 -0.0522
  412TMC3    C6 6150   4.136   4.087  14.114 -0.1543  0.1076  0.6539
  412TMC3     C 6151   4.307   4.339  14.386 -0.3844  0.0935 -0.2067
  412TMC3     O 6152   4.369   4.406  14.304 -0.1244  0.7010 -0.1329
  412TMC3     H 6153   4.081   4.202  14.432  0.6653  0.7379  0.1130
  412TMC3    H1 6154   4.432   4.209  14.207  0.6400  0.2390  2.3293
  412TMC3    H2 6155   4.079   4.045  14.032  0.2698  0.2622  0.2805
  412TMC3    C7 6156   4.275   4.203  13.976  1.4728  0.2585  0.3181
  412TMC3    C8 6157   3.925   4.130  14.223 -0.1964 -0.3234  0.7541
  412TMC3    O1 6158   4.222   4.155  13.876  0.1862  0.4324 -0.2864
  412TMC3    O2 6159   3.876   4.231  14.270 -0.0726  0.1404 -0.3243
  413MPD2     C 6160   1.041   1.918  15.467  0.4441 -0.9052 -0.2849
  413MPD2    C1 6161   1.056   1.974  15.342  0.1900 -0.3790 -0.2718
  413MPD2    C2 6162   1.174   1.957  15.277  0.0033  0.0169 -0.0517
  413MPD2    C3 6163   1.273   1.871  15.321 -0.9448 -0.2614 -0.7443
  413MPD2    C4 6164   1.256   1.810  15.441 -0.0633 -0.0038  0.1263
  413MPD2    C5 6165   1.138   1.828  15.510  0.0487  0.2600  0.6413
  413MPD2     H 6166   1.186   2.009  15.182 -0.3688  3.1570  1.5926
  413MPD2    H1 6167   1.329   1.742  15.484  0.3654 -0.3725 -1.1954
  413MPD2    H2 6168   0.955   1.936  15.532  1.4539  0.3797  0.6956
  413MPD2    H3 6169   1.124   1.776  15.604  0.6363 -0.0220  0.5720
  413MPD2     N 6170   1.393   1.872  15.251  0.1494  0.3899  0.0639
  413MPD2    H5 6171   1.399   1.934  15.171  2.0901 -1.0975 -0.9191
  413MPD2    N1 6172   0.946   2.053  15.301  0.1316 -0.2913 -0.0499
  413MPD2    H7 6173   0.861   2.047  15.356  0.7904 -0.0864  1.0019
  414TMC3    C1 6174   1.623   1.870  15.227  0.0506  0.3175 -0.3125
  414TMC3    C2 6175   1.744   1.799  15.233  0.2643 -0.6017 -0.1563
  414TMC3    C3 6176   1.847   1.881  15.198  0.7405  0.1081 -0.1462
  414TMC3    C4 6177   1.617   2.006  15.205  0.3076 -0.4825  0.0799
  414TMC3    C5 6178   1.725   2.077  15.184 -0.2100 -0.2476 -0.2273
  414TMC3    C6 6179   1.846   2.015  15.172 -0.3975 -0.0590  0.5239
  414TMC3     C 6180   1.507   1.804  15.280 -0.4109 -0.0797  0.2788
  414TMC3     O 6181   1.533   1.717  15.363 -0.2964  0.9265  0.1090
  414TMC3     H 6182   1.756   1.693  15.252  4.0569 -0.1072  0.1578
  414TMC3    H1 6183   1.522   2.059  15.211  0.8153  0.4272  0.0482
  414TMC3    H2 6184   1.927   2.073  15.129  0.0499 -2.3428 -1.6848
  414TMC3    C7 6185   1.719   2.209  15.120  0.4769 -0.3778  0.5588
  414TMC3    C8 6186   1.975   1.818  15.190 -0.3466  0.1364 -0.7915
  414TMC3    O1 6187   1.829   2.265  15.110 -0.0073 -0.2930  0.4430
  414TMC3    O2 6188   1.978   1.696  15.166 -0.3585  0.6836 -0.6018
  415TMC3    C1 6189   2.257   0.604   9.659 -0.4025 -0.7231 -0.6907
  415TMC3    C2 6190   2.370   0.573   9.589 -0.2683 -0.1241  0.1048
  415TMC3    C3 6191   2.358   0.500   9.475 -0.0866  0.5129  0.5301
  415TMC3    C4 6192   2.139   0.558   9.615 -0.3398 -0.6506  0.0239
  415TMC3    C5 6193   2.131   0.488   9.498  0.0026 -0.1521 -0.4751
  415TMC3    C6 6194   2.241   0.455   9.430  0.5085 -0.1264 -0.2971
  415TMC3     C 6195   2.276   0.643   9.788 -0.6687 -0.3004  0.9352
  415TMC3     O 6196   2.197   0.583   9.858  0.5442 -0.1618 -0.4445
  415TMC3     H 6197   2.467   0.608   9.625 -0.7563  0.9607  0.3770
  415TMC3    H1 6198   2.056   0.600   9.670 -2.3511 -1.8654 -2.0785
  415TMC3    H2 6199   2.240   0.396   9.339  1.0834 -0.6321  0.0227
  415TMC3    C7 6200   2.012   0.404   9.472  0.4046 -0.2114 -0.0325
  415TMC3    C8 6201   2.484   0.444   9.413 -0.0093  0.4389 -0.0743
  415TMC3    O1 6202   2.024   0.330   9.376 -0.0812 -0.4547  0.6961
  415TMC3    O2 6203   2.477   0.340   9.348 -0.0416  0.2232  0.3870
  416MPD2     C 6204   3.978   0.200  11.526  0.5032  0.0998  0.6543
  416MPD2    C1 6205   3.850   0.216  11.473 -0.2424  0.6784  0.2933
  416MPD2    C2 6206   3.811   0.143  11.358  0.2974 -0.5181  0.9187
  416MPD2    C3 6207   3.903   0.061  11.291 -1.0937 -0.3782  0.0762
  416MPD2    C4 6208   4.033   0.059  11.338  0.0600 -0.3453 -0.4273
  416MPD2    C5 6209   4.065   0.116  11.458 -0.0667  0.1190  0.6389
  416MPD2     H 6210   3.710   0.154  11.322  0.8317 -1.9331 -1.0236
  416MPD2    H1 6211   4.105   4.710  11.294 -0.0270  0.6458 -2.1470
  416MPD2    H2 6212   4.013   0.256  11.612  1.2024 -1.3937  1.3395
  416MPD2    H3 6213   4.167   0.108  11.496  0.4034  0.4494 -0.5627
  416MPD2     N 6214   3.881   4.699  11.177 -0.0571 -0.3306 -0.3614
  416MPD2    H5 6215   3.961   4.642  11.154  0.2824  0.2547 -0.6314
  416MPD2    N1 6216   3.768   0.308  11.547  0.0823  0.0399  0.3183
  416MPD2    H7 6217   3.810   0.356  11.627 -0.4741  2.3681 -0.7862
  417TMC3    C1 6218   3.573   0.429  11.590  0.5204 -0.2774  0.3311
  417TMC3    C2 6219   3.538   0.379  11.711 -0.3305  0.1534  0.6934
  417TMC3    C3 6220   3.435   0.434  11.778 -1.0515  0.9962 -0.1574
  417TMC3    C4 6221   3.490   0.523  11.524  0.0745  0.3188  0.0506
  417TMC3    C5 6222   3.381   0.573  11.589  0.0504  0.0361  0.1688
  417TMC3    C6 6223   3.361   0.530  11.711 -0.5240  0.0393  0.4046
  417TMC3     C 6224   3.644   0.343  11.498 -0.1072 -0.6757  0.2221
  417TMC3     O 6225   3.582   0.305  11.398 -0.2107 -0.1484  0.2538
  417TMC3     H 6226   3.606   0.312  11.762  0.7413  1.1387  0.5493
  417TMC3    H1 6227   3.525   0.566  11.431 -3.9806  1.3494 -0.9981
  417TMC3    H2 6228   3.270   0.565  11.758  0.1721 -0.2405  1.9696
  417TMC3    C7 6229   3.271   0.627  11.516  0.5280  0.1755  0.3593
  417TMC3    C8 6230   3.409   0.396  11.919 -0.3151  0.0844  0.2746
  417TMC3    O1 6231   3.290   0.724  11.449 -0.5782 -0.8732 -0.6948
  417TMC3    O2 6232   3.316   0.463  11.963 -0.0096 -0.1964  0.1318
  418TMC3    C1 6233   2.050   0.553   1.158 -0.1319 -0.1030  0.1367
  418TMC3    C2 6234   1.990   0.638   1.077  0.5864 -0.0464  0.4681
  418TMC3    C3 6235   1.866   0.613   1.027 -0.1334  0.7303 -0.1085
  418TMC3    C4 6236   1.998   0.429   1.184  0.6717 -0.0413 -0.1003
  418TMC3    C5 6237   1.869   0.403   1.136  0.2055 -0.4367  0.9488
  418TMC3    C6 6238   1.803   0.497   1.058 -1.2250 -0.0613  0.3714
  418TMC3     C 6239   2.191   0.562   1.159  0.2939  0.3154  0.6603
  418TMC3     O 6240   2.240   0.674   1.161  0.2310 -0.1874  0.4974
  418TMC3     H 6241   2.050   0.720   1.039  2.1401 -1.0854  0.7147
  418TMC3    H1 6242   2.050   0.348   1.234 -0.5340 -1.4005 -1.0735
  418TMC3    H2 6243   1.705   0.474   1.019  0.3681 -0.3083 -3.4867
  418TMC3    C7 6244   1.817   0.267   1.127 -0.1271 -0.6778 -0.7689
  418TMC3    C8 6245   1.856   0.660   0.894  0.5329  0.0113  0.6482
  418TMC3    O1 6246   1.781   0.234   1.013  0.9530 -0.5853 -0.5579
  418TMC3    O2 6247   1.899   0.770   0.876  0.3830 -0.6121 -0.1743
  419MPD2     C 6248   0.504   4.153  12.374 -0.7327  0.6253 -0.3132
  419MPD2    C1 6249   0.586   4.258  12.412  0.3728 -0.3801  0.2233
  419MPD2    C2 6250   0.543   4.340  12.513  0.0717 -0.2192  0.3490
  419MPD2    C3 6251   0.417   4.333  12.574  0.5071 -0.2505  0.2026
  419MPD2    C4 6252   0.340   4.222  12.529  0.5703  0.2068 -0.7672
  419MPD2    C5 6253   0.386   4.137  12.435  0.4609  0.4214  0.1576
  419MPD2     H 6254   0.601   4.426  12.543 -1.0670 -0.0758  2.1304
  419MPD2    H1 6255   0.241   4.198  12.567 -0.3311  1.6316 -2.1779
  419MPD2    H2 6256   0.532   4.085  12.294  0.5410  0.0415  0.6197
  419MPD2    H3 6257   0.317   4.059  12.406 -0.3634  0.2574  2.5874
  419MPD2     N 6258   0.373   4.424  12.677 -0.2103  0.7837 -0.1845
  419MPD2    H5 6259   0.440   4.476  12.733 -1.0575  2.3694 -0.6535
  419MPD2    N1 6260   0.712   4.276  12.353 -0.4229  0.0942 -0.1957
  419MPD2    H7 6261   0.763   4.357  12.387  0.2806 -0.6417  0.4792
  420TMC3    C1 6262   0.231   4.512  12.839 -0.0198  0.2372 -0.0621
  420TMC3    C2 6263   0.116   4.586  12.839  0.4483 -0.1695 -0.5055
  420TMC3    C3 6264   0.105   4.693  12.926  0.5374 -0.4705  0.5064
  420TMC3    C4 6265   0.339   4.537  12.912  0.1728 -0.0189  0.2265
  420TMC3    C5 6266   0.324   4.641  12.997  0.2556  0.1756 -0.8138
  420TMC3    C6 6267   0.211   4.715  13.011  0.1054 -0.1182 -0.6080
  420TMC3     C 6268   0.249   4.423  12.725  0.0807  0.3024 -0.0966
  420TMC3     O 6269   0.145   4.383  12.670 -0.1284 -0.8319  0.0241
  420TMC3     H 6270   0.048   4.570  12.756  1.2081  0.2201 -1.2031
  420TMC3    H1 6271   0.436   4.489  12.903  0.2511  0.0252  0.8251
  420TMC3    H2 6272   0.204   0.076  13.082  1.6504 -1.0642  0.6174
  420TMC3    C7 6273   0.426   4.641  13.105  0.0601  0.7282 -0.6542
  420TMC3    C8 6274   0.031   0.086  12.882 -0.2782 -0.5804  0.2178
  420TMC3    O1 6275   0.479   4.533  13.123  0.1327 -0.6636 -0.6864
  420TMC3    O2 6276   0.061   0.192  12.932 -0.5224  0.3431 -0.5453
  421TMC3    C1 6277   2.497   1.828  13.645 -0.7194 -0.4211 -0.8164
  421TMC3    C2 6278   2.546   1.942  13.712  0.1295  0.7739 -0.1049
  421TMC3    C3 6279   2.602   1.927  13.840  0.4334  0.4698  0.3496
  421TMC3    C4 6280   2.497   1.704  13.714  0.0277  0.0565 -0.3583
  421TMC3    C5 6281   2.543   1.699  13.840 -0.3964 -0.5049 -0.9022
  421TMC3    C6 6282   2.602   1.804  13.897  0.6224 -0.7215 -0.0228
  421TMC3     C 6283   2.448   1.849  13.509  0.2879 -0.1213 -0.1600
  421TMC3     O 6284   2.447   1.970  13.477 -0.0971  0.2514 -0.7753
  421TMC3     H 6285   2.561   2.037  13.662  0.5234  1.3602  1.1137
  421TMC3    H1 6286   2.452   1.617  13.667 -0.9600  0.3120  0.1280
  421TMC3    H2 6287   2.665   1.796  13.985 -0.9953  0.3438  1.2384
  421TMC3    C7 6288   2.570   1.575  13.898  0.2689  0.0054 -0.4675
  421TMC3    C8 6289   2.654   2.041  13.902  0.2528 -0.5906 -0.2483
  421TMC3    O1 6290   2.665   1.563  13.973 -0.2620  0.1135  0.2317
  421TMC3    O2 6291   2.708   2.111  13.820 -0.4575 -0.1992  0.0673
  422TMC3    C1 6292   4.482   2.594  12.422  0.3532 -1.1100  0.1880
  422TMC3    C2 6293   4.450   2.722  12.461  0.1952 -0.5084 -0.0153
  422TMC3    C3 6294   4.338   2.736  12.537  0.4731  0.4848 -0.5504
  422TMC3    C4 6295   4.415   2.484  12.466 -0.2850  0.0933  0.3660
  422TMC3    C5 6296   4.300   2.508  12.535 -0.3574 -0.8049  0.1269
  422TMC3    C6 6297   4.261   2.631  12.571  0.2453  0.1672  0.5855
  422TMC3     C 6298   4.573   2.579  12.307  0.7099  0.0193 -0.1046
  422TMC3     O 6299   4.598   2.679  12.245 -0.1811 -0.0602  0.0698
  422TMC3     H 6300   4.515   2.805  12.434 -1.2133  0.7160  0.3235
  422TMC3    H1 6301   4.429   2.390  12.415  3.2850  2.5202 -3.1449
  422TMC3    H2 6302   4.176   2.659  12.632  0.1367 -2.8693  1.8131
  422TMC3    C7 6303   4.200   2.408  12.513  0.1870  0.0058 -0.1948
  422TMC3    C8 6304   4.292   2.873  12.551 -0.6463  0.3596  0.0899
  422TMC3    O1 6305   4.220   2.329  12.427  0.3338  0.0946  0.3807
  422TMC3    O2 6306   4.380   2.960  12.544  0.8083  0.3254 -0.3209
  423MPD2     C 6307   0.984   3.763   0.288 -0.8344 -0.2648 -0.0076
  423MPD2    C1 6308   0.880   3.682   0.309 -0.7963 -0.0672 -0.3001
  423MPD2    C2 6309   0.848   3.582   0.216 -0.1548  0.2288  0.2124
  423MPD2    C3 6310   0.920   3.582   0.098 -0.6895  0.1912 -0.0667
  423MPD2    C4 6311   1.020   3.675   0.074  0.2576  0.0724 -0.0719
  423MPD2    C5 6312   1.053   3.757   0.176 -0.2887  0.5137 -0.6554
  423MPD2     H 6313   0.782   3.503   0.249 -0.0422 -0.1055 -0.3684
  423MPD2    H1 6314   1.068   3.690  17.663 -0.2660  0.0356 -0.3437
  423MPD2    H2 6315   0.996   3.855   0.344  0.8213 -0.2268 -0.4330
  423MPD2    H3 6316   1.132   3.830   0.162 -1.6248  2.1375  0.2978
  423MPD2     N 6317   0.918   3.481  17.680 -0.2171 -0.6078  0.1185
  423MPD2    H5 6318   0.978   3.498  17.600  3.0077 -1.9191  2.2767
  423MPD2    N1 6319   0.811   3.681   0.431  0.4113  0.1373 -0.1191
  423MPD2    H7 6320   0.726   3.625   0.442  0.5794  0.1222  1.1826
  424TMC3    C1 6321   0.759   3.714   0.657 -0.4569 -0.6981 -0.3369
  424TMC3    C2 6322   0.811   3.659   0.768  0.0300 -0.6869  0.3409
  424TMC3    C3 6323   0.730   3.583   0.847 -0.3492  0.2004  0.5241
  424TMC3    C4 6324   0.631   3.701   0.619 -0.3218  1.1310 -0.0091
  424TMC3    C5 6325   0.549   3.626   0.702 -0.2962 -0.0093  0.0505
  424TMC3    C6 6326   0.593   3.559   0.813 -0.4322  0.2205 -0.0155
  424TMC3     C 6327   0.849   3.746   0.553 -0.4228 -0.1690 -0.1876
  424TMC3     O 6328   0.964   3.781   0.575 -0.0623 -0.3456 -0.4779
  424TMC3     H 6329   0.917   3.672   0.783  0.3394 -4.1123  1.2257
  424TMC3    H1 6330   0.590   3.763   0.540  0.2892  0.2243 -1.0357
  424TMC3    H2 6331   0.530   3.499   0.878  0.5634 -0.0908  0.6669
  424TMC3    C7 6332   0.401   3.642   0.680 -0.1028 -0.2364  0.5950
  424TMC3    C8 6333   0.776   3.531   0.972  0.0873  0.0981 -0.3527
  424TMC3    O1 6334   0.372   3.679   0.568  0.5824  0.4657 -0.1492
  424TMC3    O2 6335   0.682   3.497   1.049  0.1542  0.5648 -0.3978
  425MPD2     C 6336   4.624   2.847  17.523  0.1131  0.1373  0.7054
  425MPD2    C1 6337   4.624   2.715  17.495  0.4333  0.1870  0.0058
  425MPD2    C2 6338   4.503   2.665  17.449  0.1088  0.5535  0.2315
  425MPD2    C3 6339   4.391   2.746  17.436 -0.8799  0.2866  0.1399
  425MPD2    C4 6340   4.403   2.882  17.457  0.4606 -0.5852  0.4228
  425MPD2    C5 6341   4.524   2.933  17.505  0.3835  0.5877 -0.3807
  425MPD2     H 6342   4.505   2.557  17.444 -0.0067  0.6992 -2.6645
  425MPD2    H1 6343   4.320   2.952  17.453 -0.6284 -1.7227  3.1247
  425MPD2    H2 6344   4.701   2.897  17.582  1.4267 -3.6900  2.2082
  425MPD2    H3 6345   4.530   3.040  17.520 -0.2072  0.4472  0.7974
  425MPD2     N 6346   4.260   2.695  17.429  0.3324 -1.2304 -0.0312
  425MPD2    H5 6347   4.184   2.762  17.433  2.9380  1.7142 -0.1187
  425MPD2    N1 6348   0.017   2.635  17.525  0.0082 -0.6024  0.8066
  425MPD2    H7 6349   0.086   2.668  17.591  1.5512  1.6843 -1.9273
  426TMC3    C1 6350   0.164   2.456  17.511 -1.8374 -0.0787  0.2804
  426TMC3    C2 6351   0.215   2.379  17.413  0.6222 -0.4543 -0.4965
  426TMC3    C3 6352   0.251   2.250  17.449  0.3187  0.6934  0.0289
  426TMC3    C4 6353   0.159   2.427  17.645  0.3570  0.4755 -0.1193
  426TMC3    C5 6354   0.184   2.293  17.669 -0.3035 -0.4800  0.2602
  426TMC3    C6 6355   0.228   2.201  17.575 -0.0746 -0.1074  0.5441
  426TMC3     C 6356   0.043   2.522  17.461  0.9216  0.1586  1.0127
  426TMC3     O 6357   4.709   2.466  17.369 -0.0217 -0.1163  0.3691
  426TMC3     H 6358   0.217   2.422  17.313 -1.7913 -1.8006 -1.1273
  426TMC3    H1 6359   0.102   2.489   0.029  0.6929  0.6896 -0.0342
  426TMC3    H2 6360   0.224   2.094  17.587 -1.4445 -0.0446  0.6383
  426TMC3    C7 6361   0.141   2.250   0.118  0.4042 -0.9641 -0.1752
  426TMC3    C8 6362   0.238   2.154  17.343  0.0402 -0.3343 -0.0661
  426TMC3    O1 6363   0.075   2.324   0.190 -0.0889 -0.5785  0.1194
  426TMC3    O2 6364   0.297   2.047  17.344 -0.5303  0.3743  0.7129
  427MPD2     C 6365   3.192   3.937  14.527 -0.7013  0.1691 -0.5005
  427MPD2    C1 6366   3.262   4.023  14.608  0.5028 -0.2043 -0.4040
  427MPD2    C2 6367   3.214   4.152  14.623 -0.6397  0.0090 -0.0870
  427MPD2    C3 6368   3.096   4.191  14.556  0.1986  0.6143  0.7698
  427MPD2    C4 6369   3.037   4.104  14.471  0.7377  0.3374 -0.2528
  427MPD2    C5 6370   3.081   3.979  14.461  0.2309  0.0410 -0.0481
  427MPD2     H 6371   3.255   4.212  14.703 -0.7398 -2.1168  1.5464
  427MPD2    H1 6372   2.943   4.129  14.422  0.7354  0.7485 -0.0399
  427MPD2    H2 6373   3.230   3.836  14.514 -2.2125 -0.4289 -0.3692
  427MPD2    H3 6374   3.034   3.904  14.398  0.9368 -0.1266 -0.3787
  427MPD2     N 6375   3.026   4.317  14.592 -0.3500 -0.7705  0.2056
  427MPD2    H5 6376   3.062   4.376  14.666  0.1300  0.0519 -0.6871
  427MPD2    N1 6377   3.370   3.989  14.689 -0.4908  0.2718 -0.0066
  427MPD2    H7 6378   3.418   4.062  14.740 -1.4872  1.1551 -0.3333
  428TMC3    C1 6379   3.537   3.842  14.775  0.1058 -0.1156 -0.5832
  428TMC3    C2 6380   3.565   3.727  14.837 -0.6220  0.0811 -0.7420
  428TMC3    C3 6381   3.696   3.689  14.862 -0.5066 -0.1938  0.0499
  428TMC3    C4 6382   3.637   3.919  14.731 -0.0816 -0.2139 -0.5414
  428TMC3    C5 6383   3.771   3.887  14.752  0.6803  0.3022  0.0788
  428TMC3    C6 6384   3.797   3.769  14.820  0.1434 -0.4920  0.4508
  428TMC3     C 6385   3.415   3.860  14.710  0.2806 -0.2538  0.1114
  428TMC3     O 6386   3.376   3.758  14.657  0.1032 -0.1043 -0.1269
  428TMC3     H 6387   3.481   3.661  14.853 -1.4023  1.3890  0.5374
  428TMC3    H1 6388   3.615   4.013  14.681 -0.0374  0.1438  0.1131
  428TMC3    H2 6389   3.897   3.745  14.852  0.5171  0.2787 -0.1292
  428TMC3    C7 6390   3.864   3.993  14.773 -0.1535  0.8723  0.2664
  428TMC3    C8 6391   3.734   3.548  14.879  0.1697  0.0377 -0.4313
  428TMC3    O1 6392   3.941   3.966  14.865 -0.0162 -0.5525 -0.1865
  428TMC3    O2 6393   3.822   3.499  14.814 -0.2569 -0.0225  0.2056
  429MPD2     C 6394   4.591   0.132  17.641  0.2320 -0.2700  0.4269
  429MPD2    C1 6395   4.616   0.083  17.510 -0.2825 -0.2276  0.3597
  429MPD2    C2 6396   0.011   0.137  17.439  0.7271  0.9474  0.0288
  429MPD2    C3 6397   0.076   0.245  17.491 -0.0509 -0.9996  0.2696
  429MPD2    C4 6398   0.048   0.292  17.622  0.4994 -0.8889 -0.3093
  429MPD2    C5 6399   4.669   0.230   0.012 -0.1697 -0.2693 -0.2925
  429MPD2     H 6400   0.035   0.103  17.340  0.3625 -0.2397  0.3480
  429MPD2    H1 6401   0.099   0.375  17.669 -1.3398 -0.2442  0.5563
  429MPD2    H2 6402   4.504   0.108   0.018 -0.4391 -0.6523 -0.6716
  429MPD2    H3 6403   4.649   0.291   0.100  0.7578 -1.6976  0.9072
  429MPD2     N 6404   0.181   0.304  17.414  0.4274 -0.4740  0.0176
  429MPD2    H5 6405   0.186   0.265  17.320  0.2897 -1.0299  0.2389
  429MPD2    N1 6406   4.539   4.702  17.454 -0.1631  0.4573 -0.7381
  429MPD2    H7 6407   4.559   4.672  17.359  0.4049 -1.4122 -0.0269
  430TMC3    C1 6408   0.370   0.420  17.352  0.5796 -0.5562 -1.1777
  430TMC3    C2 6409   0.355   0.524  17.258  0.3955  0.4810  0.1458
  430TMC3    C3 6410   0.414   0.513  17.136  0.0400  0.2505 -0.5141
  430TMC3    C4 6411   0.447   0.312  17.321  0.0268  0.2817 -0.6524
  430TMC3    C5 6412   0.508   0.307  17.198  0.2795  0.2987 -0.3431
  430TMC3    C6 6413   0.497   0.407  17.110 -0.1243  0.6668 -0.2581
  430TMC3     C 6414   0.268   0.400  17.451 -0.1152 -0.3207 -0.3792
  430TMC3     O 6415   0.242   0.494  17.526 -1.0720 -0.0225 -0.5756
  430TMC3     H 6416   0.285   0.606  17.277  0.1421  0.2736  0.1040
  430TMC3    H1 6417   0.443   0.237  17.400 -2.1420 -1.6719 -2.6097
  430TMC3    H2 6418   0.543   0.403  17.012 -1.7804  0.4652 -1.0327
  430TMC3    C7 6419   0.521   0.173  17.148  0.4457  0.1626  0.4287
  430TMC3    C8 6420   0.339   0.556  17.026  0.1829 -0.0672 -0.1093
  430TMC3    O1 6421   0.443   0.095  17.197  0.4629 -0.5421  0.0633
  430TMC3    O2 6422   0.346   0.491  16.924 -0.4643  0.3600  0.4361
  431MPD2     C 6423   0.939   0.296  12.576  1.3376  0.5893 -0.7220
  431MPD2    C1 6424   0.967   0.321  12.441 -0.0757 -0.1455 -0.0062
  431MPD2    C2 6425   0.955   0.214  12.347 -1.0687 -0.2911  0.1254
  431MPD2    C3 6426   0.938   0.084  12.394 -0.2799 -0.2021 -0.3053
  431MPD2    C4 6427   0.933   0.065  12.531 -0.0692 -0.1809  0.3947
  431MPD2    C5 6428   0.921   0.166  12.625  0.2483 -0.2230  0.2892
  431MPD2     H 6429   0.964   0.233  12.241  2.3229  1.5252  0.7462
  431MPD2    H1 6430   0.929   4.683  12.566 -0.8458 -0.2394  0.1300
  431MPD2    H2 6431   0.954   0.375  12.649  1.3203  0.3963 -0.5075
  431MPD2    H3 6432   0.900   0.150  12.730  0.1241  1.7677  0.5646
  431MPD2     N 6433   0.920   4.690  12.316 -0.4720  0.6554 -0.4731
  431MPD2    H5 6434   0.923   4.601  12.365  0.7523  0.4102 -0.9813
  431MPD2    N1 6435   1.010   0.441  12.387 -0.2704  0.0777  0.2118
  431MPD2    H7 6436   1.035   0.444  12.288 -1.1414  2.3292  0.0510
  432TMC3    C1 6437   0.927   4.542  12.133 -0.4903  0.0411 -0.0598
  432TMC3    C2 6438   0.953   4.525  12.000 -0.4489  0.1003  0.0426
  432TMC3    C3 6439   0.927   4.397  11.955  0.0580  1.0806 -0.2219
  432TMC3    C4 6440   0.869   4.450  12.212 -1.2074 -0.2968 -0.2803
  432TMC3    C5 6441   0.849   4.319  12.171 -0.5481  0.9547  0.3452
  432TMC3    C6 6442   0.879   4.295  12.036 -0.4787  0.5690  0.0378
  432TMC3     C 6443   0.932   4.686  12.180  0.3521 -0.3005 -0.8815
  432TMC3     O 6444   0.963   0.058  12.102  0.1719 -0.3959 -0.2245
  432TMC3     H 6445   1.003   4.600  11.939 -1.8129  1.1241  0.1780
  432TMC3    H1 6446   0.839   4.485  12.310  0.2820 -0.1628  0.1277
  432TMC3    H2 6447   0.888   4.191  12.006  0.8978  0.5991  0.3592
  432TMC3    C7 6448   0.757   4.228  12.236 -0.0363 -0.1099  0.2171
  432TMC3    C8 6449   0.947   4.358  11.818  0.8555  0.5144  0.2076
  432TMC3    O1 6450   0.715   4.129  12.176  0.0057 -0.0203  0.0057
  432TMC3    O2 6451   0.893   4.255  11.777 -0.0161 -0.2954 -0.3954
  433MPD2     C 6452   0.131   4.237  10.819 -0.4233 -0.4483  0.3875
  433MPD2    C1 6453   0.055   4.163  10.904  0.3818 -0.2399 -0.3923
  433MPD2    C2 6454   0.095   4.150  11.041  0.9138 -0.1386 -0.6267
  433MPD2    C3 6455   0.200   4.226  11.088 -0.9195 -0.3322  0.2748
  433MPD2    C4 6456   0.263   4.313  11.000  0.2723  0.4614  0.8250
  433MPD2    C5 6457   0.227   4.321  10.869 -0.1233 -0.8692 -1.1097
  433MPD2     H 6458   0.039   4.082  11.105  0.2465 -0.3122 -1.3971
  433MPD2    H1 6459   0.348   4.374  11.029 -1.7446  4.3899 -1.5356
  433MPD2    H2 6460   0.105   4.237  10.714  0.0537 -2.8260  0.2775
  433MPD2    H3 6461   0.285   4.381  10.799  0.0386  0.0408 -0.1938
  433MPD2     N 6462   0.228   4.217  11.226  0.9275 -0.2841  0.0843
  433MPD2    H5 6463   0.170   4.149  11.273  2.0731  0.0912  2.0479
  433MPD2    N1 6464   4.669   4.086  10.839  0.5213  0.3995 -0.3498
  433MPD2    H7 6465   4.662   4.081  10.738  0.0669 -3.0976 -0.1504
  434TMC3    C1 6466   4.489   3.922  10.834  1.1837  0.3703 -0.3219
  434TMC3    C2 6467   4.465   3.806  10.906  0.2287  0.5507  0.1107
  434TMC3    C3 6468   4.446   3.689  10.845  0.7361  0.1327  0.5815
  434TMC3    C4 6469   4.488   3.920  10.700 -0.7380 -0.0603 -0.0877
  434TMC3    C5 6470   4.476   3.795  10.640  0.2809 -0.3956  0.2439
  434TMC3    C6 6471   4.458   3.676  10.711 -0.0880 -0.5027  0.6800
  434TMC3     C 6472   4.565   4.023  10.911  0.2052 -0.1470  0.5435
  434TMC3     O 6473   4.544   4.032  11.028  0.2520  0.5646 -0.5132
  434TMC3     H 6474   4.469   3.811  11.014 -2.5380  0.7951  0.2160
  434TMC3    H1 6475   4.512   4.011  10.645  1.5511 -0.4842  0.2007
  434TMC3    H2 6476   4.437   3.576  10.675 -0.1505 -0.3676  0.3425
  434TMC3    C7 6477   4.529   3.783  10.506 -0.3716 -0.0122 -0.1386
  434TMC3    C8 6478   4.478   3.577  10.927  0.4059  0.4061  0.3088
  434TMC3    O1 6479   4.576   3.880  10.449 -0.1947  0.6025  0.1441
  434TMC3    O2 6480   4.562   3.610  11.011 -0.4607 -0.0407 -0.1633
  435MPD2     C 6481   1.273   3.539  15.249 -0.2379  0.8023 -0.5740
  435MPD2    C1 6482   1.232   3.482  15.363 -0.0411  0.0375  0.5321
  435MPD2    C2 6483   1.318   3.473  15.466 -0.5227 -0.4419  0.4156
  435MPD2    C3 6484   1.453   3.508  15.450  1.0977 -0.0420 -0.3052
  435MPD2    C4 6485   1.488   3.571  15.332  0.5431 -0.1111  0.0516
  435MPD2    C5 6486   1.398   3.587  15.233  0.8435 -0.4288  0.0701
  435MPD2     H 6487   1.287   3.429  15.560 -3.1547  0.5729  0.0183
  435MPD2    H1 6488   1.592   3.598  15.315  0.8913 -1.2402  0.3913
  435MPD2    H2 6489   1.206   3.552  15.165 -1.0116 -1.8357 -0.3657
  435MPD2    H3 6490   1.418   3.636  15.138  0.0291  1.9932  1.1678
  435MPD2     N 6491   1.539   3.482  15.557  0.8466 -0.1348  0.2953
  435MPD2    H5 6492   1.499   3.435  15.637 -1.7285 -0.2114 -1.0603
  435MPD2    N1 6493   1.093   3.428  15.369  0.1288 -0.1835 -0.6310
  435MPD2    H7 6494   1.068   3.392  15.461 -0.2969  2.5213  0.3263
  436TMC3    C1 6495   0.740   3.253  15.468 -0.7049  0.1444  0.9790
  436TMC3    C2 6496   0.846   3.329  15.443 -0.8767  0.1632  0.0188
  436TMC3    C3 6497   0.882   3.345  15.310  0.6578 -0.0540  1.0682
  436TMC3    C4 6498   0.678   3.177  15.375 -0.4459 -0.2596 -0.1839
  436TMC3    C5 6499   0.712   3.192  15.246 -1.1084 -0.1645 -0.4250
  436TMC3    C6 6500   0.814   3.281  15.212  0.3407 -0.2347  0.1168
  436TMC3     C 6501   0.712   3.218  15.603  0.2988  0.7775  0.1185
  436TMC3     O 6502   0.720   3.096  15.620  0.3064  0.2305  0.0061
  436TMC3     H 6503   0.913   3.360  15.522  0.7115  2.4564 -2.2214
  436TMC3    H1 6504   0.579   3.138  15.394 -0.6130 -0.7857 -2.1446
  436TMC3    H2 6505   0.832   3.313  15.110 -1.2194 -0.4162 -0.2138
  436TMC3    C7 6506   0.632   3.132  15.136  0.2434 -0.1781  0.7881
  436TMC3    C8 6507   1.003   3.417  15.268  0.7493  0.0724 -0.2850
  436TMC3    O1 6508   0.511   3.129  15.159  0.1767 -0.2886  0.0569
  436TMC3    O2 6509   1.010   3.454  15.152 -0.3703 -0.0993 -0.6541
  437TMC3    C1 6510   0.059   1.086  12.619  0.1923  0.6762  0.0323
  437TMC3    C2 6511   4.645   1.091  12.591 -0.0789 -0.3042  0.1668
  437TMC3    C3 6512   4.621   1.142  12.464 -0.5749  0.5520 -0.0271
  437TMC3    C4 6513   0.161   1.140  12.545  0.7215 -0.0962  0.4930
  437TMC3    C5 6514   0.122   1.170  12.412 -0.1315 -0.2302 -0.6538
  437TMC3    C6 6515   4.715   1.172  12.372 -0.1598  0.4844  0.2328
  437TMC3     C 6516   0.105   1.040  12.748  0.1396 -0.4288 -0.4044
  437TMC3     O 6517   0.224   1.027  12.752  0.2443 -0.3692  0.9437
  437TMC3     H 6518   4.567   1.037  12.644 -0.3094 -0.1712 -0.0354
  437TMC3    H1 6519   0.266   1.135  12.570  0.5509 -0.1918  1.1947
  437TMC3    H2 6520   4.694   1.203  12.270 -0.1295 -0.3540 -0.0338
  437TMC3    C7 6521   0.220   1.221  12.314  0.3294  0.1212 -0.7918
  437TMC3    C8 6522   4.478   1.153  12.422 -0.2341  0.1996  0.7487
  437TMC3    O1 6523   0.182   1.228  12.197 -0.0196 -0.4238  0.5522
  437TMC3    O2 6524   4.401   1.088  12.494  0.4123  0.5708 -0.0292
  438MPD2     C 6525   2.566   0.980  16.900  0.3198 -0.1836  0.3496
  438MPD2    C1 6526   2.609   0.856  16.945  0.6031 -0.3086 -0.2360
  438MPD2    C2 6527   2.636   0.847  17.078  0.2367 -0.1847  0.4484
  438MPD2    C3 6528   2.604   0.938  17.170 -0.4521  0.3105 -0.1491
  438MPD2    C4 6529   2.555   1.059  17.125 -0.4151 -0.2427  0.0849
  438MPD2    C5 6530   2.538   1.079  16.991 -0.2732  0.6075 -0.3561
  438MPD2     H 6531   2.663   0.748  17.114 -0.1115 -0.2342  0.5755
  438MPD2    H1 6532   2.528   1.139  17.192 -1.2817  1.3659 -2.1667
  438MPD2    H2 6533   2.552   0.996  16.794  0.2731  0.7955  0.4982
  438MPD2    H3 6534   2.502   1.170  16.943  1.6714  0.8281 -1.3751
  438MPD2     N 6535   2.616   0.899  17.306  0.4838  0.5490  1.3364
  438MPD2    H5 6536   2.625   0.800  17.325 -0.8180 -0.2301 -2.0354
  438MPD2    N1 6537   2.651   0.750  16.856 -0.8123 -0.5562  0.2990
  438MPD2    H7 6538   2.696   0.668  16.896  1.2967  0.7862  0.6996
  439TMC3    C1 6539   2.707   0.615  16.677  0.3624  0.0724 -0.2056
  439TMC3    C2 6540   2.805   0.634  16.578  1.1556 -0.4074 -0.3368
  439TMC3    C3 6541   2.908   0.545  16.573  0.0476 -0.2779 -0.0848
  439TMC3    C4 6542   2.711   0.509  16.771  0.3349 -0.6047  0.1724
  439TMC3    C5 6543   2.814   0.417  16.753 -0.6242  0.4166  0.2206
  439TMC3    C6 6544   2.914   0.441  16.665 -0.3054 -0.7966  0.0455
  439TMC3     C 6545   2.641   0.742  16.717  0.3929  0.1161  0.5965
  439TMC3     O 6546   2.630   0.829  16.635  0.2667  0.0712 -0.1435
  439TMC3     H 6547   2.808   0.727  16.523 -0.9197  0.4145  0.9358
  439TMC3    H1 6548   2.639   0.496  16.852  1.2812  0.9967  1.2655
  439TMC3    H2 6549   2.989   0.364  16.652  0.8798  0.0815  1.6406
  439TMC3    C7 6550   2.850   0.344  16.874 -0.3664  0.4742 -0.7031
  439TMC3    C8 6551   3.005   0.544  16.468  0.1902 -0.0826  0.1150
  439TMC3    O1 6552   2.758   0.286  16.933  0.0784  0.2827  0.3853
  439TMC3    O2 6553   3.116   0.509  16.499 -0.3041 -0.2273  0.0220
  440MPD2     C 6554   1.710   1.876  14.548 -0.2039  0.6606 -0.3114
  440MPD2    C1 6555   1.831   1.925  14.493  0.2454  0.6195 -0.1513
  440MPD2    C2 6556   1.950   1.857  14.499 -0.0821 -0.2655  0.9844
  440MPD2    C3 6557   1.957   1.733  14.566 -0.3230 -0.4217 -0.4763
  440MPD2    C4 6558   1.843   1.683  14.618  0.4654  0.3934 -0.0982
  440MPD2    C5 6559   1.725   1.751  14.608  0.2726 -0.1729 -0.2430
  440MPD2     H 6560   2.034   1.900  14.447 -0.2997  0.0955  0.9354
  440MPD2    H1 6561   1.834   1.589  14.671  0.1015  0.8400  0.6222
  440MPD2    H2 6562   1.618   1.933  14.553 -1.8351 -1.7717 -2.5075
  440MPD2    H3 6563   1.637   1.697  14.643 -1.3939  1.2659 -2.1875
  440MPD2     N 6564   2.077   1.662  14.583 -0.8251  0.4210  0.7503
  440MPD2    H5 6565   2.066   1.584  14.647 -1.5379 -0.7302 -0.7709
  440MPD2    N1 6566   1.832   2.052  14.423  0.1541 -0.0073 -0.4948
  440MPD2    H7 6567   1.919   2.083  14.381  0.0844 -2.1121 -2.1592
  441TMC3    C1 6568   2.300   1.608  14.605  0.3962  0.7287 -0.4930
  441TMC3    C2 6569   2.417   1.668  14.639  0.2185  0.5746 -0.3120
  441TMC3    C3 6570   2.486   1.630  14.752 -0.3406 -0.0743 -0.5634
  441TMC3    C4 6571   2.269   1.486  14.665 -0.2199 -0.1436  0.2399
  441TMC3    C5 6572   2.340   1.449  14.778  0.1163 -0.2074 -0.6358
  441TMC3    C6 6573   2.443   1.523  14.823  0.4561 -0.4026 -0.1769
  441TMC3     C 6574   2.199   1.705  14.550 -0.1757 -0.2111  0.5108
  441TMC3     O 6575   2.237   1.813  14.505  1.2420 -0.0898  0.3210
  441TMC3     H 6576   2.439   1.767  14.602  0.5340  1.1195  1.3340
  441TMC3    H1 6577   2.180   1.434  14.632 -0.4947  1.0443 -0.9474
  441TMC3    H2 6578   2.499   1.484  14.907  0.3499  0.3736  0.2519
  441TMC3    C7 6579   2.259   1.405  14.895 -0.5074 -0.3477  0.5133
  441TMC3    C8 6580   2.491   1.739  14.838 -0.8027  0.5554  0.6982
  441TMC3    O1 6581   2.284   1.460  15.004  0.6297  0.4635 -0.3870
  441TMC3    O2 6582   2.558   1.834  14.804  0.9377 -0.3419 -0.3894
  442MPD2     C 6583   4.186   2.165  16.990 -0.1341 -0.0108 -0.3857
  442MPD2    C1 6584   4.165   2.188  16.859 -0.0271 -0.9266  0.0831
  442MPD2    C2 6585   4.188   2.087  16.760 -0.0595  0.4739 -0.2166
  442MPD2    C3 6586   4.264   1.973  16.798  0.3632  1.0241  0.4520
  442MPD2    C4 6587   4.295   1.960  16.935 -0.3776 -0.6684 -0.3163
  442MPD2    C5 6588   4.253   2.050  17.027 -0.7145 -0.7314  0.3059
  442MPD2     H 6589   4.151   2.102  16.659 -1.1010 -1.0584 -0.0543
  442MPD2    H1 6590   4.345   1.866  16.955 -0.0741 -0.9808 -2.6213
  442MPD2    H2 6591   4.160   2.238  17.066  1.1150 -1.2387  1.2401
  442MPD2    H3 6592   4.269   2.031  17.132 -0.3808  3.3274  0.9891
  442MPD2     N 6593   4.308   1.880  16.699 -0.1343 -0.2832 -0.5702
  442MPD2    H5 6594   4.376   1.814  16.735  0.6462 -0.1791 -1.8534
  442MPD2    N1 6595   4.113   2.312  16.820  0.2267 -0.9719 -0.6084
  442MPD2    H7 6596   4.103   2.333  16.721  0.0014 -0.8684 -0.5645
  443TMC3    C1 6597   3.945   2.469  16.826  0.2814  0.2280 -0.0510
  443TMC3    C2 6598   3.987   2.525  16.711  0.0928  0.1447  0.2959
  443TMC3    C3 6599   3.903   2.581  16.619  0.5152 -0.4892  1.1533
  443TMC3    C4 6600   3.810   2.451  16.845  0.2594  0.7817 -0.0597
  443TMC3    C5 6601   3.727   2.490  16.741  0.1286  0.3992  0.4998
  443TMC3    C6 6602   3.771   2.539  16.629  0.5340  0.1104 -0.1053
  443TMC3     C 6603   4.035   2.387  16.905  0.4452  0.2079 -0.5205
  443TMC3     O 6604   3.995   2.367  17.019 -0.3142 -0.7709  0.4455
  443TMC3     H 6605   4.090   2.539  16.681 -0.0163  0.1934 -0.0579
  443TMC3    H1 6606   3.775   2.416  16.942 -4.0990  0.8969 -1.5768
  443TMC3    H2 6607   3.696   2.561  16.553 -0.2125 -1.4625  0.1668
  443TMC3    C7 6608   3.603   2.415  16.748  0.2693 -0.9907  0.0614
  443TMC3    C8 6609   3.948   2.565  16.491  0.3025 -0.1393 -0.4841
  443TMC3    O1 6610   3.583   2.340  16.846 -0.3287 -0.0127  0.0169
  443TMC3    O2 6611   4.044   2.492  16.465  0.2436 -0.3172 -0.8199
  444MPD2     C 6612   0.015   1.442  17.056  0.1583  0.4217 -0.1557
  444MPD2    C1 6613   4.659   1.348  16.992 -0.8293  0.0264  0.2741
  444MPD2    C2 6614   4.716   1.246  16.920 -0.1832 -0.1910  0.2222
  444MPD2    C3 6615   0.133   1.228  16.920 -0.4950  0.1844  0.7204
  444MPD2    C4 6616   0.207   1.297  17.012 -0.2199 -0.3517  0.6596
  444MPD2    C5 6617   0.152   1.408  17.070  0.2582  0.0022  0.8424
  444MPD2     H 6618   4.661   1.178  16.857 -0.3124 -0.4642  0.6252
  444MPD2    H1 6619   0.313   1.278  17.026 -0.1018  0.2777  0.5887
  444MPD2    H2 6620   4.693   1.514  17.125 -0.1719  0.6586 -0.6143
  444MPD2    H3 6621   0.219   1.468  17.129 -1.9084  0.6040  2.6996
  444MPD2     N 6622   0.189   1.138  16.834  0.5574 -0.1554  0.3587
  444MPD2    H5 6623   0.118   1.078  16.792  0.1502  2.7460 -3.1439
  444MPD2    N1 6624   4.518   1.358  16.996  0.2395 -0.2777  0.7287
  444MPD2    H7 6625   4.465   1.282  16.954  1.4792 -0.5309 -0.3618
  445TMC3    C1 6626   0.339   1.041  16.690 -0.4154  0.0730 -0.6166
  445TMC3    C2 6627   0.241   1.019  16.596 -0.3941 -0.8374 -0.3324
  445TMC3    C3 6628   0.281   0.989  16.466 -0.0297 -0.0941 -0.0233
  445TMC3    C4 6629   0.462   1.005  16.665 -0.0721 -0.0706  0.0980
  445TMC3    C5 6630   0.500   0.980  16.537 -0.3118  0.3448  0.2979
  445TMC3    C6 6631   0.412   0.965  16.433  0.2225 -0.0140 -0.5324
  445TMC3     C 6632   0.321   1.131  16.799  0.6043  0.4352  0.1948
  445TMC3     O 6633   0.422   1.178  16.851 -0.0225  0.8942  0.4581
  445TMC3     H 6634   0.138   1.052  16.598 -0.1355 -0.1139  1.5196
  445TMC3    H1 6635   0.541   1.021  16.739 -1.4616  1.2717  1.2980
  445TMC3    H2 6636   0.442   0.963  16.329 -1.1125  0.3753 -0.9237
  445TMC3    C7 6637   0.640   0.980  16.500 -0.2477  0.5836  0.5580
  445TMC3    C8 6638   0.183   0.976  16.362 -0.2928  0.3892  0.5079
  445TMC3    O1 6639   0.682   1.010  16.386  0.1663  0.5910 -0.0363
  445TMC3    O2 6640   0.084   1.044  16.379 -0.5573 -0.3780  0.1651
  446MPD2     C 6641   4.474   3.306  11.454  0.0997 -0.0544  0.0918
  446MPD2    C1 6642   4.408   3.368  11.349  0.0828 -0.3572  0.2164
  446MPD2    C2 6643   4.474   3.479  11.293 -0.0042  0.6174  0.3204
  446MPD2    C3 6644   4.600   3.518  11.346 -0.1656 -0.0699 -0.2187
  446MPD2    C4 6645   4.654   3.453  11.459  0.4730 -0.3965  0.5041
  446MPD2    C5 6646   4.588   3.350  11.515  0.4824 -0.1772  0.2303
  446MPD2     H 6647   4.439   3.523  11.201  2.0304 -1.2693 -1.3842
  446MPD2    H1 6648   0.028   3.490  11.495 -0.0211  0.4232  0.9581
  446MPD2    H2 6649   4.425   3.225  11.506 -1.6238 -0.5909 -2.3318
  446MPD2    H3 6650   4.639   3.295  11.594 -1.1722 -0.4210  1.1463
  446MPD2     N 6651   4.687   3.603  11.266  0.1100  0.0626  0.1389
  446MPD2    H5 6652   4.640   3.657  11.193  0.0317  0.2935  0.3595
  446MPD2    N1 6653   4.298   3.315  11.284 -0.6357  0.5618  0.1503
  446MPD2    H7 6654   4.253   3.379  11.219 -1.2680 -0.6473 -0.5958
  447TMC3    C1 6655   0.169   3.731  11.215  0.2424 -0.0921  1.1012
  447TMC3    C2 6656   0.124   3.768  11.096  0.1168  0.1883 -1.0953
  447TMC3    C3 6657   0.206   3.836  11.008  0.1216 -0.2875  0.2719
  447TMC3    C4 6658   0.300   3.750  11.244 -0.1634 -0.5070 -0.3406
  447TMC3    C5 6659   0.381   3.823  11.156 -0.9538  0.1487  0.6388
  447TMC3    C6 6660   0.336   3.863  11.038 -0.7020  0.4525 -0.2195
  447TMC3     C 6661   0.109   3.619  11.284  0.2789  0.8041  0.5106
  447TMC3     O 6662   0.181   3.540  11.346 -0.4026 -0.0244  0.0574
  447TMC3     H 6663   0.019   3.754  11.070  0.9228 -2.3512 -2.9731
  447TMC3    H1 6664   0.329   3.711  11.340  0.4799  1.3100  0.2035
  447TMC3    H2 6665   0.397   3.922  10.971 -0.6358 -1.1290 -1.5408
  447TMC3    C7 6666   0.515   3.764  11.148 -0.0975  0.4833  0.4284
  447TMC3    C8 6667   0.172   3.830  10.873 -0.5142 -0.4055 -0.2586
  447TMC3    O1 6668   0.574   3.755  11.042 -0.3717 -0.3132  0.6752
  447TMC3    O2 6669   0.233   3.891  10.786  0.7848  0.6534  0.3190
  448TMC3    C1 6670   2.196   2.270  16.917 -0.8715 -0.4287 -0.7211
  448TMC3    C2 6671   2.262   2.280  16.796  0.1222 -0.3938 -0.4096
  448TMC3    C3 6672   2.385   2.229  16.778  0.8761  0.5914 -0.0602
  448TMC3    C4 6673   2.245   2.187  17.015  0.1102 -0.6149 -0.7873
  448TMC3    C5 6674   2.368   2.137  16.989  0.4580  0.0449 -0.0217
  448TMC3    C6 6675   2.439   2.156  16.878  0.0707  0.1872 -0.3254
  448TMC3     C 6676   2.072   2.336  16.935 -0.7817  0.4061 -0.9526
  448TMC3     O 6677   2.042   2.411  16.843 -0.0131  0.0060 -0.2362
  448TMC3     H 6678   2.213   2.342  16.721 -0.0810  1.2088  1.0356
  448TMC3    H1 6679   2.190   2.163  17.106  2.5052  0.4529  0.9232
  448TMC3    H2 6680   2.536   2.110  16.865  0.9549  1.7758  0.7514
  448TMC3    C7 6681   2.406   2.011  17.057  0.4698 -0.1902  0.4731
  448TMC3    C8 6682   2.445   2.215  16.649 -0.1172  0.4157 -0.1724
  448TMC3    O1 6683   2.474   1.926  16.997 -1.0138 -0.3904  0.0999
  448TMC3    O2 6684   2.519   2.116  16.638  0.3582  0.6257  0.0115
  449MPD2     C 6685   3.851   0.514  13.029 -0.2864  0.3611 -0.3391
  449MPD2    C1 6686   3.789   0.618  12.969  0.0383  0.4788  0.6352
  449MPD2    C2 6687   3.676   0.594  12.900  0.4708  0.6596 -0.3250
  449MPD2    C3 6688   3.616   0.472  12.906 -0.1123 -1.1409 -0.4162
  449MPD2    C4 6689   3.670   0.371  12.979  0.1539  0.3738 -0.0133
  449MPD2    C5 6690   3.790   0.388  13.034  0.8628  0.0642 -0.1181
  449MPD2     H 6691   3.615   0.672  12.858  1.9634  2.8398  1.5887
  449MPD2    H1 6692   3.623   0.273  12.979 -0.1818  0.5342 -0.5882
  449MPD2    H2 6693   3.950   0.523  13.072 -0.4120  2.2218 -0.4481
  449MPD2    H3 6694   3.842   0.302  13.074  0.1239 -0.8010 -0.9821
  449MPD2     N 6695   3.498   0.456  12.834  0.4752  0.5328  0.4823
  449MPD2    H5 6696   3.488   0.546  12.787  0.6049  0.2405 -0.1025
  449MPD2    N1 6697   3.831   0.753  12.967  0.3612 -0.3064  0.0252
  449MPD2    H7 6698   3.762   0.821  12.935  1.8761  0.4934 -1.5264
  450TMC3    C1 6699   3.948   0.939  12.961  0.6175  0.2289  0.6114
  450TMC3    C2 6700   4.039   0.991  12.868  0.5930 -0.0343  0.0080
  450TMC3    C3 6701   3.989   1.098  12.796  0.0285  0.4180  0.0082
  450TMC3    C4 6702   3.813   0.976  12.971 -0.2349 -0.7408 -0.3930
  450TMC3    C5 6703   3.772   1.077  12.894  0.1928  0.6671  0.1104
  450TMC3    C6 6704   3.853   1.131  12.794  0.7056 -0.3576  0.6098
  450TMC3     C 6705   3.956   0.800  12.989  0.9969 -0.3481 -0.2958
  450TMC3     O 6706   4.059   0.736  12.979 -0.6410 -0.1028 -0.8098
  450TMC3     H 6707   4.142   0.959  12.853  0.3579 -0.8443  0.1762
  450TMC3    H1 6708   3.756   0.949  13.059  0.2921  1.1926  0.5411
  450TMC3    H2 6709   3.811   1.208  12.730  2.0060 -0.4617 -0.3755
  450TMC3    C7 6710   3.645   1.038  12.851 -0.0335 -0.0212  0.7622
  450TMC3    C8 6711   4.069   1.170  12.703 -0.7098  0.4705 -0.3004
  450TMC3    O1 6712   3.610   0.930  12.897 -0.2111  0.6251 -0.1000
  450TMC3    O2 6713   4.024   1.190  12.589 -0.1700  0.0014 -0.1255
  451MPD2     C 6714   0.532   0.658   0.504  0.3667  0.1809  0.2345
  451MPD2    C1 6715   0.463   0.603   0.609 -0.1546  0.1781  0.6561
  451MPD2    C2 6716   0.463   0.466   0.618  0.1521 -0.6947 -0.6276
  451MPD2    C3 6717   0.522   0.386   0.524 -0.0951  0.4951  0.3033
  451MPD2    C4 6718   0.583   0.442   0.414 -0.0754  0.3497  0.2052
  451MPD2    C5 6719   0.590   0.578   0.413 -0.0248  0.4102 -0.3348
  451MPD2     H 6720   0.405   0.420   0.697  0.3096 -1.1082 -0.7545
  451MPD2    H1 6721   0.637   0.391   0.334  1.8570 -0.2481  1.8977
  451MPD2    H2 6722   0.542   0.766   0.493 -1.2893  0.4291  1.1251
  451MPD2    H3 6723   0.635   0.633   0.331  0.4123  2.1415  1.0849
  451MPD2     N 6724   0.504   0.245   0.526 -0.2290 -0.9944 -0.2744
  451MPD2    H5 6725   0.538   0.197   0.444 -0.0847  0.7973 -1.2789
  451MPD2    N1 6726   0.403   0.691   0.700 -0.3302  0.4678  0.3705
  451MPD2    H7 6727   0.403   0.792   0.685 -1.1220  0.7356  2.1795
  452TMC3    C1 6728   0.448   0.029   0.586 -1.2913 -0.5668 -0.1076
  452TMC3    C2 6729   0.456   4.653   0.686 -0.3184 -0.7671 -0.4609
  452TMC3    C3 6730   0.423   4.526   0.647  0.1036  0.1328 -0.6116
  452TMC3    C4 6731   0.396   4.719   0.462  0.0512  0.0401  0.0536
  452TMC3    C5 6732   0.376   4.589   0.431  0.0802  0.1124  0.3558
  452TMC3    C6 6733   0.383   4.493   0.522  0.2033  0.4576 -0.0238
  452TMC3     C 6734   0.453   0.169   0.626  0.2573 -0.0908  0.1432
  452TMC3     O 6735   0.446   0.189   0.746 -0.5538 -0.6808 -0.0742
  452TMC3     H 6736   0.491   4.676   0.786  2.0284 -0.6699 -1.2891
  452TMC3    H1 6737   0.390   0.069   0.380 -0.0359  0.3943  0.3644
  452TMC3    H2 6738   0.371   4.394   0.477 -0.6205 -0.4050  2.0776
  452TMC3    C7 6739   0.428   4.558   0.299 -0.0545  0.2877 -0.3127
  452TMC3    C8 6740   0.451   4.423   0.750 -0.0652 -0.0335 -0.0077
  452TMC3    O1 6741   0.507   4.629   0.238 -0.0945 -0.2694 -0.2518
  452TMC3    O2 6742   0.523   4.460   0.845 -0.4828 -0.6975 -0.2782
  453TMC3    C1 6743   1.907   2.508  11.517  0.1995 -0.2973 -0.8153
  453TMC3    C2 6744   1.819   2.425  11.580  0.1219  0.2759  0.0270
  453TMC3    C3 6745   1.760   2.323  11.508  1.1365 -0.2874  0.7384
  453TMC3    C4 6746   1.945   2.485  11.388 -0.4205 -0.5596 -0.2759
  453TMC3    C5 6747   1.878   2.381  11.318  0.2904  0.1245  0.2218
  453TMC3    C6 6748   1.775   2.315  11.373 -0.0608 -0.2213 -0.5814
  453TMC3     C 6749   1.999   2.590  11.590 -0.2410  0.1368  0.0298
  453TMC3     O 6750   2.058   2.670  11.520  0.4740  0.4680 -0.2926
  453TMC3     H 6751   1.802   2.441  11.686  0.5174 -1.4604  0.3583
  453TMC3    H1 6752   2.011   2.550  11.332  1.2568 -1.9554  0.0770
  453TMC3    H2 6753   1.724   2.239  11.316 -1.5354 -0.2609  0.7934
  453TMC3    C7 6754   1.959   2.321  11.221 -0.1058  0.2401 -0.3499
  453TMC3    C8 6755   1.653   2.244  11.567 -0.2117  0.4043  1.0407
  453TMC3    O1 6756   1.912   2.232  11.149  0.1573 -0.2743 -0.3819
  453TMC3    O2 6757   1.544   2.235  11.515  0.1939 -0.1199  0.2899
  454MPD2     C 6758   0.882   1.349  16.631 -0.1605 -0.0479  0.1111
  454MPD2    C1 6759   0.825   1.475  16.640  0.6663  0.4859 -0.1197
  454MPD2    C2 6760   0.750   1.504  16.750 -0.1163 -0.2641  0.2220
  454MPD2    C3 6761   0.702   1.400  16.831  0.9559  0.2341  0.5634
  454MPD2    C4 6762   0.761   1.278  16.818  0.2926  0.0801 -0.2335
  454MPD2    C5 6763   0.851   1.252  16.725  0.4143  0.1026 -0.1945
  454MPD2     H 6764   0.712   1.605  16.762  0.0288 -0.4233  2.0337
  454MPD2    H1 6765   0.725   1.199  16.884 -0.3741 -0.0551 -0.7491
  454MPD2    H2 6766   0.947   1.318  16.550 -0.9835 -2.4189  0.3338
  454MPD2    H3 6767   0.884   1.150  16.710  2.5121  0.7743 -0.1041
  454MPD2     N 6768   0.579   1.405  16.900 -0.1747 -0.0987 -0.4738
  454MPD2    H5 6769   0.525   1.319  16.902 -0.4459  0.1064  1.3178
  454MPD2    N1 6770   0.845   1.581  16.546 -0.5885 -0.4786 -0.5397
  454MPD2    H7 6771   0.798   1.667  16.573 -1.2879 -1.0822  0.1772
  455TMC3    C1 6772   0.383   1.535  16.859  0.2903  0.0926  0.2119
  455TMC3    C2 6773   0.311   1.646  16.887 -0.2349  0.0866 -0.0020
  455TMC3    C3 6774   0.200   1.674  16.799 -0.3156 -0.2752  0.2487
  455TMC3    C4 6775   0.359   1.467  16.745 -0.7013 -0.3889  0.3836
  455TMC3    C5 6776   0.248   1.503  16.662 -0.0194  0.2806 -0.1228
  455TMC3    C6 6777   0.165   1.592  16.698  1.0915 -0.4113 -0.1032
  455TMC3     C 6778   0.519   1.528  16.923 -0.3898  0.2466  0.2629
  455TMC3     O 6779   0.576   1.631  16.953  0.0487  0.7034  0.6434
  455TMC3     H 6780   0.336   1.690  16.983  0.8675  1.9366 -1.1373
  455TMC3    H1 6781   0.420   1.383  16.716 -2.4000 -1.3769 -0.2987
  455TMC3    H2 6782   0.087   1.621  16.628 -0.4111  0.0022  1.7333
  455TMC3    C7 6783   0.252   1.441  16.531 -0.2963  0.9219 -0.3383
  455TMC3    C8 6784   0.103   1.762  16.846 -0.8063 -0.5127  0.3848
  455TMC3    O1 6785   0.147   1.385  16.497 -0.0276  0.4237 -0.3946
  455TMC3    O2 6786   4.720   1.767  16.781  0.7828 -0.1975  0.0358
  456MPD2     C 6787   3.256   1.944  15.501 -0.0385  0.2432 -0.1402
  456MPD2    C1 6788   3.283   1.833  15.585  0.3623 -0.4585 -0.1778
  456MPD2    C2 6789   3.186   1.797  15.675  0.6666 -0.0096  0.2639
  456MPD2    C3 6790   3.071   1.872  15.684  0.0394 -0.2773 -0.0282
  456MPD2    C4 6791   3.051   1.982  15.605 -1.0917  0.4969 -0.1915
  456MPD2    C5 6792   3.148   2.020  15.518  0.9509  0.2332 -0.4006
  456MPD2     H 6793   3.205   1.714  15.741  1.5398  0.6049  0.7928
  456MPD2    H1 6794   2.964   2.046  15.615 -0.5556  1.0765  0.7991
  456MPD2    H2 6795   3.324   1.976  15.423 -0.8673  0.2315 -0.8724
  456MPD2    H3 6796   3.137   2.115  15.467 -0.8016  1.0806  1.5239
  456MPD2     N 6797   2.983   1.832  15.784  0.0602 -0.0246 -0.0659
  456MPD2    H5 6798   3.019   1.750  15.832  1.1162  1.0143  0.8951
  456MPD2    N1 6799   3.403   1.757  15.562 -0.1278  0.5461  0.4059
  456MPD2    H7 6800   3.460   1.776  15.481  0.0795  0.9776  0.6581
  457TMC3    C1 6801   2.783   1.818  15.912  0.5252  0.4788 -0.1403
  457TMC3    C2 6802   2.714   1.904  15.987 -0.0907  0.1560 -0.5699
  457TMC3    C3 6803   2.670   1.855  16.109 -0.2159  0.4838 -0.1678
  457TMC3    C4 6804   2.817   1.690  15.953  0.1013 -0.5250 -0.3043
  457TMC3    C5 6805   2.772   1.654  16.074  0.1401 -0.2734  0.1307
  457TMC3    C6 6806   2.698   1.737  16.157  0.4372 -0.3624  0.5371
  457TMC3     C 6807   2.859   1.887  15.810  0.4880  0.7257  0.1760
  457TMC3     O 6808   2.825   2.001  15.781 -0.4341  0.0863  0.3426
  457TMC3     H 6809   2.679   2.000  15.952 -0.9550  0.2113  0.4565
  457TMC3    H1 6810   2.870   1.622  15.886  1.0330  2.4110 -2.5441
  457TMC3    H2 6811   2.658   1.704  16.253 -1.0851 -0.4520 -0.1221
  457TMC3    C7 6812   2.813   1.533  16.145  0.1717  0.1877 -0.5784
  457TMC3    C8 6813   2.590   1.935  16.199  0.2789  0.2707 -0.1812
  457TMC3    O1 6814   2.819   1.556  16.264  0.4166  0.3412  0.1074
  457TMC3    O2 6815   2.581   1.900  16.313  0.1068 -0.4394  0.3906
  458MPD2     C 6816   0.716   1.323  12.171 -0.6833  0.3636  0.6530
  458MPD2    C1 6817   0.713   1.294  12.308 -0.2442  0.2491  0.7052
  458MPD2    C2 6818   0.586   1.272  12.368  0.2878 -0.1391  0.5472
  458MPD2    C3 6819   0.468   1.270  12.299 -0.1384  0.0924 -0.5685
  458MPD2    C4 6820   0.468   1.296  12.168  0.0238 -0.2471  0.5430
  458MPD2    C5 6821   0.590   1.333  12.112 -0.4460  0.1033  0.3746
  458MPD2     H 6822   0.581   1.258  12.475 -0.3653 -0.4989  0.4685
  458MPD2    H1 6823   0.374   1.293  12.113  0.5942  1.4833 -0.5436
  458MPD2    H2 6824   0.810   1.342  12.121 -1.1793  2.3724  0.4554
  458MPD2    H3 6825   0.580   1.359  12.007 -0.2586 -1.6752 -0.0869
  458MPD2     N 6826   0.348   1.237  12.369 -0.5003  0.3528  0.1677
  458MPD2    H5 6827   0.358   1.224  12.469 -3.5045  0.8690  0.5265
  458MPD2    N1 6828   0.841   1.295  12.364  0.4747  0.2700 -0.8586
  458MPD2    H7 6829   0.913   1.297  12.293  1.5979 -0.9853  0.2366
  459TMC3    C1 6830   1.013   1.304  12.538  0.0365  0.2820  0.4068
  459TMC3    C2 6831   1.101   1.352  12.453 -0.9418 -0.4841 -0.3274
  459TMC3    C3 6832   1.227   1.392  12.501 -0.3108  0.1958  0.1382
  459TMC3    C4 6833   1.049   1.278  12.667 -0.0643  0.0004 -0.3071
  459TMC3    C5 6834   1.173   1.315  12.712  0.1126 -0.1465 -0.4000
  459TMC3    C6 6835   1.270   1.371  12.630  1.3655  0.3216 -0.6965
  459TMC3     C 6836   0.874   1.277  12.497 -0.0328  0.3222  0.9871
  459TMC3     O 6837   0.788   1.247  12.580 -0.8381  0.3665  0.3898
  459TMC3     H 6838   1.066   1.375  12.353  0.1460 -1.1267 -0.8650
  459TMC3    H1 6839   0.979   1.228  12.733 -0.6949 -0.4724 -1.3322
  459TMC3    H2 6840   1.368   1.404  12.662  0.9466 -0.5282  1.4178
  459TMC3    C7 6841   1.209   1.249  12.838  0.0379  0.5821  0.2287
  459TMC3    C8 6842   1.284   1.497  12.416 -0.0789  0.2256  0.0824
  459TMC3    O1 6843   1.133   1.162  12.875 -0.3169 -0.3445 -0.0415
  459TMC3    O2 6844   1.221   1.522  12.316  0.2354 -0.4851  0.0016
  460MPD2     C 6845   0.037   3.508  10.753  0.1333 -0.5979 -0.6993
  460MPD2    C1 6846   0.096   3.636  10.744  0.4270  0.3407 -0.1173
  460MPD2    C2 6847   0.138   3.676  10.617 -1.3208 -0.3246 -0.1546
  460MPD2    C3 6848   0.128   3.597  10.507  0.0275  0.0556  0.4743
  460MPD2    C4 6849   0.083   3.466  10.517  0.6005  0.0844 -0.7619
  460MPD2    C5 6850   0.039   3.424  10.643  0.5863 -0.0676  0.4341
  460MPD2     H 6851   0.162   3.778  10.587 -0.6705  0.4718  3.0219
  460MPD2    H1 6852   0.060   3.411  10.426  0.6151  1.8121 -1.7968
  460MPD2    H2 6853   4.718   3.471  10.847 -1.7369  2.8702 -0.1154
  460MPD2    H3 6854   4.706   3.330  10.652 -1.9041  1.1740 -1.1637
  460MPD2     N 6855   0.161   3.651  10.382  0.3268  0.6607 -0.8487
  460MPD2    H5 6856   0.159   3.751  10.370  0.5905  0.2458 -4.2680
  460MPD2    N1 6857   0.102   3.716  10.854  0.3028 -0.0250 -0.2917
  460MPD2    H7 6858   0.046   3.675  10.928 -2.4991  1.1170 -1.8094
  461TMC3    C1 6859   0.257   3.640  10.166  0.2552 -1.3850 -0.1735
  461TMC3    C2 6860   0.329   3.571  10.078  0.0404  0.3466 -0.0699
  461TMC3    C3 6861   0.352   3.632   9.961  0.3937  0.2643 -0.2631
  461TMC3    C4 6862   0.195   3.755  10.135  0.3238  0.1083  0.2989
  461TMC3    C5 6863   0.223   3.809  10.013 -0.7852 -0.4752 -0.0875
  461TMC3    C6 6864   0.312   3.756   9.928  0.0208 -0.4474 -0.4015
  461TMC3     C 6865   0.202   3.565  10.284 -0.4568  0.2898 -0.3337
  461TMC3     O 6866   0.250   3.454  10.294  0.0310 -0.2548 -0.2153
  461TMC3     H 6867   0.373   3.477  10.109  1.0146  0.4904 -1.0181
  461TMC3    H1 6868   0.107   3.791  10.186 -0.2452 -0.9061  0.0176
  461TMC3    H2 6869   0.340   3.809   9.837 -0.1135 -0.1955 -0.2973
  461TMC3    C7 6870   0.158   3.936   9.970 -0.2132 -0.0182  0.3072
  461TMC3    C8 6871   0.430   3.572   9.851  0.5546  0.5119  0.5228
  461TMC3    O1 6872   0.138   3.945   9.852  0.2688 -0.0830 -0.5023
  461TMC3    O2 6873   0.504   3.649   9.790 -1.2281 -0.3804 -0.0704
  462TMC3    C1 6874   4.672   3.845  17.548  0.3579  0.4972  0.7796
  462TMC3    C2 6875   4.676   3.851  17.410 -0.1436  0.5020 -0.2513
  462TMC3    C3 6876   4.555   3.825  17.353 -0.1496  0.8379  1.1849
  462TMC3    C4 6877   4.558   3.815  17.627  0.2387  0.1925 -0.0883
  462TMC3    C5 6878   4.440   3.805  17.562 -0.4410 -0.2838 -0.2398
  462TMC3    C6 6879   4.437   3.800  17.422  0.6286  0.3605 -0.1795
  462TMC3     C 6880   0.062   3.891  17.621  0.4879  0.3507  0.3588
  462TMC3     O 6881   0.034   3.943   0.045  0.0424  0.3313  0.1697
  462TMC3     H 6882   0.038   3.887  17.350  0.2855 -0.2404 -0.1084
  462TMC3    H1 6883   4.570   3.820   0.051  0.4554 -2.6530  0.0145
  462TMC3    H2 6884   4.339   3.815  17.378 -0.4638 -0.0783  2.0773
  462TMC3    C7 6885   4.321   3.774  17.637 -0.1338 -0.3495 -0.3818
  462TMC3    C8 6886   4.522   3.849  17.218  0.2693  0.3193  0.3291
  462TMC3    O1 6887   4.243   3.702  17.579 -0.6503 -0.4353 -0.2984
  462TMC3    O2 6888   4.434   3.928  17.189  0.3286  0.2240 -0.7031
  463MPD2     C 6889   0.642   3.232   1.855  0.7019 -0.0309  0.0231
  463MPD2    C1 6890   0.588   3.235   1.731 -0.5975 -0.5778  1.0873
  463MPD2    C2 6891   0.626   3.332   1.636 -0.0941  0.4601 -0.5445
  463MPD2    C3 6892   0.714   3.423   1.680 -0.8150  0.5813  0.0331
  463MPD2    C4 6893   0.768   3.424   1.802 -0.7044 -0.3995  0.3065
  463MPD2    C5 6894   0.728   3.330   1.891 -0.4136  0.2928  0.0785
  463MPD2     H 6895   0.570   3.348   1.545 -0.8926  1.4163  0.1155
  463MPD2    H1 6896   0.829   3.510   1.828  1.9494 -2.3621  0.5277
  463MPD2    H2 6897   0.626   3.146   1.919 -0.1837  1.3354  1.6143
  463MPD2    H3 6898   0.772   3.332   1.990 -1.2075 -2.2717  0.4767
  463MPD2     N 6899   0.760   3.529   1.598  0.5293 -0.5569  0.1071
  463MPD2    H5 6900   0.829   3.591   1.638  0.7381 -1.7110  1.5222
  463MPD2    N1 6901   0.484   3.151   1.689 -1.3262  0.6847 -0.0019
  463MPD2    H7 6902   0.463   3.160   1.590  0.2758 -0.2864 -0.4256
  464TMC3    C1 6903   0.328   2.975   1.683  0.1815 -0.2394  0.0632
  464TMC3    C2 6904   0.262   3.042   1.583  0.3605  0.2055 -0.2511
  464TMC3    C3 6905   0.141   2.991   1.547 -0.1805  0.5442  0.3867
  464TMC3    C4 6906   0.283   2.862   1.739 -0.5405 -0.3338  0.3051
  464TMC3    C5 6907   0.160   2.813   1.689 -0.2934  0.7175 -0.0711
  464TMC3    C6 6908   0.091   2.873   1.589 -0.5244  0.4332  0.6791
  464TMC3     C 6909   0.432   3.043   1.760  0.6703  0.9923 -0.7675
  464TMC3     O 6910   0.449   3.012   1.879 -0.3182 -0.0094  0.1580
  464TMC3     H 6911   0.284   3.140   1.541  2.2499  0.3765  1.1256
  464TMC3    H1 6912   0.328   2.813   1.825 -0.0427  0.5618  0.5560
  464TMC3    H2 6913   4.716   2.840   1.550 -0.8688  0.4695  1.4971
  464TMC3    C7 6914   0.118   2.683   1.736 -0.4245  0.3762  0.0626
  464TMC3    C8 6915   0.076   3.045   1.431  0.3491 -0.2030  0.7635
  464TMC3    O1 6916   0.136   2.661   1.856  0.0648 -0.3491 -0.6401
  464TMC3    O2 6917   0.137   3.110   1.350  0.0367  0.4551  0.9406
  465MPD2     C 6918   1.926   1.945  16.927 -0.0596  0.6982  0.3598
  465MPD2    C1 6919   2.051   1.891  16.952  0.2036  0.1718 -1.0144
  465MPD2    C2 6920   2.148   1.879  16.850  0.4029  0.0612  0.5236
  465MPD2    C3 6921   2.128   1.938  16.735  0.3442  0.5230 -0.5137
  465MPD2    C4 6922   2.005   1.995  16.710  1.0897 -0.2482  0.2270
  465MPD2    C5 6923   1.905   1.995  16.805 -0.3032 -0.3122 -0.2675
  465MPD2     H 6924   2.249   1.845  16.869  0.1336  0.1282  2.1061
  465MPD2    H1 6925   1.980   2.038  16.614 -0.9078 -1.1343  0.3541
  465MPD2    H2 6926   1.835   1.944  16.986 -0.2523 -0.5277  0.0530
  465MPD2    H3 6927   1.810   2.037  16.775  0.3034  2.0141  1.0939
  465MPD2     N 6928   2.231   1.928  16.639  0.3262 -0.8171 -0.4974
  465MPD2    H5 6929   2.317   1.884  16.670  0.9553 -0.3929 -1.6313
  465MPD2    N1 6930   2.085   1.832  17.073  0.3785  0.6155 -0.0554
  465MPD2    H7 6931   2.158   1.761  17.065 -0.6720 -0.2962 -1.6685
  466TMC3    C1 6932   2.265   1.642  16.417  0.0405 -0.2341  0.2573
  466TMC3    C2 6933   2.210   1.655  16.292  0.2523 -0.0170 -0.2375
  466TMC3    C3 6934   2.208   1.780  16.242 -0.4300 -0.4912  0.6642
  466TMC3    C4 6935   2.316   1.742  16.484  0.1819  0.1978 -0.2444
  466TMC3    C5 6936   2.299   1.870  16.431 -0.6767  0.1521  0.3123
  466TMC3    C6 6937   2.261   1.888  16.301 -0.7963 -0.5547  0.7363
  466TMC3     C 6938   2.230   1.532  16.501  0.1381  0.1891  0.4786
  466TMC3     O 6939   2.296   1.513  16.604 -0.0160 -0.3524  0.2653
  466TMC3     H 6940   2.164   1.569  16.246  0.9977 -1.8347  2.4021
  466TMC3    H1 6941   2.364   1.724  16.580 -0.6855  0.2644  0.2082
  466TMC3    H2 6942   2.244   1.984  16.254 -0.1894 -0.5641  0.5020
  466TMC3    C7 6943   2.215   1.960  16.510  0.4297  0.1736  0.2836
  466TMC3    C8 6944   2.087   1.814  16.165  0.3132  0.2242 -0.2381
  466TMC3    O1 6945   2.123   2.014  16.445 -0.1345  0.0737 -0.0631
  466TMC3    O2 6946   2.064   1.758  16.064  0.0401  0.2723 -0.0054
  467TMC3    C1 6947   2.978   0.186  13.917  0.1861  0.2314  0.3627
  467TMC3    C2 6948   2.932   0.260  13.812  0.3744  0.0982  0.0510
  467TMC3    C3 6949   2.795   0.270  13.798  0.9359 -0.3316 -0.2045
  467TMC3    C4 6950   2.901   0.128  14.012 -0.2838  0.1389 -0.5814
  467TMC3    C5 6951   2.765   0.136  13.986 -0.0876  0.8168  0.5292
  467TMC3    C6 6952   2.710   0.206  13.883 -0.4994  0.6066 -0.0857
  467TMC3     C 6953   3.121   0.156  13.927 -0.0344 -0.4245 -0.7852
  467TMC3     O 6954   3.168   0.141  14.039 -0.6174  0.3034 -0.2068
  467TMC3     H 6955   3.002   0.324  13.760  2.8092 -3.0054 -0.5365
  467TMC3    H1 6956   2.946   0.073  14.093  0.2553 -1.6331 -2.0652
  467TMC3    H2 6957   2.605   0.209  13.859 -0.8010  0.1034  1.1781
  467TMC3    C7 6958   2.688   0.030  14.054  0.4817  0.2594  0.4660
  467TMC3    C8 6959   2.761   0.394  13.734 -0.7494 -0.6252 -0.1954
  467TMC3    O1 6960   2.757   4.652  14.082  0.7947  0.2904 -0.0505
  467TMC3    O2 6961   2.851   0.443  13.667 -0.8480 -0.6780  0.0644
  468MPD2     C 6962   1.902   3.396  10.387 -0.3105 -1.1003  0.2231
  468MPD2    C1 6963   2.029   3.405  10.437 -0.1810  0.5820 -0.6631
  468MPD2    C2 6964   2.087   3.289  10.486  0.7925  0.0174  0.1878
  468MPD2    C3 6965   2.021   3.170  10.503 -0.0952 -0.5058 -0.7112
  468MPD2    C4 6966   1.894   3.163  10.456  0.6641  0.2755 -0.1613
  468MPD2    C5 6967   1.835   3.277  10.394 -0.1459  0.2902  0.5263
  468MPD2     H 6968   2.185   3.308  10.528  1.0301 -0.7564 -0.0199
  468MPD2    H1 6969   1.833   3.074  10.470  0.5323  0.4257  0.2337
  468MPD2    H2 6970   1.854   3.480  10.338  2.6405  0.2715 -0.3106
  468MPD2    H3 6971   1.736   3.268  10.350 -0.1721 -0.2202  0.6882
  468MPD2     N 6972   2.064   3.056  10.578  0.1109 -0.4659 -0.1507
  468MPD2    H5 6973   2.007   2.973  10.570 -1.0979  0.4266 -0.7980
  468MPD2    N1 6974   2.107   3.526  10.446  0.6330  0.0149  0.1309
  468MPD2    H7 6975   2.199   3.525  10.489  1.7586 -0.6790 -2.2989
  469TMC3    C1 6976   2.142   3.744  10.507 -0.4239 -0.3242 -0.4945
  469TMC3    C2 6977   2.238   3.704  10.603  0.1551 -0.0200 -0.0085
  469TMC3    C3 6978   2.261   3.777  10.717  0.0935 -0.7570  0.1791
  469TMC3    C4 6979   2.079   3.863  10.531  0.5272 -0.5194  0.2997
  469TMC3    C5 6980   2.108   3.935  10.645  0.3109  0.3429 -1.2366
  469TMC3    C6 6981   2.194   3.892  10.747 -0.4267  0.4795  0.0623
  469TMC3     C 6982   2.060   3.650  10.435 -0.4561 -0.2996  0.2398
  469TMC3     O 6983   1.952   3.701  10.410  0.6989  0.6271  0.0492
  469TMC3     H 6984   2.273   3.602  10.612 -0.5477 -0.3262 -0.7145
  469TMC3    H1 6985   2.005   3.912  10.469  2.3476  3.1465  1.0353
  469TMC3    H2 6986   2.220   3.951  10.834 -3.4519  0.0692  1.2673
  469TMC3    C7 6987   2.028   4.050  10.677 -0.0226  0.1390 -0.5169
  469TMC3    C8 6988   2.335   3.720  10.819  0.4463 -0.1795 -0.9123
  469TMC3    O1 6989   1.997   4.121  10.584  0.0441 -0.1559  0.8766
  469TMC3    O2 6990   2.443   3.669  10.802  0.1921 -0.5832  0.2270
  470TMC3    C1 6991   4.520   3.963   0.584  0.5422  0.0128  0.4995
  470TMC3    C2 6992   4.554   4.084   0.639  0.0268 -0.3164 -0.2608
  470TMC3    C3 6993   4.491   4.120   0.757 -0.6377 -1.0325  0.0297
  470TMC3    C4 6994   4.429   3.884   0.650 -0.3776  0.2354  0.0981
  470TMC3    C5 6995   4.376   3.922   0.770 -0.1692 -0.7616  0.0936
  470TMC3    C6 6996   4.402   4.037   0.823  0.2750  0.4660  0.1012
  470TMC3     C 6997   4.610   3.909   0.485 -0.2251  0.6133 -0.0333
  470TMC3     O 6998   4.720   3.957   0.483  0.4662  0.6279  0.1651
  470TMC3     H 6999   4.630   4.140   0.586 -0.4765  0.3713 -0.2683
  470TMC3    H1 7000   4.403   3.782   0.622  0.2278  0.4263 -1.1623
  470TMC3    H2 7001   4.345   4.069   0.909 -2.0623 -0.5798 -1.0570
  470TMC3    C7 7002   4.263   3.852   0.818  0.1591 -0.1433  0.5777
  470TMC3    C8 7003   4.491   4.255   0.803 -0.1686  0.3290 -0.8908
  470TMC3    O1 7004   4.213   3.780   0.730  0.4741 -0.4055 -0.0285
  470TMC3    O2 7005   4.396   4.274   0.877  0.6506 -0.4323  0.2881
  471MPD2     C 7006   4.672   0.822  16.803  0.0741  0.8208 -0.0871
  471MPD2    C1 7007   0.014   0.708  16.763  0.2322 -0.2677  0.6754
  471MPD2    C2 7008   0.114   0.656  16.840  0.0043  0.5756  0.2574
  471MPD2    C3 7009   0.148   0.716  16.960 -0.4218  0.3399 -0.3071
  471MPD2    C4 7010   0.072   0.821  17.013 -0.1146  0.1082  0.5313
  471MPD2    C5 7011   4.693   0.874  16.930  0.5623 -0.4939 -1.1087
  471MPD2     H 7012   0.164   0.571  16.796 -2.3229 -0.0672 -1.1844
  471MPD2    H1 7013   0.078   0.863  17.113 -1.4608 -1.6115  1.3319
  471MPD2    H2 7014   4.590   0.862  16.744 -0.2680 -1.6043 -1.2378
  471MPD2    H3 7015   4.631   0.957  16.962 -0.8048 -1.3497 -1.5206
  471MPD2     N 7016   0.250   0.664  17.045 -0.1569 -0.9126  0.4968
  471MPD2    H5 7017   0.249   0.709  17.136  1.8394  0.5459 -0.1942
  471MPD2    N1 7018   4.705   0.642  16.638  0.6398  0.5183 -0.7248
  471MPD2    H7 7019   0.035   0.556  16.625 -0.5509 -0.4803  1.3484
  472TMC3    C1 7020   4.571   0.580  16.453 -0.0761  0.0280 -0.0600
  472TMC3    C2 7021   4.480   0.597  16.351 -0.9408  0.2366 -0.3047
  472TMC3    C3 7022   4.401   0.494  16.308 -0.0438  0.3497  0.3900
  472TMC3    C4 7023   4.592   0.452  16.500 -0.0350  0.0659 -0.3234
  472TMC3    C5 7024   4.525   0.346  16.439  0.4637  0.1005 -0.1972
  472TMC3    C6 7025   4.421   0.370  16.353 -0.0157  0.2779 -0.0941
  472TMC3     C 7026   4.603   0.688  16.548  0.2798 -0.0519  0.7453
  472TMC3     O 7027   4.553   0.796  16.531  0.5311 -0.1528 -0.4533
  472TMC3     H 7028   4.466   0.699  16.318  0.7190 -0.4466 -3.1188
  472TMC3    H1 7029   4.675   0.424  16.564  0.2148  0.8754 -0.2965
  472TMC3    H2 7030   4.346   0.293  16.337 -0.1981  0.7664 -1.5769
  472TMC3    C7 7031   4.537   0.209  16.484  0.2050 -0.4268  0.4359
  472TMC3    C8 7032   4.303   0.527  16.205  0.2109  0.3236  0.1807
  472TMC3    O1 7033   4.590   0.182  16.593  0.3534  0.3570  0.0785
  472TMC3    O2 7034   4.304   0.636  16.147  0.4144 -0.3521 -0.4759
  473MPD2     C 7035   4.635   2.647  14.124  0.0719 -0.4878 -0.0341
  473MPD2    C1 7036   4.627   2.732  14.013  0.1477  0.4878 -1.0238
  473MPD2    C2 7037   4.666   2.864  14.032 -0.0531  0.3973  0.5521
  473MPD2    C3 7038   4.707   2.909  14.156 -0.0641  0.1438 -0.7825
  473MPD2    C4 7039   4.718   2.824  14.260 -0.1145  0.1791  0.7119
  473MPD2    C5 7040   4.682   2.694  14.249  0.3710  0.6283 -0.4104
  473MPD2     H 7041   4.660   2.926  13.943 -2.4640 -1.8018 -0.8216
  473MPD2    H1 7042   0.047   2.856  14.350 -0.2395  1.6750  0.2436
  473MPD2    H2 7043   4.610   2.542  14.130  2.3844 -1.1231 -1.6653
  473MPD2    H3 7044   4.688   2.629  14.335  2.7059  1.1960 -0.1471
  473MPD2     N 7045   0.015   3.048  14.181  0.1540 -0.0424  0.1739
  473MPD2    H5 7046   0.049   3.066  14.274 -1.3638  0.0346  0.7076
  473MPD2    N1 7047   4.580   2.693  13.891 -0.0089 -0.2379 -0.3616
  473MPD2    H7 7048   4.586   2.759  13.814 -2.1910  0.7306  0.3032
  474TMC3    C1 7049   0.026   3.284  14.133 -0.2306 -0.2313  0.1555
  474TMC3    C2 7050   0.011   3.391  14.046  1.1294 -0.5460 -0.2141
  474TMC3    C3 7051   0.052   3.517  14.085 -0.3740  0.4766  0.0143
  474TMC3    C4 7052   0.077   3.307  14.257 -0.2625 -1.0046 -0.1776
  474TMC3    C5 7053   0.118   3.429  14.296  0.2835  0.3724  0.3530
  474TMC3    C6 7054   0.112   3.535  14.209  0.1749  0.1234  0.2201
  474TMC3     C 7055   4.698   3.152  14.095  0.5534  0.4055 -0.1823
  474TMC3     O 7056   4.630   3.143  13.994 -0.3479 -0.2738  1.0332
  474TMC3     H 7057   4.691   3.370  13.948  0.7067 -0.3743 -0.0771
  474TMC3    H1 7058   0.094   3.226  14.327 -0.7090 -0.0447  1.0306
  474TMC3    H2 7059   0.133   3.629  14.260 -0.3358  0.3484  0.0116
  474TMC3    C7 7060   0.207   3.430  14.409 -0.0442 -0.2427  0.1308
  474TMC3    C8 7061   4.701   3.623  14.017  0.6532 -0.2503  0.1966
  474TMC3    O1 7062   0.194   3.530  14.483 -0.4416 -0.3773  0.0531
  474TMC3    O2 7063   4.620   3.574  13.944 -0.0299  0.0093 -0.1913
  475MPD2     C 7064   2.521   1.208  10.619  0.8540 -0.0157 -0.0057
  475MPD2    C1 7065   2.608   1.242  10.519 -0.2020  0.8097  0.3571
  475MPD2    C2 7066   2.580   1.212  10.389  0.0180 -0.4865 -0.8578
  475MPD2    C3 7067   2.455   1.156  10.354 -0.2224 -0.3263  0.0688
  475MPD2    C4 7068   2.365   1.132  10.456  0.3200  0.2934  0.3178
  475MPD2    C5 7069   2.395   1.154  10.588  0.2392  0.1507  0.2144
  475MPD2     H 7070   2.652   1.245  10.315 -0.1847 -2.1508 -1.7981
  475MPD2    H1 7071   2.263   1.101  10.439  0.2797  1.0229 -0.7862
  475MPD2    H2 7072   2.545   1.220  10.724 -1.7673  4.2037  0.1125
  475MPD2    H3 7073   2.317   1.130  10.659  0.6611 -1.3263  0.1745
  475MPD2     N 7074   2.420   1.142  10.218  0.6705 -0.0238  0.7409
  475MPD2    H5 7075   2.496   1.152  10.151 -1.5663  2.5043 -1.4337
  475MPD2    N1 7076   2.724   1.315  10.563  0.2581 -0.7023  0.3329
  475MPD2    H7 7077   2.711   1.370  10.647 -1.6936  1.4222 -1.3337
  476TMC3    C1 7078   2.939   1.425  10.528  0.5248 -0.6778 -0.0565
  476TMC3    C2 7079   3.054   1.428  10.451 -0.4743 -0.2966 -0.2166
  476TMC3    C3 7080   3.136   1.533  10.479  0.7088  0.2676 -0.2329
  476TMC3    C4 7081   2.908   1.516  10.624  0.9204  0.6446 -0.1094
  476TMC3    C5 7082   2.992   1.624  10.641  1.3252  0.6170 -0.7765
  476TMC3    C6 7083   3.110   1.632  10.568  0.1352 -0.7778 -0.0339
  476TMC3     C 7084   2.839   1.314  10.495  0.4138 -0.6826 -0.4225
  476TMC3     O 7085   2.870   1.236  10.404 -0.3782  0.2341  0.0652
  476TMC3     H 7086   3.073   1.358  10.370  0.4274 -0.6252  0.2651
  476TMC3    H1 7087   2.816   1.516  10.681  1.4169  0.5890  0.6952
  476TMC3    H2 7088   3.175   1.719  10.577  1.1271 -1.6539  1.2797
  476TMC3    C7 7089   2.982   1.700  10.769  0.3023 -0.2828 -0.1426
  476TMC3    C8 7090   3.251   1.566  10.397 -0.8906 -1.2235 -0.3785
  476TMC3    O1 7091   2.903   1.665  10.851 -0.2181 -0.6380 -0.0036
  476TMC3    O2 7092   3.296   1.682  10.402  0.0331  0.2023  0.5917
  477MPD2     C 7093   0.840   2.880  11.447  0.2764 -0.5677 -0.7570
  477MPD2    C1 7094   0.709   2.841  11.433 -0.1738 -0.1577 -0.0288
  477MPD2    C2 7095   0.669   2.714  11.466 -0.4224  0.4396 -0.0518
  477MPD2    C3 7096   0.766   2.622  11.514  0.7474 -0.0036 -0.5148
  477MPD2    C4 7097   0.897   2.665  11.520  0.2020  0.0190  0.5717
  477MPD2    C5 7098   0.938   2.791  11.488 -1.1231  0.5060 -0.3097
  477MPD2     H 7099   0.565   2.684  11.462  0.1287 -1.0900 -3.2053
  477MPD2    H1 7100   0.981   2.607  11.556  0.1855  0.4323  1.2612
  477MPD2    H2 7101   0.858   2.984  11.422 -0.0857 -0.4938 -0.6961
  477MPD2    H3 7102   1.044   2.813  11.498 -1.0753  0.5419 -0.9075
  477MPD2     N 7103   0.717   2.492  11.533  0.1766 -0.4046 -0.0758
  477MPD2    H5 7104   0.619   2.474  11.517  0.3266 -1.3121  0.0045
  477MPD2    N1 7105   0.611   2.940  11.409  0.3335 -0.3818 -0.5151
  477MPD2    H7 7106   0.643   3.035  11.398 -0.3680 -0.1818 -0.8443
  478TMC3    C1 7107   0.389   3.019  11.363  0.8353  0.2917 -0.3005
  478TMC3    C2 7108   0.403   3.109  11.465  0.3066  0.2470  0.9161
  478TMC3    C3 7109   0.319   3.210  11.464 -0.3026 -0.2427 -0.7151
  478TMC3    C4 7110   0.277   3.017  11.288  0.2474 -0.4722  0.8383
  478TMC3    C5 7111   0.179   3.111  11.300  0.4212  0.0513 -0.1836
  478TMC3    C6 7112   0.201   3.216  11.385 -0.0825 -0.7200 -0.4979
  478TMC3     C 7113   0.481   2.909  11.357 -0.0039 -0.0603 -0.2476
  478TMC3     O 7114   0.441   2.802  11.313  0.6127  0.3795 -0.5500
  478TMC3     H 7115   0.487   3.110  11.533  1.7386  1.1453 -0.8657
  478TMC3    H1 7116   0.268   2.939  11.213 -1.6484  0.6159 -0.0856
  478TMC3    H2 7117   0.120   3.279  11.420  0.5003 -1.1118  1.5770
  478TMC3    C7 7118   0.049   3.079  11.228 -0.1277 -0.3440 -0.4193
  478TMC3    C8 7119   0.314   3.276  11.593 -0.6484  1.1267  0.1601
  478TMC3    O1 7120   0.042   2.969  11.182 -0.3731  0.0350  0.2951
  478TMC3    O2 7121   0.356   3.213  11.689  0.2347 -0.3621  0.4758
  479MPD2     C 7122   3.906   4.336  14.636 -0.4420 -0.0769 -0.5325
  479MPD2    C1 7123   3.895   4.245  14.738  0.7064  0.2702  0.3829
  479MPD2    C2 7124   3.935   4.286  14.865 -0.5066 -0.2182 -0.4333
  479MPD2    C3 7125   3.980   4.412  14.894 -0.0936  0.1715 -0.7645
  479MPD2    C4 7126   3.990   4.497  14.789  0.2391 -0.0159 -0.6930
  479MPD2    C5 7127   3.949   4.465  14.664 -0.5133 -0.7678 -0.3962
  479MPD2     H 7128   3.920   4.208  14.939  0.1020  1.7076  1.6920
  479MPD2    H1 7129   4.028   4.597  14.810 -0.8337  0.9471 -3.3489
  479MPD2    H2 7130   3.883   4.305  14.535  2.6127  0.9025 -1.5303
  479MPD2    H3 7131   3.964   4.534  14.582 -1.4003  0.3180  0.3721
  479MPD2     N 7132   4.025   4.457  15.022  0.2153  0.8765  0.0507
  479MPD2    H5 7133   4.071   4.547  15.021  0.1488  0.8929 -1.1032
  479MPD2    N1 7134   3.846   4.110  14.705  0.0006  0.0194 -0.0305
  479MPD2    H7 7135   3.798   4.103  14.615  1.3221  0.8820 -0.7927
  480TMC3    C1 7136   4.103   4.495  15.478 -0.4422 -0.3323 -0.6291
  480TMC3    C2 7137   4.224   4.556  15.467 -0.0943 -0.3720 -0.2956
  480TMC3    C3 7138   4.261   4.577  15.337  0.4629  0.7508 -0.7441
  480TMC3    C4 7139   4.031   4.449  15.371  0.1842  0.3481 -0.1231
  480TMC3    C5 7140   4.079   4.458  15.248  0.1653  0.3303  0.1127
  480TMC3    C6 7141   4.192   4.536  15.230  0.6152 -0.2951  0.0828
  480TMC3     C 7142   4.085   4.435  15.609 -0.2334  0.2487  0.7686
  480TMC3     O 7143   4.185   4.414  15.679 -0.0962 -0.1087 -0.3203
  480TMC3     H 7144   4.287   4.587  15.550  1.4468 -2.0754 -0.8102
  480TMC3    H1 7145   3.957   4.371  15.389  2.1641 -1.0796  1.8897
  480TMC3    H2 7146   4.242   4.521  15.135 -1.3836 -0.0950 -0.9782
  480TMC3    C7 7147   4.004   4.393  15.142 -0.0387  0.2469 -0.6365
  480TMC3    C8 7148   4.361   4.679  15.308  0.7087 -0.0757  0.2900
  480TMC3    O1 7149   3.915   4.309  15.173 -0.2126 -0.4191  0.1113
  480TMC3    O2 7150   4.452   4.688  15.389  0.2642  0.4333 -0.2640
  481MPD2     C 7151   1.229   0.037  14.107 -0.1810  0.4409 -0.1698
  481MPD2    C1 7152   1.157   4.639  14.130 -0.1250 -0.8793 -0.2784
  481MPD2    C2 7153   1.173   4.573  14.253 -0.1221 -0.2884 -0.0846
  481MPD2    C3 7154   1.259   4.626  14.351  0.4276 -0.0361  0.1399
  481MPD2    C4 7155   1.333   0.016  14.316  0.0499 -0.6108 -0.2896
  481MPD2    C5 7156   1.320   0.071  14.196  0.3193  0.1261 -0.2606
  481MPD2     H 7157   1.108   4.488  14.268 -0.1727 -0.6372 -2.2146
  481MPD2    H1 7158   1.401   0.060  14.388 -0.3693 -0.1673 -0.1655
  481MPD2    H2 7159   1.222   0.093  14.015 -0.1421  1.9284  0.7306
  481MPD2    H3 7160   1.371   0.164  14.176  1.4565 -0.3068  0.6188
  481MPD2     N 7161   1.282   4.566  14.474 -0.3852  0.3365  0.4810
  481MPD2    H5 7162   1.345   4.618  14.534  0.3476 -0.5242  0.4598
  481MPD2    N1 7163   1.081   4.597  14.019  0.2010 -0.1496  0.2089
  481MPD2    H7 7164   1.074   4.672  13.951 -3.6293  0.5840  1.3931
  482TMC3    C1 7165   0.912   4.468  13.909 -0.5179 -0.8565  0.9278
  482TMC3    C2 7166   0.806   4.378  13.914  0.0894 -0.3199  0.0908
  482TMC3    C3 7167   0.703   4.387  13.826  0.7499  0.5222  0.3810
  482TMC3    C4 7168   0.915   4.572  13.815 -0.0030 -0.3975 -0.0053
  482TMC3    C5 7169   0.811   4.567  13.729  0.0398  1.1155  0.3050
  482TMC3    C6 7170   0.714   4.475  13.723 -0.7730 -0.1690 -0.4654
  482TMC3     C 7171   1.016   4.474  14.014  0.8454  0.0532 -0.9451
  482TMC3     O 7172   1.036   4.371  14.075 -0.2918 -0.3001  0.0124
  482TMC3     H 7173   0.799   4.309  13.996  0.9098  0.3234  0.7073
  482TMC3    H1 7174   0.994   4.645  13.798 -0.7532  0.0023 -1.7170
  482TMC3    H2 7175   0.632   4.482  13.652 -0.8258  0.5897 -0.3203
  482TMC3    C7 7176   0.802   4.682  13.640  0.1922 -0.0186 -0.6542
  482TMC3    C8 7177   0.595   4.287  13.830  0.6870  0.1263  0.2231
  482TMC3    O1 7178   0.857   0.061  13.680  0.8059  0.3626 -0.5762
  482TMC3    O2 7179   0.619   4.183  13.893  0.5554  0.5172 -0.3348
  483TMC3    C1 7180   3.172   2.901   1.093  0.0068  0.3402 -0.4264
  483TMC3    C2 7181   3.199   2.978   0.985  0.6333 -0.2796  0.3579
  483TMC3    C3 7182   3.316   3.048   0.991 -0.2557 -0.6518 -0.4929
  483TMC3    C4 7183   3.256   2.898   1.204 -0.0500 -0.0173  0.2715
  483TMC3    C5 7184   3.382   2.964   1.202  0.4409 -0.4474 -0.4968
  483TMC3    C6 7185   3.410   3.036   1.091 -0.1063 -0.8271  0.7476
  483TMC3     C 7186   3.060   2.805   1.090 -0.1428 -0.2823 -0.4942
  483TMC3     O 7187   2.996   2.774   1.189  0.2748  0.1118  0.1448
  483TMC3     H 7188   3.150   2.970   0.889 -1.6096  0.5819  1.4095
  483TMC3    H1 7189   3.232   2.831   1.286 -1.5319  1.5825  1.1483
  483TMC3    H2 7190   3.501   3.095   1.092 -1.3511  1.0760  1.8604
  483TMC3    C7 7191   3.480   2.952   1.306  0.1404 -0.5677 -0.2647
  483TMC3    C8 7192   3.337   3.147   0.888 -0.8068 -0.1555  0.0955
  483TMC3    O1 7193   3.599   2.975   1.285  0.1397  0.4590  0.4910
  483TMC3    O2 7194   3.450   3.185   0.859 -0.1511  0.4319  0.3347
  484MPD2     C 7195   1.422   1.712  12.274 -0.1492 -0.3642 -0.2113
  484MPD2    C1 7196   1.487   1.625  12.351  0.6762  0.4270  0.2862
  484MPD2    C2 7197   1.627   1.625  12.347  0.4238 -0.4899  0.4282
  484MPD2    C3 7198   1.692   1.710  12.255 -0.3106 -0.4924  0.3159
  484MPD2    C4 7199   1.616   1.801  12.186 -0.1002 -0.0195 -0.1711
  484MPD2    C5 7200   1.483   1.801  12.189 -0.0669 -0.3252  0.4984
  484MPD2     H 7201   1.680   1.542  12.392  1.0158  1.3266  3.1056
  484MPD2    H1 7202   1.665   1.874  12.122 -2.5712  1.3248 -0.5041
  484MPD2    H2 7203   1.315   1.711  12.263 -0.2346  0.5146  0.4795
  484MPD2    H3 7204   1.425   1.864  12.123 -0.3602 -0.8775  0.2306
  484MPD2     N 7205   1.831   1.718  12.226 -0.1336  0.0728 -0.1175
  484MPD2    H5 7206   1.864   1.796  12.171  0.8860 -0.9369 -0.9285
  484MPD2    N1 7207   1.422   1.530  12.431  0.0471 -0.1883 -0.3611
  484MPD2    H7 7208   1.475   1.485  12.505  0.6318  0.8226 -0.1741
  485TMC3    C1 7209   2.057   1.681  12.248  0.5827 -0.3114 -0.0321
  485TMC3    C2 7210   2.155   1.658  12.345  0.1525  0.9919  0.3907
  485TMC3    C3 7211   2.287   1.706  12.319 -0.5188  0.4957  0.0910
  485TMC3    C4 7212   2.095   1.725  12.116  0.2192  0.3634  0.2713
  485TMC3    C5 7213   2.221   1.775  12.096  0.0789  0.7099 -0.5999
  485TMC3    C6 7214   2.311   1.767  12.200 -0.2184  0.8847 -0.0077
  485TMC3     C 7215   1.921   1.632  12.280 -0.0085  1.3912  0.0024
  485TMC3     O 7216   1.911   1.530  12.342 -0.8500  0.0548  0.1944
  485TMC3     H 7217   2.128   1.610  12.439  0.7009 -0.4587 -0.1852
  485TMC3    H1 7218   2.016   1.732  12.042  1.4920 -0.1897 -1.1593
  485TMC3    H2 7219   2.404   1.822  12.185 -0.4827  1.4937  0.6000
  485TMC3    C7 7220   2.294   1.765  11.974 -0.3982  0.5434  0.3480
  485TMC3    C8 7221   2.390   1.615  12.360 -0.2177  0.0954  0.8325
  485TMC3    O1 7222   2.415   1.735  11.988  0.0694 -0.3964 -0.2559
  485TMC3    O2 7223   2.364   1.551  12.462 -0.3242 -0.1071  0.3846
  486MPD2     C 7224   3.922   0.609  12.653  0.8452 -0.0176 -0.3246
  486MPD2    C1 7225   3.802   0.554  12.614 -0.1379 -0.4469  0.4286
  486MPD2    C2 7226   3.709   0.626  12.549  0.5356  0.7882  0.1111
  486MPD2    C3 7227   3.737   0.759  12.526 -0.7839  0.3263  0.5789
  486MPD2    C4 7228   3.867   0.812  12.553 -0.4130  0.4589  0.7897
  486MPD2    C5 7229   3.949   0.736  12.622  0.0273  0.3740 -0.0841
  486MPD2     H 7230   3.612   0.586  12.520  0.1180 -1.1975  4.2610
  486MPD2    H1 7231   3.910   0.901  12.510 -0.0356 -0.3391 -0.4791
  486MPD2    H2 7232   3.998   0.549  12.702 -0.5534 -1.1106  0.4858
  486MPD2    H3 7233   4.050   0.772  12.641  0.6861 -0.9353 -1.0752
  486MPD2     N 7234   3.643   0.835  12.461 -0.1313 -0.0291  0.4005
  486MPD2    H5 7235   3.557   0.792  12.430 -1.5585  2.2872  1.1010
  486MPD2    N1 7236   3.790   0.414  12.637  0.3054  0.3386  0.1604
  486MPD2    H7 7237   3.866   0.373  12.691  1.3460  0.0638 -1.5236
  487TMC3    C1 7238   3.724   0.186  12.613 -0.3606  0.5255 -0.1708
  487TMC3    C2 7239   3.684   0.093  12.523 -0.2558 -0.1179 -0.1538
  487TMC3    C3 7240   3.728   4.680  12.539 -0.0656 -0.2141  0.0938
  487TMC3    C4 7241   3.802   0.154  12.722  0.1051 -0.5236  0.1668
  487TMC3    C5 7242   3.831   0.024  12.743 -0.6196  1.4136 -0.0041
  487TMC3    C6 7243   3.803   4.653  12.649 -0.3604  0.8421  0.1065
  487TMC3     C 7244   3.689   0.326  12.592 -0.2008  0.2733 -0.9955
  487TMC3     O 7245   3.595   0.344  12.514 -0.3441  0.3434  0.4226
  487TMC3     H 7246   3.624   0.121  12.437  1.5732  0.4207 -1.2564
  487TMC3    H1 7247   3.828   0.224  12.801  1.4968 -0.1268 -0.6414
  487TMC3    H2 7248   3.825   4.551  12.678  1.6109  1.6373  1.3984
  487TMC3    C7 7249   3.798   4.690  12.875  0.3429  0.0275 -0.2441
  487TMC3    C8 7250   3.615   4.589  12.546  0.4849 -0.0435  0.4962
  487TMC3    O1 7251   3.855   0.009  12.974 -0.4689 -0.2865  0.0380
  487TMC3    O2 7252   3.515   4.633  12.604 -0.6088 -0.3816 -0.0982
  488MPD2     C 7253   3.590   1.568  16.066  0.3788  0.3797  0.4876
  488MPD2    C1 7254   3.608   1.689  16.130 -0.5364  0.0488  0.1331
  488MPD2    C2 7255   3.530   1.721  16.238  1.1704  0.2558 -0.8230
  488MPD2    C3 7256   3.449   1.619  16.301 -0.0250  0.2895  0.5031
  488MPD2    C4 7257   3.424   1.504  16.233  0.7753  0.5399 -0.1421
  488MPD2    C5 7258   3.505   1.471  16.126 -0.0846 -0.5399  0.1557
  488MPD2     H 7259   3.550   1.821  16.274 -0.0086  0.7320 -1.5107
  488MPD2    H1 7260   3.374   1.421  16.281  0.4041  1.3967  0.9615
  488MPD2    H2 7261   3.645   1.529  15.981 -0.7031 -0.2454  0.0721
  488MPD2    H3 7262   3.498   1.373  16.080  1.0224 -0.3156 -0.4816
  488MPD2     N 7263   3.390   1.655  16.422  0.5379  0.4105 -0.5892
  488MPD2    H5 7264   3.400   1.752  16.450 -1.0922  1.2950 -3.0453
  488MPD2    N1 7265   3.692   1.789  16.080 -0.9125 -0.5530 -0.7162
  488MPD2    H7 7266   3.695   1.870  16.141 -3.7806 -0.8434 -0.1648
  489TMC3    C1 7267   3.270   1.642  16.619  0.1527 -0.0290  0.3393
  489TMC3    C2 7268   3.255   1.777  16.623  0.5375  0.4650 -0.0057
  489TMC3    C3 7269   3.246   1.839  16.747  0.0384  0.5468 -0.7930
  489TMC3    C4 7270   3.251   1.561  16.726 -0.5169  0.0962 -0.3742
  489TMC3    C5 7271   3.230   1.622  16.844  0.3686 -0.8424  1.0013
  489TMC3    C6 7272   3.247   1.755  16.859  0.3031  0.0191 -0.1578
  489TMC3     C 7273   3.322   1.570  16.506 -0.3564  0.9765  0.1199
  489TMC3     O 7274   3.321   1.447  16.513  0.0488  0.0176 -0.1406
  489TMC3     H 7275   3.265   1.841  16.536 -0.6722  0.4531 -0.1570
  489TMC3    H1 7276   3.237   1.454  16.716  0.9879 -0.1645  0.4338
  489TMC3    H2 7277   3.230   1.795  16.958 -1.1965 -1.0912  0.0369
  489TMC3    C7 7278   3.208   1.541  16.963 -0.5592 -0.3217  0.4763
  489TMC3    C8 7279   3.288   1.979  16.752 -0.1187 -0.3465  0.2213
  489TMC3    O1 7280   3.245   1.577  17.072 -0.0947 -0.3693  0.4206
  489TMC3    O2 7281   3.340   2.018  16.854 -0.1337 -0.2770  0.7444
  490MPD2     C 7282   0.435   1.035  17.150 -0.3824  0.1725  0.0997
  490MPD2    C1 7283   0.427   1.079  17.285  0.6765 -0.3854  0.5701
  490MPD2    C2 7284   0.536   1.153  17.337  0.2933 -0.2072 -0.1322
  490MPD2    C3 7285   0.650   1.173  17.265  0.0112  0.0879 -0.2851
  490MPD2    C4 7286   0.657   1.132  17.136 -0.3906  0.3711  0.2041
  490MPD2    C5 7287   0.554   1.059  17.081  0.8056 -0.3017 -0.1748
  490MPD2     H 7288   0.521   1.178  17.441 -0.5115  0.5998 -0.4416
  490MPD2    H1 7289   0.753   1.140  17.086 -1.1959  0.3923 -1.3073
  490MPD2    H2 7290   0.352   0.988  17.098  0.8680 -0.0534 -1.6847
  490MPD2    H3 7291   0.570   1.003  16.989  0.3633 -0.3255 -0.2401
  490MPD2     N 7292   0.762   1.234  17.336  0.1538  0.1138 -0.2693
  490MPD2    H5 7293   0.849   1.226  17.283  0.2426  0.1304 -0.1246
  490MPD2    N1 7294   0.316   1.044  17.369 -0.1292 -0.2331 -0.2983
  490MPD2    H7 7295   0.307   1.085  17.462  2.1923 -1.7345  0.6237
  491TMC3    C1 7296   0.139   0.911  17.445 -0.0165 -0.4378 -0.1247
  491TMC3    C2 7297   0.076   1.013  17.512  0.1878 -0.4742  0.3607
  491TMC3    C3 7298   4.711   0.978  17.614 -0.0556  0.1094  0.1388
  491TMC3    C4 7299   0.095   0.784  17.458  0.7639  0.1031  0.1640
  491TMC3    C5 7300   0.004   0.757  17.554 -0.5056 -0.9644 -0.0347
  491TMC3    C6 7301   4.684   0.846  17.640  0.3289 -0.2562  0.5085
  491TMC3     C 7302   0.231   0.938  17.344 -0.0233 -0.3527  0.1330
  491TMC3     O 7303   0.255   0.850  17.265  0.5035 -0.0391 -0.8231
  491TMC3     H 7304   0.082   1.118  17.486  3.3231 -0.4148  1.2401
  491TMC3    H1 7305   0.131   0.698  17.402 -2.8496 -0.6389 -1.0072
  491TMC3    H2 7306   4.605   0.823   0.026 -0.9070 -0.1435 -0.8460
  491TMC3    C7 7307   4.633   0.654  17.513 -0.1313 -0.4306 -0.5207
  491TMC3    C8 7308   4.607   1.072  17.642  0.8640 -1.0553  0.3532
  491TMC3    O1 7309   4.627   0.637  17.393  0.0705 -0.1255 -0.6304
  491TMC3    O2 7310   4.518   1.035   0.031  0.2055  0.0974 -0.0663
  492MPD2     C 7311   0.532   1.634  10.581 -0.1327  0.0063  0.1359
  492MPD2    C1 7312   0.488   1.505  10.550  0.2459 -0.4593 -0.7446
  492MPD2    C2 7313   0.422   1.433  10.652 -0.7363 -0.2056  0.8547
  492MPD2    C3 7314   0.418   1.485  10.779 -1.3064  0.1713 -0.4164
  492MPD2    C4 7315   0.462   1.610  10.799  0.1116 -0.3764  0.5068
  492MPD2    C5 7316   0.508   1.690  10.704  0.2446 -0.2385  0.1986
  492MPD2     H 7317   0.360   1.345  10.644  0.7341 -1.3558  2.1881
  492MPD2    H1 7318   0.454   1.650  10.899  1.7200 -1.3888  1.0507
  492MPD2    H2 7319   0.578   1.691  10.500  2.5718  0.7407  2.1961
  492MPD2    H3 7320   0.552   1.786  10.729 -0.2349  0.0534 -0.0860
  492MPD2     N 7321   0.371   1.409  10.890  0.0201 -0.0983  0.1350
  492MPD2    H5 7322   0.366   1.462  10.976 -3.0050 -0.3024  0.0541
  492MPD2    N1 7323   0.484   1.464  10.411 -0.4613 -0.4150  0.9174
  492MPD2    H7 7324   0.545   1.512  10.346  1.0493 -2.4401  0.8166
  493TMC3    C1 7325   0.422   1.354  10.220  0.1254 -0.2490  0.1658
  493TMC3    C2 7326   0.467   1.464  10.151 -0.2895  0.1944 -0.4832
  493TMC3    C3 7327   0.492   1.452  10.017 -0.1994  0.5771  0.8855
  493TMC3    C4 7328   0.404   1.237  10.157  0.0828  0.4557  0.2254
  493TMC3    C5 7329   0.440   1.220  10.031 -0.6833 -0.1552 -0.2812
  493TMC3    C6 7330   0.484   1.330   9.957 -0.6099 -0.5127 -0.6389
  493TMC3     C 7331   0.406   1.365  10.364  0.8407 -0.9739  0.1550
  493TMC3     O 7332   0.330   1.283  10.418 -0.4707 -0.0567  0.2494
  493TMC3     H 7333   0.468   1.565  10.191 -0.7486 -1.0876  2.7414
  493TMC3    H1 7334   0.366   1.153  10.214  0.0999  0.7463  0.6641
  493TMC3    H2 7335   0.477   1.337   9.850  1.2702 -0.6570 -0.7729
  493TMC3    C7 7336   0.364   1.119   9.959 -0.3420  0.4687  0.0329
  493TMC3    C8 7337   0.479   1.563   9.932 -0.3651  0.2447  0.1875
  493TMC3    O1 7338   0.253   1.098  10.006 -0.0840 -0.2186 -0.3804
  493TMC3    O2 7339   0.409   1.548   9.835  0.3002  0.0086  0.2516
  494TMC3    C1 7340   0.653   3.033   0.259 -0.4072  0.2393  0.6287
  494TMC3    C2 7341   0.671   2.917   0.326 -0.6411 -0.0770 -0.3187
  494TMC3    C3 7342   0.665   2.802   0.255 -0.2650 -0.9830 -0.6402
  494TMC3    C4 7343   0.640   3.044   0.125  0.6885 -1.0940  0.5202
  494TMC3    C5 7344   0.621   2.926   0.053  0.2810 -0.3829  0.2015
  494TMC3    C6 7345   0.638   2.807   0.121  0.3015 -0.7647  0.3081
  494TMC3     C 7346   0.572   3.134   0.333  0.2703 -0.1573  0.0523
  494TMC3     O 7347   0.477   3.188   0.276  0.1169  0.2949  0.1450
  494TMC3     H 7348   0.692   2.900   0.431 -1.6215 -0.2907 -0.1572
  494TMC3    H1 7349   0.617   3.143   0.088 -0.7147 -1.3054  0.8179
  494TMC3    H2 7350   0.603   2.712   0.081  1.7007 -0.7898 -0.8332
  494TMC3    C7 7351   0.621   2.921  17.597  0.4443 -0.3622 -0.1211
  494TMC3    C8 7352   0.584   2.711   0.328 -0.3564  0.0426 -0.1593
  494TMC3    O1 7353   0.669   2.822  17.545 -0.2223 -0.4689  0.0987
  494TMC3    O2 7354   0.631   2.598   0.354  0.3363  0.3457  0.3852
  495TMC3    C1 7355   4.359   0.298  14.464 -0.0555  0.1139 -0.7844
  495TMC3    C2 7356   4.248   0.292  14.395 -0.2247  0.0685 -0.0028
  495TMC3    C3 7357   4.135   0.314  14.464 -0.5661  0.5727 -0.5300
  495TMC3    C4 7358   4.368   0.351  14.595 -0.1400 -0.0273 -0.1175
  495TMC3    C5 7359   4.255   0.379  14.654  0.6659  0.1780 -0.7326
  495TMC3    C6 7360   4.134   0.365  14.588 -0.3103  0.2064 -0.9269
  495TMC3     C 7361   4.400   0.156  14.458 -0.8108 -0.3623  0.2396
  495TMC3     O 7362   4.368   0.098  14.356  0.7000  0.2695  0.5446
  495TMC3     H 7363   4.240   0.260  14.292 -0.6310  2.2037 -0.6161
  495TMC3    H1 7364   4.466   0.338  14.639 -0.5919  0.1500  0.9405
  495TMC3    H2 7365   4.042   0.377  14.644  0.4877 -0.0289  0.4221
  495TMC3    C7 7366   4.251   0.343  14.793  0.1716  0.5414 -0.1427
  495TMC3    C8 7367   4.021   0.221  14.434 -0.6634 -0.1909 -0.4727
  495TMC3    O1 7368   4.138   0.324  14.840  0.1432  0.2239  0.3775
  495TMC3    O2 7369   3.913   0.231  14.491 -0.5241  0.0040  0.3145
  496MPD2     C 7370   0.948   0.201  15.550 -0.2908 -0.1769 -0.4303
  496MPD2    C1 7371   1.047   0.118  15.596 -0.2526  0.4804  0.7956
  496MPD2    C2 7372   1.083   0.106  15.735  0.1718  0.0246 -0.0760
  496MPD2    C3 7373   1.037   0.198  15.829  0.4864  0.0645  0.2349
  496MPD2    C4 7374   0.946   0.289  15.783  0.1449 -0.0340  0.0211
  496MPD2    C5 7375   0.900   0.285  15.652  0.7373  0.0815 -0.3088
  496MPD2     H 7376   1.162   0.041  15.770 -1.3742 -1.5540  0.4866
  496MPD2    H1 7377   0.903   0.363  15.848  1.4120  1.4686 -0.8586
  496MPD2    H2 7378   0.903   0.205  15.452 -1.8982  0.4423  0.3413
  496MPD2    H3 7379   0.823   0.350  15.613  0.3347 -0.4960 -0.4808
  496MPD2     N 7380   1.090   0.203  15.959  0.3910 -0.5446  0.8346
  496MPD2    H5 7381   1.153   0.130  15.990  0.5607 -0.9688 -0.5194
  496MPD2    N1 7382   1.105   0.042  15.493  0.3616 -0.0093 -0.0124
  496MPD2    H7 7383   1.085   0.069  15.397  0.9787 -0.3583 -0.2388
  497TMC3    C1 7384   1.132   0.272  16.171  0.3277  0.4461 -0.0235
  497TMC3    C2 7385   1.100   0.150  16.226  0.5287 -0.3573 -1.1769
  497TMC3    C3 7386   1.140   0.137  16.358  0.6417 -0.1624 -0.1401
  497TMC3    C4 7387   1.236   0.351  16.213  0.3690  0.2538 -0.8431
  497TMC3    C5 7388   1.271   0.332  16.342  0.4917  0.2169  0.1520
  497TMC3    C6 7389   1.216   0.231  16.420  0.6135 -0.3727 -0.4641
  497TMC3     C 7390   1.073   0.309  16.048 -0.7832  0.5689 -0.9429
  497TMC3     O 7391   1.046   0.424  16.030 -0.6625 -0.0136  0.2918
  497TMC3     H 7392   1.027   0.082  16.183 -0.7540  0.1632  0.1772
  497TMC3    H1 7393   1.261   0.437  16.152  0.2990  1.5041  0.8871
  497TMC3    H2 7394   1.241   0.223  16.525 -0.5567 -0.8309 -0.2146
  497TMC3    C7 7395   1.415   0.364  16.375  0.2390  0.4215 -0.1339
  497TMC3    C8 7396   1.101   0.024  16.451 -0.4967  1.0385 -0.1085
  497TMC3    O1 7397   1.446   0.357  16.496 -0.1095  0.2296 -0.0209
  497TMC3    O2 7398   1.130   0.027  16.572 -0.3868  0.1002  0.2709
  498MPD2     C 7399   2.993   0.470   9.372 -0.6482 -0.2334  0.2104
  498MPD2    C1 7400   2.944   0.577   9.438 -0.2195  0.4486  0.8414
  498MPD2    C2 7401   2.811   0.582   9.472  0.1923 -0.1125 -0.3022
  498MPD2    C3 7402   2.729   0.492   9.426 -0.2725 -0.7445 -0.3275
  498MPD2    C4 7403   2.775   0.380   9.368 -0.3891  0.3544 -0.5254
  498MPD2    C5 7404   2.905   0.374   9.328 -1.0443 -0.5211 -0.3331
  498MPD2     H 7405   2.773   0.673   9.517 -1.2075 -0.8385 -0.0355
  498MPD2    H1 7406   2.703   0.310   9.327 -1.9227  0.7206  1.5685
  498MPD2    H2 7407   3.095   0.461   9.335 -0.0481  2.2498  1.2132
  498MPD2    H3 7408   2.948   0.295   9.267 -1.4351 -0.1221 -1.1145
  498MPD2     N 7409   2.591   0.515   9.445 -0.1801  0.4851  0.2440
  498MPD2    H5 7410   2.572   0.603   9.492 -1.8005 -1.1938  2.7046
  498MPD2    N1 7411   3.027   0.690   9.479  0.1342 -0.1827  0.1434
  498MPD2    H7 7412   2.976   0.763   9.529  0.5691  2.1616 -2.8024
  499TMC3    C1 7413   3.216   0.823   9.526  0.2946  0.0353  0.5218
  499TMC3    C2 7414   3.345   0.820   9.568 -0.4053  0.3905 -0.1401
  499TMC3    C3 7415   3.406   0.935   9.613 -0.2834  0.2388  0.1612
  499TMC3    C4 7416   3.148   0.948   9.520  0.5857 -0.1030  0.1628
  499TMC3    C5 7417   3.216   1.062   9.562  0.3572 -0.8257 -0.1410
  499TMC3    C6 7418   3.343   1.058   9.615  0.1831 -0.4919  0.4098
  499TMC3     C 7419   3.158   0.700   9.460 -0.9383  0.5669 -0.3607
  499TMC3     O 7420   3.239   0.617   9.423  0.6469  0.0983 -0.6021
  499TMC3     H 7421   3.393   0.723   9.573 -1.3512 -0.1548 -1.4988
  499TMC3    H1 7422   3.045   0.946   9.488  0.9278  1.0475 -0.9913
  499TMC3    H2 7423   3.389   1.136   9.675  0.4692  0.1128 -0.5913
  499TMC3    C7 7424   3.176   1.202   9.531  0.6836 -0.8666  1.2193
  499TMC3    C8 7425   3.546   0.939   9.617 -0.1044  0.8596 -0.5428
  499TMC3    O1 7426   3.253   1.282   9.581  0.6372 -0.8116 -0.0277
  499TMC3    O2 7427   3.589   1.053   9.628  0.1164  0.3211 -0.4845
  500MPD2     C 7428   4.341   2.723   9.690  0.6285  0.2132 -1.1413
  500MPD2    C1 7429   4.381   2.668   9.808  0.4931 -0.2197 -0.3346
  500MPD2    C2 7430   4.364   2.533   9.834  0.1888 -0.1565  0.1497
  500MPD2    C3 7431   4.284   2.453   9.744  0.0849 -0.3559 -0.4377
  500MPD2    C4 7432   4.245   2.510   9.623  0.0899 -0.0032 -0.2365
  500MPD2    C5 7433   4.273   2.645   9.600  0.3947  0.3382  0.1920
  500MPD2     H 7434   4.409   2.492   9.924  0.5384 -0.3984 -0.1358
  500MPD2    H1 7435   4.201   2.448   9.546  0.6340  1.2749 -1.6038
  500MPD2    H2 7436   4.372   2.823   9.663  1.0489  0.7921  1.4927
  500MPD2    H3 7437   4.266   2.690   9.502 -1.4967 -0.4884 -0.0691
  500MPD2     N 7438   4.248   2.314   9.758  0.3397  0.0164 -0.0674
  500MPD2    H5 7439   4.188   2.270   9.689  0.9348 -2.0144  0.6904
  500MPD2    N1 7440   4.440   2.738   9.912  0.2028  0.1070  0.1599
  500MPD2    H7 7441   4.460   2.686   9.997  2.0866 -1.2761 -1.0985
  501TMC3    C1 7442   4.538   2.911  10.053 -0.2762  0.3589 -0.0810
  501TMC3    C2 7443   4.526   3.041  10.090 -0.0684  0.0872  0.6590
  501TMC3    C3 7444   4.572   3.075  10.213  0.1287 -0.0722 -0.0915
  501TMC3    C4 7445   4.585   2.814  10.139  0.5149  0.4160 -0.1732
  501TMC3    C5 7446   4.637   2.853  10.257 -0.1621 -0.1591 -0.5528
  501TMC3    C6 7447   4.636   2.985  10.295  0.5564 -0.5054 -0.0360
  501TMC3     C 7448   4.454   2.870   9.933 -0.1291  0.0840  0.1520
  501TMC3     O 7449   4.412   2.961   9.861  0.5917 -0.4940  0.2060
  501TMC3     H 7450   4.486   3.109  10.015 -0.1564 -0.1646  0.4803
  501TMC3    H1 7451   4.617   2.717  10.102  0.6505  1.1121 -1.9122
  501TMC3    H2 7452   4.676   3.021  10.389 -2.5690  0.9707  0.7238
  501TMC3    C7 7453   4.719   2.764  10.329 -0.0754  0.4097 -0.7780
  501TMC3    C8 7454   4.572   3.211  10.261 -0.1302 -0.2330  0.1314
  501TMC3    O1 7455   4.702   2.647  10.302  0.3692 -0.1145 -0.5612
  501TMC3    O2 7456   4.608   3.232  10.378  0.3386 -0.8505 -0.6549
  502TMC3    C1 7457   3.788   0.969  15.201 -0.4689 -0.1723 -0.8025
  502TMC3    C2 7458   3.754   1.076  15.127  0.1925  0.4322  0.0898
  502TMC3    C3 7459   3.696   1.058  15.006  0.1220 -0.6128 -1.0320
  502TMC3    C4 7460   3.760   0.834  15.163  0.4837  0.1896 -0.0142
  502TMC3    C5 7461   3.708   0.823  15.037  0.7851 -0.0691  0.6632
  502TMC3    C6 7462   3.687   0.929  14.952 -0.2613 -0.2485  0.1007
  502TMC3     C 7463   3.871   0.997  15.316 -0.7141  0.5582  0.2692
  502TMC3     O 7464   3.948   1.090  15.310 -0.3200  0.3350 -0.3538
  502TMC3     H 7465   3.777   1.175  15.165  1.1078  0.4291 -0.4480
  502TMC3    H1 7466   3.775   0.751  15.231  2.1442  0.1986 -0.3701
  502TMC3    H2 7467   3.650   0.915  14.851  0.7523  0.3246 -0.3578
  502TMC3    C7 7468   3.631   0.702  15.016 -0.9776 -0.8999  0.6018
  502TMC3    C8 7469   3.616   1.161  14.944  0.3261  0.0140 -0.2781
  502TMC3    O1 7470   3.656   0.626  14.919 -1.0452 -0.8351 -0.0723
  502TMC3    O2 7471   3.560   1.138  14.835 -0.2381 -0.4454 -0.2382
  503MPD2     C 7472   1.089   1.673  16.816 -0.0774 -0.8433  0.5921
  503MPD2    C1 7473   1.124   1.713  16.948  0.0575  0.1739  0.7960
  503MPD2    C2 7474   1.219   1.639  17.021  0.3020  0.8594  0.2795
  503MPD2    C3 7475   1.269   1.518  16.970 -0.0362  0.2506 -0.6567
  503MPD2    C4 7476   1.230   1.479  16.845 -0.3370  0.2421 -0.4438
  503MPD2    C5 7477   1.152   1.562  16.771  0.3873  0.1169  0.4154
  503MPD2     H 7478   1.243   1.674  17.121 -0.4976 -0.0603  0.7987
  503MPD2    H1 7479   1.268   1.395  16.788 -2.0787 -0.2387 -0.8790
  503MPD2    H2 7480   1.024   1.728  16.749  0.2303 -0.7460  0.3736
  503MPD2    H3 7481   1.124   1.531  16.671  1.0048  2.1410 -0.3966
  503MPD2     N 7482   1.358   1.445  17.053  0.4268 -0.4642 -0.6170
  503MPD2    H5 7483   1.343   1.468  17.151  0.7836 -0.6396 -0.5225
  503MPD2    N1 7484   1.061   1.824  17.019 -0.6378 -0.1217  0.4828
  503MPD2    H7 7485   1.070   1.829  17.120  0.9773 -0.0692  0.3351
  504TMC3    C1 7486   1.497   1.257  17.110  0.0861  0.6751  0.2627
  504TMC3    C2 7487   1.463   1.274  17.242  0.7679 -0.1356  1.3842
  504TMC3    C3 7488   1.540   1.216  17.335 -0.1847  0.5149  0.1005
  504TMC3    C4 7489   1.594   1.165  17.073  0.2934 -0.3500  0.2259
  504TMC3    C5 7490   1.666   1.105  17.171  0.4208  0.6571  0.7245
  504TMC3    C6 7491   1.647   1.141  17.307 -0.0822 -1.1074 -0.5548
  504TMC3     C 7492   1.446   1.348  17.007 -0.0607 -0.1252  0.4142
  504TMC3     O 7493   1.462   1.321  16.885  0.1051 -0.3943 -0.2570
  504TMC3     H 7494   1.376   1.334  17.266  0.9382 -0.3759  2.6376
  504TMC3    H1 7495   1.601   1.146  16.966 -0.2349 -1.6455  0.4317
  504TMC3    H2 7496   1.717   1.112  17.385 -1.2724  0.5160  1.1323
  504TMC3    C7 7497   1.807   1.077  17.130  0.2415 -0.2355  0.8527
  504TMC3    C8 7498   1.517   1.258  17.473 -0.5006  0.6838  0.1351
  504TMC3    O1 7499   1.828   1.095  17.012 -0.3130  0.0560 -0.5807
  504TMC3    O2 7500   1.462   1.364  17.483 -0.6418 -0.2405 -0.5187
  505MPD2     C 7501   1.490   0.799  10.223  0.9943 -0.5871  0.3697
  505MPD2    C1 7502   1.524   0.677  10.270 -0.7084  0.0770  0.2727
  505MPD2    C2 7503   1.635   0.662  10.356 -0.6257 -0.3732 -0.3972
  505MPD2    C3 7504   1.712   0.775  10.387 -0.0138  0.3505  0.0543
  505MPD2    C4 7505   1.680   0.900  10.328  0.0336 -0.7763 -0.5586
  505MPD2    C5 7506   1.563   0.913  10.246  0.5265 -0.2844  0.1904
  505MPD2     H 7507   1.668   0.562  10.381  2.1637  0.3935 -1.0001
  505MPD2    H1 7508   1.741   0.986  10.352 -2.1165  0.2254  1.3946
  505MPD2    H2 7509   1.405   0.807  10.156  0.9037 -0.5132  0.4943
  505MPD2    H3 7510   1.541   1.005  10.193  1.9550 -0.0969 -0.0849
  505MPD2     N 7511   1.827   0.758  10.466 -0.3756  0.4295  0.0904
  505MPD2    H5 7512   1.839   0.662  10.499  0.7248  0.5533  0.0585
  505MPD2    N1 7513   1.451   0.563  10.225  0.6459 -0.1006 -0.1898
  505MPD2    H7 7514   1.377   0.583  10.158  0.1625 -0.3444  0.2769
  506TMC3    C1 7515   1.388   0.332  10.203  0.4178  0.0739 -0.4015
  506TMC3    C2 7516   1.417   0.315  10.067  0.0030 -0.4414 -0.0307
  506TMC3    C3 7517   1.428   0.181  10.032  0.1794 -0.3778 -0.2474
  506TMC3    C4 7518   1.375   0.229  10.295  0.4441 -0.9293 -0.2541
  506TMC3    C5 7519   1.397   0.101  10.252 -0.4346 -0.2613  0.5775
  506TMC3    C6 7520   1.418   0.073  10.122  0.0361 -0.5008  0.8201
  506TMC3     C 7521   1.472   0.432  10.264 -0.5432  0.3403  0.1587
  506TMC3     O 7522   1.543   0.386  10.352  0.4175 -0.3717 -0.5781
  506TMC3     H 7523   1.455   0.399  10.011  1.0236 -2.1853 -1.9579
  506TMC3    H1 7524   1.368   0.254  10.400 -0.4145  1.4265 -0.8891
  506TMC3    H2 7525   1.444   4.693  10.089  2.9614  0.3011  0.6225
  506TMC3    C7 7526   1.493   0.028  10.333 -0.5661 -0.7183  0.6409
  506TMC3    C8 7527   1.495   0.157   9.911 -0.0738  0.2359 -0.0641
  506TMC3    O1 7528   1.504   4.626  10.316  0.1958  0.3119 -0.6330
  506TMC3    O2 7529   1.484   0.039   9.876 -0.7644 -0.0905 -0.2746
  507TMC3    C1 7530   2.907   1.479  15.004  0.0727 -0.3144  0.1586
  507TMC3    C2 7531   2.858   1.370  14.934 -0.2663  0.1841 -0.2241
  507TMC3    C3 7532   2.914   1.347  14.814  0.0755 -0.1060 -0.8886
  507TMC3    C4 7533   2.990   1.569  14.952  0.0308 -0.1078  0.2209
  507TMC3    C5 7534   3.046   1.551  14.829 -0.1693 -0.3643  0.2638
  507TMC3    C6 7535   3.012   1.441  14.765  0.0468  0.2444  0.3294
  507TMC3     C 7536   2.822   1.546  15.109  0.0643 -0.1776  0.7540
  507TMC3     O 7537   2.806   1.665  15.090 -0.3107 -0.5512  0.4431
  507TMC3     H 7538   2.800   1.296  14.989  0.2483 -0.5570 -0.6835
  507TMC3    H1 7539   3.030   1.645  15.018 -1.1859 -0.5995  1.5263
  507TMC3    H2 7540   3.061   1.426  14.670 -1.6047  0.4932 -0.5577
  507TMC3    C7 7541   3.008   1.669  14.752 -0.3688  0.0326 -0.1167
  507TMC3    C8 7542   2.825   1.315  14.698 -0.1118  0.4003 -0.4877
  507TMC3    O1 7543   3.044   1.780  14.790 -0.4135  0.1093 -0.4105
  507TMC3    O2 7544   2.847   1.363  14.586 -0.2382  0.5192 -0.4605
  508MPD2     C 7545   2.976   3.361  15.700 -0.0307 -0.6181  0.3232
  508MPD2    C1 7546   3.002   3.453  15.788 -0.8789 -0.1330 -0.1222
  508MPD2    C2 7547   3.004   3.584  15.747  0.3191 -0.2032 -0.3156
  508MPD2    C3 7548   2.966   3.619  15.614 -0.1619 -0.0544 -0.5585
  508MPD2    C4 7549   2.911   3.525  15.536 -0.3733 -0.3261 -0.6317
  508MPD2    C5 7550   2.920   3.399  15.572 -0.1529 -0.0591 -0.2665
  508MPD2     H 7551   3.046   3.660  15.812  2.0937 -0.7926 -0.7570
  508MPD2    H1 7552   2.884   3.545  15.432 -0.0014 -2.6913 -1.1735
  508MPD2    H2 7553   2.983   3.256  15.727 -3.0031 -0.7892  0.4918
  508MPD2    H3 7554   2.891   3.321  15.504 -0.3006 -1.0068  0.8866
  508MPD2     N 7555   2.982   3.756  15.577 -0.7201 -0.5396 -0.0518
  508MPD2    H5 7556   3.032   3.806  15.650  0.1670  0.6799 -1.4921
  508MPD2    N1 7557   3.050   3.416  15.919  0.4167 -0.3817 -0.0635
  508MPD2    H7 7558   3.079   3.322  15.946 -0.0234 -0.4811  0.0813
  509TMC3    C1 7559   2.958   4.157  15.509 -0.5291 -0.1318 -0.8031
  509TMC3    C2 7560   3.099   4.169  15.531  0.0430 -0.4722  0.2973
  509TMC3    C3 7561   3.180   4.060  15.514 -0.3170 -0.5444 -0.1968
  509TMC3    C4 7562   2.908   4.047  15.447  0.2650  0.2513  0.3325
  509TMC3    C5 7563   2.996   3.943  15.444 -0.7443  0.4243  0.7880
  509TMC3    C6 7564   3.131   3.941  15.476  0.3451  0.6366  0.0192
  509TMC3     C 7565   2.896   4.287  15.500  0.2502  0.2839  0.7073
  509TMC3     O 7566   2.953   4.375  15.563 -0.5088  0.4575  0.2200
  509TMC3     H 7567   3.146   4.256  15.576 -0.1535 -1.0996  1.7222
  509TMC3    H1 7568   2.805   4.029  15.416  0.7182 -1.8701  0.0143
  509TMC3    H2 7569   3.199   3.859  15.458 -1.1199 -0.8964  1.5452
  509TMC3    C7 7570   2.934   3.811  15.459  0.1966  0.4272 -0.5572
  509TMC3    C8 7571   3.315   4.085  15.479  0.6722 -0.4733 -0.2084
  509TMC3    O1 7572   2.843   3.782  15.385  0.4571 -0.4426  0.2658
  509TMC3    O2 7573   3.390   3.991  15.481  0.4656  0.3621  0.1760
  510MPD2     C 7574   1.002   0.985  14.642  0.1275 -0.0745 -0.1382
  510MPD2    C1 7575   1.057   0.876  14.680 -0.1772 -0.1098 -0.6761
  510MPD2    C2 7576   1.165   0.815  14.605  0.1661  0.3455  1.0334
  510MPD2    C3 7577   1.209   0.883  14.491  0.3136  0.3094 -0.0054
  510MPD2    C4 7578   1.133   0.994  14.454 -0.4502 -0.2889 -0.2179
  510MPD2    C5 7579   1.026   1.037  14.522  0.0468  0.0232  1.0064
  510MPD2     H 7580   1.211   0.719  14.624  1.1153  0.5143 -0.4418
  510MPD2    H1 7581   1.161   1.061  14.373  1.3828  0.5925  1.1331
  510MPD2    H2 7582   0.917   1.028  14.693  1.7320  3.2267 -0.2198
  510MPD2    H3 7583   0.977   1.131  14.497  1.2415  1.6065  4.5369
  510MPD2     N 7584   1.325   0.834  14.424  0.1119 -0.4751 -0.6156
  510MPD2    H5 7585   1.373   0.760  14.474 -2.7204 -2.1576 -0.3866
  510MPD2    N1 7586   0.993   0.815  14.794 -0.4111  0.0458 -0.2480
  510MPD2    H7 7587   0.899   0.842  14.821 -0.2023  0.1367  0.3993
  511TMC3    C1 7588   0.945   0.628  14.933 -0.1037 -0.2771 -1.1064
  511TMC3    C2 7589   0.843   0.682  15.011  0.1214  0.1299 -0.8566
  511TMC3    C3 7590   0.733   0.607  15.033 -0.0048 -0.2749 -0.3104
  511TMC3    C4 7591   0.937   0.498  14.902 -0.3498 -0.1380 -0.1492
  511TMC3    C5 7592   0.832   0.423  14.934  0.4760 -0.7046  0.4923
  511TMC3    C6 7593   0.724   0.474  14.998  0.7250  0.2891 -0.4742
  511TMC3     C 7594   1.045   0.708  14.856 -0.4871 -0.1607 -0.0077
  511TMC3     O 7595   1.158   0.661  14.831 -0.7862 -0.0863  0.7891
  511TMC3     H 7596   0.852   0.780  15.056 -1.4581  0.2737 -0.8646
  511TMC3    H1 7597   1.020   0.451  14.850 -1.4650 -1.4670 -0.7124
  511TMC3    H2 7598   0.636   0.415  15.022  0.9958 -0.7795 -2.1578
  511TMC3    C7 7599   0.817   0.315  14.838  0.0346 -0.7732  0.4119
  511TMC3    C8 7600   0.642   0.673  15.127 -0.1057 -0.1028  0.2120
  511TMC3    O1 7601   0.864   0.325  14.728 -0.0901 -0.0060  0.0346
  511TMC3    O2 7602   0.678   0.772  15.198 -0.2946 -0.0593 -0.0724
  512TMC3    C1 7603   4.074   0.051  13.482 -0.6895  0.2736  0.5909
  512TMC3    C2 7604   4.199   0.029  13.535  0.0981 -0.2100  0.8154
  512TMC3    C3 7605   4.274   4.654  13.482 -0.7297 -0.4034  0.2003
  512TMC3    C4 7606   4.024   4.686  13.388  0.3643  0.3153 -0.2008
  512TMC3    C5 7607   4.112   4.587  13.334 -0.7675  0.0684  0.1380
  512TMC3    C6 7608   4.240   4.568  13.385 -1.2447  0.1430  0.3484
  512TMC3     C 7609   3.993   0.165  13.525 -0.2572  0.2695  0.0605
  512TMC3     O 7610   3.878   0.173  13.477  0.2158 -0.0875  0.0190
  512TMC3     H 7611   4.229   0.081  13.625  1.4427  0.9509 -0.3076
  512TMC3    H1 7612   3.931   4.714  13.340 -0.0129 -1.8402 -0.7456
  512TMC3    H2 7613   4.314   4.496  13.352 -1.0558 -1.1597  3.5652
  512TMC3    C7 7614   4.040   4.491  13.248  0.1075 -0.1088 -0.0829
  512TMC3    C8 7615   4.418   4.654  13.524  0.2379 -0.2747  0.4425
  512TMC3    O1 7616   3.918   4.504  13.257  0.4747 -0.2763  0.0697
  512TMC3    O2 7617   4.468   4.543  13.525  0.0347 -0.5556  0.0445
  513MPD2     C 7618   1.486   0.638  12.871 -0.6277 -0.2924 -0.4041
  513MPD2    C1 7619   1.466   0.504  12.844  0.3110 -0.2156 -0.1097
  513MPD2    C2 7620   1.496   0.408  12.934  0.4752  0.4847  0.1093
  513MPD2    C3 7621   1.561   0.446  13.047 -0.1695  0.1075 -0.2072
  513MPD2    C4 7622   1.576   0.578  13.083 -0.5403 -0.4933  0.3337
  513MPD2    C5 7623   1.535   0.670  12.994  0.2804 -0.5142  0.2954
  513MPD2     H 7624   1.492   0.302  12.914  0.6577  0.5008 -0.0132
  513MPD2    H1 7625   1.613   0.616  13.177 -0.1343 -1.5608  0.6029
  513MPD2    H2 7626   1.463   0.719  12.803 -2.4130  0.3537  0.9709
  513MPD2    H3 7627   1.552   0.775  13.013 -4.6127 -0.0087  2.0533
  513MPD2     N 7628   1.610   0.340  13.134 -0.4794 -0.1122  0.1430
  513MPD2    H5 7629   1.588   0.245  13.105 -2.1990 -0.4685  2.6359
  513MPD2    N1 7630   1.406   0.468  12.725  0.0541  0.2453  0.5272
  513MPD2    H7 7631   1.415   0.538  12.653  0.0256  0.4236  0.6979
  514TMC3    C1 7632   1.320   0.327  12.544  0.1485 -1.0559 -0.8462
  514TMC3    C2 7633   1.374   0.401  12.445  0.7203 -0.2429  0.3747
  514TMC3    C3 7634   1.407   0.349  12.327 -0.0373  0.4312 -0.5616
  514TMC3    C4 7635   1.301   0.195  12.526  0.2161  0.3776  0.1815
  514TMC3    C5 7636   1.330   0.142  12.408  0.2197 -0.3288  0.4640
  514TMC3    C6 7637   1.378   0.216  12.306 -0.1191  0.2348 -0.4248
  514TMC3     C 7638   1.347   0.348  12.689  0.2255  0.5353  0.1894
  514TMC3     O 7639   1.336   0.246  12.755  0.2974  0.5102  0.6544
  514TMC3     H 7640   1.404   0.503  12.469  1.0038  0.0128 -1.0525
  514TMC3    H1 7641   1.240   0.142  12.599  0.3520 -1.0183 -0.7014
  514TMC3    H2 7642   1.388   0.164  12.211 -0.6914  0.4153 -0.5842
  514TMC3    C7 7643   1.405   0.025  12.431  0.4872 -0.8589 -0.4929
  514TMC3    C8 7644   1.412   0.431  12.209 -0.4251  0.8256  0.8302
  514TMC3    O1 7645   1.426   4.667  12.339  0.3881  0.3339  0.0837
  514TMC3    O2 7646   1.345   0.533  12.215 -0.0887  0.3873 -0.2176
  515MPD2     C 7647   4.443   1.922  14.432 -0.7556 -0.2295  0.4882
  515MPD2    C1 7648   4.489   1.803  14.476  0.0145 -0.2579 -0.3216
  515MPD2    C2 7649   4.575   1.795  14.583 -0.5240 -0.2084 -0.0322
  515MPD2    C3 7650   4.604   1.910  14.658  0.0646  0.1048 -0.1438
  515MPD2    C4 7651   4.550   2.028  14.617 -0.6407 -0.4809  0.4191
  515MPD2    C5 7652   4.473   2.031  14.507  0.6886  0.0187 -0.4574
  515MPD2     H 7653   4.625   1.702  14.609  2.1136  1.1897 -0.1872
  515MPD2    H1 7654   4.579   2.122  14.663 -0.4570 -0.0804 -0.5105
  515MPD2    H2 7655   4.396   1.955  14.341 -2.1267 -1.3305  0.7962
  515MPD2    H3 7656   4.438   2.127  14.472  0.2543 -0.7259 -2.0719
  515MPD2     N 7657   4.697   1.920  14.766 -0.1897  0.7334 -0.9343
  515MPD2    H5 7658   4.702   2.014  14.805  0.8015 -0.5046  1.9271
  515MPD2    N1 7659   4.455   1.686  14.405 -0.4622 -0.5937 -0.3766
  515MPD2    H7 7660   4.514   1.607  14.429  2.2577  2.1266  1.9969
  516TMC3    C1 7661   4.326   1.550  14.269  1.3601 -0.0485 -0.0906
  516TMC3    C2 7662   4.299   1.532  14.137 -0.0746 -0.5041  0.6280
  516TMC3    C3 7663   4.310   1.407  14.082 -0.5936 -0.3337 -0.5136
  516TMC3    C4 7664   4.352   1.440  14.346 -0.1864 -0.0464 -0.8690
  516TMC3    C5 7665   4.347   1.317  14.291  0.7708  0.1630  0.3264
  516TMC3    C6 7666   4.349   1.299  14.158 -0.1892  0.3158 -0.6330
  516TMC3     C 7667   4.360   1.683  14.304 -0.0585 -0.4326 -0.0473
  516TMC3     O 7668   4.284   1.768  14.252  0.1982 -0.2232  0.1629
  516TMC3     H 7669   4.279   1.621  14.079  2.6508  0.4824  1.1898
  516TMC3    H1 7670   4.375   1.454  14.451  0.8845 -0.0510 -1.1095
  516TMC3    H2 7671   4.341   1.198  14.119  0.1241 -0.0521  0.2623
  516TMC3    C7 7672   4.399   1.206  14.377 -0.2852  0.1924  0.3591
  516TMC3    C8 7673   4.276   1.383  13.946 -0.3059 -0.0119 -0.6623
  516TMC3    O1 7674   4.445   1.231  14.485  0.3784  0.3817  0.5050
  516TMC3    O2 7675   4.182   1.448  13.901 -0.4658 -0.1481 -0.0890
  517MPD2     C 7676   3.564   2.861  17.291 -0.4121 -0.3319  0.3503
  517MPD2    C1 7677   3.670   2.862  17.380 -0.5231  0.2542 -0.8411
  517MPD2    C2 7678   3.679   2.971  17.468 -0.2762  0.2334  0.1972
  517MPD2    C3 7679   3.598   3.081  17.450  0.6598  0.0838 -0.1828
  517MPD2    C4 7680   3.503   3.085  17.348 -0.3319 -0.4582 -0.0175
  517MPD2    C5 7681   3.483   2.970  17.279 -0.8022 -0.4311  0.0349
  517MPD2     H 7682   3.761   2.965  17.540  3.2696 -2.7826 -4.0406
  517MPD2    H1 7683   3.426   3.159  17.330 -0.6180  0.0272  3.3527
  517MPD2    H2 7684   3.529   2.772  17.240 -0.9126  0.6008 -0.9321
  517MPD2    H3 7685   3.405   2.969  17.203  1.4127 -0.4260 -2.2417
  517MPD2     N 7686   3.599   3.190  17.535  1.0566 -1.1047  0.4466
  517MPD2    H5 7687   3.520   3.253  17.531  1.4386 -0.6208  0.5319
  517MPD2    N1 7688   3.774   2.767  17.385  0.5646 -0.2683  0.4186
  517MPD2    H7 7689   3.846   2.796  17.450  0.8331 -0.1081  0.0444
  518TMC3    C1 7690   3.889   2.566  17.303  0.6369  0.4599  0.4245
  518TMC3    C2 7691   3.864   2.428  17.295 -0.5236  0.2756  0.1156
  518TMC3    C3 7692   3.967   2.342  17.334 -0.4563 -0.2429 -0.0562
  518TMC3    C4 7693   3.999   2.615  17.371  0.9653  0.5372 -0.4039
  518TMC3    C5 7694   4.103   2.525  17.398 -0.1932  0.0378 -0.2594
  518TMC3    C6 7695   4.089   2.392  17.373 -0.3476 -0.8628 -0.9078
  518TMC3     C 7696   3.776   2.655  17.303 -0.5568  0.2999 -0.3809
  518TMC3     O 7697   3.685   2.609  17.231  0.4770 -0.3664 -0.6306
  518TMC3     H 7698   3.769   2.392  17.258 -0.4353  0.1457  0.0126
  518TMC3    H1 7699   4.018   2.722  17.370 -1.3879  0.9726  1.0343
  518TMC3    H2 7700   4.175   2.325  17.370 -0.2268 -0.7800  0.8855
  518TMC3    C7 7701   4.235   2.562  17.431  0.5694  0.1740  0.3922
  518TMC3    C8 7702   3.975   2.199  17.286 -0.2771 -0.8209 -0.4090
  518TMC3    O1 7703   4.304   2.469  17.466 -0.2887 -0.0500 -0.1091
  518TMC3    O2 7704   4.066   2.130  17.331 -0.3840  0.2731 -0.1106
  519MPD2     C 7705   1.013   1.688  14.100 -0.5262 -0.2748 -0.2259
  519MPD2    C1 7706   1.062   1.746  13.983 -0.4046 -0.4058 -0.1818
  519MPD2    C2 7707   1.200   1.747  13.955 -0.2816  0.3855 -0.4867
  519MPD2    C3 7708   1.278   1.669  14.035 -0.8952  0.2638 -0.1704
  519MPD2    C4 7709   1.229   1.605  14.156  0.0411 -0.4618 -0.8863
  519MPD2    C5 7710   1.098   1.624  14.191  0.3678  0.1721 -0.1531
  519MPD2     H 7711   1.247   1.797  13.871  1.5092  0.5795  0.6170
  519MPD2    H1 7712   1.291   1.544  14.220 -1.2338 -0.8644 -0.0339
  519MPD2    H2 7713   0.906   1.693  14.114 -0.5133 -0.3072 -0.1161
  519MPD2    H3 7714   1.058   1.574  14.278 -1.5963 -0.3269 -1.3525
  519MPD2     N 7715   1.409   1.666  13.990  0.0891 -1.0195 -0.5733
  519MPD2    H5 7716   1.426   1.720  13.905 -1.3448  0.5076  0.1170
  519MPD2    N1 7717   0.967   1.812  13.903 -0.2844 -1.4880 -0.0547
  519MPD2    H7 7718   0.871   1.807  13.935 -0.9010  1.7013 -1.4021
  520TMC3    C1 7719   1.619   1.579  13.944  0.6515 -0.2013 -0.2585
  520TMC3    C2 7720   1.602   1.606  13.810 -0.2685  0.3438  0.0382
  520TMC3    C3 7721   1.700   1.567  13.724 -0.3075  1.0980  0.2299
  520TMC3    C4 7722   1.732   1.512  13.986 -0.8007 -0.2960  0.4288
  520TMC3    C5 7723   1.833   1.478  13.902  0.2471  0.2465 -0.2865
  520TMC3    C6 7724   1.811   1.500  13.767 -0.2447 -0.0185  0.5962
  520TMC3     C 7725   1.506   1.586  14.037  0.2467  0.3602 -0.6831
  520TMC3     O 7726   1.519   1.532  14.146 -0.3829  0.6879 -0.3559
  520TMC3     H 7727   1.528   1.677  13.774 -0.7105  0.5887  1.4133
  520TMC3    H1 7728   1.742   1.492  14.092 -1.2340  1.4960  0.8117
  520TMC3    H2 7729   1.888   1.471  13.696  3.5359 -0.6367  4.9093
  520TMC3    C7 7730   1.902   1.354  13.942 -0.5508 -1.0489 -0.3612
  520TMC3    C8 7731   1.675   1.553  13.579 -0.9738 -0.1659 -0.2168
  520TMC3    O1 7732   1.904   1.334  14.063  0.2213 -0.2480  0.3712
  520TMC3    O2 7733   1.768   1.549  13.495 -0.1043  0.1615  0.1738
  521MPD2     C 7734   1.673   4.149  17.188  0.7854 -0.2615 -0.1908
  521MPD2    C1 7735   1.675   4.057  17.089  0.0798  0.6957  0.4787
  521MPD2    C2 7736   1.798   4.044  17.026  0.2808  0.4504  0.0617
  521MPD2    C3 7737   1.917   4.092  17.067  0.8627  0.0500  0.0220
  521MPD2    C4 7738   1.915   4.181  17.171  0.4985  0.4829  0.1463
  521MPD2    C5 7739   1.792   4.205  17.231  0.0341  0.1019 -0.1666
  521MPD2     H 7740   1.804   3.979  16.940  0.9676 -0.8145  1.0734
  521MPD2    H1 7741   2.000   4.221  17.225  1.1379  1.9176 -1.8965
  521MPD2    H2 7742   1.588   4.187  17.245  1.2792  1.6250 -0.6891
  521MPD2    H3 7743   1.782   4.270  17.316  1.2561  0.2643 -0.1434
  521MPD2     N 7744   2.033   4.056  16.993  0.3214  0.3114 -0.3570
  521MPD2    H5 7745   2.022   3.999  16.909 -1.0855  3.4757 -2.3234
  521MPD2    N1 7746   1.554   3.996  17.051 -0.1690  0.5073  0.0040
  521MPD2    H7 7747   1.466   4.038  17.077  0.3847  1.2362  0.7146
  522TMC3    C1 7748   2.242   4.060  16.907 -0.0018  0.2321  0.8666
  522TMC3    C2 7749   2.374   4.029  16.938  0.3962 -0.1218 -0.0085
  522TMC3    C3 7750   2.453   3.985  16.833  0.0009  0.0345  0.2013
  522TMC3    C4 7751   2.193   4.046  16.776  0.4851  0.3047  0.2404
  522TMC3    C5 7752   2.282   3.999  16.682 -0.4367 -0.3397  0.6362
  522TMC3    C6 7753   2.408   3.960  16.712  0.0205 -0.1699 -0.1626
  522TMC3     C 7754   2.157   4.097  17.015  0.1495  0.4169  0.4449
  522TMC3     O 7755   2.209   4.135  17.119  0.5254 -0.4461  0.2263
  522TMC3     H 7756   2.419   4.039  17.036  1.2140 -0.0219 -0.3935
  522TMC3    H1 7757   2.096   4.083  16.743  0.0886 -1.3148 -0.4132
  522TMC3    H2 7758   2.473   3.932  16.629  0.4785 -0.1866  0.2036
  522TMC3    C7 7759   2.251   4.026  16.542  0.2969  0.2807 -0.2049
  522TMC3    C8 7760   2.589   3.948  16.878  0.0939  0.3948 -0.4805
  522TMC3    O1 7761   2.348   4.056  16.470  0.5092  0.0107 -0.2550
  522TMC3    O2 7762   2.630   4.000  16.977  0.1953  0.3187 -0.3732
  523MPD2     C 7763   0.113   4.237  10.170  0.1709  0.6700 -0.3360
  523MPD2    C1 7764   0.088   4.159  10.061 -0.6638 -0.5981 -0.6404
  523MPD2    C2 7765   0.035   4.206   9.940  0.5163 -0.2926  0.2544
  523MPD2    C3 7766   4.704   4.334   9.932 -0.2536 -0.0388  0.2294
  523MPD2    C4 7767   0.006   4.412  10.041  0.0193  0.4421  0.7552
  523MPD2    C5 7768   0.070   4.363  10.150 -0.6840 -0.1178 -0.3472
  523MPD2     H 7769   0.006   4.141   9.859 -0.2766  0.5272 -0.1130
  523MPD2    H1 7770   4.713   4.519  10.047  1.5962  0.4151  4.3840
  523MPD2    H2 7771   0.162   4.201  10.260 -0.4956  2.5375  0.7862
  523MPD2    H3 7772   0.074   4.437  10.229 -0.8922  0.6861 -1.0932
  523MPD2     N 7773   4.628   4.389   9.827  0.8260  0.0630  0.4328
  523MPD2    H5 7774   4.599   4.484   9.849 -1.0315 -0.2091 -0.8085
  523MPD2    N1 7775   0.140   4.028  10.071  0.5132 -0.5050  0.4260
  523MPD2    H7 7776   0.166   4.013  10.168  3.1906  1.0051 -0.0900
  524TMC3    C1 7777   4.532   4.419   9.616 -0.0207 -0.2121 -0.2692
  524TMC3    C2 7778   4.519   4.380   9.492 -0.2971 -0.3468 -0.2289
  524TMC3    C3 7779   4.460   4.471   9.405  0.8551  0.5264  1.2953
  524TMC3    C4 7780   4.461   4.528   9.675 -0.6954  0.3085  0.1197
  524TMC3    C5 7781   4.390   4.603   9.585  0.4505  0.2071 -0.0327
  524TMC3    C6 7782   4.385   4.581   9.451 -0.2183  0.8064  0.6064
  524TMC3     C 7783   4.592   4.324   9.709 -0.0397 -0.1200  0.9987
  524TMC3     O 7784   4.625   4.212   9.669 -0.8793 -0.0795  0.0792
  524TMC3     H 7785   4.588   4.307   9.451  0.0993 -0.3862  0.5120
  524TMC3    H1 7786   4.457   4.555   9.780 -0.9105 -0.6312  0.3552
  524TMC3    H2 7787   4.341   4.650   9.379  0.1093 -1.4834 -1.7957
  524TMC3    C7 7788   4.325   4.715   9.644 -0.6611 -0.0939  0.4485
  524TMC3    C8 7789   4.489   4.450   9.270 -0.4914  0.4733  0.2462
  524TMC3    O1 7790   4.327   0.001   9.766 -0.2063  0.5933 -0.3629
  524TMC3    O2 7791   4.569   4.367   9.225 -0.0295  0.1895  0.0381
  525MPD2     C 7792   2.594   0.782  14.440 -0.2168  0.9037  0.0558
  525MPD2    C1 7793   2.676   0.696  14.498  0.1136  0.3745 -0.9019
  525MPD2    C2 7794   2.810   0.686  14.463  0.2143  0.5384  0.7523
  525MPD2    C3 7795   2.865   0.776  14.370  0.2147 -0.3530 -0.2194
  525MPD2    C4 7796   2.779   0.860  14.313  0.6075  0.8645 -0.2641
  525MPD2    C5 7797   2.653   0.869  14.348  0.5520 -0.4871 -0.0120
  525MPD2     H 7798   2.864   0.617  14.527  1.4418 -0.4744 -1.3861
  525MPD2    H1 7799   2.811   0.942  14.249  2.1399 -1.1099 -2.0372
  525MPD2    H2 7800   2.490   0.791  14.469  0.1372 -0.4034  1.7528
  525MPD2    H3 7801   2.587   0.947  14.312  1.6798  1.2758  1.7912
  525MPD2     N 7802   3.011   0.799  14.357 -0.4144  0.4834 -0.0016
  525MPD2    H5 7803   3.044   0.885  14.313 -1.4208 -0.0970 -1.8892
  525MPD2    N1 7804   2.635   0.598  14.596  0.2174 -0.2437 -0.3113
  525MPD2    H7 7805   2.708   0.529  14.611  0.8853 -0.3862 -4.3421
  526TMC3    C1 7806   2.506   0.496  14.764 -0.2319 -0.0156 -0.0134
  526TMC3    C2 7807   2.422   0.524  14.868  0.2455  0.2982 -0.3818
  526TMC3    C3 7808   2.435   0.437  14.973  0.1831 -0.6230 -0.3811
  526TMC3    C4 7809   2.598   0.402  14.758  0.1492 -0.3291 -0.0655
  526TMC3    C5 7810   2.596   0.311  14.860  0.3887  0.3042  0.6045
  526TMC3    C6 7811   2.529   0.333  14.970  0.1981  0.7317  0.8475
  526TMC3     C 7812   2.514   0.593  14.653 -0.3225  0.0972 -0.7220
  526TMC3     O 7813   2.419   0.670  14.648  0.4440 -0.7065 -0.5643
  526TMC3     H 7814   2.361   0.613  14.868 -1.0088 -0.5632  0.2230
  526TMC3    H1 7815   2.638   0.378  14.660  0.3539  0.9453 -0.3031
  526TMC3    H2 7816   2.522   0.259  15.048  0.9464 -0.1857  0.0469
  526TMC3    C7 7817   2.693   0.199  14.869 -0.1251 -0.4976  0.2701
  526TMC3    C8 7818   2.410   0.483  15.103  0.1246  0.1036  0.5508
  526TMC3    O1 7819   2.672   0.109  14.946 -0.9933  0.2492  0.7169
  526TMC3    O2 7820   2.466   0.432  15.197 -0.6426 -0.1106  0.4643
  527MPD2     C 7821   4.651   3.554   0.846  0.2797 -0.1226 -0.7356
  527MPD2    C1 7822   0.024   3.544   0.957  0.7132  0.0126  0.1589
  527MPD2    C2 7823   0.162   3.576   0.935  0.1199 -0.4094  0.6300
  527MPD2    C3 7824   0.199   3.603   0.806  0.3394  0.0405  0.3044
  527MPD2    C4 7825   0.112   3.605   0.699  0.5946  0.8310 -0.3211
  527MPD2    C5 7826   4.693   3.595   0.721  0.9759  0.2350 -0.6566
  527MPD2     H 7827   0.232   3.571   1.018  1.4858  0.2348 -0.4964
  527MPD2    H1 7828   0.152   3.635   0.603  2.0586  1.8062  0.5899
  527MPD2    H2 7829   4.544   3.543   0.863  0.6063 -1.6171  0.3614
  527MPD2    H3 7830   4.617   3.617   0.647  1.2336  0.4220 -0.8660
  527MPD2     N 7831   0.333   3.611   0.790 -0.5517 -0.1533 -0.5215
  527MPD2    H5 7832   0.381   3.589   0.877 -2.3193  0.0019  0.4961
  527MPD2    N1 7833   4.703   3.511   1.091  0.0316  0.0571 -0.3369
  527MPD2    H7 7834   0.054   3.502   1.162  3.4173 -0.3105 -3.7558
  528TMC3    C1 7835   4.566   3.446   1.276  0.0384 -0.3015 -0.5035
  528TMC3    C2 7836   4.683   3.427   1.352  0.4116  0.3646  0.6018
  528TMC3    C3 7837   4.667   3.371   1.479 -0.0165  0.4100 -0.5486
  528TMC3    C4 7838   4.438   3.415   1.326 -0.2077 -0.2601  0.8015
  528TMC3    C5 7839   4.431   3.360   1.445 -0.3563  0.7505  0.8448
  528TMC3    C6 7840   4.543   3.337   1.529  1.0927 -0.5911 -0.2172
  528TMC3     C 7841   4.576   3.480   1.135  0.4317  0.2078  0.1382
  528TMC3     O 7842   4.473   3.477   1.070 -0.1019  0.4604  0.3374
  528TMC3     H 7843   0.064   3.430   1.312  0.7477 -0.1310  1.4126
  528TMC3    H1 7844   4.357   3.415   1.253  0.0584  2.4604  0.5098
  528TMC3    H2 7845   4.536   3.332   1.637 -0.1609 -3.3531 -0.4245
  528TMC3    C7 7846   4.309   3.291   1.476 -0.5839  0.3214 -1.0854
  528TMC3    C8 7847   0.053   3.394   1.575  0.1013 -0.0417 -0.2627
  528TMC3    O1 7848   4.207   3.307   1.403 -0.2168 -0.4528 -0.7145
  528TMC3    O2 7849   0.053   3.321   1.675  0.4025 -0.0258  0.0125
  529MPD2     C 7850   2.819   1.980   0.941  0.1725 -0.6866 -1.4429
  529MPD2    C1 7851   2.831   1.876   0.851 -0.9530  0.6824  0.9684
  529MPD2    C2 7852   2.748   1.879   0.744  0.7659  0.4779 -0.0278
  529MPD2    C3 7853   2.661   1.993   0.721 -0.4335  0.1923  0.0941
  529MPD2    C4 7854   2.655   2.094   0.810  0.0646 -0.2510  0.1734
  529MPD2    C5 7855   2.724   2.083   0.927 -0.5490  0.3479  0.5932
  529MPD2     H 7856   2.757   1.798   0.673 -2.0964 -0.4697  0.7114
  529MPD2    H1 7857   2.582   2.171   0.788 -0.6423 -0.1338  2.9287
  529MPD2    H2 7858   2.883   1.985   1.029 -2.5872  1.4603  0.4563
  529MPD2    H3 7859   2.717   2.158   1.005 -2.8758 -0.6509  1.3632
  529MPD2     N 7860   2.572   2.010   0.609 -0.5714  0.2527  0.2854
  529MPD2    H5 7861   2.517   2.095   0.615 -0.5274  0.3458 -0.6556
  529MPD2    N1 7862   2.916   1.768   0.877  0.1211  0.1305  0.3760
  529MPD2    H7 7863   2.917   1.691   0.810 -1.8615 -0.3347  0.8643
  530TMC3    C1 7864   3.085   1.632   0.970  0.0070 -0.6164  0.2304
  530TMC3    C2 7865   3.207   1.636   1.019 -0.1424 -0.0373  0.0635
  530TMC3    C3 7866   3.257   1.523   1.083  0.7121 -0.0878 -0.3018
  530TMC3    C4 7867   3.010   1.520   0.957 -0.3976  0.2216  0.3573
  530TMC3    C5 7868   3.059   1.413   1.024  0.4313 -0.0410  0.3788
  530TMC3    C6 7869   3.174   1.410   1.091  0.4510 -0.2454 -0.2158
  530TMC3     C 7870   3.015   1.760   0.973 -0.1479 -0.0617 -0.3568
  530TMC3     O 7871   3.054   1.837   1.062 -0.2248  0.2790 -0.1624
  530TMC3     H 7872   3.257   1.731   1.028 -1.3184  0.5994 -0.0976
  530TMC3    H1 7873   2.910   1.516   0.916 -0.6619  0.6382  0.9679
  530TMC3    H2 7874   3.193   1.322   1.151  2.3942  2.0579  2.5271
  530TMC3    C7 7875   2.970   1.303   1.069 -0.4048  0.0570  0.2771
  530TMC3    C8 7876   3.345   1.540   1.192 -1.6973  0.0720 -0.7249
  530TMC3    O1 7877   3.017   1.194   1.105 -0.0968  0.3578 -0.1509
  530TMC3    O2 7878   3.366   1.658   1.223  0.0190  0.3962 -0.0058
  531MPD2     C 7879   1.752   4.520  12.749 -0.0349 -0.3236 -0.0248
  531MPD2    C1 7880   1.673   4.603  12.828 -0.2089 -0.2995  0.1079
  531MPD2    C2 7881   1.565   4.666  12.768  0.5577  0.1392  0.6837
  531MPD2    C3 7882   1.544   4.656  12.631  0.0108  0.3950  0.4943
  531MPD2    C4 7883   1.614   4.563  12.557  0.7168  0.5866  0.2219
  531MPD2    C5 7884   1.721   4.500  12.614 -0.4669  0.1833 -1.3952
  531MPD2     H 7885   1.503   0.020  12.816  2.9599  1.2397  2.0384
  531MPD2    H1 7886   1.609   4.550  12.450  0.0918  0.6247  0.2508
  531MPD2    H2 7887   1.838   4.474  12.795  0.3097 -1.4957 -1.8340
  531MPD2    H3 7888   1.783   4.431  12.558  0.2845  1.0732 -1.6497
  531MPD2     N 7889   1.449   0.023  12.566 -0.0301 -0.4892  0.2230
  531MPD2    H5 7890   1.406   0.095  12.623 -2.9981 -2.2085  0.1906
  531MPD2    N1 7891   1.712   4.637  12.957  0.6586 -0.1280  0.0171
  531MPD2    H7 7892   1.793   4.584  12.988 -0.4972 -3.1524 -2.1223
  532TMC3    C1 7893   1.730   0.041  13.162 -0.7554  0.3122  0.2197
  532TMC3    C2 7894   1.662   0.120  13.250  0.6776  0.1499 -0.3901
  532TMC3    C3 7895   1.730   0.231  13.300 -0.0199 -0.4678  0.2033
  532TMC3    C4 7896   1.869   0.042  13.158 -0.4639 -0.2013 -0.8683
  532TMC3    C5 7897   1.933   0.145  13.229  0.1080  0.1995 -0.1180
  532TMC3    C6 7898   1.866   0.233  13.305 -0.5897 -0.1464 -0.1077
  532TMC3     C 7899   1.653   0.007  13.044 -0.1661 -0.5162 -0.3035
  532TMC3     O 7900   1.548   0.076  13.032 -0.6718  0.3851  0.0800
  532TMC3     H 7901   1.555   0.135  13.257  0.4667 -0.4873 -2.2845
  532TMC3    H1 7902   1.921   4.700  13.087 -0.4101 -0.8481 -0.2574
  532TMC3    H2 7903   1.925   0.288  13.378  0.7226  1.2149 -2.1906
  532TMC3    C7 7904   2.067   0.104  13.274 -0.0149  0.8238 -0.0956
  532TMC3    C8 7905   1.684   0.356  13.245 -0.1082  0.4854 -0.5830
  532TMC3    O1 7906   2.152   0.193  13.309 -0.2287  0.6339  0.7607
  532TMC3    O2 7907   1.729   0.459  13.296 -0.3728 -0.1491 -0.1821
  533TMC3    C1 7908   3.229   0.751  14.430 -0.0143 -0.2376 -0.6474
  533TMC3    C2 7909   3.269   0.865  14.369  0.1148 -0.4909  0.0445
  533TMC3    C3 7910   3.353   0.946  14.442  0.1483 -0.1797 -0.5003
  533TMC3    C4 7911   3.261   0.722  14.562 -0.2792  0.1157 -0.8862
  533TMC3    C5 7912   3.323   0.822  14.637  0.0578 -0.4764  0.7764
  533TMC3    C6 7913   3.377   0.932  14.573  0.1624  0.1138  0.5010
  533TMC3     C 7914   3.099   0.698  14.397  0.1257  1.1851  0.0669
  533TMC3     O 7915   3.078   0.579  14.427 -0.4760  0.3261  0.5538
  533TMC3     H 7916   3.243   0.883  14.265 -0.3593  1.5797  0.5354
  533TMC3    H1 7917   3.219   0.642  14.623  0.3911  1.3719  1.2352
  533TMC3    H2 7918   3.434   1.011  14.621 -1.3709  2.3557 -1.4197
  533TMC3    C7 7919   3.246   0.856  14.756 -0.0179 -0.1985  0.7378
  533TMC3    C8 7920   3.388   1.083  14.400  0.1702  0.1951  1.3199
  533TMC3    O1 7921   3.153   0.784  14.783 -0.3313 -0.0028  0.0698
  533TMC3    O2 7922   3.387   1.167  14.488  0.0769  0.2101 -0.0996
  534MPD2     C 7923   4.707   2.415   1.771 -0.1869  0.3899  0.1353
  534MPD2    C1 7924   0.012   2.478   1.653 -0.4126  0.0517  0.6610
  534MPD2    C2 7925   4.706   2.415   1.531  0.9442  0.0065 -0.1594
  534MPD2    C3 7926   4.679   2.282   1.534 -0.5114  0.0578  0.0017
  534MPD2    C4 7927   4.665   2.217   1.654  0.2593  0.1189  0.3253
  534MPD2    C5 7928   4.678   2.282   1.772 -0.1475 -0.2448 -0.3229
  534MPD2     H 7929   4.718   2.464   1.435  1.4470 -0.1040 -0.1551
  534MPD2    H1 7930   4.630   2.114   1.658  1.3566 -0.3445 -2.2724
  534MPD2    H2 7931   0.013   2.456   1.868  1.6948  0.8885 -0.5947
  534MPD2    H3 7932   4.662   2.226   1.863 -0.4592  1.0161  0.4056
  534MPD2     N 7933   4.671   2.199   1.416 -0.5610  0.2335  0.3808
  534MPD2    H5 7934   4.626   2.110   1.434  0.0778 -0.4016 -1.1536
  534MPD2    N1 7935   0.062   2.610   1.635 -0.0822 -0.3124  0.2102
  534MPD2    H7 7936   0.064   2.651   1.543 -1.3776  1.5158  0.9955
  535TMC3    C1 7937   4.697   2.121   1.193  0.8704 -0.2411  0.8336
  535TMC3    C2 7938   4.660   1.993   1.236 -0.3914 -0.5504 -0.1202
  535TMC3    C3 7939   4.710   1.887   1.171 -0.0711  0.6792 -0.3918
  535TMC3    C4 7940   0.050   2.138   1.077  0.1112 -0.4385  0.5913
  535TMC3    C5 7941   0.100   2.029   1.017  0.1242 -0.2113  0.1350
  535TMC3    C6 7942   0.079   1.902   1.064 -0.3325  0.5722 -0.3714
  535TMC3     C 7943   4.693   2.234   1.279 -0.4975 -0.6690 -0.1544
  535TMC3     O 7944   0.011   2.337   1.233  0.1705 -0.2822 -0.9414
  535TMC3     H 7945   4.588   1.987   1.317 -0.9694 -1.3304 -0.6894
  535TMC3    H1 7946   0.079   2.234   1.036 -1.2057  0.2471  1.2786
  535TMC3    H2 7947   0.130   1.820   1.015  0.7685  0.6372  0.6650
  535TMC3    C7 7948   0.188   2.040   0.906 -0.4571  0.1586 -0.0441
  535TMC3    C8 7949   4.647   1.757   1.183  0.0962 -0.5671 -0.1327
  535TMC3    O1 7950   0.280   1.958   0.900  0.0276  0.3699 -0.3099
  535TMC3    O2 7951   4.663   1.673   1.092  0.0752 -0.0748  0.5916
  536MPD2     C 7952   4.221   0.774  16.655 -0.0366  0.0865 -0.1174
  536MPD2    C1 7953   4.107   0.697  16.683  0.0307 -0.1189 -0.6488
  536MPD2    C2 7954   4.039   0.635  16.573 -0.0195  0.0504 -0.0365
  536MPD2    C3 7955   4.068   0.676  16.444 -0.9165  0.0718 -0.4732
  536MPD2    C4 7956   4.168   0.773  16.424 -0.1784  0.0496 -0.2647
  536MPD2    C5 7957   4.244   0.819  16.527 -0.3837  0.5081  0.3769
  536MPD2     H 7958   3.949   0.580  16.598  0.0568 -0.2782 -0.4870
  536MPD2    H1 7959   4.190   0.813  16.325  0.8904  0.4565  0.1371
  536MPD2    H2 7960   4.290   0.816  16.728 -1.7635  3.8937 -0.6657
  536MPD2    H3 7961   4.318   0.895  16.509 -2.3767  2.1899 -0.6749
  536MPD2     N 7962   3.989   0.641  16.324  0.0068 -0.7303  0.1023
  536MPD2    H5 7963   3.978   0.712  16.253  1.4058  1.3053  1.8905
  536MPD2    N1 7964   4.070   0.665  16.812 -0.1687  0.5355 -0.6586
  536MPD2    H7 7965   4.125   0.723  16.874 -2.9142  2.8772 -0.3614
  537TMC3    C1 7966   3.947   0.577  16.999 -0.4208 -0.2854 -0.1145
  537TMC3    C2 7967   4.054   0.573  17.076  0.5069  0.8505 -0.7147
  537TMC3    C3 7968   4.043   0.517  17.198  0.1787 -0.1326  0.0173
  537TMC3    C4 7969   3.820   0.548  17.044 -0.3542 -0.3769  0.4019
  537TMC3    C5 7970   3.811   0.501  17.170  0.1629  0.0730 -0.3292
  537TMC3    C6 7971   3.919   0.479  17.253 -0.2400 -0.0326 -0.1451
  537TMC3     C 7972   3.962   0.589  16.854 -0.3003 -0.3299 -0.1510
  537TMC3     O 7973   3.866   0.540  16.800 -0.3548 -0.0963  0.4628
  537TMC3     H 7974   4.150   0.595  17.031  1.9937  0.5852  2.3658
  537TMC3    H1 7975   3.733   0.552  16.980 -0.4597  1.7829  0.6948
  537TMC3    H2 7976   3.907   0.461  17.359 -0.4242 -1.4525 -0.4119
  537TMC3    C7 7977   3.692   0.425  17.197  0.0868 -0.4574  0.2141
  537TMC3    C8 7978   4.165   0.515  17.283  0.1334  0.1999  0.5530
  537TMC3    O1 7979   3.587   0.468  17.145  0.3763 -0.2872  0.6538
  537TMC3    O2 7980   4.259   0.584  17.239 -0.2447 -0.3727 -0.3713
  538TMC3    C1 7981   0.687   4.269  10.883  0.0153 -0.0830  0.5923
  538TMC3    C2 7982   0.748   4.190  10.778 -0.0604  0.4513  0.1061
  538TMC3    C3 7983   0.714   4.219  10.652  0.4525  0.1831 -0.7144
  538TMC3    C4 7984   0.608   4.376  10.852  0.1125  0.2948 -0.1984
  538TMC3    C5 7985   0.580   4.396  10.719 -0.4626  0.3139  0.5188
  538TMC3    C6 7986   0.625   4.318  10.615 -0.3290  0.3213 -0.9919
  538TMC3     C 7987   0.687   4.233  11.021 -0.2947 -0.7616  0.1850
  538TMC3     O 7988   0.623   4.305  11.100  0.4982  0.0734  0.3047
  538TMC3     H 7989   0.826   4.120  10.807  0.3873  0.5886 -0.7577
  538TMC3    H1 7990   0.558   4.440  10.925 -0.0693 -0.5041  0.3812
  538TMC3    H2 7991   0.602   4.344  10.512  0.0383  0.2646 -1.0871
  538TMC3    C7 7992   0.490   4.500  10.675  0.1135  0.6798 -0.1110
  538TMC3    C8 7993   0.788   4.157  10.541 -0.1704 -0.2129 -0.1773
  538TMC3    O1 7994   0.410   4.476  10.587  0.0098 -0.4771 -0.0771
  538TMC3    O2 7995   0.787   4.215  10.434 -0.3579  0.0015  0.1234
  539MPD2     C 7996   0.254   3.463  11.813  0.0541  0.0518 -0.2026
  539MPD2    C1 7997   0.282   3.501  11.686 -0.2778 -0.2317  0.2881
  539MPD2    C2 7998   0.298   3.631  11.647 -0.3600  0.7676 -0.2693
  539MPD2    C3 7999   0.296   3.734  11.745 -0.4297 -0.0407 -0.1973
  539MPD2    C4 8000   0.267   3.692  11.875  0.3985 -0.6458  0.0268
  539MPD2    C5 8001   0.240   3.563  11.908  0.1227  0.5095  0.0240
  539MPD2     H 8002   0.318   3.640  11.541 -1.5943  0.6833 -0.5143
  539MPD2    H1 8003   0.259   3.770  11.950  0.3120  0.6697 -1.3588
  539MPD2    H2 8004   0.238   3.357  11.828 -2.3440  0.4817  0.2899
  539MPD2    H3 8005   0.213   3.538  12.010  0.7245  1.2440  0.3644
  539MPD2     N 8006   0.320   3.870  11.717 -0.7259 -0.3237  0.4240
  539MPD2    H5 8007   0.294   3.939  11.786 -0.4017 -1.0215  1.2446
  539MPD2    N1 8008   0.291   3.406  11.580  0.8867 -0.1542 -0.1533
  539MPD2    H7 8009   0.289   3.438  11.484  1.4199 -1.0249 -0.4616
  540TMC3    C1 8010   0.351   4.061  11.583  0.5071  0.2158 -1.0208
  540TMC3    C2 8011   0.353   4.099  11.451 -0.6744  0.4976 -0.4680
  540TMC3    C3 8012   0.336   4.232  11.438 -0.6440  0.0754  0.6896
  540TMC3    C4 8013   0.317   4.148  11.685 -0.1245  1.2171  0.7109
  540TMC3    C5 8014   0.302   4.283  11.666  0.3813 -0.2604 -0.6113
  540TMC3    C6 8015   0.316   4.322  11.535  0.3511 -0.0201 -0.5493
  540TMC3     C 8016   0.361   3.917  11.598  0.0516  0.5869  0.0084
  540TMC3     O 8017   0.419   3.851  11.508 -0.4774  0.5616  0.2579
  540TMC3     H 8018   0.360   4.023  11.374 -0.1347  1.1606 -1.0720
  540TMC3    H1 8019   0.317   4.115  11.788  0.1404  0.9796  0.6342
  540TMC3    H2 8020   0.296   4.423  11.500  0.8160  0.3243  0.1711
  540TMC3    C7 8021   0.195   4.342  11.742  0.6026  0.1677  0.6181
  540TMC3    C8 8022   0.312   4.295  11.306  0.2481  0.3186  0.0445
  540TMC3    O1 8023   0.123   4.261  11.807  0.0094 -0.3923  0.0078
  540TMC3    O2 8024   0.335   4.414  11.280  0.5801  0.4681 -0.0750
  541MPD2     C 8025   2.675   4.433  12.978 -0.3957 -0.4938 -0.4029
  541MPD2    C1 8026   2.806   4.466  12.953 -0.3852 -1.1027 -0.0819
  541MPD2    C2 8027   2.838   4.588  12.900  0.1028 -0.5636  0.3936
  541MPD2    C3 8028   2.734   4.673  12.867 -0.0846  0.4381 -0.2928
  541MPD2    C4 8029   2.605   4.635  12.889  0.0624 -0.8452 -0.1810
  541MPD2    C5 8030   2.578   4.519  12.943 -0.2968 -0.2062 -0.7490
  541MPD2     H 8031   2.945   4.590  12.885 -0.0352 -1.4883 -0.6732
  541MPD2    H1 8032   2.531   4.712  12.867 -0.4045 -1.1962  0.1722
  541MPD2    H2 8033   2.655   4.336  13.023 -1.1444 -0.7303 -1.2336
  541MPD2    H3 8034   2.477   4.485  12.963  0.6954 -2.4364  0.3739
  541MPD2     N 8035   2.758   0.061  12.784 -0.1255 -0.2366 -0.3225
  541MPD2    H5 8036   2.679   0.099  12.733 -1.5927 -1.6893  0.8521
  541MPD2    N1 8037   2.916   4.374  12.972  0.1903  0.1317 -0.0744
  541MPD2    H7 8038   3.013   4.402  12.956  0.9550 -1.3112  2.0023
  542TMC3    C1 8039   2.866   0.215  12.645 -0.5160  0.2921 -0.1209
  542TMC3    C2 8040   2.986   0.231  12.574  0.1559 -0.0443  0.3707
  542TMC3    C3 8041   2.989   0.319  12.475 -0.6084  0.5824 -0.4386
  542TMC3    C4 8042   2.756   0.291  12.633 -0.6277  1.1307  0.1491
  542TMC3    C5 8043   2.772   0.384  12.536 -0.6793  0.2947  0.7658
  542TMC3    C6 8044   2.878   0.396  12.450  0.2015 -0.8487 -0.4169
  542TMC3     C 8045   2.881   0.120  12.749 -0.3290  0.4654  0.4158
  542TMC3     O 8046   2.993   0.096  12.783 -0.0881  0.2851  0.0483
  542TMC3     H 8047   3.079   0.189  12.613 -0.0213  0.9929  1.8958
  542TMC3    H1 8048   2.668   0.277  12.695 -0.2485 -1.3411  0.1517
  542TMC3    H2 8049   2.865   0.452  12.358  0.2511  0.9891  0.6826
  542TMC3    C7 8050   2.690   0.504  12.543 -0.9595  0.8172 -0.1524
  542TMC3    C8 8051   3.102   0.324  12.380  0.1781  0.3078  0.2077
  542TMC3    O1 8052   2.666   0.562  12.435  0.1122 -0.2224  0.2973
  542TMC3    O2 8053   3.106   0.431  12.321 -0.0119 -0.0257  0.3460
  543TMC3    C1 8054   2.626   0.907  17.538 -0.0520  0.4471  0.2097
  543TMC3    C2 8055   2.662   0.774  17.536 -0.0595 -0.4714  0.6255
  543TMC3    C3 8056   2.692   0.713  17.658 -0.1887  0.0596  0.1335
  543TMC3    C4 8057   2.615   0.975  17.654  0.1241  0.0125 -0.0591
  543TMC3    C5 8058   2.627   0.903   0.088  0.6674 -0.3726 -0.2456
  543TMC3    C6 8059   2.661   0.771   0.092  0.3328  0.2236  0.5303
  543TMC3     C 8060   2.611   0.981  17.416  0.2028  0.5910 -0.4645
  543TMC3     O 8061   2.606   1.104  17.425 -0.3102 -0.1696  0.3169
  543TMC3     H 8062   2.680   0.713  17.448  1.2547 -0.4657  0.8815
  543TMC3    H1 8063   2.601   1.082  17.645  1.6100  0.0741 -1.5995
  543TMC3    H2 8064   2.667   0.718   0.187  0.2570  1.3869  1.1772
  543TMC3    C7 8065   2.536   0.950   0.194  0.2157 -0.2509  0.1004
  543TMC3    C8 8066   2.704   0.569  17.647  0.1244  1.2345 -0.2313
  543TMC3    O1 8067   2.465   0.866   0.245 -0.4549 -0.3542 -0.7494
  543TMC3    O2 8068   2.668   0.509  17.548  0.2670  0.2668  0.9969
  544MPD2     C 8069   2.852   0.139   0.200 -0.0529 -0.3962  0.1323
  544MPD2    C1 8070   2.752   0.152   0.102  1.2615  0.1833 -0.1595
  544MPD2    C2 8071   2.727   0.282   0.046  0.3320  0.5327  0.1214
  544MPD2    C3 8072   2.792   0.389   0.107 -0.1103  0.3915 -0.3172
  544MPD2    C4 8073   2.881   0.372   0.203  0.4035  0.2323  0.1834
  544MPD2    C5 8074   2.920   0.250   0.246  0.1345 -0.2533 -1.2651
  544MPD2     H 8075   2.656   0.294  17.649  0.6412 -2.1614 -0.5537
  544MPD2    H1 8076   2.938   0.455   0.244  1.5916 -0.6411  0.2811
  544MPD2    H2 8077   2.879   0.044   0.244 -0.1661  0.0119  1.0999
  544MPD2    H3 8078   3.000   0.242   0.318  0.7909  3.6519 -1.5958
  544MPD2     N 8079   2.770   0.519   0.075  0.6850  0.3268 -0.5304
  544MPD2    H5 8080   2.807   0.588   0.140  1.0995  0.7723 -1.2266
  544MPD2    N1 8081   2.683   0.032   0.062  0.1138 -0.2471 -0.5900
  544MPD2    H7 8082   2.716   4.664   0.098  1.9285 -0.1513 -1.9866
  545TMC3    C1 8083   2.534   4.615  17.605  0.1169  0.5059  0.2898
  545TMC3    C2 8084   2.434   4.613  17.508 -0.0756  0.6268  0.4606
  545TMC3    C3 8085   2.376   4.494  17.476 -0.0537  0.0953  0.0979
  545TMC3    C4 8086   2.586   4.506  17.665  0.5361 -1.1014 -0.0964
  545TMC3    C5 8087   2.524   4.390  17.632 -0.0848  0.1604 -0.8304
  545TMC3    C6 8088   2.414   4.379  17.546  0.2540  0.0648  0.0162
  545TMC3     C 8089   2.578   0.027  17.651 -0.9414  0.0175  0.3194
  545TMC3     O 8090   2.530   0.112  17.581 -0.3021 -0.1958  0.1347
  545TMC3     H 8091   2.386   4.703  17.473 -1.5704  0.4851  2.1399
  545TMC3    H1 8092   2.661   4.498   0.058  0.6581  0.1326 -0.0899
  545TMC3    H2 8093   2.364   4.288  17.517  1.1633 -0.7294  0.9244
  545TMC3    C7 8094   2.573   4.268  17.680 -0.3841 -0.0189  0.6539
  545TMC3    C8 8095   2.255   4.484  17.397  0.7025 -0.0161 -0.2940
  545TMC3    O1 8096   2.481   4.181   0.009  0.3335  0.5222  0.5224
  545TMC3    O2 8097   2.207   4.372  17.383  0.4417 -0.0551 -0.4290
  546MPD2     C 8098   4.063   0.786  17.498  0.0108 -0.0641 -0.6039
  546MPD2    C1 8099   3.963   0.833  17.412 -0.0607 -0.6667 -0.5556
  546MPD2    C2 8100   3.992   0.940  17.327  0.3510 -0.7054 -0.7218
  546MPD2    C3 8101   4.122   0.990  17.316 -0.4142 -0.0196 -0.0494
  546MPD2    C4 8102   4.220   0.928  17.390  0.1804  0.1499 -0.2287
  546MPD2    C5 8103   4.187   0.824  17.479 -0.2028  0.1711 -0.2742
  546MPD2     H 8104   3.912   0.971  17.260  1.0233  0.2731 -1.0738
  546MPD2    H1 8105   4.324   0.955  17.395 -0.0392  1.0258 -0.2741
  546MPD2    H2 8106   4.042   0.705  17.567  1.7217  0.6864  0.7850
  546MPD2    H3 8107   4.262   0.789  17.549 -1.8684 -1.9526  0.4485
  546MPD2     N 8108   4.161   1.099  17.237  0.0955 -0.3564  0.1433
  546MPD2    H5 8109   4.256   1.130  17.258 -0.2064  0.1510  0.7691
  546MPD2    N1 8110   3.829   0.785  17.430  0.3789 -0.0107  0.6902
  546MPD2    H7 8111   3.813   0.727  17.512 -1.2298  0.1132  0.4707
  547TMC3    C1 8112   3.604   0.761  17.385  0.2402  0.4122 -0.0953
  547TMC3    C2 8113   3.521   0.706  17.294  0.2366 -0.7253 -0.0729
  547TMC3    C3 8114   3.415   0.631  17.343 -0.3603  0.1838  0.5185
  547TMC3    C4 8115   3.592   0.746  17.513  0.0499 -0.6797 -0.3757
  547TMC3    C5 8116   3.480   0.673  17.557  1.0735 -0.3295 -0.1401
  547TMC3    C6 8117   3.390   0.624  17.474  0.4251  0.4316  0.3982
  547TMC3     C 8118   3.732   0.800  17.335  0.0142  0.0797 -0.6987
  547TMC3     O 8119   3.740   0.845  17.223 -0.0074 -0.3512  0.6330
  547TMC3     H 8120   3.532   0.725  17.188 -0.4236  0.5125  0.0774
  547TMC3    H1 8121   3.646   0.793  17.594 -0.0676  1.3802 -1.5050
  547TMC3    H2 8122   3.299   0.573  17.503  0.6974 -0.3142 -0.0543
  547TMC3    C7 8123   3.451   0.684   0.008 -0.6931  0.3612 -0.4218
  547TMC3    C8 8124   3.316   0.574  17.252  0.6308 -0.2224  0.1057
  547TMC3    O1 8125   3.503   0.781   0.061  0.3051  0.3519  0.0508
  547TMC3    O2 8126   3.292   0.645  17.149 -0.0701 -0.0511  0.3569
  548MPD2     C 8127   3.725   1.726  11.557 -0.3491  1.0158  0.0394
  548MPD2    C1 8128   3.755   1.814  11.653  0.1429 -0.3619  0.1755
  548MPD2    C2 8129   3.880   1.858  11.676  0.1410 -0.0216  0.1039
  548MPD2    C3 8130   3.984   1.826  11.586 -0.5958  0.6729  0.2049
  548MPD2    C4 8131   3.952   1.745  11.482  0.1915 -0.0633 -0.2158
  548MPD2    C5 8132   3.825   1.695  11.468 -0.9548 -0.2964  0.1541
  548MPD2     H 8133   3.899   1.919  11.763  0.4144 -0.2583  0.2103
  548MPD2    H1 8134   4.026   1.714  11.408  0.2395 -1.9906  0.6497
  548MPD2    H2 8135   3.623   1.697  11.534  0.1925  0.0679 -1.1404
  548MPD2    H3 8136   3.800   1.650  11.372 -0.2746  0.2813 -0.2872
  548MPD2     N 8137   4.110   1.878  11.613  0.0087 -0.3708 -0.1190
  548MPD2    H5 8138   4.112   1.913  11.708  3.0944 -0.3728 -0.1627
  548MPD2    N1 8139   3.650   1.860  11.733 -0.1921 -0.7436 -0.2171
  548MPD2    H7 8140   3.564   1.805  11.726 -0.9059  0.1859  1.3752
  549TMC3    C1 8141   3.510   2.030  11.814  0.5871 -0.2618  0.2204
  549TMC3    C2 8142   3.469   2.157  11.786 -0.2181  0.1700  0.3074
  549TMC3    C3 8143   3.345   2.193  11.815 -0.4168  0.2940  0.0556
  549TMC3    C4 8144   3.425   1.932  11.864  1.3541 -0.8445  0.1952
  549TMC3    C5 8145   3.302   1.988  11.898  0.8992 -0.8031  0.0394
  549TMC3    C6 8146   3.248   2.106  11.856  0.6413  0.0270  0.8314
  549TMC3     C 8147   3.643   1.989  11.777  0.1743 -1.0450  0.1621
  549TMC3     O 8148   3.730   2.074  11.774 -0.3247  0.0666 -0.3574
  549TMC3     H 8149   3.539   2.229  11.747 -0.8524  1.1866  1.0600
  549TMC3    H1 8150   3.458   1.833  11.894 -1.0532 -1.9446 -0.8464
  549TMC3    H2 8151   3.145   2.130  11.879  0.6007  2.5589 -2.0798
  549TMC3    C7 8152   3.205   1.889  11.941  0.1000  0.1254 -0.7360
  549TMC3    C8 8153   3.292   2.335  11.824 -0.6190 -0.5031 -0.3620
  549TMC3    O1 8154   3.085   1.914  11.914 -0.0972  0.1136  0.2705
  549TMC3    O2 8155   3.177   2.348  11.861 -0.4083 -0.3553 -0.2714
  550TMC3    C1 8156   2.342   4.512  12.255  1.3081 -0.1956  0.7463
  550TMC3    C2 8157   2.289   4.568  12.365  0.0939  0.4003 -0.0967
  550TMC3    C3 8158   2.171   4.641  12.351  0.1591 -0.1310  0.9196
  550TMC3    C4 8159   2.290   4.527  12.133  0.5548  0.4907 -0.4753
  550TMC3    C5 8160   2.177   4.607  12.119 -0.1167 -0.6061  0.3114
  550TMC3    C6 8161   2.122   4.670  12.226  0.0400  0.1241 -0.4878
  550TMC3     C 8162   2.481   4.467  12.259  0.1766 -0.5365 -0.2954
  550TMC3     O 8163   2.507   4.376  12.341 -0.4003  0.1186 -0.3816
  550TMC3     H 8164   2.336   4.540  12.459  0.1028  1.5433  0.2508
  550TMC3    H1 8165   2.325   4.463  12.053  1.3084 -0.5795  0.7168
  550TMC3    H2 8166   2.031   0.008  12.221  0.2857  0.6798  1.3674
  550TMC3    C7 8167   2.131   4.649  11.985 -0.3883  0.0667  0.2082
  550TMC3    C8 8168   2.116   4.718  12.458  0.0929 -0.1188  0.3979
  550TMC3    O1 8169   2.033   0.006  11.991 -0.7175 -0.0393  0.6507
  550TMC3    O2 8170   2.060   0.101  12.426 -0.0359  0.2003  0.4844
  551TMC3    C1 8171   0.115   2.107  13.139  0.2334  0.2873 -0.2010
  551TMC3    C2 8172   0.234   2.056  13.097  0.1262 -0.4287 -0.2403
  551TMC3    C3 8173   0.329   2.023  13.190 -0.2684 -0.0059 -0.3093
  551TMC3    C4 8174   0.085   2.107  13.278  1.0492  0.5950 -0.2920
  551TMC3    C5 8175   0.178   2.082  13.370 -0.3430 -0.6214  0.1088
  551TMC3    C6 8176   0.301   2.034  13.328  0.4065  0.3118  0.1970
  551TMC3     C 8177   0.011   2.072  13.054 -0.3224 -0.3838 -0.1953
  551TMC3     O 8178   0.035   1.989  12.968 -0.2711  0.3529 -0.1345
  551TMC3     H 8179   0.256   2.032  12.994 -0.4272  2.0216 -0.9269
  551TMC3    H1 8180   4.716   2.154  13.316  0.3661  0.7348 -2.0647
  551TMC3    H2 8181   0.380   2.019  13.400 -0.9441 -0.7640  1.4481
  551TMC3    C7 8182   0.186   2.170  13.485  0.0076 -0.0577  0.3128
  551TMC3    C8 8183   0.452   2.085  13.165 -0.5133 -0.2852  0.0448
  551TMC3    O1 8184   0.248   2.123  13.580  0.0729 -0.0369  0.2204
  551TMC3    O2 8185   0.545   2.056  13.239 -0.2313 -0.4230  0.3621
  552MPD2     C 8186   1.915   4.641  13.836 -0.1438 -0.3577 -0.4676
  552MPD2    C1 8187   1.895   4.504  13.803  0.2081 -0.2282  0.5943
  552MPD2    C2 8188   1.989   4.407  13.840 -0.2869  0.1464  0.2102
  552MPD2    C3 8189   2.107   4.446  13.896 -0.0530  0.2910 -0.5036
  552MPD2    C4 8190   2.121   4.571  13.941  0.1240  0.6501 -0.7445
  552MPD2    C5 8191   2.031   4.672  13.899 -0.8301 -0.6927  0.1044
  552MPD2     H 8192   1.969   4.301  13.833  2.3938 -0.2867 -0.9922
  552MPD2    H1 8193   2.209   4.602  13.998 -0.0915  0.0371 -0.0754
  552MPD2    H2 8194   1.846   0.000  13.813  0.4845  0.1204 -0.7017
  552MPD2    H3 8195   2.044   0.053  13.935 -0.8022  0.5314 -3.4364
  552MPD2     N 8196   2.211   4.351  13.927 -0.3196 -0.4386 -0.0532
  552MPD2    H5 8197   2.294   4.397  13.964 -2.3735  1.1563  2.5572
  552MPD2    N1 8198   1.791   4.456  13.718 -0.1515 -0.0048 -0.7220
  552MPD2    H7 8199   1.788   4.356  13.701 -2.2406  0.3174 -2.2978
  553TMC3    C1 8200   1.587   4.467  13.584  0.8623 -0.6988  0.2007
  553TMC3    C2 8201   1.546   4.504  13.460  0.8203  0.8964 -0.0516
  553TMC3    C3 8202   1.476   4.409  13.386  0.2678  0.2769  0.3756
  553TMC3    C4 8203   1.561   4.345  13.639 -0.4825  0.6919 -0.4834
  553TMC3    C5 8204   1.492   4.258  13.560  0.4091 -0.3257  0.2504
  553TMC3    C6 8205   1.437   4.291  13.441  0.3808  0.2577  0.6925
  553TMC3     C 8206   1.693   4.539  13.650 -0.3020  0.7742  0.1062
  553TMC3     O 8207   1.696   4.658  13.633 -0.0089  0.4750 -0.1438
  553TMC3     H 8208   1.580   4.598  13.418  3.2501 -0.9486 -2.1586
  553TMC3    H1 8209   1.593   4.327  13.741  1.7815  1.3534 -1.0826
  553TMC3    H2 8210   1.386   4.210  13.388  0.9351  0.3063  0.0769
  553TMC3    C7 8211   1.493   4.113  13.597 -0.4961 -0.4127  0.1194
  553TMC3    C8 8212   1.545   4.391  13.263  0.4185  0.4308  0.8553
  553TMC3    O1 8213   1.386   4.059  13.627  0.3063 -0.8210  0.0513
  553TMC3    O2 8214   1.656   4.440  13.260  0.1192 -0.0522 -0.5263
  554TMC3    C1 8215   4.023   3.727  11.563 -0.1757 -0.2746  0.1705
  554TMC3    C2 8216   3.967   3.650  11.454  0.4781  0.2939 -0.2465
  554TMC3    C3 8217   4.058   3.608  11.359 -0.2316 -0.0966  0.4069
  554TMC3    C4 8218   4.154   3.765  11.571  1.2029 -0.6154 -0.2562
  554TMC3    C5 8219   4.235   3.731  11.468  0.1626  0.0466  0.1554
  554TMC3    C6 8220   4.186   3.654  11.368  0.2074 -0.1166  0.4646
  554TMC3     C 8221   3.948   3.709  11.681  0.0120 -0.1363  0.2363
  554TMC3     O 8222   3.841   3.765  11.690  0.6023 -0.1511  0.2754
  554TMC3     H 8223   3.865   3.616  11.472  0.2594  0.0464 -1.8870
  554TMC3    H1 8224   4.176   3.819  11.662  1.5132 -0.6461 -0.3134
  554TMC3    H2 8225   4.242   3.650  11.275 -1.4591  0.2283 -0.5452
  554TMC3    C7 8226   4.327   3.834  11.419  0.3276 -0.3254 -0.0936
  554TMC3    C8 8227   4.022   3.529  11.243 -0.3617  0.5201 -0.1597
  554TMC3    O1 8228   4.377   3.816  11.310 -0.0341 -0.0998 -0.4376
  554TMC3    O2 8229   4.109   3.499  11.162 -0.1808  0.0704  0.0831
  555TMC3    C1 8230   3.007   2.958  14.866  0.1907  0.0994 -0.4706
  555TMC3    C2 8231   3.036   3.044  14.967 -0.2368  0.1455 -0.1356
  555TMC3    C3 8232   3.054   2.990  15.090  0.4147 -0.0772  0.1087
  555TMC3    C4 8233   3.013   2.820  14.875 -0.0644  1.0007  0.7954
  555TMC3    C5 8234   3.047   2.770  14.995 -0.0734 -1.0945  0.0256
  555TMC3    C6 8235   3.056   2.852  15.106  0.4973 -0.2251  0.3154
  555TMC3     C 8236   3.002   3.020  14.736  0.5213 -0.4254  0.2067
  555TMC3     O 8237   3.066   3.121  14.711  0.0484 -0.1605  0.4497
  555TMC3     H 8238   3.032   3.152  14.959  0.2748  0.1635 -0.2005
  555TMC3    H1 8239   3.001   2.760  14.785 -0.3968  4.3290 -1.3992
  555TMC3    H2 8240   3.088   2.804  15.197 -0.0309 -3.4313 -1.1757
  555TMC3    C7 8241   3.031   2.625  15.018 -0.2264 -0.7107  0.4939
  555TMC3    C8 8242   3.090   3.076  15.203  0.1908  0.2117  0.1418
  555TMC3    O1 8243   3.032   2.587  15.132  0.0690 -0.3397 -0.4576
  555TMC3    O2 8244   3.120   3.195  15.179 -0.1490  0.5808 -0.3280
  556MPD2     C 8245   1.009   0.042  10.183 -0.1904  0.3218  0.5029
  556MPD2    C1 8246   1.090   4.690  10.260 -0.0262  0.6920 -0.1814
  556MPD2    C2 8247   1.139   4.569  10.220 -0.3813 -0.1714 -1.0636
  556MPD2    C3 8248   1.131   4.533  10.091 -0.2881  0.0588 -0.2663
  556MPD2    C4 8249   1.051   4.612  10.005 -0.7284  0.3836 -0.2279
  556MPD2    C5 8250   0.994   0.007  10.052  0.9974  0.3884 -0.4369
  556MPD2     H 8251   1.198   4.504  10.283  1.2741  0.3954 -2.0442
  556MPD2    H1 8252   1.028   4.587   9.902 -0.2900  1.1884 -0.5244
  556MPD2    H2 8253   0.972   0.137  10.219 -0.2349  0.1752  0.8471
  556MPD2    H3 8254   0.937   0.068   9.983 -1.5435 -2.6107 -0.9668
  556MPD2     N 8255   1.176   4.404  10.058 -0.7512 -0.6237  0.0621
  556MPD2    H5 8256   1.224   4.349  10.128 -1.2310  0.5103  1.2671
  556MPD2    N1 8257   1.124   0.001  10.398  0.2116 -0.7932  0.2929
  556MPD2    H7 8258   1.177   4.657  10.455  0.6236  1.0017  1.9149
  557TMC3    C1 8259   1.236   4.229   9.922 -0.2360 -0.5524 -0.0373
  557TMC3    C2 8260   1.337   4.194   9.835  0.0506  0.1875  0.0170
  557TMC3    C3 8261   1.382   4.066   9.844  0.6106  0.2739  0.3594
  557TMC3    C4 8262   1.179   4.141  10.007 -0.2032 -0.1004 -0.2503
  557TMC3    C5 8263   1.228   4.015  10.011  1.4384  0.4188  0.0923
  557TMC3    C6 8264   1.333   3.976   9.929  0.2627  0.1461 -0.4933
  557TMC3     C 8265   1.187   4.364   9.929  0.3915  0.0592  0.0100
  557TMC3     O 8266   1.198   4.441   9.834 -0.4351  0.3463  0.7093
  557TMC3     H 8267   1.386   4.259   9.764 -1.1332  1.9620  0.8144
  557TMC3    H1 8268   1.087   4.173  10.054  0.4101  0.0328  0.8368
  557TMC3    H2 8269   1.385   3.881   9.926  0.4853  0.2083  1.5164
  557TMC3    C7 8270   1.163   3.909  10.100  0.3413  0.4419  0.0807
  557TMC3    C8 8271   1.526   4.066   9.823  0.0042  0.1221 -0.0850
  557TMC3    O1 8272   1.193   3.790  10.083 -0.0376  0.0517  0.5448
  557TMC3    O2 8273   1.581   4.177   9.826  0.3236 -0.1613 -0.6110
  558TMC3    C1 8274   4.263   2.090   9.823 -0.4941 -0.9567  0.1522
  558TMC3    C2 8275   4.218   2.007   9.925  0.1980  0.3876  0.2080
  558TMC3    C3 8276   4.162   1.890   9.887  0.3149  0.2781 -0.3208
  558TMC3    C4 8277   4.261   2.046   9.697 -0.6496  0.3917 -0.0460
  558TMC3    C5 8278   4.208   1.927   9.668  0.3619 -0.3308 -0.4269
  558TMC3    C6 8279   4.165   1.847   9.759 -0.4800 -0.0006  0.2415
  558TMC3     C 8280   4.291   2.227   9.854 -0.1398 -0.1226  0.0474
  558TMC3     O 8281   4.339   2.254   9.963 -0.1471 -0.0241 -0.2160
  558TMC3     H 8282   4.235   2.037  10.028 -0.3374 -0.6215  0.5835
  558TMC3    H1 8283   4.319   2.099   9.623 -0.6449  0.2986 -0.1087
  558TMC3    H2 8284   4.129   1.749   9.729 -1.3477 -0.6037  3.2641
  558TMC3    C7 8285   4.219   1.877   9.533 -0.6080  0.0189  0.1801
  558TMC3    C8 8286   4.106   1.806   9.994 -0.3049  0.3713  0.9189
  558TMC3    O1 8287   4.316   1.814   9.495 -0.4645  0.1297  0.3818
  558TMC3    O2 8288   4.094   1.690   9.957 -0.0349 -0.1511 -0.0943
  559MPD2     C 8289   3.814   3.307  10.410  0.2261 -0.5791 -0.6523
  559MPD2    C1 8290   3.724   3.229  10.487 -0.6156  0.2812  0.4705
  559MPD2    C2 8291   3.764   3.179  10.613  0.4681 -0.3313 -0.3719
  559MPD2    C3 8292   3.893   3.202  10.663  0.6924 -0.0032 -0.3336
  559MPD2    C4 8293   3.988   3.255  10.572 -0.6013  0.0484 -0.9065
  559MPD2    C5 8294   3.938   3.319  10.454 -0.1094 -0.2446 -0.0625
  559MPD2     H 8295   3.708   3.105  10.670 -0.9050  0.2497 -0.9700
  559MPD2    H1 8296   4.092   3.261  10.602 -1.6896  3.1944  2.2009
  559MPD2    H2 8297   3.789   3.353  10.315  1.7394  2.1323  0.2530
  559MPD2    H3 8298   4.006   3.369  10.386  1.7802  0.6882  2.4714
  559MPD2     N 8299   3.924   3.179  10.796  0.3162  0.2938 -0.2613
  559MPD2    H5 8300   3.849   3.139  10.852  0.8359 -1.4287 -0.8025
  559MPD2    N1 8301   3.585   3.221  10.445 -0.6068 -0.4880 -0.0463
  559MPD2    H7 8302   3.554   3.276  10.365  1.0235  0.4904 -0.0111
  560TMC3    C1 8303   4.051   3.152  10.983  0.5971  0.6445 -0.6956
  560TMC3    C2 8304   3.988   3.033  11.006 -0.1489 -0.7017 -0.0524
  560TMC3    C3 8305   4.029   2.960  11.112  0.3637  0.6054  0.1836
  560TMC3    C4 8306   4.133   3.207  11.073  0.9918  0.5537  0.2751
  560TMC3    C5 8307   4.167   3.136  11.190 -0.2381 -0.1823 -0.7458
  560TMC3    C6 8308   4.110   3.011  11.206  0.2640 -0.2402 -0.1568
  560TMC3     C 8309   4.036   3.217  10.855  0.4501  0.4601 -0.2716
  560TMC3     O 8310   4.112   3.305  10.820 -0.5251  0.0400 -0.2368
  560TMC3     H 8311   3.918   2.990  10.935  1.4791  0.2550 -2.2322
  560TMC3    H1 8312   4.187   3.298  11.050  0.2540  0.7278 -0.7883
  560TMC3    H2 8313   4.142   2.947  11.288  3.1722  0.8652 -0.4338
  560TMC3    C7 8314   4.263   3.184  11.290  0.0553 -0.5577  0.7202
  560TMC3    C8 8315   4.013   2.815  11.113 -0.0822 -0.0981 -0.6867
  560TMC3    O1 8316   4.302   3.097  11.360 -0.3107 -0.2836 -0.3979
  560TMC3    O2 8317   3.901   2.770  11.078  0.2932  0.3229 -0.6070
  561TMC3    C1 8318   1.679   1.917  11.038 -0.6014 -0.2451  0.0207
  561TMC3    C2 8319   1.571   1.839  11.041  0.5464 -0.8780 -0.5815
  561TMC3    C3 8320   1.449   1.895  11.066  0.9994  0.3526 -0.4818
  561TMC3    C4 8321   1.667   2.057  11.044 -0.1709 -0.6534  0.4417
  561TMC3    C5 8322   1.542   2.111  11.070 -0.6692 -0.0366  0.6332
  561TMC3    C6 8323   1.433   2.030  11.080  0.5081  0.1283  0.3508
  561TMC3     C 8324   1.808   1.847  11.030 -0.3471  0.1555  0.3019
  561TMC3     O 8325   1.812   1.737  10.978  0.4797  0.4645 -0.3578
  561TMC3     H 8326   1.581   1.731  11.040  1.9013 -0.7882  1.6089
  561TMC3    H1 8327   1.758   2.112  11.022 -0.2890 -0.2964  0.8533
  561TMC3    H2 8328   1.335   2.076  11.079 -0.0658 -1.1151 -0.1455
  561TMC3    C7 8329   1.515   2.251  11.043  0.4587 -0.0439  0.1646
  561TMC3    C8 8330   1.332   1.809  11.073  0.6247  0.6568 -0.7000
  561TMC3    O1 8331   1.396   2.287  11.040 -0.5435  0.0560  0.3642
  561TMC3    O2 8332   1.343   1.696  11.021  0.0772 -0.2021  0.5378
  562TMC3    C1 8333   2.713   3.267  15.906 -1.0007 -0.1078 -0.3874
  562TMC3    C2 8334   2.657   3.380  15.862  0.6314  0.0066  0.2671
  562TMC3    C3 8335   2.608   3.389  15.734 -0.0632  0.5809  0.6266
  562TMC3    C4 8336   2.726   3.152  15.828 -0.3020  1.1392  0.0960
  562TMC3    C5 8337   2.674   3.159  15.696 -0.1997  0.0597 -0.9992
  562TMC3    C6 8338   2.608   3.274  15.658 -0.3203 -0.7380 -0.0495
  562TMC3     C 8339   2.755   3.253  16.052  0.0833 -0.5319 -0.1974
  562TMC3     O 8340   2.846   3.176  16.067 -0.6665  0.0641 -0.4179
  562TMC3     H 8341   2.655   3.468  15.926 -0.8964 -0.0480  0.2787
  562TMC3    H1 8342   2.762   3.059  15.869 -0.5954  0.8687 -0.2641
  562TMC3    H2 8343   2.560   3.271  15.561 -2.2146  1.0164  0.8356
  562TMC3    C7 8344   2.629   3.037  15.638  0.1386 -0.5714 -0.5765
  562TMC3    C8 8345   2.511   3.494  15.718 -0.4094  0.2166  0.0367
  562TMC3    O1 8346   2.579   3.040  15.528  0.3734 -0.4481  0.4912
  562TMC3    O2 8347   2.479   3.557  15.821 -0.0237  1.6256  0.7002
  563MPD2     C 8348   0.081   0.166  15.432  0.3659  0.4435 -0.5106
  563MPD2    C1 8349   0.122   0.035  15.444 -0.7642 -0.9836  0.1159
  563MPD2    C2 8350   0.249   0.012  15.492  0.0442  0.4878 -0.4855
  563MPD2    C3 8351   0.334   0.115  15.524  0.3149 -0.7717  0.8136
  563MPD2    C4 8352   0.293   0.244  15.505 -1.0456 -0.1378 -0.0614
  563MPD2    C5 8353   0.166   0.267  15.464  0.3887 -0.6134  0.3239
  563MPD2     H 8354   0.281   4.631  15.513 -0.8538  0.0817 -1.1011
  563MPD2    H1 8355   0.352   0.327  15.542  0.0538 -0.7061 -0.5218
  563MPD2    H2 8356   4.700   0.187  15.400  0.6420 -0.6752 -2.1189
  563MPD2    H3 8357   0.118   0.364  15.461 -2.0577 -1.8264 -0.1385
  563MPD2     N 8358   0.462   0.081  15.580  0.1414 -0.3575  0.2689
  563MPD2    H5 8359   0.481   4.703  15.594  2.1878 -0.0048 -0.0362
  563MPD2    N1 8360   0.029   4.655  15.426  0.1075 -0.0002 -0.4145
  563MPD2    H7 8361   4.651   4.678  15.413  0.0073 -0.4900 -0.5217
  564TMC3    C1 8362   4.645   4.454  15.480 -0.7639 -0.6017 -0.5449
  564TMC3    C2 8363   4.660   4.316  15.481  0.9510  0.0811 -0.1042
  564TMC3    C3 8364   4.578   4.244  15.563  0.3019  0.3735 -0.8774
  564TMC3    C4 8365   4.561   4.517  15.568  0.0930 -0.0774 -0.2784
  564TMC3    C5 8366   4.508   4.442  15.665  0.4233 -0.3565  0.1745
  564TMC3    C6 8367   4.507   4.306  15.659 -0.4309  0.1164  0.0307
  564TMC3     C 8368   0.044   4.521  15.447  0.0040 -0.5077 -0.0945
  564TMC3     O 8369   0.141   4.450  15.459 -0.0418  0.2834 -0.3659
  564TMC3     H 8370   0.012   4.265  15.419 -0.5125 -0.3449 -1.4593
  564TMC3    H1 8371   4.543   4.624  15.572  2.6760  0.3468  0.0042
  564TMC3    H2 8372   4.439   4.253  15.724  1.0768 -2.7759 -0.7464
  564TMC3    C7 8373   4.533   4.492  15.796 -0.2803  0.5069 -0.6002
  564TMC3    C8 8374   4.637   4.120  15.619 -0.0501  0.5629 -0.7371
  564TMC3    O1 8375   4.533   4.608  15.822  0.0554  1.1873 -0.3526
  564TMC3    O2 8376   4.630   4.117  15.741  0.2838 -0.2279  0.0512
  565TMC3    C1 8377   1.104   1.342   9.955  0.4715 -0.0604  0.6647
  565TMC3    C2 8378   1.115   1.277  10.074 -0.5893 -0.6766  1.0889
  565TMC3    C3 8379   1.022   1.183  10.103 -0.3113 -0.9439 -0.1662
  565TMC3    C4 8380   0.997   1.326   9.873  0.3019 -0.1099 -0.5267
  565TMC3    C5 8381   0.895   1.237   9.914 -0.0050  0.1184  0.3149
  565TMC3    C6 8382   0.906   1.162  10.032 -0.5723  0.3090 -0.9102
  565TMC3     C 8383   1.222   1.407   9.907 -0.7873  0.4758  0.3347
  565TMC3     O 8384   1.232   1.416   9.786  0.4186  0.5744 -0.3934
  565TMC3     H 8385   1.208   1.279  10.129  0.6622  2.1151 -1.1430
  565TMC3    H1 8386   0.992   1.388   9.784  0.6484  0.7559  0.0461
  565TMC3    H2 8387   0.840   1.080  10.057 -0.5151  0.4749 -0.2252
  565TMC3    C7 8388   0.769   1.224   9.842 -0.4482 -0.0407 -0.1599
  565TMC3    C8 8389   1.047   1.098  10.221 -0.2228  0.2216  0.0067
  565TMC3    O1 8390   0.701   1.125   9.855 -0.4287  0.1449 -0.1528
  565TMC3    O2 8391   1.145   1.125  10.283 -0.2688 -0.4282  0.2027
  566MPD2     C 8392   2.129   2.550  14.336 -0.4956 -0.1086 -0.4752
  566MPD2    C1 8393   2.217   2.589  14.239 -0.6441  0.8223 -0.2200
  566MPD2    C2 8394   2.178   2.648  14.121  0.6937 -0.3623  0.2411
  566MPD2    C3 8395   2.045   2.673  14.094  0.2324  0.3243  0.5724
  566MPD2    C4 8396   1.957   2.649  14.197  0.3385  0.7698 -0.1001
  566MPD2    C5 8397   2.001   2.583  14.309  0.0092  0.0890 -0.9286
  566MPD2     H 8398   2.248   2.678  14.044  2.0647  1.5118  2.2045
  566MPD2    H1 8399   1.852   2.676  14.190 -0.3575 -1.4676  1.8177
  566MPD2    H2 8400   2.158   2.497  14.426 -0.8292  2.2948  1.0416
  566MPD2    H3 8401   1.919   2.555  14.375 -0.4834  2.8260 -0.3819
  566MPD2     N 8402   2.003   2.719  13.969 -0.9912 -0.0171 -0.3866
  566MPD2    H5 8403   2.070   2.703  13.893 -1.7446 -0.8323 -0.8838
  566MPD2    N1 8404   2.353   2.575  14.270  0.2421 -0.4382  0.0981
  566MPD2    H7 8405   2.370   2.516  14.351 -0.3055 -0.5402  0.1388
  567TMC3    C1 8406   2.588   2.607  14.251  0.0893  0.5831  0.3708
  567TMC3    C2 8407   2.691   2.641  14.168  0.4517 -0.1691 -0.1968
  567TMC3    C3 8408   2.807   2.680  14.234 -0.0530  0.1793  0.5066
  567TMC3    C4 8409   2.589   2.599  14.390  0.0353  0.9400 -0.4593
  567TMC3    C5 8410   2.709   2.628  14.445  0.2672 -0.1555 -0.0193
  567TMC3    C6 8411   2.817   2.674  14.375  0.8021  0.3422 -0.0380
  567TMC3     C 8412   2.459   2.627  14.196 -0.1362  0.3720  0.3339
  567TMC3     O 8413   2.455   2.683  14.089  0.1854  0.6271 -0.1464
  567TMC3     H 8414   2.678   2.649  14.061 -1.8355 -0.8454  0.0429
  567TMC3    H1 8415   2.513   2.547  14.447 -0.4916  1.8367 -0.3415
  567TMC3    H2 8416   2.870   2.754  14.427 -0.7926  0.2216  1.7606
  567TMC3    C7 8417   2.712   2.646  14.591  0.5199 -0.7916 -0.4318
  567TMC3    C8 8418   2.851   2.801  14.173  0.0109  0.5952 -0.1037
  567TMC3    O1 8419   2.818   2.625  14.647 -0.3056  0.1456  0.5318
  567TMC3    O2 8420   2.791   2.834  14.071  0.4892 -0.4254 -0.2273
  568MPD2     C 8421   0.250   2.866  16.565  0.4294  0.0541 -0.1861
  568MPD2    C1 8422   0.149   2.937  16.618 -0.0053 -1.1251  0.2285
  568MPD2    C2 8423   0.101   3.048  16.553  0.0729  0.4482 -0.7383
  568MPD2    C3 8424   0.168   3.098  16.437 -0.0324 -0.1648 -0.9761
  568MPD2    C4 8425   0.281   3.032  16.392 -0.3870 -0.0691  0.3103
  568MPD2    C5 8426   0.316   2.912  16.448 -0.4163 -0.3269 -0.1410
  568MPD2     H 8427   0.010   3.101  16.578  0.3371 -0.6471  2.5712
  568MPD2    H1 8428   0.332   3.066  16.302 -3.1652 -1.2433 -1.7273
  568MPD2    H2 8429   0.292   2.779  16.614  1.8027 -0.0531 -1.5186
  568MPD2    H3 8430   0.406   2.867  16.408 -0.6594 -1.5810  0.7337
  568MPD2     N 8431   0.104   3.203  16.367 -0.0592 -0.6379  0.4357
  568MPD2    H5 8432   0.017   3.236  16.408 -0.9246 -1.0220 -1.1318
  568MPD2    N1 8433   0.095   2.880  16.733  0.6769  0.7039 -0.3524
  568MPD2    H7 8434   0.128   2.787  16.756  0.8817  0.0823 -3.2084
  569TMC3    C1 8435   0.078   3.363  16.200  0.2226 -0.3645  0.0409
  569TMC3    C2 8436   0.058   3.456  16.292 -0.6547  0.1310  1.1114
  569TMC3    C3 8437   0.044   3.589  16.249 -0.0968 -1.0311  0.1452
  569TMC3    C4 8438   0.071   3.391  16.067  0.8674 -0.1256 -0.2564
  569TMC3    C5 8439   0.057   3.521  16.026 -0.0137 -0.5735 -0.5475
  569TMC3    C6 8440   0.053   3.622  16.118 -0.0391  0.2297 -0.1847
  569TMC3     C 8441   0.146   3.246  16.242 -0.3075  0.0569  0.1025
  569TMC3     O 8442   0.233   3.203  16.163  0.5066  0.4461  0.8521
  569TMC3     H 8443   0.067   3.430  16.396  0.4518  1.0632  1.2546
  569TMC3    H1 8444   0.093   3.317  15.990  1.6395 -0.1558  0.0003
  569TMC3    H2 8445   0.070   3.726  16.090 -0.6896  0.3419 -0.1499
  569TMC3    C7 8446   0.064   3.538  15.876  0.4729  0.0584  0.2000
  569TMC3    C8 8447   0.030   3.689  16.355  0.4107  0.0024 -0.4366
  569TMC3    O1 8448   0.065   3.439  15.809  0.8748  0.6845 -0.3468
  569TMC3    O2 8449   0.057   3.651  16.466  0.2785  0.4609 -0.3669
  570TMC3    C1 8450   3.877   1.898  15.980  0.5696  0.1384 -0.2373
  570TMC3    C2 8451   3.984   1.886  15.903 -0.6125  0.3285  0.2159
  570TMC3    C3 8452   4.031   2.005  15.852 -0.0672  0.5514  0.1090
  570TMC3    C4 8453   3.829   2.024  16.024 -0.7578 -0.3821 -0.3812
  570TMC3    C5 8454   3.887   2.136  15.978  0.1941  0.8295  0.2388
  570TMC3    C6 8455   3.989   2.131  15.887  0.3324 -0.1243  0.1819
  570TMC3     C 8456   3.780   1.784  15.977 -0.4350  0.4763 -0.2250
  570TMC3     O 8457   3.788   1.708  15.882 -0.4729 -0.3776 -0.2711
  570TMC3     H 8458   4.024   1.791  15.868  1.7709  0.4221  2.6594
  570TMC3    H1 8459   3.758   2.025  16.106 -1.8108 -2.2879 -1.2786
  570TMC3    H2 8460   4.028   2.220  15.839  2.2489 -0.5576  0.9764
  570TMC3    C7 8461   3.888   2.252  16.068 -0.6154 -0.4158  0.3590
  570TMC3    C8 8462   4.113   1.990  15.730  0.5503 -0.4257 -0.2854
  570TMC3    O1 8463   3.847   2.238  16.186 -0.3715  0.3312  0.5061
  570TMC3    O2 8464   4.128   1.877  15.686 -0.2897  0.0251  0.9543
  571MPD2     C 8465   2.196   3.468   0.342 -0.4405 -0.0177 -0.1354
  571MPD2    C1 8466   2.266   3.581   0.375  0.0011  0.1180  0.6166
  571MPD2    C2 8467   2.234   3.693   0.300 -0.1830  0.2156 -0.6040
  571MPD2    C3 8468   2.129   3.686   0.203 -0.5648  0.7795 -0.0543
  571MPD2    C4 8469   2.055   3.574   0.188  0.2616  0.6846 -0.2765
  571MPD2    C5 8470   2.097   3.464   0.250  0.4680 -0.5756 -0.2122
  571MPD2     H 8471   2.274   3.789   0.332  1.0071 -0.4327 -0.1810
  571MPD2    H1 8472   1.986   3.567   0.104  1.2573  1.2175 -1.1355
  571MPD2    H2 8473   2.210   3.367   0.378 -0.9351 -0.4254 -1.1127
  571MPD2    H3 8474   2.065   3.363   0.228  2.3128 -1.4162  0.9093
  571MPD2     N 8475   2.096   3.789   0.114 -0.3451 -0.1288 -0.3686
  571MPD2    H5 8476   2.005   3.775   0.070  0.0090 -1.0731 -0.8026
  571MPD2    N1 8477   2.360   3.577   0.490 -0.9275  0.2977  0.0101
  571MPD2    H7 8478   2.371   3.489   0.539  0.1142 -0.3306 -1.3375
  572TMC3    C1 8479   2.101   4.011   0.014 -0.1664  0.6250  1.1589
  572TMC3    C2 8480   1.973   4.001  17.639 -0.7538 -0.8579  0.2437
  572TMC3    C3 8481   1.914   4.116  17.599 -0.5876 -0.4430  0.7712
  572TMC3    C4 8482   2.152   4.134   0.036  0.1258 -0.3586  0.2417
  572TMC3    C5 8483   2.091   4.241  17.672  0.4497  0.3413 -0.5081
  572TMC3    C6 8484   1.977   4.231  17.604  0.3600 -0.3810 -0.1207
  572TMC3     C 8485   2.165   3.906   0.095  0.2696  0.1551  0.0200
  572TMC3     O 8486   2.265   3.933   0.155 -0.3978  0.1690 -0.7412
  572TMC3     H 8487   1.911   3.912  17.648 -1.2589 -0.6024 -0.6539
  572TMC3    H1 8488   2.258   4.150   0.053  0.5295 -1.2287 -1.4419
  572TMC3    H2 8489   1.925   4.324  17.579  0.2635 -0.2186  0.6845
  572TMC3    C7 8490   2.134   4.370   0.035 -0.0812 -0.5548 -0.6018
  572TMC3    C8 8491   1.771   4.125  17.607 -0.1492 -0.2716  0.3416
  572TMC3    O1 8492   2.078   4.469  17.671 -0.9563 -0.2490 -0.1595
  572TMC3    O2 8493   1.728   4.217  17.673 -0.1571  0.0079 -0.0558
  573MPD2     C 8494   3.160   4.002   1.166 -0.6399 -0.7932 -0.2161
  573MPD2    C1 8495   3.293   4.029   1.138  0.2784 -0.3060 -0.0742
  573MPD2    C2 8496   3.346   4.025   1.011  0.0420  0.0700  0.2915
  573MPD2    C3 8497   3.253   4.011   0.912  0.4478 -0.1053  0.4326
  573MPD2    C4 8498   3.116   3.998   0.935  0.2522  0.4728 -0.1549
  573MPD2    C5 8499   3.069   3.989   1.065  0.0471 -0.4965 -0.0608
  573MPD2     H 8500   3.447   4.062   1.001  0.0623 -0.1546 -0.3613
  573MPD2    H1 8501   3.047   3.990   0.852  2.3822 -0.0835 -1.8660
  573MPD2    H2 8502   3.125   4.000   1.269 -1.1999  0.0795 -0.3872
  573MPD2    H3 8503   2.964   3.973   1.090  0.2342 -0.9555  0.4305
  573MPD2     N 8504   3.287   4.025   0.774 -0.6088  0.8009 -0.2468
  573MPD2    H5 8505   3.211   4.029   0.707 -1.5347 -0.7081  0.7392
  573MPD2    N1 8506   3.361   4.071   1.249  0.8225  0.6873  0.1824
  573MPD2    H7 8507   3.309   4.067   1.336  1.5651  0.9407  0.6328
  574TMC3    C1 8508   3.395   4.075   0.574  0.0538  0.7578 -0.3409
  574TMC3    C2 8509   3.304   4.024   0.489 -0.7401  0.0256 -1.0152
  574TMC3    C3 8510   3.300   4.065   0.358 -0.3356  0.5478  0.1724
  574TMC3    C4 8511   3.487   4.170   0.532  0.9191  0.9367 -0.1834
  574TMC3    C5 8512   3.478   4.210   0.405 -0.2510 -0.5450 -0.1230
  574TMC3    C6 8513   3.388   4.158   0.310 -0.1978 -0.1256  0.1947
  574TMC3     C 8514   3.409   4.042   0.715 -0.3865  1.0535 -0.2287
  574TMC3     O 8515   3.524   4.041   0.760  0.2274  0.1971 -0.3014
  574TMC3     H 8516   3.223   3.959   0.522 -0.8952 -0.7464 -2.9601
  574TMC3    H1 8517   3.558   4.204   0.607  0.2186  0.5916  0.6364
  574TMC3    H2 8518   3.392   4.189   0.206 -1.1336  0.0868  0.2277
  574TMC3    C7 8519   3.574   4.311   0.358  0.4572  0.1058  0.6236
  574TMC3    C8 8520   3.201   4.002   0.268 -0.2250 -0.1777  0.4756
  574TMC3    O1 8521   3.567   4.346   0.240  0.6899  0.0459 -0.4434
  574TMC3    O2 8522   3.191   3.881   0.275 -0.1459 -0.0708 -0.0682
  575TMC3    C1 8523   1.559   0.547  10.690  1.1379 -0.1206  0.0838
  575TMC3    C2 8524   1.629   0.623  10.781 -0.2042  0.1494 -0.3789
  575TMC3    C3 8525   1.599   0.753  10.801  0.7410 -0.3640  0.1620
  575TMC3    C4 8526   1.452   0.602  10.629 -1.4394 -0.3024  0.2052
  575TMC3    C5 8527   1.431   0.739  10.647 -0.1560 -0.4294  0.0762
  575TMC3    C6 8528   1.503   0.815  10.733  0.0654 -0.7059  0.0635
  575TMC3     C 8529   1.562   0.406  10.707  0.7968  0.1188  0.1006
  575TMC3     O 8530   1.481   0.342  10.642  0.3121  0.3901  0.0815
  575TMC3     H 8531   1.702   0.577  10.847  1.9747  1.8918 -1.5505
  575TMC3    H1 8532   1.401   0.556  10.545 -0.6932 -2.4648  0.9529
  575TMC3    H2 8533   1.472   0.918  10.748 -1.9880 -1.4493  0.9289
  575TMC3    C7 8534   1.329   0.810  10.581  0.1532 -0.1421 -0.4573
  575TMC3    C8 8535   1.668   0.809  10.914 -0.3949  0.0851 -0.8489
  575TMC3    O1 8536   1.340   0.931  10.546 -0.1099  1.3077 -0.3103
  575TMC3    O2 8537   1.781   0.776  10.947 -0.5053  0.3905  0.1108
  576MPD2     C 8538   0.526   2.065  12.109 -0.2550  0.7282 -0.0762
  576MPD2    C1 8539   0.473   2.174  12.041 -0.1604 -0.5303 -0.1431
  576MPD2    C2 8540   0.439   2.287  12.125  0.3380 -0.6059  0.7020
  576MPD2    C3 8541   0.422   2.270  12.260 -0.0671  0.2325 -0.6315
  576MPD2    C4 8542   0.466   2.155  12.324 -0.2148 -0.0561  0.6548
  576MPD2    C5 8543   0.524   2.058  12.241  0.6230  0.1709  0.1114
  576MPD2     H 8544   0.418   2.381  12.075 -2.6567 -0.7044  1.8014
  576MPD2    H1 8545   0.454   2.131  12.429 -0.7042 -1.6461  0.2394
  576MPD2    H2 8546   0.565   1.972  12.068  0.4617  0.1085  1.9745
  576MPD2    H3 8547   0.559   1.965  12.285 -0.9228  0.7380  2.5607
  576MPD2     N 8548   0.375   2.378  12.327  0.0393 -0.0747 -0.4022
  576MPD2    H5 8549   0.355   2.458  12.267 -1.3340 -0.1309 -0.0086
  576MPD2    N1 8550   0.479   2.189  11.903 -0.5663  0.6181  0.5233
  576MPD2    H7 8551   0.424   2.264  11.863  0.2782  0.7743 -0.3466
  577TMC3    C1 8552   0.550   2.160  11.677 -0.2074  0.2533 -0.0362
  577TMC3    C2 8553   0.563   2.056  11.588  0.1892 -0.3194  0.0102
  577TMC3    C3 8554   0.662   2.055  11.493 -0.3064  0.7256  0.0085
  577TMC3    C4 8555   0.631   2.270  11.672 -0.0532 -0.6748  0.3577
  577TMC3    C5 8556   0.719   2.269  11.572 -0.0415  0.2103  0.7917
  577TMC3    C6 8557   0.744   2.164  11.482  0.2506 -0.0036  0.3834
  577TMC3     C 8558   0.545   2.105  11.815 -0.0348 -0.8931  0.2978
  577TMC3     O 8559   0.616   2.008  11.835 -0.2233  0.2924  0.6017
  577TMC3     H 8560   0.510   1.964  11.610  0.3684 -0.1075  1.3001
  577TMC3    H1 8561   0.621   2.356  11.737 -0.1343 -1.1861  1.0130
  577TMC3    H2 8562   0.812   2.187  11.401 -0.0700 -1.9625 -0.4452
  577TMC3    C7 8563   0.800   2.387  11.552 -1.0459 -0.0954  0.1754
  577TMC3    C8 8564   0.702   1.931  11.427  0.0581 -0.2797  0.9515
  577TMC3    O1 8565   0.922   2.378  11.538 -0.1713  0.7482 -0.3150
  577TMC3    O2 8566   0.618   1.844  11.420 -0.8914  0.0283  0.6086
  578MPD2     C 8567   3.402   2.109   0.938  0.4184  0.5450 -0.0267
  578MPD2    C1 8568   3.373   2.004   0.859  0.4127  0.3339  0.5365
  578MPD2    C2 8569   3.439   1.885   0.869 -0.4225  0.0819  0.3162
  578MPD2    C3 8570   3.559   1.878   0.938  0.0863 -0.3576 -0.5392
  578MPD2    C4 8571   3.598   1.994   1.009  0.6375 -0.0612  0.2994
  578MPD2    C5 8572   3.522   2.105   1.008  0.5128 -0.2734  0.1330
  578MPD2     H 8573   3.426   1.797   0.808  2.6066  0.7491 -1.2913
  578MPD2    H1 8574   3.679   1.982   1.080 -0.0059 -1.3546  0.8291
  578MPD2    H2 8575   3.339   2.195   0.960  0.2840  0.2549  0.7171
  578MPD2    H3 8576   3.570   2.187   1.061 -0.5039  0.5292 -0.1696
  578MPD2     N 8577   3.633   1.756   0.945  0.0913  0.0843 -0.4644
  578MPD2    H5 8578   3.597   1.678   0.891  0.1122 -0.3553  0.1603
  578MPD2    N1 8579   3.247   2.017   0.790 -0.7134  0.3585  0.5410
  578MPD2    H7 8580   3.209   2.110   0.799 -0.7806  0.2719  1.1658
  579TMC3    C1 8581   3.811   1.606   1.005  0.1051  1.2414 -0.2182
  579TMC3    C2 8582   3.942   1.591   1.025  1.0536  0.2063  0.3972
  579TMC3    C3 8583   3.997   1.465   1.017  0.2717  0.5339  0.1478
  579TMC3    C4 8584   3.737   1.499   0.970 -0.8208 -0.4873 -0.5666
  579TMC3    C5 8585   3.794   1.379   0.954  0.3081  0.4657 -0.0313
  579TMC3    C6 8586   3.922   1.353   0.992 -0.7680  0.5297  0.5304
  579TMC3     C 8587   3.746   1.734   1.020  0.5924  0.1809 -0.1154
  579TMC3     O 8588   3.816   1.814   1.083  0.5729 -0.0902 -0.4905
  579TMC3     H 8589   4.002   1.680   1.039  0.4825  0.2115  2.7697
  579TMC3    H1 8590   3.634   1.515   0.941 -0.9348 -2.1179 -1.0519
  579TMC3    H2 8591   3.956   1.251   0.991  0.7644  1.0433 -0.0367
  579TMC3    C7 8592   3.711   1.256   0.947  0.1808 -0.1602  0.5670
  579TMC3    C8 8593   4.101   1.440   1.113  0.1236 -0.0315  1.0178
  579TMC3    O1 8594   3.751   1.161   1.013 -0.0578 -0.1428 -0.2361
  579TMC3    O2 8595   4.124   1.324   1.143 -0.6921  0.2613 -0.5885
  580TMC3    C1 8596   3.195   1.431  11.305  0.1534  0.0771  0.2470
  580TMC3    C2 8597   3.252   1.354  11.207 -0.1202 -0.0212 -0.5980
  580TMC3    C3 8598   3.241   1.218  11.211  0.1757  0.0876 -0.8944
  580TMC3    C4 8599   3.166   1.364  11.419  0.5184  0.0091 -0.1563
  580TMC3    C5 8600   3.154   1.226  11.427 -0.2150 -0.8507  0.5114
  580TMC3    C6 8601   3.192   1.150  11.319 -0.6002  0.7240 -0.6566
  580TMC3     C 8602   3.266   1.550  11.324 -0.0925  0.8949 -0.2945
  580TMC3     O 8603   3.356   1.574  11.243 -0.0351  0.0038  0.0788
  580TMC3     H 8604   3.275   1.391  11.108 -0.3173 -1.1274 -1.0541
  580TMC3    H1 8605   3.136   1.427  11.502 -1.3168 -1.8485  0.6038
  580TMC3    H2 8606   3.198   1.042  11.329 -2.5286  0.6227 -0.6079
  580TMC3    C7 8607   3.146   1.176  11.558  0.8421 -0.1090 -0.2239
  580TMC3    C8 8608   3.318   1.145  11.116  0.1154 -0.1877 -0.2391
  580TMC3    O1 8609   3.157   1.256  11.653 -0.4543 -0.2005  0.2642
  580TMC3    O2 8610   3.281   1.036  11.077 -0.4395  0.2509  0.7911
  581MPD2     C 8611   1.317   1.396  15.335  0.3240 -0.2970  0.0099
  581MPD2    C1 8612   1.333   1.324  15.219 -0.9425 -0.4384  0.2562
  581MPD2    C2 8613   1.273   1.376  15.100  0.3286 -0.2375 -0.0582
  581MPD2    C3 8614   1.184   1.481  15.095 -0.7043 -0.6734 -0.0131
  581MPD2    C4 8615   1.158   1.541  15.217 -0.6828  0.6293  0.6078
  581MPD2    C5 8616   1.233   1.503  15.330 -0.1038  0.3617 -0.1871
  581MPD2     H 8617   1.303   1.332  15.006 -0.7940 -0.4457 -0.3250
  581MPD2    H1 8618   1.089   1.622  15.237 -0.1954  1.3761 -0.7322
  581MPD2    H2 8619   1.363   1.377  15.431  0.7305  0.7624  0.0265
  581MPD2    H3 8620   1.233   1.567  15.418 -0.0262  1.0254 -0.6728
  581MPD2     N 8621   1.123   1.528  14.967  0.5180 -0.3593  1.0207
  581MPD2    H5 8622   1.151   1.475  14.884 -0.1218  1.6355 -0.4635
  581MPD2    N1 8623   1.417   1.211  15.226  0.6405 -0.4937  0.8126
  581MPD2    H7 8624   1.431   1.179  15.322 -0.2668  0.8150  1.3761
  582TMC3    C1 8625   1.566   1.039  15.174  0.1290 -0.5099 -0.3608
  582TMC3    C2 8626   1.623   1.070  15.292 -0.4198 -0.4335  0.3296
  582TMC3    C3 8627   1.632   0.983  15.395 -0.1533 -0.2929  0.2487
  582TMC3    C4 8628   1.541   0.906  15.140  0.7773 -0.2174  0.1822
  582TMC3    C5 8629   1.559   0.814  15.238  0.0380 -0.2729  0.0846
  582TMC3    C6 8630   1.588   0.856  15.371  0.3224 -0.5809  0.5491
  582TMC3     C 8631   1.477   1.136  15.124  0.2608  0.1930 -0.1317
  582TMC3     O 8632   1.469   1.158  15.004  0.0585 -0.7202 -0.3655
  582TMC3     H 8633   1.648   1.173  15.316 -1.0977 -0.2633  0.2993
  582TMC3    H1 8634   1.528   0.882  15.035 -1.7903  0.9237  0.2311
  582TMC3    H2 8635   1.590   0.779  15.447 -0.6020  0.3554  1.5084
  582TMC3    C7 8636   1.474   0.698  15.227  0.4743 -0.0351  0.6029
  582TMC3    C8 8637   1.627   1.038  15.533 -0.1475  0.5119 -0.8275
  582TMC3    O1 8638   1.507   0.605  15.300  0.8302  0.1336 -0.6792
  582TMC3    O2 8639   1.608   1.157  15.558 -0.2352  0.3202  0.4311
  583MPD2     C 8640   1.201   2.305  16.463 -0.3864 -0.7989 -0.9417
  583MPD2    C1 8641   1.216   2.438  16.424 -0.1870 -0.8775 -0.8891
  583MPD2    C2 8642   1.142   2.532  16.489 -0.1867 -0.3441  0.7389
  583MPD2    C3 8643   1.059   2.503  16.597 -0.0635 -0.0833  0.2803
  583MPD2    C4 8644   1.056   2.375  16.645  0.4094  0.2358 -0.3272
  583MPD2    C5 8645   1.110   2.273  16.570  0.1196  0.3079 -0.0050
  583MPD2     H 8646   1.149   2.638  16.463  0.0066 -0.8307 -1.1910
  583MPD2    H1 8647   0.995   2.338  16.726 -1.1303 -0.1473 -1.6445
  583MPD2    H2 8648   1.236   2.223  16.401  0.4232 -0.5347 -0.8269
  583MPD2    H3 8649   1.088   2.170  16.597  0.3077 -0.0620 -1.2294
  583MPD2     N 8650   0.996   2.613  16.656  0.1709 -0.3224  0.0709
  583MPD2    H5 8651   1.006   2.702  16.607  1.8919 -0.7917 -0.4215
  583MPD2    N1 8652   1.288   2.482  16.311 -0.1793  0.0520  0.6187
  583MPD2    H7 8653   1.292   2.581  16.289 -0.1636 -0.2650 -0.8631
  584TMC3    C1 8654   0.892   2.748  16.811  0.7835  0.3697 -0.4788
  584TMC3    C2 8655   0.875   2.849  16.719 -0.5247 -0.0413  0.1531
  584TMC3    C3 8656   0.901   2.983  16.760 -0.1667  0.0715  0.0917
  584TMC3    C4 8657   0.934   2.779  16.937 -0.0179  0.8874  0.7334
  584TMC3    C5 8658   0.941   2.909  16.975  0.3552 -0.4539  0.3547
  584TMC3    C6 8659   0.923   3.015  16.893 -0.2628  0.3616  0.3816
  584TMC3     C 8660   0.914   2.613  16.767  0.0960  0.3330  0.0570
  584TMC3     O 8661   0.895   2.526  16.849 -0.7620 -0.3816  0.3429
  584TMC3     H 8662   0.844   2.829  16.617 -0.5333  2.0901 -0.2421
  584TMC3    H1 8663   0.965   2.697  16.999 -2.6749  0.4464  1.4812
  584TMC3    H2 8664   0.948   3.115  16.926  0.4044  0.1676  0.4706
  584TMC3    C7 8665   0.875   2.928  17.102 -1.2967 -0.0846 -0.7757
  584TMC3    C8 8666   0.922   3.074  16.653  0.0015 -0.1766 -0.6978
  584TMC3    O1 8667   0.902   2.857  17.200  0.0617  0.6137 -0.4208
  584TMC3    O2 8668   0.913   3.028  16.542 -0.7890 -0.4946  0.1074
  585MPD2     C 8669   1.305   1.725   0.470  0.3901 -0.3134  0.5978
  585MPD2    C1 8670   1.177   1.753   0.416 -0.2785 -0.4484 -0.0238
  585MPD2    C2 8671   1.116   1.668   0.329  0.0366 -0.6028 -0.4669
  585MPD2    C3 8672   1.178   1.545   0.300 -0.2363 -0.3142 -0.5119
  585MPD2    C4 8673   1.298   1.504   0.366 -0.0979 -0.5014 -0.2042
  585MPD2    C5 8674   1.357   1.594   0.449 -0.4518 -0.5022 -0.6755
  585MPD2     H 8675   1.028   1.710   0.281  0.0750  0.9129  0.8039
  585MPD2    H1 8676   1.343   1.406   0.351 -1.5617 -1.1884 -0.1227
  585MPD2    H2 8677   1.347   1.782   0.551 -4.0887  2.6592  0.8115
  585MPD2    H3 8678   1.453   1.573   0.494 -0.3884  0.1150 -0.5265
  585MPD2     N 8679   1.121   1.451   0.213  0.1222  0.1798 -0.0648
  585MPD2    H5 8680   1.167   1.361   0.207  2.0402  1.0804  1.0502
  585MPD2    N1 8681   1.128   1.879   0.454  0.0279 -0.5896  0.0702
  585MPD2    H7 8682   1.180   1.928   0.525 -2.8820 -0.5358  2.1632
  586TMC3    C1 8683   0.997   1.384   0.015 -0.1047 -0.1570  0.2540
  586TMC3    C2 8684   1.111   1.307  17.656 -0.1347 -0.0565 -0.3733
  586TMC3    C3 8685   1.102   1.241  17.539 -0.0339  0.2895 -0.8115
  586TMC3    C4 8686   0.891   1.403  17.622  0.6830 -0.2851  0.1694
  586TMC3    C5 8687   0.888   1.336  17.499 -0.2443 -1.2473 -0.2326
  586TMC3    C6 8688   0.998   1.255  17.453 -0.3717  0.2875  0.1066
  586TMC3     C 8689   1.011   1.480   0.131  0.1297 -0.6347 -0.6515
  586TMC3     O 8690   0.947   1.582   0.126 -0.2469 -0.1800 -0.0942
  586TMC3     H 8691   1.191   1.280   0.041  1.5408  2.5471 -1.2897
  586TMC3    H1 8692   0.802   1.454  17.658  0.2609 -0.8790 -0.0331
  586TMC3    H2 8693   0.991   1.189  17.367 -0.1919 -2.3536  2.1077
  586TMC3    C7 8694   0.753   1.314  17.442 -0.1240  0.5501 -0.4088
  586TMC3    C8 8695   1.172   1.117  17.543  0.0753 -0.9475 -0.0211
  586TMC3    O1 8696   0.657   1.347  17.512  0.7004 -0.1861 -0.0560
  586TMC3    O2 8697   1.178   1.057  17.653  0.3502 -0.1156  0.0451
  587TMC3    C1 8698   2.988   0.270  16.106  0.8009 -0.6394 -0.1018
  587TMC3    C2 8699   2.901   0.251  16.208 -0.4392 -0.7756 -0.2820
  587TMC3    C3 8700   2.950   0.217  16.330  0.3257  0.4810 -0.3701
  587TMC3    C4 8701   3.125   0.237  16.121 -0.2446 -0.0228 -0.1710
  587TMC3    C5 8702   3.167   0.196  16.247  0.2899 -0.1199  0.4522
  587TMC3    C6 8703   3.085   0.194  16.359 -0.1434 -0.6552  0.0222
  587TMC3     C 8704   2.934   0.265  15.970  0.2191  0.6178  0.6459
  587TMC3     O 8705   3.016   0.237  15.882  0.0278 -0.1892 -0.5111
  587TMC3     H 8706   2.793   0.246  16.200 -0.6856  1.0482  1.8099
  587TMC3    H1 8707   3.192   0.246  16.037 -1.2103 -2.4427 -1.1782
  587TMC3    H2 8708   3.115   0.169  16.460  1.0503  1.0053  0.0665
  587TMC3    C7 8709   3.305   0.172  16.253  0.7605  0.6357  0.6031
  587TMC3    C8 8710   2.854   0.177  16.440 -0.6149 -0.4114  0.9836
  587TMC3    O1 8711   3.362   0.179  16.146 -0.1422 -1.4019  0.0051
  587TMC3    O2 8712   2.883   0.081  16.513  0.3880  0.0708  0.1977
  588TMC3    C1 8713   0.862   3.552   9.930  0.7478  0.5412 -0.2383
  588TMC3    C2 8714   0.818   3.421   9.930 -0.4562  0.4618  0.1014
  588TMC3    C3 8715   0.717   3.391  10.016  0.2758  0.0671 -0.4387
  588TMC3    C4 8716   0.824   3.639  10.027  0.2655 -0.0601  0.5487
  588TMC3    C5 8717   0.731   3.601  10.117  0.2929  0.1509  0.3274
  588TMC3    C6 8718   0.673   3.485  10.104  0.2329  0.3807 -0.2275
  588TMC3     C 8719   0.896   3.602   9.796 -0.0535  0.1537 -0.1601
  588TMC3     O 8720   0.914   3.522   9.709 -0.2946 -0.0109  0.0309
  588TMC3     H 8721   0.844   3.351   9.851 -0.1099  0.2335  0.4212
  588TMC3    H1 8722   0.854   3.744  10.029  2.2979 -0.5885 -1.3831
  588TMC3    H2 8723   0.605   3.441  10.176  0.9878 -0.1777  0.1569
  588TMC3    C7 8724   0.652   3.705  10.176  0.3201 -0.3234 -1.3407
  588TMC3    C8 8725   0.633   3.274   9.993  0.2926 -0.2640  0.7667
  588TMC3    O1 8726   0.605   3.690  10.288  0.4908  0.1157 -0.4605
  588TMC3    O2 8727   0.513   3.288  10.021  0.5710 -0.2638  0.3586
  589TMC3    C1 8728   4.068   0.258   1.130 -0.0048 -0.7974  0.0251
  589TMC3    C2 8729   4.128   0.332   1.229 -0.4785 -0.0705  0.2168
  589TMC3    C3 8730   4.256   0.294   1.262 -0.3043  0.0495  0.1893
  589TMC3    C4 8731   4.137   0.168   1.057  0.3226  0.8070  0.8695
  589TMC3    C5 8732   4.269   0.135   1.096 -0.4146  0.2656  0.4855
  589TMC3    C6 8733   4.332   0.199   1.201  0.0577 -0.0247 -0.0699
  589TMC3     C 8734   3.929   0.283   1.077 -0.6103  0.7622  0.3314
  589TMC3     O 8735   3.908   0.239   0.968 -0.2026  0.2680 -0.1198
  589TMC3     H 8736   4.078   0.412   1.282  0.3150 -0.5771  1.7151
  589TMC3    H1 8737   4.089   0.106   0.982  1.7993 -3.0258  3.0736
  589TMC3    H2 8738   4.425   0.161   1.240 -0.2579 -0.3056  0.4135
  589TMC3    C7 8739   4.328   0.018   1.041 -0.2837  0.3562 -0.4845
  589TMC3    C8 8740   4.325   0.388   1.352 -0.6575 -0.2020 -0.7027
  589TMC3    O1 8741   4.253   4.654   0.988  0.5749  0.2411 -0.2921
  589TMC3    O2 8742   4.256   0.456   1.428 -0.5614 -0.5522 -0.6319
  590MPD2     C 8743   3.646   3.354  16.549 -0.1531  0.1027 -0.8451
  590MPD2    C1 8744   3.594   3.427  16.446  0.2319 -0.4253  0.0924
  590MPD2    C2 8745   3.676   3.504  16.372  0.2439  0.4253 -0.0886
  590MPD2    C3 8746   3.812   3.508  16.388  0.8863  0.3769  0.0312
  590MPD2    C4 8747   3.866   3.426  16.487 -0.8182 -0.2076  0.1602
  590MPD2    C5 8748   3.785   3.345  16.565  0.7023  0.2803 -0.4414
  590MPD2     H 8749   3.628   3.573  16.304 -0.2543  1.4052  1.2677
  590MPD2    H1 8750   3.972   3.427  16.508 -0.2688  2.5765 -2.5982
  590MPD2    H2 8751   3.576   3.298  16.610  2.3352  0.7617  2.6056
  590MPD2    H3 8752   3.830   3.295  16.650 -0.0022  0.4638  0.0397
  590MPD2     N 8753   3.883   3.594  16.306  0.4638  1.2976 -0.0135
  590MPD2    H5 8754   3.828   3.654  16.245 -0.0724 -0.4803 -1.2943
  590MPD2    N1 8755   3.450   3.411  16.419 -0.0136  0.2463  0.9244
  590MPD2    H7 8756   3.383   3.390  16.493 -0.9222 -0.8004 -0.2105
  591TMC3    C1 8757   4.061   3.704  16.203 -0.6513  0.7354 -0.3761
  591TMC3    C2 8758   4.168   3.672  16.119 -0.5318 -0.3259  0.3578
  591TMC3    C3 8759   4.191   3.760  16.023 -0.2873  0.2076 -0.1918
  591TMC3    C4 8760   3.987   3.815  16.191 -0.6543 -0.0770 -0.1500
  591TMC3    C5 8761   4.020   3.912  16.098  0.3837 -0.0897 -0.1624
  591TMC3    C6 8762   4.128   3.884  16.011  0.4477  0.4528  0.1095
  591TMC3     C 8763   4.018   3.605  16.300  0.0748 -0.0965 -0.9518
  591TMC3     O 8764   4.107   3.536  16.346  0.1618  0.2987 -0.4616
  591TMC3     H 8765   4.222   3.579  16.125  1.3707  0.8232  0.9082
  591TMC3    H1 8766   3.905   3.831  16.260  0.2017 -1.9565  1.2995
  591TMC3    H2 8767   4.174   3.963  15.953 -0.3397 -0.0975 -1.2739
  591TMC3    C7 8768   3.918   4.002  16.063 -0.3367 -0.0354 -0.0695
  591TMC3    C8 8769   4.277   3.714  15.919  0.1981  0.3005 -0.4561
  591TMC3    O1 8770   3.806   3.978  16.102 -0.4607  0.4616 -0.3471
  591TMC3    O2 8771   4.375   3.650  15.958 -0.2649 -0.1093 -0.3819
  592MPD2     C 8772   4.477   1.112  10.865 -0.0983  0.5323  0.6180
  592MPD2    C1 8773   4.530   1.158  10.978 -0.3436 -0.1356  0.5898
  592MPD2    C2 8774   4.521   1.093  11.095 -0.0108  0.2334 -0.5865
  592MPD2    C3 8775   4.465   0.962  11.093  0.2761  0.3120  0.5193
  592MPD2    C4 8776   4.418   0.916  10.976  0.1541  0.3697 -0.2964
  592MPD2    C5 8777   4.422   0.992  10.861 -0.2354 -0.6510  0.0991
  592MPD2     H 8778   4.583   1.121  11.180 -0.4667  1.7209 -0.7428
  592MPD2    H1 8779   4.379   0.816  10.967 -2.9890  1.2317  3.8755
  592MPD2    H2 8780   4.466   1.173  10.776  0.0583  0.0044  0.2361
  592MPD2    H3 8781   4.377   0.957  10.768  0.5995  3.2683 -1.7809
  592MPD2     N 8782   4.459   0.892  11.210 -0.2217  0.0969 -0.0025
  592MPD2    H5 8783   4.496   0.944  11.289  1.6661 -0.3357 -0.6124
  592MPD2    N1 8784   4.597   1.285  10.971  0.0825 -0.2830 -0.0424
  592MPD2    H7 8785   4.632   1.316  10.881 -0.6351  1.1483  0.1664
  593TMC3    C1 8786   4.688   1.490  11.069 -0.5088 -0.1779 -0.3978
  593TMC3    C2 8787   4.687   1.579  11.169 -0.0443 -0.5567  0.2523
  593TMC3    C3 8788   0.012   1.710  11.146  0.4324 -0.2322 -0.2690
  593TMC3    C4 8789   0.015   1.516  10.943  0.1874 -0.0030  0.2501
  593TMC3    C5 8790   0.061   1.644  10.928 -0.2365 -0.4318 -0.6419
  593TMC3    C6 8791   0.060   1.740  11.020 -0.2094 -0.6536 -0.2960
  593TMC3     C 8792   4.620   1.362  11.084  0.7224  0.4378 -0.6320
  593TMC3     O 8793   4.577   1.351  11.196 -0.2832 -0.3006 -0.1210
  593TMC3     H 8794   4.665   1.557  11.273  0.0376 -0.5504  0.2710
  593TMC3    H1 8795   0.044   1.438  10.874  0.1598 -1.8862  2.3600
  593TMC3    H2 8796   0.086   1.844  11.000 -1.4786 -0.2017  0.3570
  593TMC3    C7 8797   0.112   1.684  10.805 -0.4944 -0.1573  0.2285
  593TMC3    C8 8798   0.046   1.809  11.253  0.1980 -0.9212 -0.2736
  593TMC3    O1 8799   0.170   1.794  10.812 -0.1769  0.0580  0.8410
  593TMC3    O2 8800   0.052   1.920  11.215 -0.1001 -0.0395  0.6067
  594MPD2     C 8801   2.787   4.484  13.707 -0.4685 -0.5984  0.1850
  594MPD2    C1 8802   2.784   4.396  13.809 -0.0512  0.4552 -0.1130
  594MPD2    C2 8803   2.887   4.401  13.902 -0.5447  0.2672  0.4757
  594MPD2    C3 8804   2.993   4.483  13.883  0.6451 -0.5062  0.6391
  594MPD2    C4 8805   3.002   4.563  13.776 -0.3337 -0.1690  0.3766
  594MPD2    C5 8806   2.896   4.571  13.691 -0.3621  0.8173  0.1936
  594MPD2     H 8807   2.885   4.350  13.997  1.0178 -0.0534  0.3451
  594MPD2    H1 8808   3.094   4.617  13.754 -0.7432 -0.0948 -1.1101
  594MPD2    H2 8809   2.717   4.461  13.628 -2.7120  1.0808  1.6951
  594MPD2    H3 8810   2.902   4.639  13.606  2.5149  1.4416  0.9265
  594MPD2     N 8811   3.094   4.475  13.979  0.1822 -1.1832 -0.7173
  594MPD2    H5 8812   3.064   4.438  14.068  0.4630  0.1110 -0.0828
  594MPD2    N1 8813   2.678   4.298  13.825 -1.0398  0.1282 -0.7462
  594MPD2    H7 8814   2.598   4.295  13.763 -2.4819 -1.3407  1.1822
  595TMC3    C1 8815   3.417   4.676  14.247 -0.5867  0.4906  0.0158
  595TMC3    C2 8816   3.382   4.598  14.138 -0.2072 -0.1212 -0.2521
  595TMC3    C3 8817   3.253   4.558  14.118 -0.2866 -0.5958  0.0904
  595TMC3    C4 8818   3.327   4.696  14.351  0.0468  0.3728  0.3545
  595TMC3    C5 8819   3.195   4.657  14.333 -0.7270 -0.0303  0.1766
  595TMC3    C6 8820   3.159   4.593  14.215 -0.1013 -0.4503  1.2410
  595TMC3     C 8821   3.554   0.004  14.273  0.1259  0.1415  0.2540
  595TMC3     O 8822   3.572   0.107  14.336  0.3804 -0.5408  0.0660
  595TMC3     H 8823   3.451   4.599  14.054 -1.5397 -1.2311 -1.3702
  595TMC3    H1 8824   3.354   0.037  14.436  0.3981  0.6694  0.0291
  595TMC3    H2 8825   3.055   4.579  14.189  0.2888 -1.2570  0.0603
  595TMC3    C7 8826   3.097   4.705  14.430 -0.6810 -0.4199  0.3207
  595TMC3    C8 8827   3.214   4.538  13.980  0.0129  0.0263  0.0966
  595TMC3    O1 8828   2.980   0.005  14.400 -0.0011  0.3494  0.0272
  595TMC3    O2 8829   3.286   4.563  13.884 -0.3200 -0.5573  0.3550
  596MPD2     C 8830   1.891   2.477  16.564  0.5669 -0.1148  0.2609
  596MPD2    C1 8831   1.909   2.601  16.503 -0.0687  0.4811 -0.5828
  596MPD2    C2 8832   1.970   2.612  16.380 -0.1345 -0.2781 -0.1317
  596MPD2    C3 8833   2.006   2.501  16.310  0.1424  0.1315 -0.1165
  596MPD2    C4 8834   1.993   2.372  16.380  0.3631  0.4207  0.6454
  596MPD2    C5 8835   1.945   2.364  16.506  0.3359 -0.5123 -0.5816
  596MPD2     H 8836   1.978   2.711  16.336 -1.3447 -1.1960 -2.4008
  596MPD2    H1 8837   2.020   2.281  16.327 -0.8814  0.2205  0.3618
  596MPD2    H2 8838   1.856   2.452  16.664 -0.8037 -0.2978 -0.2731
  596MPD2    H3 8839   1.932   2.270  16.559  0.5531 -0.1673  0.0801
  596MPD2     N 8840   2.025   2.503  16.169 -0.3918  0.0251  0.2591
  596MPD2    H5 8841   2.026   2.415  16.118 -1.6562  0.1219  0.0817
  596MPD2    N1 8842   1.862   2.718  16.565 -0.3747  0.1543  0.0501
  596MPD2    H7 8843   1.890   2.804  16.519 -2.5880 -0.3641 -2.3262
  597TMC3    C1 8844   1.788   2.856  16.737  0.7019 -0.1360 -1.1997
  597TMC3    C2 8845   1.885   2.947  16.707  0.1412 -0.2226 -0.9488
  597TMC3    C3 8846   1.887   3.066  16.772  0.2205 -0.4488  1.0564
  597TMC3    C4 8847   1.700   2.875  16.836 -0.0320 -0.3522 -0.1721
  597TMC3    C5 8848   1.697   3.003  16.893  0.3414  0.4793 -0.1061
  597TMC3    C6 8849   1.793   3.097  16.862 -0.6064 -0.4959  0.1856
  597TMC3     C 8850   1.787   2.723  16.675  0.5385 -0.2613  0.8023
  597TMC3     O 8851   1.724   2.634  16.729  0.6592  0.5171 -0.3259
  597TMC3     H 8852   1.969   2.908  16.650 -0.4160  0.7586 -2.4299
  597TMC3    H1 8853   1.623   2.801  16.857  0.6906 -0.5103  1.9720
  597TMC3    H2 8854   1.790   3.193  16.911  1.0025 -0.4363  0.1777
  597TMC3    C7 8855   1.577   3.043  16.974  0.1942  0.0297  0.0688
  597TMC3    C8 8856   1.982   3.168  16.745 -0.3419 -0.3334  0.0339
  597TMC3    O1 8857   1.518   2.956  17.039  0.0999 -0.2374  0.4754
  597TMC3    O2 8858   1.995   3.256  16.831 -0.3894  0.2632 -0.4201
  598TMC3    C1 8859   0.408   4.321  15.239 -0.2056 -0.0357 -0.1192
  598TMC3    C2 8860   0.286   4.259  15.246 -0.3344  0.3776 -0.9608
  598TMC3    C3 8861   0.230   4.234  15.125  0.2584 -0.4522  0.0523
  598TMC3    C4 8862   0.466   4.358  15.123  0.0513  1.5628 -0.2574
  598TMC3    C5 8863   0.399   4.329  15.007  0.1523 -0.1862 -0.0489
  598TMC3    C6 8864   0.279   4.269  15.006 -0.0767 -0.5100 -0.4577
  598TMC3     C 8865   0.491   4.335  15.358 -0.6244  0.3496  0.5119
  598TMC3     O 8866   0.611   4.331  15.339 -0.4646 -0.7708  0.0712
  598TMC3     H 8867   0.238   4.221  15.335  0.2325  1.2020 -0.2970
  598TMC3    H1 8868   0.569   4.391  15.119  1.0622 -1.6678 -0.8880
  598TMC3    H2 8869   0.218   4.272  14.916 -0.1166 -1.1893 -0.4539
  598TMC3    C7 8870   0.424   4.422  14.902 -0.3709 -0.2750 -0.1024
  598TMC3    C8 8871   0.124   4.146  15.120  0.1077 -0.6239 -0.7426
  598TMC3    O1 8872   0.383   4.391  14.793 -0.3131  0.1808  0.2948
  598TMC3    O2 8873   0.050   4.139  15.219  0.5466 -0.6584  0.6343
  599MPD2     C 8874   0.406   2.098  16.446 -0.0266 -0.1635  0.0157
  599MPD2    C1 8875   0.397   1.968  16.403 -0.2450  0.6346 -0.5219
  599MPD2    C2 8876   0.284   1.897  16.412 -1.0868  0.4499  1.0608
  599MPD2    C3 8877   0.171   1.960  16.457 -0.5330  0.5828 -0.2069
  599MPD2    C4 8878   0.173   2.096  16.480  0.6334 -0.1230 -0.2483
  599MPD2    C5 8879   0.295   2.167  16.477  0.2537 -0.7063 -1.0523
  599MPD2     H 8880   0.279   1.789  16.400 -0.1992  0.5380 -0.1063
  599MPD2    H1 8881   0.081   2.149  16.507  1.4747  0.0432  2.3093
  599MPD2    H2 8882   0.495   2.160  16.436 -0.7185  0.8574  0.2630
  599MPD2    H3 8883   0.282   2.273  16.493  0.1726 -1.1106  1.5523
  599MPD2     N 8884   0.045   1.890  16.475  0.4144 -0.3212 -0.5534
  599MPD2    H5 8885   4.691   1.947  16.515  0.4094 -1.0607  0.5042
  599MPD2    N1 8886   0.515   1.905  16.360  0.1647 -0.2701  0.6731
  599MPD2    H7 8887   0.605   1.950  16.377  0.1467 -0.0878  0.3001
  600TMC3    C1 8888   4.587   1.753  16.408 -0.4043  0.2774 -0.1993
  600TMC3    C2 8889   4.540   1.702  16.294  0.0111 -1.1710  0.4100
  600TMC3    C3 8890   4.405   1.692  16.278  0.0861  0.1830 -0.6713
  600TMC3    C4 8891   4.498   1.799  16.510  0.1051 -0.3895 -0.1909
  600TMC3    C5 8892   4.364   1.788  16.490  0.1457  0.4616 -0.3973
  600TMC3    C6 8893   4.318   1.745  16.368  0.3587 -0.2034  0.2089
  600TMC3     C 8894   0.008   1.769  16.415 -0.0956 -0.4050  0.0556
  600TMC3     O 8895   0.071   1.684  16.357 -0.0014  0.0097  0.0766
  600TMC3     H 8896   4.609   1.650  16.228 -0.5012 -2.0620  0.5718
  600TMC3    H1 8897   4.530   1.850  16.601 -2.3689  1.2892 -0.2744
  600TMC3    H2 8898   4.212   1.726  16.356  0.1204 -0.4326  2.6265
  600TMC3    C7 8899   4.272   1.865  16.571  0.2003 -0.5200  0.0942
  600TMC3    C8 8900   4.362   1.557  16.230 -0.0174 -0.6335  0.5147
  600TMC3    O1 8901   4.183   1.917  16.510 -0.0694  0.2571 -0.5071
  600TMC3    O2 8902   4.441   1.465  16.249  0.1008  0.0093  0.3701
  601MPD2     C 8903   2.370   4.675   0.377  0.3063 -0.8769  0.5124
  601MPD2    C1 8904   2.305   4.704   0.259  0.2818 -0.4469  0.1163
  601MPD2    C2 8905   2.245   4.601   0.188 -0.0872 -0.2998  0.4526
  601MPD2    C3 8906   2.248   4.471   0.229 -0.3342  0.8835 -0.3138
  601MPD2    C4 8907   2.313   4.441   0.342 -0.4728 -0.6718 -0.2083
  601MPD2    C5 8908   2.373   4.543   0.410  0.6870 -0.6603  0.3275
  601MPD2     H 8909   2.187   4.623   0.098  0.0621  0.4125  0.5262
  601MPD2    H1 8910   2.327   4.340   0.381  0.0932 -0.4005  0.2869
  601MPD2    H2 8911   2.429   0.027   0.431  1.1063  0.8897 -2.6854
  601MPD2    H3 8912   2.436   4.515   0.494 -0.9675 -0.6009  1.5765
  601MPD2     N 8913   2.194   4.358   0.158  0.1123 -0.2392 -0.1626
  601MPD2    H5 8914   2.193   4.262   0.189 -0.5463 -1.0112 -2.5632
  601MPD2    N1 8915   2.300   0.114   0.201 -0.1019  0.0936 -0.3559
  601MPD2    H7 8916   2.269   0.124   0.105  0.6891 -1.1628 -0.7487
  602TMC3    C1 8917   2.324   0.347   0.178  0.9636  0.6120 -0.1250
  602TMC3    C2 8918   2.310   0.473   0.241  1.0143 -0.5544  0.2459
  602TMC3    C3 8919   2.323   0.585   0.162  0.0850 -0.1668 -0.3689
  602TMC3    C4 8920   2.365   0.328   0.043 -0.1330  0.3116  0.1534
  602TMC3    C5 8921   2.391   0.444  17.660  0.5721 -0.6315 -0.4415
  602TMC3    C6 8922   2.365   0.572   0.034  0.4721  0.1420  0.4464
  602TMC3     C 8923   2.329   0.229   0.265 -1.0398 -0.7308  0.0875
  602TMC3     O 8924   2.345   0.242   0.388  0.2870  0.5186 -0.4079
  602TMC3     H 8925   2.257   0.476   0.335  2.0742 -0.7503  0.8572
  602TMC3    H1 8926   2.370   0.237  17.668 -0.1004  1.8130 -2.1452
  602TMC3    H2 8927   2.371   0.666  17.666  0.2136  0.4064  0.8968
  602TMC3    C7 8928   2.357   0.441  17.518 -0.6505  0.2088  0.5003
  602TMC3    C8 8929   2.207   0.675   0.167  0.4968  0.0463  0.6215
  602TMC3    O1 8930   2.310   0.547  17.483 -0.8695  0.3312  0.4639
  602TMC3    O2 8931   2.199   0.755   0.256  0.1422 -0.3970  0.7146
  603TMC3    C1 8932   0.671   0.458  10.733 -1.2718 -0.2300  0.2419
  603TMC3    C2 8933   0.770   0.487  10.823 -0.8660 -0.0848 -0.4725
  603TMC3    C3 8934   0.747   0.586  10.907  0.5410  0.1441  0.5946
  603TMC3    C4 8935   0.557   0.531  10.703  0.0664 -0.1751  0.0589
  603TMC3    C5 8936   0.540   0.643  10.788 -0.9115  0.1370 -0.6295
  603TMC3    C6 8937   0.627   0.665  10.894 -0.1191 -0.0603  0.3422
  603TMC3     C 8938   0.683   0.352  10.628  0.5819  0.1389  0.8135
  603TMC3     O 8939   0.650   0.380  10.513  0.5158  0.3342  0.0072
  603TMC3     H 8940   0.848   0.412  10.836 -1.8522 -0.9570  0.5063
  603TMC3    H1 8941   0.485   0.508  10.625  0.9946  0.9580 -1.1386
  603TMC3    H2 8942   0.594   0.735  10.969  1.2025 -0.4683  1.2912
  603TMC3    C7 8943   0.419   0.723  10.788  0.6343  0.0050 -0.5795
  603TMC3    C8 8944   0.817   0.595  11.034 -0.1788  0.0962 -0.1282
  603TMC3    O1 8945   0.405   0.813  10.868 -0.8625 -0.7295 -0.0665
  603TMC3    O2 8946   0.923   0.537  11.041 -0.2976 -0.2927 -0.5036
  604MPD2     C 8947   0.512   3.306  16.065 -0.1156  0.0723 -0.0735
  604MPD2    C1 8948   0.520   3.429  15.998 -0.4618  0.3025 -0.5777
  604MPD2    C2 8949   0.560   3.430  15.867  0.8200  0.7264 -0.8160
  604MPD2    C3 8950   0.607   3.313  15.811 -0.2326 -0.1983  0.1116
  604MPD2    C4 8951   0.609   3.194  15.882  0.0742 -0.1724 -0.7393
  604MPD2    C5 8952   0.553   3.191  16.005  0.1834 -0.0557 -0.3099
  604MPD2     H 8953   0.551   3.517  15.803  1.2102 -0.2479 -2.2048
  604MPD2    H1 8954   0.641   3.100  15.839  2.3326  0.3222 -0.1804
  604MPD2    H2 8955   0.475   3.303  16.166 -1.8077  0.4491 -0.6904
  604MPD2    H3 8956   0.558   3.102  16.067  0.2109  1.0409  1.2876
  604MPD2     N 8957   0.662   3.319  15.677 -0.1025 -0.2545  0.0892
  604MPD2    H5 8958   0.681   3.405  15.626  1.1614  0.7970  2.3148
  604MPD2    N1 8959   0.481   3.548  16.070 -0.4132  0.3204  0.6638
  604MPD2    H7 8960   0.462   3.538  16.170 -2.1485  2.8930  0.6258
  605TMC3    C1 8961   0.427   3.761  16.097 -0.5863  0.4636  0.4204
  605TMC3    C2 8962   0.477   3.762  16.222 -0.2111 -0.0231  0.3428
  605TMC3    C3 8963   0.432   3.855  16.306 -0.5852  0.1742  0.1096
  605TMC3    C4 8964   0.324   3.853  16.063  0.0250  0.4360  0.0753
  605TMC3    C5 8965   0.292   3.949  16.146 -0.6144 -1.0461 -0.6532
  605TMC3    C6 8966   0.335   3.947  16.275 -0.0802  0.0670  0.0194
  605TMC3     C 8967   0.460   3.661  16.003 -0.2127  0.7791  0.5121
  605TMC3     O 8968   0.426   3.684  15.885 -0.3159  0.2029 -0.3655
  605TMC3     H 8969   0.544   3.689  16.264 -1.8468 -0.9506  1.3360
  605TMC3    H1 8970   0.290   3.849  15.961 -0.5810 -0.6095  0.3186
  605TMC3    H2 8971   0.307   4.024  16.346  0.3932  1.0144 -0.8370
  605TMC3    C7 8972   0.194   4.050  16.089 -0.1753 -0.4481  0.0608
  605TMC3    C8 8973   0.526   3.897  16.405  0.8022  0.8079 -0.0643
  605TMC3    O1 8974   0.155   4.037  15.978 -0.7335  0.1248  0.4577
  605TMC3    O2 8975   0.485   3.971  16.491  0.0200 -0.0293 -0.2492
  606TMC3    C1 8976   1.453   2.192   0.212 -0.5397 -0.2712 -0.4790
  606TMC3    C2 8977   1.581   2.251   0.234  0.1221 -0.8731  0.1203
  606TMC3    C3 8978   1.686   2.170   0.277  0.5282 -0.3738 -0.8017
  606TMC3    C4 8979   1.442   2.053   0.228  0.6019 -0.0621  0.5721
  606TMC3    C5 8980   1.553   1.976   0.254 -0.1888 -0.2908 -0.4548
  606TMC3    C6 8981   1.673   2.037   0.273 -0.6895 -0.0244  0.1465
  606TMC3     C 8982   1.335   2.272   0.210 -0.4698 -0.2020 -0.4717
  606TMC3     O 8983   1.348   2.395   0.228 -0.4336 -0.6000  0.1970
  606TMC3     H 8984   1.617   2.350   0.206  0.7346 -1.4972 -1.3217
  606TMC3    H1 8985   1.355   1.997   0.196 -1.0495  1.8290  1.7417
  606TMC3    H2 8986   1.760   1.978   0.298  0.8554  2.3739  0.4806
  606TMC3    C7 8987   1.574   1.853   0.182  0.1313  1.1928 -0.3736
  606TMC3    C8 8988   1.816   2.224   0.272 -0.1405 -0.7533  0.0756
  606TMC3    O1 8989   1.506   1.831   0.086  0.1182  0.1926  0.1550
  606TMC3    O2 8990   1.899   2.168   0.200 -0.6284  0.0996  0.4192
  607MPD2     C 8991   0.030   0.735  11.359  0.7090  0.4998  0.0145
  607MPD2    C1 8992   0.129   0.824  11.401 -0.0289 -0.5154  0.3468
  607MPD2    C2 8993   0.159   0.824  11.536  0.2778  0.0593  0.7228
  607MPD2    C3 8994   0.099   0.738  11.627 -0.3031 -0.4079 -0.5105
  607MPD2    C4 8995   0.021   0.641  11.576 -0.2271 -0.4641 -1.1891
  607MPD2    C5 8996   4.713   0.638  11.448 -0.0234  0.0463 -0.1396
  607MPD2     H 8997   0.234   0.894  11.574  0.2202 -1.2772  3.2870
  607MPD2    H1 8998   4.699   0.563  11.639  0.7513  0.1918  0.2964
  607MPD2    H2 8999   4.712   0.739  11.258 -3.3958  0.8414  1.6120
  607MPD2    H3 9000   4.649   0.558  11.413 -1.2732  1.4485 -1.0322
  607MPD2     N 9001   0.115   0.762  11.768  0.2041  0.3469 -0.6007
  607MPD2    H5 9002   0.179   0.838  11.786 -0.6691  1.5102 -2.4003
  607MPD2    N1 9003   0.178   0.930  11.319  0.2123 -0.1001 -0.1874
  607MPD2    H7 9004   0.246   0.997  11.353  0.1842  1.4638 -3.2099
  608TMC3    C1 9005   0.163   1.100  11.166 -0.2019 -0.0160 -0.0044
  608TMC3    C2 9006   0.164   1.187  11.266  0.4851  0.3102 -0.3393
  608TMC3    C3 9007   0.213   1.308  11.244  0.0505  0.4340 -0.2449
  608TMC3    C4 9008   0.210   1.123  11.038  0.2643 -0.1537  0.3174
  608TMC3    C5 9009   0.271   1.247  11.023  0.3879  0.2665  0.4495
  608TMC3    C6 9010   0.274   1.336  11.127  0.3201  0.3532 -0.0063
  608TMC3     C 9011   0.129   0.963  11.195  0.1073  0.1138 -0.0565
  608TMC3     O 9012   0.077   0.897  11.107  0.2094 -0.2073  0.4363
  608TMC3     H 9013   0.101   1.169  11.352  3.1636 -1.1099  1.3300
  608TMC3    H1 9014   0.206   1.051  10.957 -2.2112 -1.9050  2.0133
  608TMC3    H2 9015   0.304   1.440  11.120  0.9741  0.2972  1.9337
  608TMC3    C7 9016   0.336   1.276  10.896 -0.4307  0.3867 -0.4166
  608TMC3    C8 9017   0.243   1.383  11.365  0.2691  0.2409 -0.0997
  608TMC3    O1 9018   0.333   1.185  10.817  0.2856  0.3923  0.4767
  608TMC3    O2 9019   0.224   1.505  11.361 -0.5401 -0.2068  0.1226
  609TMC3    C1 9020   3.597   4.480   9.081 -0.8752  0.1574  0.1700
  609TMC3    C2 9021   3.511   4.459   8.976  0.5629  0.4296 -0.4383
  609TMC3    C3 9022   3.544   4.354   8.895  0.4788  0.1290  0.2668
  609TMC3    C4 9023   3.699   4.402   9.114 -0.0691  1.2310  0.2864
  609TMC3    C5 9024   3.721   4.293   9.039 -0.0589  0.3553 -0.1044
  609TMC3    C6 9025   3.654   4.276   8.925  0.0389  0.3044  0.0718
  609TMC3     C 9026   3.536   4.566   9.182  0.0406  0.0543  0.5163
  609TMC3     O 9027   3.582   4.551   9.295 -0.3562  0.1724  0.3047
  609TMC3     H 9028   3.417   4.512   8.964  0.2253 -0.0903 -0.1126
  609TMC3    H1 9029   3.745   4.411   9.212  2.0035 -0.7227 -0.5100
  609TMC3    H2 9030   3.673   4.179   8.880  2.5514  0.3362  1.0781
  609TMC3    C7 9031   3.816   4.193   9.095 -0.8690 -0.5415  0.1255
  609TMC3    C8 9032   3.457   4.308   8.787  0.7251  0.0594  0.1758
  609TMC3    O1 9033   3.920   4.233   9.140  0.0945 -0.0701  0.1872
  609TMC3    O2 9034   3.339   4.350   8.795  0.6903 -0.2484  0.0200
  610TMC3    C1 9035   4.555   0.779  12.429 -0.3413 -0.2887  0.7578
  610TMC3    C2 9036   4.689   0.816  12.410  0.4915 -0.2203 -0.0387
  610TMC3    C3 9037   0.062   0.791  12.504 -0.3507  0.6682 -0.3577
  610TMC3    C4 9038   4.517   0.714  12.544 -0.6376 -0.4096 -0.4656
  610TMC3    C5 9039   4.616   0.682  12.630 -0.3437  0.3532  0.1792
  610TMC3    C6 9040   0.028   0.710  12.608  0.7270 -0.4486  1.0504
  610TMC3     C 9041   4.463   0.808  12.313 -0.0002  0.4066  0.1739
  610TMC3     O 9042   4.516   0.861  12.216  0.2339  0.0215  0.5016
  610TMC3     H 9043   0.001   0.856  12.314 -0.9507 -0.6298 -0.6966
  610TMC3    H1 9044   4.413   0.704  12.574 -0.1992 -0.1576  1.1323
  610TMC3    H2 9045   0.105   0.686  12.681  1.6318  0.4714  0.4074
  610TMC3    C7 9046   4.587   0.566  12.721  0.5171 -0.0421  0.2534
  610TMC3    C8 9047   0.204   0.811  12.463 -0.0868  0.3268  0.1172
  610TMC3    O1 9048   4.673   0.537  12.803 -0.2421 -0.0873 -0.3081
  610TMC3    O2 9049   0.230   0.896  12.378 -0.3976  0.0152  0.2534
  611MPD2     C 9050   3.644   0.374  10.400  0.0777 -0.1445  0.5699
  611MPD2    C1 9051   3.709   0.281  10.323 -0.0416 -0.1254  0.1199
  611MPD2    C2 9052   3.847   0.289  10.298 -0.4152 -1.0089  0.2197
  611MPD2    C3 9053   3.919   0.401  10.357 -0.0727 -0.1689  0.0109
  611MPD2    C4 9054   3.850   0.489  10.429  0.3351 -0.1649  0.0831
  611MPD2    C5 9055   3.718   0.480  10.439 -0.9631 -0.2281 -0.1300
  611MPD2     H 9056   3.897   0.208  10.246 -0.7492  0.1679 -1.9284
  611MPD2    H1 9057   3.891   0.577  10.478  0.7759 -0.6905  0.6660
  611MPD2    H2 9058   3.541   0.367  10.434 -0.0911 -1.3095 -0.1479
  611MPD2    H3 9059   3.667   0.548  10.507  0.0795  1.0984 -0.6734
  611MPD2     N 9060   4.056   0.408  10.358 -0.2696 -0.5415  0.8365
  611MPD2    H5 9061   4.108   0.486  10.397  0.2837 -0.5465  0.1097
  611MPD2    N1 9062   3.624   0.178  10.274  0.0832 -0.1487  0.0708
  611MPD2    H7 9063   3.525   0.188  10.291 -0.2190 -0.7058 -1.3440
  612TMC3    C1 9064   4.279   0.354  10.325 -0.3336 -0.8737  0.3398
  612TMC3    C2 9065   4.312   0.455  10.408 -0.2410 -0.4251  0.3966
  612TMC3    C3 9066   4.436   0.509  10.386 -0.6567 -0.2739  0.9940
  612TMC3    C4 9067   4.377   0.288  10.251  0.6405 -0.1211 -0.5937
  612TMC3    C5 9068   4.501   0.348  10.239 -0.8503  0.5250 -0.7752
  612TMC3    C6 9069   4.536   0.460  10.308 -0.6696 -0.3727 -0.9407
  612TMC3     C 9070   4.144   0.314  10.306  0.9150 -0.3854 -0.1302
  612TMC3     O 9071   4.129   0.206  10.251 -0.2980 -0.0727 -0.1132
  612TMC3     H 9072   4.239   0.485  10.483 -1.5635  1.0830 -1.4887
  612TMC3    H1 9073   4.362   0.209  10.178  1.2456 -1.1774  0.4376
  612TMC3    H2 9074   4.625   0.517  10.286 -0.7408 -0.7511 -2.2014
  612TMC3    C7 9075   4.568   0.327  10.116  0.2936 -0.1651 -0.1842
  612TMC3    C8 9076   4.474   0.594  10.501  0.6351 -0.5272 -0.0779
  612TMC3    O1 9077   4.508   0.291  10.018 -0.0871 -0.0196  0.1977
  612TMC3    O2 9078   4.387   0.632  10.575 -0.4789 -0.0603 -0.5896
  613MPD2     C 9079   3.106   2.712  16.657 -0.1279 -0.0186  0.2721
  613MPD2    C1 9080   3.033   2.748  16.542 -0.2463 -0.4121 -0.2668
  613MPD2    C2 9081   2.933   2.669  16.488  0.2068 -0.4810 -0.3244
  613MPD2    C3 9082   2.916   2.543  16.539 -0.1634  0.0293 -0.1032
  613MPD2    C4 9083   2.985   2.511  16.654  0.7138  0.6869 -0.1104
  613MPD2    C5 9084   3.073   2.590  16.716 -0.7619 -0.4727 -0.2180
  613MPD2     H 9085   2.879   2.706  16.402 -0.1013 -0.9624 -0.3426
  613MPD2    H1 9086   2.962   2.410  16.688  0.0418  0.8696 -0.0135
  613MPD2    H2 9087   3.188   2.774  16.691  0.4117  0.8220 -2.5144
  613MPD2    H3 9088   3.130   2.558  16.802 -1.3373  1.2240  0.8052
  613MPD2     N 9089   2.844   2.444  16.471 -0.0211 -0.1746 -0.2795
  613MPD2    H5 9090   2.848   2.346  16.497  0.5965  0.0603  0.5376
  613MPD2    N1 9091   3.093   2.857  16.479  0.5076 -0.2748  0.1478
  613MPD2    H7 9092   3.188   2.887  16.502 -0.4628  1.0686  2.3847
  614TMC3    C1 9093   3.135   2.906  16.263 -0.1006 -0.5226 -0.0097
  614TMC3    C2 9094   3.184   2.780  16.232  0.9956  0.1057 -0.9523
  614TMC3    C3 9095   3.185   2.735  16.108 -0.5025 -0.2378  0.0859
  614TMC3    C4 9096   3.120   2.991  16.157 -0.1128  0.2420 -0.3176
  614TMC3    C5 9097   3.112   2.942  16.030  0.0964 -0.4213  0.6174
  614TMC3    C6 9098   3.151   2.814  16.000 -0.3696  0.1579 -0.2441
  614TMC3     C 9099   3.042   2.913  16.371 -0.6683  0.0664 -0.6187
  614TMC3     O 9100   2.924   2.916  16.348 -0.9469  0.0648 -0.1132
  614TMC3     H 9101   3.204   2.712  16.314  0.4576  1.7526  0.5243
  614TMC3    H1 9102   3.070   3.085  16.178 -0.8123 -0.2654  0.2935
  614TMC3    H2 9103   3.130   2.773  15.902  1.3656 -0.2461 -0.4420
  614TMC3    C7 9104   3.124   3.041  15.929 -0.3353 -0.3527  0.4473
  614TMC3    C8 9105   3.167   2.593  16.093 -0.5108 -0.1625 -0.8044
  614TMC3    O1 9106   3.142   3.159  15.960  0.2136  0.4357  0.2717
  614TMC3    O2 9107   3.140   2.539  16.198 -0.0636  0.0677  0.3035
  615MPD2     C 9108   2.656   4.029  15.697 -0.0514 -0.7565  0.0557
  615MPD2    C1 9109   2.601   4.147  15.642 -0.7897  0.3041 -0.4114
  615MPD2    C2 9110   2.535   4.126  15.522  0.0013  1.3921 -0.2179
  615MPD2    C3 9111   2.515   4.002  15.470 -0.3506 -0.4728 -0.2177
  615MPD2    C4 9112   2.561   3.887  15.534  0.1075  1.1555  0.5734
  615MPD2    C5 9113   2.629   3.904  15.649 -0.8186  0.0260  0.3174
  615MPD2     H 9114   2.490   4.212  15.474  0.0997  0.8153 -1.3343
  615MPD2    H1 9115   2.541   3.794  15.482  1.5138  1.6326 -0.7953
  615MPD2    H2 9116   2.732   4.036  15.775  1.7611 -1.5452 -1.6589
  615MPD2    H3 9117   2.665   3.819  15.706 -1.5149  0.3969  1.3173
  615MPD2     N 9118   2.444   3.985  15.351 -0.2928 -0.2518  0.2273
  615MPD2    H5 9119   2.403   3.895  15.327  1.3718 -1.2481  1.1404
  615MPD2    N1 9120   2.605   4.279  15.690  0.8254 -0.1633 -0.1180
  615MPD2    H7 9121   2.553   4.339  15.626 -0.8657  0.0430  1.4454
  616TMC3    C1 9122   2.691   4.469  15.810 -0.4253  0.8588 -0.9632
  616TMC3    C2 9123   2.780   4.516  15.898 -0.0728  0.1869  0.6991
  616TMC3    C3 9124   2.752   4.635  15.960 -0.1786  0.1386  0.1523
  616TMC3    C4 9125   2.572   4.537  15.775  0.7469 -0.0722 -0.4079
  616TMC3    C5 9126   2.559   4.658  15.835  1.0758  0.2410 -0.1625
  616TMC3    C6 9127   2.646   4.707  15.923  0.1687  0.6276 -0.8200
  616TMC3     C 9128   2.688   4.319  15.794 -0.2814  0.7045 -0.5109
  616TMC3     O 9129   2.773   4.255  15.863 -0.9068 -0.0148  0.4259
  616TMC3     H 9130   2.864   4.455  15.929  0.8032  1.2901  0.4922
  616TMC3    H1 9131   2.497   4.504  15.705  2.1711 -0.3501 -1.8118
  616TMC3    H2 9132   2.628   0.078  15.978  1.0047  0.9693 -1.1268
  616TMC3    C7 9133   2.429   4.720  15.828 -0.6819 -0.1295  0.7685
  616TMC3    C8 9134   2.822   4.659  16.085  0.5020  0.1680  0.4138
  616TMC3    O1 9135   2.370   4.699  15.724  0.0683  0.2317  0.3198
  616TMC3    O2 9136   2.764   0.004  16.171  0.8042  0.3360 -0.1740
  617MPD2     C 9137   0.808   2.362  13.594  0.4686  0.3439 -0.2605
  617MPD2    C1 9138   0.819   2.276  13.708 -0.2237  0.4378  0.0639
  617MPD2    C2 9139   0.709   2.190  13.744  0.3145 -0.4427 -0.1132
  617MPD2    C3 9140   0.586   2.211  13.682 -0.0230  0.0680  0.4024
  617MPD2    C4 9141   0.573   2.303  13.583 -0.4349 -0.2594  0.2241
  617MPD2    C5 9142   0.684   2.374  13.532 -0.3664 -0.8249  0.5331
  617MPD2     H 9143   0.735   2.112  13.815 -1.1520 -1.2099 -0.4275
  617MPD2    H1 9144   0.479   2.323  13.533  0.2395  0.1715 -0.8780
  617MPD2    H2 9145   0.892   2.424  13.566  1.1580  0.1626  1.3964
  617MPD2    H3 9146   0.664   2.450  13.457 -0.4489 -1.8570 -0.4958
  617MPD2     N 9147   0.469   2.144  13.718 -0.7457  0.5901  0.1898
  617MPD2    H5 9148   0.389   2.147  13.656  0.1620 -1.1043 -1.0762
  617MPD2    N1 9149   0.945   2.278  13.766  0.1110  0.2686 -0.6861
  617MPD2    H7 9150   1.010   2.343  13.723  1.0255 -0.9775 -1.1790
  618TMC3    C1 9151   1.118   2.251  13.921  0.1375  0.4704 -0.3238
  618TMC3    C2 9152   1.214   2.151  13.910  0.8053 -0.3381  0.1391
  618TMC3    C3 9153   1.347   2.178  13.904 -0.0934 -0.5407 -0.0005
  618TMC3    C4 9154   1.162   2.381  13.890  0.1948  0.1279 -0.3959
  618TMC3    C5 9155   1.291   2.403  13.881 -0.5457  0.4043 -0.6229
  618TMC3    C6 9156   1.388   2.306  13.910 -0.2271  0.4862  0.3829
  618TMC3     C 9157   0.983   2.212  13.886  0.5295  0.4167  0.7739
  618TMC3     O 9158   0.926   2.123  13.948 -0.7243  0.0641 -0.3019
  618TMC3     H 9159   1.178   2.049  13.907 -1.4981  0.4489  0.6352
  618TMC3    H1 9160   1.095   2.464  13.870 -1.1494 -0.6996  0.6836
  618TMC3    H2 9161   1.490   2.339  13.893  0.0103 -0.7441 -0.5774
  618TMC3    C7 9162   1.310   2.493  13.776  0.8206 -0.2085 -0.8096
  618TMC3    C8 9163   1.435   2.082  13.839  0.0046  0.3726  0.0198
  618TMC3    O1 9164   1.233   2.491  13.682  0.1414  0.2000 -0.5340
  618TMC3    O2 9165   1.431   1.960  13.858  0.4146 -0.0525 -0.4352
  619MPD2     C 9166   2.029   3.601  13.563 -0.2666  0.1305  1.1710
  619MPD2    C1 9167   1.954   3.691  13.487  0.1609 -0.3947  0.7419
  619MPD2    C2 9168   1.820   3.692  13.510  0.4546  0.3240  0.1742
  619MPD2    C3 9169   1.759   3.621  13.604  0.3632 -0.5758 -0.3225
  619MPD2    C4 9170   1.830   3.540  13.680  0.2322 -0.4511 -0.3025
  619MPD2    C5 9171   1.964   3.522  13.653  0.3211  0.2538 -0.0782
  619MPD2     H 9172   1.766   3.758  13.443 -2.6287 -2.9378 -0.5591
  619MPD2    H1 9173   1.783   3.484  13.760  0.7163 -0.7689 -0.2408
  619MPD2    H2 9174   2.134   3.576  13.551  0.2122  3.0357 -0.6414
  619MPD2    H3 9175   2.013   3.437  13.699  2.1069  1.2164 -0.1778
  619MPD2     N 9176   1.620   3.637  13.634  0.3681  0.1451 -0.1883
  619MPD2    H5 9177   1.593   3.600  13.725 -0.9816  1.4708 -0.0447
  619MPD2    N1 9178   2.006   3.763  13.377 -0.7846  0.0287  0.0048
  619MPD2    H7 9179   1.938   3.822  13.330 -0.2096  0.3906 -0.3763
  620TMC3    C1 9180   2.164   3.849  13.233  0.0275 -0.0852  0.4100
  620TMC3    C2 9181   2.060   3.886  13.144 -0.3075  0.2845 -0.1215
  620TMC3    C3 9182   2.070   3.998  13.067  0.3207  0.7514  0.3396
  620TMC3    C4 9183   2.279   3.924  13.237  1.2245 -0.2446  0.2591
  620TMC3    C5 9184   2.281   4.037  13.164  0.0826 -0.2983 -0.2318
  620TMC3    C6 9185   2.185   4.070  13.073  0.1326  0.0732 -0.4604
  620TMC3     C 9186   2.142   3.767  13.353 -0.4133  0.8856 -0.4244
  620TMC3     O 9187   2.235   3.718  13.414  0.0804 -0.2515 -0.0196
  620TMC3     H 9188   1.966   3.833  13.149 -0.9533  1.5261  1.0480
  620TMC3    H1 9189   2.356   3.895  13.308  0.0738 -2.4001  0.6089
  620TMC3    H2 9190   2.195   4.159  13.012  0.5476  0.6848  0.4973
  620TMC3    C7 9191   2.356   4.146  13.221 -0.1549  0.2226  0.6498
  620TMC3    C8 9192   1.958   4.083  13.081  0.0327  0.0594 -0.2309
  620TMC3    O1 9193   2.466   4.130  13.265 -0.0541 -0.1017 -0.5713
  620TMC3    O2 9194   1.981   4.191  13.133 -0.4337 -0.0246 -0.0490
  621MPD2     C 9195   2.952   3.423  10.397  0.0895  0.3525  0.2126
  621MPD2    C1 9196   3.045   3.390  10.304 -0.1678 -0.4960  0.2622
  621MPD2    C2 9197   3.130   3.503  10.263 -0.2334 -0.3144  0.4698
  621MPD2    C3 9198   3.116   3.627  10.320 -0.2249 -0.0111 -0.3488
  621MPD2    C4 9199   3.025   3.641  10.423  0.4691  0.5499  0.1072
  621MPD2    C5 9200   2.942   3.539  10.457  0.3122  0.2521 -0.3994
  621MPD2     H 9201   3.208   3.482  10.190  0.5583 -0.2986  1.3025
  621MPD2    H1 9202   3.007   3.734  10.476 -0.4200 -0.5737  1.7914
  621MPD2    H2 9203   2.878   3.352  10.433 -1.3415  1.0557 -1.3280
  621MPD2    H3 9204   2.862   3.553  10.529 -0.3633  0.7008 -1.2505
  621MPD2     N 9205   3.196   3.739  10.283 -0.2716 -0.2720 -0.6033
  621MPD2    H5 9206   3.272   3.720  10.217  0.3405  0.3471 -0.0779
  621MPD2    N1 9207   3.061   3.263  10.243 -0.3943 -0.2026  0.2331
  621MPD2    H7 9208   3.133   3.254  10.172 -0.0194 -0.0639  0.5975
  622TMC3    C1 9209   2.999   3.041  10.189 -0.2930  0.8464  0.1098
  622TMC3    C2 9210   2.914   2.937  10.222  0.2614  0.4634 -0.4752
  622TMC3    C3 9211   2.860   2.862  10.126  0.4747  0.5144  0.6499
  622TMC3    C4 9212   3.038   3.060  10.058 -0.2192 -0.4402  0.2450
  622TMC3    C5 9213   2.994   2.963   9.966  0.6566 -0.1395  0.5292
  622TMC3    C6 9214   2.902   2.870  10.000 -0.1363  0.3729 -0.8838
  622TMC3     C 9215   2.981   3.161  10.267 -0.0257 -0.1176  0.3574
  622TMC3     O 9216   2.898   3.148  10.354 -0.1459 -0.8115  0.0411
  622TMC3     H 9217   2.905   2.921  10.329 -0.4466 -2.2124 -0.9244
  622TMC3    H1 9218   3.125   3.121  10.038  0.2404 -0.2737  2.7774
  622TMC3    H2 9219   2.858   2.794   9.936  2.1052 -1.5274 -0.1462
  622TMC3    C7 9220   3.018   2.966   9.824  0.2471  0.2531 -0.0924
  622TMC3    C8 9221   2.798   2.740  10.158  0.5684  0.4542 -0.0208
  622TMC3    O1 9222   2.961   2.883   9.759 -0.2154  0.3357  0.4716
  622TMC3    O2 9223   2.827   2.644  10.093 -0.7620 -0.3645  0.4362
  623MPD2     C 9224   1.036   4.292  15.549 -0.2331  0.5544 -0.4217
  623MPD2    C1 9225   1.019   4.339  15.681 -0.1381 -0.1178 -0.0823
  623MPD2    C2 9226   1.089   4.280  15.789 -0.3705  0.4640  0.0161
  623MPD2    C3 9227   1.180   4.182  15.762 -0.1557 -0.0907  0.4423
  623MPD2    C4 9228   1.198   4.132  15.633  0.2650 -0.2132 -1.0656
  623MPD2    C5 9229   1.122   4.185  15.529 -0.1581  0.1680  0.1302
  623MPD2     H 9230   1.063   4.319  15.886 -1.0240 -0.2176  0.1206
  623MPD2    H1 9231   1.265   4.049  15.612  4.1087  2.3537  1.0902
  623MPD2    H2 9232   1.008   4.345  15.459  0.3900 -0.6643 -1.3279
  623MPD2    H3 9233   1.122   4.140  15.431  0.2817  1.3186 -0.3960
  623MPD2     N 9234   1.255   4.141  15.873  0.1687 -0.1939  0.2809
  623MPD2    H5 9235   1.221   4.166  15.965 -3.2088  1.2443 -1.3611
  623MPD2    N1 9236   0.944   4.454  15.714  0.0936 -0.0663  0.1447
  623MPD2    H7 9237   0.946   4.489  15.809 -1.9795 -0.5376  0.3665
  624TMC3    C1 9238   1.508   4.006  16.210 -0.1128 -0.7936 -0.0108
  624TMC3    C2 9239   1.409   3.934  16.271 -0.0582 -0.2162 -0.1654
  624TMC3    C3 9240   1.291   3.914  16.203  0.3602  0.3832 -0.1351
  624TMC3    C4 9241   1.492   4.048  16.081 -0.8158  1.5583 -0.2258
  624TMC3    C5 9242   1.382   4.020  16.012  0.1372 -0.2365  0.1166
  624TMC3    C6 9243   1.278   3.950  16.077 -0.4948 -0.4113 -0.4347
  624TMC3     C 9244   1.638   4.009  16.276  0.4655  0.0218 -0.7482
  624TMC3     O 9245   1.645   3.936  16.371  0.1361 -0.1630  0.1663
  624TMC3     H 9246   1.422   3.894  16.371 -0.3852 -1.8655 -0.7904
  624TMC3    H1 9247   1.568   4.106  16.030  0.0591 -1.0955 -1.9080
  624TMC3    H2 9248   1.180   3.943  16.031 -1.0662 -0.5752  0.8169
  624TMC3    C7 9249   1.368   4.063  15.872  0.5487 -0.2557  0.2871
  624TMC3    C8 9250   1.167   3.862  16.259 -0.9919  0.1719 -1.5325
  624TMC3    O1 9251   1.439   4.009  15.788  0.0676  0.3527  0.3628
  624TMC3    O2 9252   1.092   3.802  16.179 -0.3177 -0.3060 -0.4801
  625MPD2     C 9253   1.521   0.095   0.282  0.9471  0.7637  0.0556
  625MPD2    C1 9254   1.574   0.135   0.404  0.0924 -0.7566 -0.7366
  625MPD2    C2 9255   1.584   0.038   0.511 -0.0082  0.8143  0.1471
  625MPD2    C3 9256   1.557   4.626   0.485  0.1340 -0.2247 -0.1450
  625MPD2    C4 9257   1.514   4.591   0.356 -0.6791  0.7590  0.6573
  625MPD2    C5 9258   1.493   4.681   0.258  0.7571  0.2310 -0.4824
  625MPD2     H 9259   1.607   0.074   0.610  1.0742  0.3763  0.0558
  625MPD2    H1 9260   1.496   4.487   0.333  0.7718  0.8065 -0.6877
  625MPD2    H2 9261   1.515   0.160   0.195 -2.2384  0.0143 -0.2876
  625MPD2    H3 9262   1.447   4.656   0.164  1.9413  0.0578 -1.0132
  625MPD2     N 9263   1.579   4.531   0.592  0.2167 -0.0459 -0.5095
  625MPD2    H5 9264   1.596   4.578   0.681 -1.2164  1.8128 -1.2253
  625MPD2    N1 9265   1.591   0.280   0.432  0.3159  0.2728  0.1890
  625MPD2    H7 9266   1.617   0.309   0.526 -0.9712 -0.6286  0.8309
  626TMC3    C1 9267   1.559   0.514   0.411  0.1156  0.0709 -0.3553
  626TMC3    C2 9268   1.570   0.616   0.325  1.2378  0.9097 -0.3278
  626TMC3    C3 9269   1.556   0.741   0.377  0.4915  0.2167 -1.0269
  626TMC3    C4 9270   1.540   0.525   0.545 -0.1709  0.9790  0.7039
  626TMC3    C5 9271   1.527   0.658   0.591 -0.7264 -0.4785  0.3227
  626TMC3    C6 9272   1.535   0.764   0.509  0.6283  0.7149  0.2946
  626TMC3     C 9273   1.559   0.381   0.343  0.1469  0.1129  0.1755
  626TMC3     O 9274   1.558   0.384   0.224 -0.2510 -0.3881 -0.2484
  626TMC3     H 9275   1.579   0.607   0.218 -0.6560  0.0736 -0.4108
  626TMC3    H1 9276   1.505   0.443   0.607 -0.0431 -1.5649 -2.5915
  626TMC3    H2 9277   1.484   0.857   0.534  1.1448  1.0031  0.2699
  626TMC3    C7 9278   1.497   0.677   0.734  0.2538  0.4756  0.0241
  626TMC3    C8 9279   1.529   0.844   0.278  0.2830  0.3840  1.0752
  626TMC3    O1 9280   1.469   0.579   0.805  0.5760  0.0280  0.6610
  626TMC3    O2 9281   1.474   0.803   0.175  0.2431 -0.2917 -0.2249
  627MPD2     C 9282   0.994   1.284  14.253 -0.2580  0.4370  0.4123
  627MPD2    C1 9283   0.872   1.315  14.320 -0.1174 -0.2858 -0.4483
  627MPD2    C2 9284   0.762   1.246  14.283  0.2327 -0.4365  0.8227
  627MPD2    C3 9285   0.769   1.141  14.192 -0.4307 -0.3188  0.3905
  627MPD2    C4 9286   0.891   1.108  14.137 -0.2446  0.3220 -0.2575
  627MPD2    C5 9287   1.004   1.177  14.167  0.5723 -0.2816 -0.5492
  627MPD2     H 9288   0.671   1.264  14.338 -1.3287  0.6954 -2.1351
  627MPD2    H1 9289   0.896   1.019  14.076  0.3252 -1.6492  2.6712
  627MPD2    H2 9290   1.088   1.335  14.275 -0.4953  2.6173 -3.7677
  627MPD2    H3 9291   1.096   1.131  14.135  0.5135  0.9049 -2.4349
  627MPD2     N 9292   0.653   1.071  14.177 -0.7661 -0.0378  0.4080
  627MPD2    H5 9293   0.572   1.091  14.235 -0.3727  3.0572 -0.1343
  627MPD2    N1 9294   0.865   1.414  14.423 -0.1769  0.3677 -0.1996
  627MPD2    H7 9295   0.774   1.456  14.439 -0.9681 -0.8289 -1.5052
  628TMC3    C1 9296   0.937   1.546  14.610  0.1569 -0.5476  0.2764
  628TMC3    C2 9297   0.993   1.540  14.735  0.2726  0.2423  0.6979
  628TMC3    C3 9298   0.963   1.630  14.832 -0.4035 -0.8508  0.6889
  628TMC3    C4 9299   0.828   1.630  14.587  0.2957  0.4426  0.0734
  628TMC3    C5 9300   0.788   1.701  14.695 -0.1147  0.4936 -0.0596
  628TMC3    C6 9301   0.860   1.720  14.811 -0.8152  0.5275 -0.5122
  628TMC3     C 9302   0.965   1.439  14.517 -0.3071 -0.1892  0.6439
  628TMC3     O 9303   1.076   1.385  14.528  0.1813  0.6802  0.1498
  628TMC3     H 9304   1.050   1.451  14.760  0.9572  0.5148  0.1129
  628TMC3    H1 9305   0.781   1.624  14.489 -0.6869  0.0935  0.5632
  628TMC3    H2 9306   0.809   1.755  14.900 -0.4180  1.9726 -0.8458
  628TMC3    C7 9307   0.658   1.765  14.685  0.0331  0.1277  1.2800
  628TMC3    C8 9308   1.021   1.620  14.967  0.0648  1.2001  0.2143
  628TMC3    O1 9309   0.603   1.793  14.790  0.6001  0.3545  0.1069
  628TMC3    O2 9310   0.967   1.691  15.054 -0.6155 -0.3374 -0.5659
  629MPD2     C 9311   3.233   4.554  16.373  0.1388  0.6592  0.2073
  629MPD2    C1 9312   3.267   4.567  16.241 -0.8595  0.2548 -0.0092
  629MPD2    C2 9313   3.172   4.593  16.139  1.1898  0.3520 -0.0922
  629MPD2    C3 9314   3.044   4.609  16.175 -0.2555 -0.5169  0.2180
  629MPD2    C4 9315   3.005   4.608  16.309  0.2939 -0.1359  0.1952
  629MPD2    C5 9316   3.107   4.593  16.414  0.5433 -0.2893 -0.5446
  629MPD2     H 9317   3.207   4.613  16.039 -0.6598 -0.1448 -0.8359
  629MPD2    H1 9318   2.900   4.624  16.331  0.4449 -1.4769  1.9166
  629MPD2    H2 9319   3.302   4.529  16.453  1.9826  1.8701 -1.0504
  629MPD2    H3 9320   3.098   4.604  16.521  2.0049  2.2349 -0.6779
  629MPD2     N 9321   2.952   4.625  16.077 -0.2369 -0.0653  0.3803
  629MPD2    H5 9322   2.983   4.594  15.985 -0.8910  1.5274 -0.3695
  629MPD2    N1 9323   3.409   4.577  16.216  0.3769  0.3786  0.5851
  629MPD2    H7 9324   3.472   4.569  16.295 -2.5704 -0.0618  2.8985
  630TMC3    C1 9325   3.616   4.607  16.120  0.5582 -0.6622  0.5271
  630TMC3    C2 9326   3.687   4.672  16.027 -0.4533 -0.3484 -0.2454
  630TMC3    C3 9327   3.822   4.640  16.011  0.3187  0.4920  0.0383
  630TMC3    C4 9328   3.665   4.502  16.191  0.3771 -0.4525 -0.5355
  630TMC3    C5 9329   3.793   4.468  16.170  0.3535  0.4069 -0.3680
  630TMC3    C6 9330   3.873   4.531  16.078 -0.2579  0.1761  0.1784
  630TMC3     C 9331   3.475   4.619  16.103  0.4709 -0.8518  0.7148
  630TMC3     O 9332   3.438   4.640  15.990  0.1937 -0.9292 -0.7244
  630TMC3     H 9333   3.633   0.028  15.972 -1.0760 -0.2093  0.5620
  630TMC3    H1 9334   3.608   4.435  16.253  0.0897  1.3239  1.1075
  630TMC3    H2 9335   3.978   4.507  16.067 -0.5089 -1.9137  2.2948
  630TMC3    C7 9336   3.857   4.425  16.289 -0.8646  0.7344 -0.1398
  630TMC3    C8 9337   3.914   0.026  16.040  0.6259 -0.3609  0.0121
  630TMC3    O1 9338   3.802   4.341  16.365 -0.0275 -0.0207 -0.0054
  630TMC3    O2 9339   3.988   4.719  16.135 -0.7039 -0.3819  0.5716
  631MPD2     C 9340   1.535   4.019  15.452 -0.9251 -0.0198 -0.4468
  631MPD2    C1 9341   1.558   4.127  15.370  0.3227 -0.1759  0.0902
  631MPD2    C2 9342   1.654   4.129  15.271 -0.3649  0.5168 -0.5113
  631MPD2    C3 9343   1.745   4.022  15.277 -0.1257 -0.5587 -0.6289
  631MPD2    C4 9344   1.726   3.907  15.353 -0.1807  0.7062 -0.1549
  631MPD2    C5 9345   1.625   3.910  15.440 -0.2672  0.0714  1.0867
  631MPD2     H 9346   1.659   4.219  15.210 -1.0222 -0.7430 -2.4113
  631MPD2    H1 9347   1.788   3.818  15.360 -0.3266  0.7067  1.0851
  631MPD2    H2 9348   1.447   4.012  15.516  0.2794  0.0323  1.2317
  631MPD2    H3 9349   1.601   3.826  15.504  2.1862 -1.4337  0.0419
  631MPD2     N 9350   1.865   4.039  15.193  0.3878 -1.0635  0.4128
  631MPD2    H5 9351   1.882   4.129  15.150  1.1580 -0.4569  2.0095
  631MPD2    N1 9352   1.450   4.224  15.369  0.0636  0.2996 -0.2681
  631MPD2    H7 9353   1.409   4.250  15.458 -1.9433  0.1099 -1.1254
  632TMC3    C1 9354   1.361   4.425  15.269 -0.6976  0.2821 -0.1074
  632TMC3    C2 9355   1.307   4.476  15.385  0.6572  1.1917  0.4802
  632TMC3    C3 9356   1.253   4.599  15.387 -0.0033 -0.1767 -0.8354
  632TMC3    C4 9357   1.367   4.501  15.151  0.1692 -0.1455 -0.4730
  632TMC3    C5 9358   1.322   4.631  15.166  0.7274 -0.0836 -1.2514
  632TMC3    C6 9359   1.269   4.683  15.278  0.6117  0.5132  0.2909
  632TMC3     C 9360   1.422   4.302  15.257  0.5195  0.6659  0.3957
  632TMC3     O 9361   1.442   4.276  15.139 -0.2065  0.0283  0.3213
  632TMC3     H 9362   1.295   4.414  15.473  0.1289  1.7540  0.8110
  632TMC3    H1 9363   1.394   4.464  15.053 -2.5514  0.9984 -1.6580
  632TMC3    H2 9364   1.251   0.069  15.286 -1.1376  0.4070 -2.2330
  632TMC3    C7 9365   1.371   4.719  15.068  0.2672 -0.7518  0.7940
  632TMC3    C8 9366   1.192   4.656  15.511 -0.6189 -0.2363 -0.0212
  632TMC3    O1 9367   1.370   4.673  14.953  0.3399  0.3248  0.6033
  632TMC3    O2 9368   1.226   4.601  15.616  0.3344  0.0682 -0.2108
  633MPD2     C 9369   1.350   2.138  17.118  0.0291 -0.9037 -0.1603
  633MPD2    C1 9370   1.413   2.078  17.008  0.3047  0.5435  0.3487
  633MPD2    C2 9371   1.467   1.955  17.014 -0.6613  0.0945 -0.3146
  633MPD2    C3 9372   1.478   1.888  17.138  0.2034 -0.0062 -0.0647
  633MPD2    C4 9373   1.418   1.945  17.249 -0.9162 -0.3498  0.2412
  633MPD2    C5 9374   1.359   2.065  17.233 -0.4267 -0.7928 -0.3189
  633MPD2     H 9375   1.522   1.920  16.927 -1.8857 -0.1591 -0.9826
  633MPD2    H1 9376   1.422   1.904  17.349  0.1130  0.0362  0.3567
  633MPD2    H2 9377   1.289   2.227  17.121  0.3174 -0.6782 -1.2789
  633MPD2    H3 9378   1.319   2.116  17.319  1.7141  0.7650 -0.2708
  633MPD2     N 9379   1.556   1.775  17.158 -0.0284 -0.6221 -0.2265
  633MPD2    H5 9380   1.572   1.753  17.256 -1.0679  1.9120  0.5086
  633MPD2    N1 9381   1.425   2.144  16.884  0.5980  0.8460  0.4738
  633MPD2    H7 9382   1.475   2.095  16.809 -0.4185  0.8765 -0.2284
  634TMC3    C1 9383   1.437   2.314  16.739 -0.2692 -0.7059 -0.5967
  634TMC3    C2 9384   1.525   2.233  16.664  0.4886  0.2730 -0.6257
  634TMC3    C3 9385   1.580   2.286  16.549  0.3653  0.4047  0.8927
  634TMC3    C4 9386   1.406   2.440  16.702  0.5881  0.9741 -0.3697
  634TMC3    C5 9387   1.483   2.492  16.597  0.2741 -0.0798  0.3224
  634TMC3    C6 9388   1.564   2.413  16.523 -0.3024  0.3539 -0.3428
  634TMC3     C 9389   1.371   2.269  16.858 -0.6785 -0.3111 -0.2208
  634TMC3     O 9390   1.311   2.350  16.931  0.1727 -0.2800  0.2707
  634TMC3     H 9391   1.550   2.130  16.687  0.8254  0.2993 -0.8662
  634TMC3    H1 9392   1.331   2.502  16.749 -0.1147 -0.4030  0.3272
  634TMC3    H2 9393   1.614   2.450  16.435  0.7094  0.3793  0.2376
  634TMC3    C7 9394   1.474   2.633  16.554  0.8373 -0.0577 -0.0880
  634TMC3    C8 9395   1.671   2.196  16.490  0.3943  0.1968 -0.0010
  634TMC3    O1 9396   1.518   2.654  16.445 -0.0150 -0.3399 -0.6807
  634TMC3    O2 9397   1.739   2.116  16.559  0.0557  0.9140 -0.2968
  635TMC3    C1 9398   2.502   3.659   0.663 -0.3156  0.5225  0.5384
  635TMC3    C2 9399   2.501   3.757   0.761 -0.0836 -0.5179 -0.1473
  635TMC3    C3 9400   2.573   3.733   0.871  0.5308 -0.5694 -0.0448
  635TMC3    C4 9401   2.583   3.543   0.662 -0.7291 -0.0245  0.3055
  635TMC3    C5 9402   2.641   3.524   0.784  0.1207  0.3256 -0.7794
  635TMC3    C6 9403   2.642   3.617   0.881  0.3275 -1.1367 -0.1012
  635TMC3     C 9404   2.421   3.685   0.548  0.5015  0.0364 -0.3345
  635TMC3     O 9405   2.429   3.801   0.511  0.1363 -0.3689  0.4687
  635TMC3     H 9406   2.444   3.849   0.759 -0.2099 -0.6287 -1.6420
  635TMC3    H1 9407   2.563   3.460   0.596  0.0935  0.3062 -0.3556
  635TMC3    H2 9408   2.677   3.594   0.981  0.2154 -1.3436 -0.1078
  635TMC3    C7 9409   2.715   3.400   0.813  0.4613 -0.5616  0.1712
  635TMC3    C8 9410   2.627   3.842   0.952 -0.5547 -0.5036 -0.0803
  635TMC3    O1 9411   2.772   3.401   0.922 -0.1772  0.2000  0.5478
  635TMC3    O2 9412   2.741   3.826   0.995  0.6351 -0.2353  0.3665
  636MPD2     C 9413   2.548   2.754  15.592 -0.7836  0.5705 -0.2392
  636MPD2    C1 9414   2.580   2.811  15.718 -0.2964 -0.2674 -0.2231
  636MPD2    C2 9415   2.605   2.726  15.824  0.4159  0.5717  0.4419
  636MPD2    C3 9416   2.586   2.592  15.817  0.3120  0.6668 -0.1792
  636MPD2    C4 9417   2.535   2.532  15.697 -0.1954  0.2249 -0.4677
  636MPD2    C5 9418   2.519   2.618  15.587  0.7377 -0.4414 -0.3597
  636MPD2     H 9419   2.634   2.768  15.920  1.9898 -0.4407  0.4148
  636MPD2    H1 9420   2.500   2.431  15.681 -0.5219  0.2566  0.0683
  636MPD2    H2 9421   2.537   2.813  15.502  0.2257  1.1340 -0.0018
  636MPD2    H3 9422   2.479   2.583  15.492 -1.2764 -1.4785  0.8815
  636MPD2     N 9423   2.630   2.510  15.925  0.1952  0.6882 -0.0732
  636MPD2    H5 9424   2.681   2.544  16.005 -0.5652  1.2400  0.1829
  636MPD2    N1 9425   2.611   2.948  15.737  0.1938 -0.8605  0.1617
  636MPD2    H7 9426   2.632   2.975  15.832 -0.5308 -2.1286  0.6804
  637TMC3    C1 9427   2.707   2.324  16.045 -1.0265  0.9668  0.0021
  637TMC3    C2 9428   2.679   2.393  16.157 -0.0941 -0.3149  0.4496
  637TMC3    C3 9429   2.738   2.358  16.278  0.2547  0.2950  0.6747
  637TMC3    C4 9430   2.813   2.234  16.050 -0.6954  0.0886 -0.3072
  637TMC3    C5 9431   2.884   2.213  16.165 -0.3124 -0.2291  0.0730
  637TMC3    C6 9432   2.843   2.260  16.281  0.0060 -0.2189 -0.1672
  637TMC3     C 9433   2.651   2.373  15.925 -0.0644 -0.0360 -0.3805
  637TMC3     O 9434   2.621   2.279  15.853 -0.2938  0.6998  0.6160
  637TMC3     H 9435   2.600   2.468  16.155  2.1370  2.0395  0.8153
  637TMC3    H1 9436   2.845   2.179  15.962  0.8189  0.6345 -0.0935
  637TMC3    H2 9437   2.894   2.223  16.370  0.3121  0.7384  0.0558
  637TMC3    C7 9438   2.965   2.091  16.170 -0.4965  0.5280 -0.0517
  637TMC3    C8 9439   2.754   2.466  16.366  1.6420  0.0671  0.3943
  637TMC3    O1 9440   2.923   2.012  16.252 -0.2506  0.4735  0.3903
  637TMC3    O2 9441   2.712   2.570  16.325 -0.2356 -0.2314  0.7148
  638MPD2     C 9442   3.255   1.187  14.919  0.5548  0.3532 -0.0475
  638MPD2    C1 9443   3.214   1.056  14.906 -0.5717  0.0951 -0.2804
  638MPD2    C2 9444   3.119   0.997  14.985 -0.0956  0.1736 -0.4340
  638MPD2    C3 9445   3.053   1.075  15.082  0.3814 -0.1305 -1.0046
  638MPD2    C4 9446   3.091   1.207  15.097 -0.1683 -0.3472  0.6822
  638MPD2    C5 9447   3.195   1.260  15.022  0.9984 -0.1484  0.2599
  638MPD2     H 9448   3.098   0.891  14.977  0.1687  0.3908 -4.0023
  638MPD2    H1 9449   3.051   1.269  15.177 -0.1116  3.6431 -2.3839
  638MPD2    H2 9450   3.337   1.224  14.859 -1.3178 -0.7331 -3.2601
  638MPD2    H3 9451   3.221   1.363  15.040 -0.6371  0.5733 -1.5688
  638MPD2     N 9452   2.938   1.014  15.148  0.5697  0.1474  0.3855
  638MPD2    H5 9453   2.931   0.913  15.137 -2.0458  0.2592  1.0425
  638MPD2    N1 9454   3.281   0.983  14.804  0.0005  0.4753 -0.4970
  638MPD2    H7 9455   3.363   1.032  14.770 -1.1092  2.0108 -0.9570
  639TMC3    C1 9456   2.764   0.976  15.284 -0.2887 -0.6361 -0.5999
  639TMC3    C2 9457   2.641   0.977  15.226  0.7388 -0.0998  0.2839
  639TMC3    C3 9458   2.599   0.859  15.178  0.2621 -0.2851 -0.5658
  639TMC3    C4 9459   2.844   0.863  15.293 -0.1933  0.2137  0.2083
  639TMC3    C5 9460   2.807   0.750  15.229  0.0659  0.5080 -0.0890
  639TMC3    C6 9461   2.682   0.748  15.174 -0.3213  0.1990  0.0415
  639TMC3     C 9462   2.845   1.082  15.220  0.1511  0.6872 -0.7496
  639TMC3     O 9463   2.827   1.200  15.239 -0.1232  0.1322 -0.0879
  639TMC3     H 9464   2.581   1.067  15.232 -0.9771 -1.3114  1.2199
  639TMC3    H1 9465   2.927   0.855  15.362 -1.2775 -0.3634  1.4432
  639TMC3    H2 9466   2.647   0.655  15.130 -0.3316 -0.4101  1.3267
  639TMC3    C7 9467   2.901   0.696  15.136  0.2264  0.5975  0.0822
  639TMC3    C8 9468   2.506   0.861  15.065 -0.8853 -0.1757 -0.1675
  639TMC3    O1 9469   2.863   0.644  15.032 -0.5621 -0.0420  0.2531
  639TMC3    O2 9470   2.538   0.791  14.970 -0.0373 -0.0208  0.0740
  640MPD2     C 9471   4.162   0.395   9.966  0.5667  0.1092  0.2810
  640MPD2    C1 9472   4.034   0.353   9.928  0.2796 -0.0703 -0.4393
  640MPD2    C2 9473   3.932   0.436   9.965  0.1588 -0.0930  0.8708
  640MPD2    C3 9474   3.952   0.553  10.039 -0.4743 -1.0848 -0.3761
  640MPD2    C4 9475   4.080   0.588  10.080  0.7668 -0.4174  0.2553
  640MPD2    C5 9476   4.179   0.501  10.049 -0.2483 -0.0705 -0.4719
  640MPD2     H 9477   3.836   0.409   9.924 -0.1282 -0.1708  1.5826
  640MPD2    H1 9478   4.093   0.678  10.140  0.3803 -0.9409  1.1249
  640MPD2    H2 9479   4.250   0.344   9.929 -0.0927  0.1738 -1.3486
  640MPD2    H3 9480   4.276   0.536  10.083  0.2643 -0.5724 -1.4128
  640MPD2     N 9481   3.848   0.644  10.078  0.3188 -0.2252  0.2993
  640MPD2    H5 9482   3.871   0.734  10.118 -2.9550 -0.0935  1.8252
  640MPD2    N1 9483   4.026   0.249   9.829  0.0480  0.0949 -0.8227
  640MPD2    H7 9484   4.106   0.187   9.823 -1.4004 -2.0905  2.8928
  641TMC3    C1 9485   3.950   0.125   9.639  0.0208 -0.1311  0.1329
  641TMC3    C2 9486   4.005   0.006   9.685 -0.0928  0.2538  0.7149
  641TMC3    C3 9487   3.981   4.609   9.612 -0.3195  0.2814 -0.1323
  641TMC3    C4 9488   3.876   0.123   9.524  0.9511 -0.0183  0.8139
  641TMC3    C5 9489   3.862   0.009   9.456  0.2687  0.1783 -0.1660
  641TMC3    C6 9490   3.917   4.611   9.496  0.4312 -0.1947 -0.5323
  641TMC3     C 9491   3.925   0.231   9.735 -0.0371  0.0500  0.6433
  641TMC3     O 9492   3.820   0.290   9.724  0.5086 -0.5551 -0.5187
  641TMC3     H 9493   4.069   0.005   9.773  1.3741 -0.6141 -0.3591
  641TMC3    H1 9494   3.838   0.215   9.482  2.9322  0.4045 -0.0558
  641TMC3    H2 9495   3.902   4.524   9.433  0.3946 -0.4668 -0.1508
  641TMC3    C7 9496   3.831   0.027   9.313 -0.7744  0.1790 -0.3546
  641TMC3    C8 9497   4.060   4.489   9.635 -0.9322  0.5310 -0.2526
  641TMC3    O1 9498   3.884   4.665   9.239 -0.2347  0.4325  0.0815
  641TMC3    O2 9499   4.081   4.424   9.535  0.0515 -0.4457  0.3479
  642TMC3    C1 9500   4.336   1.851  11.631 -0.1496  0.1579 -0.3139
  642TMC3    C2 9501   4.307   1.900  11.762 -0.0949  0.3820 -0.3061
  642TMC3    C3 9502   4.315   1.816  11.863  0.4874  0.2344  0.4428
  642TMC3    C4 9503   4.403   1.731  11.628 -0.3895 -0.2548  0.3169
  642TMC3    C5 9504   4.430   1.661  11.739 -0.2363 -0.0152 -0.1332
  642TMC3    C6 9505   4.373   1.692  11.859  0.3732 -0.4596  0.0044
  642TMC3     C 9506   4.225   1.855  11.541 -0.1499 -0.2995  0.1990
  642TMC3     O 9507   4.236   1.795  11.438 -0.2188  0.4993 -0.4082
  642TMC3     H 9508   4.250   1.991  11.775  0.8048  0.6430  1.8845
  642TMC3    H1 9509   4.433   1.689  11.533  1.2394  2.7454 -0.4885
  642TMC3    H2 9510   4.389   1.629  11.945 -0.0585  1.5423  1.5495
  642TMC3    C7 9511   4.483   1.522  11.725 -0.3513 -0.0299  0.1518
  642TMC3    C8 9512   4.201   1.828  11.950 -0.1842 -0.1196 -0.3189
  642TMC3    O1 9513   4.490   1.478  11.609  0.1386 -0.2068  0.1765
  642TMC3    O2 9514   4.099   1.878  11.904  0.1506 -0.6326  0.4720
  643TMC3    C1 9515   3.217   1.128   0.147 -0.4256 -0.5366  0.0111
  643TMC3    C2 9516   3.109   1.079   0.074 -0.1419 -0.0539  0.4982
  643TMC3    C3 9517   3.058   0.959   0.117  0.0581 -0.6192  0.0368
  643TMC3    C4 9518   3.248   1.088   0.271  0.5081 -0.0146 -0.1708
  643TMC3    C5 9519   3.181   0.977   0.321  0.5140 -0.1117  0.1183
  643TMC3    C6 9520   3.096   0.911   0.241 -1.1266 -0.1419  0.1268
  643TMC3     C 9521   3.265   1.258   0.099  0.2651  0.5257  0.6766
  643TMC3     O 9522   3.208   1.311   0.008 -0.0779 -0.2042 -0.1107
  643TMC3     H 9523   3.087   1.117  17.660 -0.7794 -0.0972  0.6214
  643TMC3    H1 9524   3.316   1.144   0.334 -0.5380  0.4504  0.5576
  643TMC3    H2 9525   3.050   0.820   0.276 -1.0727 -0.4619 -0.6252
  643TMC3    C7 9526   3.247   0.920   0.441 -0.7075 -0.5779 -0.0101
  643TMC3    C8 9527   2.995   0.866   0.023 -0.6321 -0.0046 -0.4143
  643TMC3    O1 9528   3.290   1.006   0.517 -0.0464 -0.2792  0.2256
  643TMC3    O2 9529   2.974   0.751   0.065 -0.2160  0.1181 -0.0346
  644MPD2     C 9530   3.602   1.120   9.295  0.5916 -0.0450  0.1192
  644MPD2    C1 9531   3.642   0.991   9.267 -0.7032  0.4169 -0.7311
  644MPD2    C2 9532   3.545   0.892   9.246  0.0484 -0.9576  0.0255
  644MPD2    C3 9533   3.414   0.928   9.239  0.3275  0.2886  0.0279
  644MPD2    C4 9534   3.374   1.060   9.273  0.2770  0.3133 -0.0396
  644MPD2    C5 9535   3.467   1.154   9.308  0.2461 -0.4321  0.2562
  644MPD2     H 9536   3.569   0.787   9.231 -1.1971 -1.0164 -1.5092
  644MPD2    H1 9537   3.273   1.097   9.271  0.2724  0.3283  0.4088
  644MPD2    H2 9538   3.673   1.201   9.307  0.4559  0.0792  0.0929
  644MPD2    H3 9539   3.433   1.255   9.327 -0.7688 -0.9713  1.2813
  644MPD2     N 9540   3.322   0.825   9.190  0.0419 -0.3999 -0.2727
  644MPD2    H5 9541   3.338   0.725   9.187 -1.3256 -0.6551  0.8469
  644MPD2    N1 9542   3.781   0.958   9.273  0.3408  0.6241 -0.4680
  644MPD2    H7 9543   3.851   1.019   9.313 -0.3936 -0.0582  1.8783
  645TMC3    C1 9544   3.126   0.717   9.109  0.0607  0.1506  0.2525
  645TMC3    C2 9545   2.989   0.724   9.077  0.1594  0.6434 -0.1104
  645TMC3    C3 9546   2.928   0.626   9.003 -0.3775  0.6875 -0.1720
  645TMC3    C4 9547   3.202   0.612   9.068  0.3326  0.4916 -0.0357
  645TMC3    C5 9548   3.138   0.516   8.998 -0.0977  0.0028  0.6220
  645TMC3    C6 9549   3.012   0.531   8.957  0.3805 -0.3427  0.6238
  645TMC3     C 9550   3.187   0.843   9.157 -0.1044  0.4319  0.0022
  645TMC3     O 9551   3.125   0.946   9.144 -0.7142  0.4095 -0.1117
  645TMC3     H 9552   2.927   0.806   9.110 -1.3608 -0.7048  0.3381
  645TMC3    H1 9553   3.306   0.600   9.097 -0.2435  0.7172  2.0989
  645TMC3    H2 9554   2.972   0.450   8.897 -0.6466  0.0205  0.8268
  645TMC3    C7 9555   3.219   0.409   8.935 -0.3310 -0.0593  0.4209
  645TMC3    C8 9556   2.785   0.616   9.010 -0.6401 -0.3003 -0.2506
  645TMC3    O1 9557   3.337   0.439   8.906 -0.3831  0.2553  0.0735
  645TMC3    O2 9558   2.733   0.541   8.924 -0.2544 -0.0656  0.8107
  646MPD2     C 9559   2.781   0.255  14.323  0.2279  0.0595  0.0942
  646MPD2    C1 9560   2.673   0.195  14.381 -0.5738  0.0089 -0.1925
  646MPD2    C2 9561   2.554   0.264  14.381  0.2456 -0.8376  0.0634
  646MPD2    C3 9562   2.530   0.376  14.313  0.0064 -0.0885 -0.3075
  646MPD2    C4 9563   2.642   0.439  14.264  0.3439  0.3206 -0.2553
  646MPD2    C5 9564   2.764   0.376  14.272 -0.0029 -0.0598 -0.1923
  646MPD2     H 9565   2.471   0.210  14.425 -0.0775 -2.6898 -2.8580
  646MPD2    H1 9566   2.647   0.538  14.219  1.0547  0.6856  0.6228
  646MPD2    H2 9567   2.880   0.219  14.350  0.1293 -1.1758 -1.1480
  646MPD2    H3 9568   2.848   0.435  14.238  1.3527 -1.6029  0.5138
  646MPD2     N 9569   2.405   0.449  14.312  0.4061 -0.1492 -0.4432
  646MPD2    H5 9570   2.407   0.536  14.259  0.1976  0.2072  0.1325
  646MPD2    N1 9571   2.692   0.076  14.451  0.1957 -0.5205  0.2179
  646MPD2    H7 9572   2.787   0.041  14.448  0.1916 -0.4922 -0.1388
  647TMC3    C1 9573   2.664   4.619  14.596  0.1380  1.2579  0.3654
  647TMC3    C2 9574   2.622   4.584  14.728  0.4120 -0.5464 -0.1131
  647TMC3    C3 9575   2.708   4.501  14.789 -0.2875  0.3495 -0.1177
  647TMC3    C4 9576   2.769   4.557  14.532 -0.4660  0.4217  0.5073
  647TMC3    C5 9577   2.848   4.472  14.606  0.1103  0.0509  0.3883
  647TMC3    C6 9578   2.821   4.445  14.734 -0.0477  0.1850 -0.7412
  647TMC3     C 9579   2.609   0.025  14.547  0.9189  0.1616  0.2761
  647TMC3     O 9580   2.505   0.066  14.597  0.1585 -0.4359  0.0919
  647TMC3     H 9581   2.554   4.641  14.791  1.2145 -0.0806  0.3281
  647TMC3    H1 9582   2.767   4.554  14.424  0.8957  0.8038  0.4703
  647TMC3    H2 9583   2.886   4.378  14.789 -0.8325 -0.2269 -0.2981
  647TMC3    C7 9584   2.915   4.366  14.529 -0.2466  0.0493 -0.2397
  647TMC3    C8 9585   2.680   4.462  14.926  0.1385  0.1978  0.0346
  647TMC3    O1 9586   2.857   4.336  14.420  0.0707 -0.1049 -0.4384
  647TMC3    O2 9587   2.732   4.361  14.957  0.1932 -0.4273  0.4229
  648TMC3    C1 9588   2.046   2.598  15.948  0.4415 -0.4323 -0.3846
  648TMC3    C2 9589   2.095   2.487  15.900  0.6751  0.1533 -0.6077
  648TMC3    C3 9590   2.102   2.481  15.759 -0.1847 -0.0240 -0.3496
  648TMC3    C4 9591   1.981   2.695  15.874 -0.5422 -0.1331 -0.0041
  648TMC3    C5 9592   1.976   2.680  15.735  0.8250  0.5730 -0.0018
  648TMC3    C6 9593   2.045   2.579  15.681 -0.9250  0.0973 -0.2447
  648TMC3     C 9594   2.039   2.619  16.090  0.9077 -0.1107  1.4880
  648TMC3     O 9595   2.030   2.734  16.131 -0.3579 -0.4612  0.6212
  648TMC3     H 9596   2.157   2.431  15.970 -1.2072 -0.6631  0.3934
  648TMC3    H1 9597   1.949   2.790  15.916 -1.1427  0.4649 -1.8142
  648TMC3    H2 9598   2.051   2.579  15.572  0.6779 -3.5384 -0.1407
  648TMC3    C7 9599   1.895   2.766  15.644  0.6387 -0.0327  0.4939
  648TMC3    C8 9600   2.171   2.367  15.707 -0.2304 -0.7192 -0.5508
  648TMC3    O1 9601   1.903   2.744  15.527  0.0456  0.1451 -0.1242
  648TMC3    O2 9602   2.213   2.370  15.593  0.5437  0.1621  0.5152
  649TMC3    C1 9603   0.404   3.915  12.772 -0.3598  0.1219  0.1647
  649TMC3    C2 9604   0.490   4.018  12.786  0.1893 -0.3506 -0.5872
  649TMC3    C3 9605   0.591   3.999  12.870  0.1823 -0.8187 -0.5856
  649TMC3    C4 9606   0.412   3.796  12.844 -0.6388 -0.3959  0.6723
  649TMC3    C5 9607   0.523   3.783  12.928 -0.1669 -0.1928  0.6086
  649TMC3    C6 9608   0.615   3.881  12.938  0.8060  0.3235 -0.0349
  649TMC3     C 9609   0.265   3.941  12.755 -0.4669 -0.2498 -0.7945
  649TMC3     O 9610   0.215   4.036  12.812 -0.7537 -0.5292  0.6423
  649TMC3     H 9611   0.482   4.116  12.742 -1.9204  0.6911  2.0804
  649TMC3    H1 9612   0.319   3.747  12.871 -0.9803 -0.3561 -0.4356
  649TMC3    H2 9613   0.700   3.865  13.004 -0.6223  0.2533  1.7739
  649TMC3    C7 9614   0.515   3.692  13.039 -0.3566  0.4852 -0.4934
  649TMC3    C8 9615   0.656   4.127  12.919  0.0410 -0.1548 -0.2156
  649TMC3    O1 9616   0.574   3.724  13.140  0.7672 -0.6105 -0.0859
  649TMC3    O2 9617   0.606   4.226  12.874 -0.0885 -0.1002  0.2576
  650TMC3    C1 9618   3.522   1.009  12.369  0.4012  1.5421  0.1320
  650TMC3    C2 9619   3.501   1.147  12.357 -0.2096 -0.6185 -0.2396
  650TMC3    C3 9620   3.388   1.192  12.301  0.0599 -0.6296  0.6922
  650TMC3    C4 9621   3.442   0.917  12.303 -0.4945  0.2782 -0.0985
  650TMC3    C5 9622   3.331   0.978  12.238  0.1146 -0.6518 -0.6214
  650TMC3    C6 9623   3.302   1.112  12.232  0.4853 -0.7904  0.3788
  650TMC3     C 9624   3.643   0.967  12.444  0.1290 -0.1370  0.1313
  650TMC3     O 9625   3.727   1.052  12.462  0.1121 -0.9265 -0.3400
  650TMC3     H 9626   3.573   1.220  12.393 -1.7828  0.2185  1.1968
  650TMC3    H1 9627   3.469   0.812  12.299 -0.1577  0.3522  0.1741
  650TMC3    H2 9628   3.221   1.161  12.179  2.6379  1.0703 -1.1941
  650TMC3    C7 9629   3.267   0.896  12.141 -0.4002  0.0020 -0.7505
  650TMC3    C8 9630   3.380   1.331  12.276  0.2552 -0.2161 -0.1752
  650TMC3    O1 9631   3.277   0.773  12.151  0.2409 -0.0377  0.6576
  650TMC3    O2 9632   3.480   1.386  12.242  0.7742 -0.6082 -0.6335
  651MPD2     C 9633   2.717   2.655  10.697 -0.2847  0.8899 -0.0973
  651MPD2    C1 9634   2.689   2.779  10.740  0.8291  0.5133 -0.0780
  651MPD2    C2 9635   2.772   2.881  10.710  0.2154 -0.2012 -0.1501
  651MPD2    C3 9636   2.889   2.865  10.632 -0.1073 -0.1515  0.0298
  651MPD2    C4 9637   2.912   2.737  10.583 -0.0537  0.7254 -0.2387
  651MPD2    C5 9638   2.832   2.633  10.623  0.9031  0.0940  0.7704
  651MPD2     H 9639   2.744   2.984  10.728 -0.9599 -0.6567  0.6148
  651MPD2    H1 9640   2.989   2.724  10.508 -0.6718  1.5597 -1.0237
  651MPD2    H2 9641   2.652   2.570  10.714  1.4611 -0.6997 -1.2903
  651MPD2    H3 9642   2.864   2.537  10.586 -0.6941  0.2706 -1.1091
  651MPD2     N 9643   2.971   2.974  10.601 -0.3195  0.0280  0.4566
  651MPD2    H5 9644   2.946   3.060  10.648  0.0717  0.4333 -0.0783
  651MPD2    N1 9645   2.564   2.814  10.806  0.1651  0.1269  0.1992
  651MPD2    H7 9646   2.540   2.913  10.807 -1.1291 -0.1635 -1.7547
  652TMC3    C1 9647   3.357   3.198  10.482 -0.3349  0.1040  0.3119
  652TMC3    C2 9648   3.278   3.091  10.461 -0.6260  0.0332 -0.8823
  652TMC3    C3 9649   3.160   3.091  10.526 -0.1434 -0.4053  0.0705
  652TMC3    C4 9650   3.328   3.301  10.560  0.0552  0.0307 -1.0226
  652TMC3    C5 9651   3.203   3.308  10.615  0.1471  0.0455  0.3316
  652TMC3    C6 9652   3.120   3.201  10.606  0.3522 -0.1255  0.2799
  652TMC3     C 9653   3.492   3.162  10.523 -0.6805  0.5296 -0.2094
  652TMC3     O 9654   3.499   3.054  10.591  0.0612  0.2666 -1.0636
  652TMC3     H 9655   3.301   3.016  10.387  1.4690  1.1453 -1.3552
  652TMC3    H1 9656   3.411   3.364  10.588  0.5985 -1.1795  0.1096
  652TMC3    H2 9657   3.020   3.215  10.647  0.5547 -1.9614  1.4298
  652TMC3    C7 9658   3.183   3.382  10.741  0.0594  0.0278 -0.2255
  652TMC3    C8 9659   3.087   2.964  10.527  0.1886 -0.0735 -0.4978
  652TMC3    O1 9660   3.102   3.337  10.820  0.1979 -0.1958 -0.3910
  652TMC3    O2 9661   3.131   2.880  10.441 -0.3904 -0.6631 -0.4990
  653MPD2     C 9662   1.152   2.647  17.600 -0.8835 -1.0534 -0.2584
  653MPD2    C1 9663   1.051   2.679  17.517  1.0604  0.6151  0.1448
  653MPD2    C2 9664   1.005   2.579  17.434  0.0984  0.0749 -0.4188
  653MPD2    C3 9665   1.052   2.453  17.440 -0.6230  0.1154  0.2434
  653MPD2    C4 9666   1.150   2.419  17.529  0.4725  0.8652  0.4557
  653MPD2    C5 9667   1.194   2.516  17.617  0.0795 -0.4125 -0.7387
  653MPD2     H 9668   0.936   2.609  17.356  0.3702  2.1794  0.1421
  653MPD2    H1 9669   1.195   2.320  17.534 -2.1666 -0.3676 -0.3942
  653MPD2    H2 9670   1.201   2.732  17.647  1.6747 -1.4833 -2.1301
  653MPD2    H3 9671   1.258   2.494   0.017 -1.1190 -0.3212  0.1870
  653MPD2     N 9672   1.003   2.370  17.345  0.6075  0.4932 -0.7884
  653MPD2    H5 9673   0.941   2.413  17.277  0.3073  0.8058 -0.3102
  653MPD2    N1 9674   1.007   2.810  17.497  0.3945  0.4094 -0.4750
  653MPD2    H7 9675   0.955   2.844  17.417 -0.0980  2.4333  0.6995
  654TMC3    C1 9676   0.941   2.166  17.238  0.3011  0.0809 -0.8184
  654TMC3    C2 9677   0.822   2.229  17.203 -0.3355  0.3833 -0.1524
  654TMC3    C3 9678   0.754   2.187  17.091 -0.3091  0.7601  0.4784
  654TMC3    C4 9679   0.997   2.058  17.168 -0.2044 -0.3663  0.2180
  654TMC3    C5 9680   0.922   2.016  17.054 -0.1041  0.9890  0.1968
  654TMC3    C6 9681   0.804   2.081  17.015 -0.2420  0.3120 -0.2173
  654TMC3     C 9682   1.033   2.235  17.326  0.2908 -0.4033 -0.4335
  654TMC3     O 9683   1.115   2.163  17.381  0.2270  0.1351  0.1395
  654TMC3     H 9684   0.766   2.305  17.257 -0.2511  2.2816 -2.7285
  654TMC3    H1 9685   1.096   2.022  17.194 -0.4484 -1.3861 -0.3018
  654TMC3    H2 9686   0.753   2.055  16.923 -1.7245  0.1137  0.6638
  654TMC3    C7 9687   0.977   1.918  16.960 -0.2271  0.0272 -1.2538
  654TMC3    C8 9688   0.642   2.267  17.047 -0.1477 -0.0000  0.3550
  654TMC3    O1 9689   0.926   1.926  16.851 -0.2906 -0.1611 -0.1532
  654TMC3    O2 9690   0.614   2.366  17.115  0.0594  0.2257  0.0693
  655MPD2     C 9691   2.201   3.199  15.709 -0.9323 -0.0923  0.3093
  655MPD2    C1 9692   2.101   3.264  15.634 -0.7531 -0.4629 -0.3923
  655MPD2    C2 9693   2.065   3.209  15.512  0.1076  0.2414 -0.4952
  655MPD2    C3 9694   2.114   3.088  15.465 -0.1530 -0.4397  0.1924
  655MPD2    C4 9695   2.210   3.027  15.539 -0.0611 -0.1164  0.3922
  655MPD2    C5 9696   2.258   3.084  15.657  0.2918 -0.3088 -0.3329
  655MPD2     H 9697   1.994   3.258  15.446  0.7180 -0.1003 -1.4149
  655MPD2    H1 9698   2.247   2.929  15.510  0.1168 -0.0587  0.4219
  655MPD2    H2 9699   2.233   3.242  15.803  1.0541  2.2943 -1.4555
  655MPD2    H3 9700   2.326   3.030  15.722  1.6038  0.8925 -0.7018
  655MPD2     N 9701   2.066   3.026  15.349  0.1292  0.3591 -0.4805
  655MPD2    H5 9702   2.117   2.939  15.340 -0.4924 -0.1216  0.5492
  655MPD2    N1 9703   2.039   3.381  15.680  0.0797  0.3901  0.2218
  655MPD2    H7 9704   1.958   3.404  15.622  1.2374  1.4567 -0.9723
  656TMC3    C1 9705   1.933   3.518  15.819 -0.2438  0.2800 -0.8400
  656TMC3    C2 9706   1.870   3.454  15.918  0.3743  0.1596 -1.0025
  656TMC3    C3 9707   1.743   3.402  15.902  1.0572  0.1157 -0.5224
  656TMC3    C4 9708   1.863   3.534  15.703  0.3429  0.1529  0.0352
  656TMC3    C5 9709   1.740   3.475  15.687 -0.6356 -0.2533  0.3396
  656TMC3    C6 9710   1.676   3.411  15.786 -0.9059 -0.5421 -0.2200
  656TMC3     C 9711   2.057   3.443  15.799  0.5124 -0.3852  0.0731
  656TMC3     O 9712   2.137   3.414  15.890 -0.2660 -0.0590 -0.1836
  656TMC3     H 9713   1.924   3.429  16.009  0.9272  1.4447 -0.9740
  656TMC3    H1 9714   1.911   3.600  15.632  2.3409 -0.7000  0.5982
  656TMC3    H2 9715   1.585   3.352  15.787 -0.7864 -0.7256 -0.5527
  656TMC3    C7 9716   1.677   3.505  15.557  0.0523  0.1140 -0.2718
  656TMC3    C8 9717   1.721   3.278  15.971 -0.3960 -0.1144 -0.4760
  656TMC3    O1 9718   1.752   3.542  15.467  0.2169 -0.1183  0.2876
  656TMC3    O2 9719   1.689   3.182  15.900  0.3296 -0.1870 -0.0627
  657TMC3    C1 9720   1.759   2.260  14.328  0.6113  0.9684 -0.2947
  657TMC3    C2 9721   1.655   2.348  14.323 -0.0652 -0.2328  0.0595
  657TMC3    C3 9722   1.632   2.410  14.197  0.1938  0.2259  0.1623
  657TMC3    C4 9723   1.850   2.253  14.227 -0.0934 -0.3018 -0.5692
  657TMC3    C5 9724   1.827   2.321  14.108 -0.9479  0.6658 -0.3632
  657TMC3    C6 9725   1.724   2.404  14.095 -0.1586  0.1360  0.2002
  657TMC3     C 9726   1.733   2.145  14.414 -0.3242 -0.0729  0.0930
  657TMC3     O 9727   1.614   2.140  14.451  0.9641 -0.5233 -0.1941
  657TMC3     H 9728   1.583   2.346  14.404 -0.9434 -0.2565 -0.7206
  657TMC3    H1 9729   1.922   2.172  14.229  2.9749  2.4006 -1.5087
  657TMC3    H2 9730   1.703   2.442  13.995 -1.6239 -0.0384  0.4437
  657TMC3    C7 9731   1.943   2.341  14.016 -1.2008 -0.2122  0.6059
  657TMC3    C8 9732   1.520   2.497  14.169  0.3556  0.1588 -0.4461
  657TMC3    O1 9733   1.913   2.385  13.904  0.2790 -0.0375 -0.0091
  657TMC3    O2 9734   1.515   2.547  14.060 -0.2900  0.3125 -0.2573
  658MPD2     C 9735   2.506   2.723  15.054  0.4812  0.2983  0.3649
  658MPD2    C1 9736   2.405   2.745  14.961 -0.5109  0.7412  0.5196
  658MPD2    C2 9737   2.442   2.740  14.827  0.1770  0.4283  0.7801
  658MPD2    C3 9738   2.570   2.692  14.785 -0.2219 -0.5033 -0.4357
  658MPD2    C4 9739   2.664   2.671  14.885  0.4214 -0.0778  0.0506
  658MPD2    C5 9740   2.630   2.683  15.019  0.2786 -0.2910 -0.3469
  658MPD2     H 9741   2.380   2.760  14.740 -0.1091 -0.4459  0.7840
  658MPD2    H1 9742   2.769   2.651  14.872  0.8303  2.6993 -0.9768
  658MPD2    H2 9743   2.490   2.712  15.161 -0.2765  3.0133  0.5202
  658MPD2    H3 9744   2.697   2.677  15.104 -1.4686 -0.8203  0.9880
  658MPD2     N 9745   2.586   2.672  14.647 -0.2093 -0.4748  0.1736
  658MPD2    H5 9746   2.514   2.716  14.591 -0.9555  0.0163  1.5288
  658MPD2    N1 9747   2.275   2.784  15.005  0.8095 -0.2286 -0.5732
  658MPD2    H7 9748   2.266   2.810  15.103  1.3911 -0.7798 -0.3732
  659TMC3    C1 9749   2.062   2.869  14.975  0.4143  0.4130  0.9655
  659TMC3    C2 9750   2.070   2.928  15.096 -0.3871  0.4705 -0.4404
  659TMC3    C3 9751   1.953   2.973  15.152 -0.0815 -0.0825 -0.8543
  659TMC3    C4 9752   1.945   2.851  14.916 -0.7616 -0.3882 -0.1037
  659TMC3    C5 9753   1.832   2.907  14.966  0.6761  0.2360  0.1159
  659TMC3    C6 9754   1.834   2.970  15.087 -0.1758 -0.3467  0.5594
  659TMC3     C 9755   2.173   2.798  14.914  0.7191 -0.0293 -0.0734
  659TMC3     O 9756   2.157   2.723  14.815  0.6306  0.3946 -0.0797
  659TMC3     H 9757   2.165   2.956  15.140 -1.4726  0.3557  2.0202
  659TMC3    H1 9758   1.949   2.812  14.815 -1.2815  0.5775 -0.4995
  659TMC3    H2 9759   1.740   2.999  15.133  0.1115  1.5006  0.0013
  659TMC3    C7 9760   1.706   2.842  14.933  0.0928  0.2528  0.0033
  659TMC3    C8 9761   1.964   3.060  15.267 -0.4398 -0.4303  0.3302
  659TMC3    O1 9762   1.610   2.907  14.892  0.2008  0.2783  0.0102
  659TMC3    O2 9763   1.878   3.152  15.284 -0.1521  0.2001 -0.3976
  660MPD2     C 9764   0.829   1.642  12.529 -0.1897  0.7861 -0.4671
  660MPD2    C1 9765   0.708   1.612  12.479 -0.1779  0.1278 -0.0607
  660MPD2    C2 9766   0.611   1.551  12.552 -0.1174 -0.0540  0.6383
  660MPD2    C3 9767   0.630   1.520  12.685 -0.3549 -0.2980  0.1551
  660MPD2    C4 9768   0.755   1.560  12.741 -0.2316 -0.2486 -0.2818
  660MPD2    C5 9769   0.858   1.613  12.665 -0.1225 -0.0291 -0.6928
  660MPD2     H 9770   0.518   1.521  12.504  0.9044 -0.6903 -0.9387
  660MPD2    H1 9771   0.782   1.546  12.845  0.6677 -0.4489 -0.5486
  660MPD2    H2 9772   0.903   1.693  12.469 -1.2661  1.2131 -1.4182
  660MPD2    H3 9773   0.948   1.658  12.705 -0.6233 -0.9571  1.5241
  660MPD2     N 9774   0.537   1.448  12.764 -0.2422 -0.1878 -0.2747
  660MPD2    H5 9775   0.556   1.444  12.864  0.5204  0.2460 -0.4069
  660MPD2    N1 9776   0.681   1.662  12.348  0.3745  0.1523 -0.2358
  660MPD2    H7 9777   0.759   1.708  12.302 -0.3446 -0.3836 -1.9906
  661TMC3    C1 9778   0.569   1.661  12.148 -0.3570  0.0053  0.0092
  661TMC3    C2 9779   0.697   1.640  12.086  0.0850  0.9173  0.0482
  661TMC3    C3 9780   0.692   1.671  11.950  0.3086  0.0267  0.4106
  661TMC3    C4 9781   0.456   1.699  12.081  0.6969  0.4003 -0.5340
  661TMC3    C5 9782   0.472   1.735  11.951  0.8730  0.4916  0.0683
  661TMC3    C6 9783   0.584   1.723  11.880 -1.1370  0.4802 -0.2813
  661TMC3     C 9784   0.557   1.652  12.291 -0.1681  0.6037 -0.3101
  661TMC3     O 9785   0.442   1.635  12.336  0.5213  0.3982  0.0491
  661TMC3     H 9786   0.790   1.608  12.131 -0.9946  0.3676  1.8456
  661TMC3    H1 9787   0.360   1.718  12.126 -0.1195  0.3774 -2.2760
  661TMC3    H2 9788   0.602   1.746  11.776 -2.8548  0.6156 -0.5572
  661TMC3    C7 9789   0.365   1.814  11.884  0.0216  0.6210  0.4001
  661TMC3    C8 9790   0.826   1.694  11.899 -0.2255  0.8197 -0.1364
  661TMC3    O1 9791   0.295   1.879  11.964  0.1526  0.3002  0.5874
  661TMC3    O2 9792   0.912   1.613  11.930 -0.2420 -0.0400  0.2974
  662MPD2     C 9793   1.374   0.729  17.273  0.0647  0.1213 -0.3444
  662MPD2    C1 9794   1.326   0.734  17.407  0.3663  0.3682 -0.3955
  662MPD2    C2 9795   1.275   0.848  17.458 -0.4162 -0.7009  0.1163
  662MPD2    C3 9796   1.263   0.960  17.375  0.0390  0.2763 -0.6396
  662MPD2    C4 9797   1.306   0.954  17.244  0.3030  0.3771  0.1256
  662MPD2    C5 9798   1.370   0.841  17.195 -0.7429  0.7813 -0.5347
  662MPD2     H 9799   1.250   0.850  17.563 -0.2056  1.5567  0.1306
  662MPD2    H1 9800   1.295   1.038  17.177  0.7115  1.5750  1.5516
  662MPD2    H2 9801   1.421   0.641  17.231 -0.8869 -1.3270  1.5901
  662MPD2    H3 9802   1.412   0.841  17.095 -0.0281 -0.6628 -0.2283
  662MPD2     N 9803   1.204   1.072  17.413 -0.3301 -0.2127 -0.1238
  662MPD2    H5 9804   1.191   1.145  17.343  1.0146  1.5550  1.4664
  662MPD2    N1 9805   1.331   0.621  17.493 -0.8461 -0.7201  0.4531
  662MPD2    H7 9806   1.273   0.622  17.577  0.7529  1.5089  1.5351
  663TMC3    C1 9807   1.357   0.393  17.559 -0.2650 -0.2744 -0.8621
  663TMC3    C2 9808   1.311   0.429  17.677 -0.6572 -0.1084  0.2479
  663TMC3    C3 9809   1.222   0.346   0.055  0.2891  0.3451 -0.4925
  663TMC3    C4 9810   1.337   0.275  17.494 -0.0290 -0.3564  0.4989
  663TMC3    C5 9811   1.253   0.185  17.556 -0.3579 -0.7239  0.6654
  663TMC3    C6 9812   1.202   0.220  17.680 -0.1816  0.1150 -0.3098
  663TMC3     C 9813   1.385   0.495  17.458  0.9447  0.4782 -0.0258
  663TMC3     O 9814   1.437   0.458  17.355 -0.3750 -0.3493 -0.4193
  663TMC3     H 9815   1.369   0.505   0.043  0.3189 -0.3703 -0.4830
  663TMC3    H1 9816   1.396   0.242  17.410 -1.6200  0.0210 -0.7737
  663TMC3    H2 9817   1.135   0.148   0.040  0.7449  0.5772  1.8156
  663TMC3    C7 9818   1.183   0.100  17.461 -0.1507 -0.6966 -0.6506
  663TMC3    C8 9819   1.189   0.350   0.203  0.9940  0.6414 -0.2073
  663TMC3    O1 9820   1.228   0.098  17.348 -0.2782  0.4208  0.1860
  663TMC3    O2 9821   1.168   0.242   0.254  0.0694  0.3966  0.0740
  664MPD2     C 9822   3.558   3.851  17.275  0.3503 -0.3375  0.4233
  664MPD2    C1 9823   3.629   3.948  17.348  0.5856 -0.2358 -0.4689
  664MPD2    C2 9824   3.625   3.935  17.485  0.2712 -0.6378 -0.0488
  664MPD2    C3 9825   3.569   3.832  17.552  0.1928  0.8896  0.1997
  664MPD2    C4 9826   3.500   3.738  17.476 -0.2376  0.3024 -0.4459
  664MPD2    C5 9827   3.489   3.747  17.341  0.8746 -0.4829  0.8088
  664MPD2     H 9828   3.666   4.014  17.546  0.4865  0.1243 -1.1893
  664MPD2    H1 9829   3.454   3.651  17.523  1.5954 -0.3174  0.1945
  664MPD2    H2 9830   3.544   3.866  17.168  0.1145 -0.8741  0.3776
  664MPD2    H3 9831   3.435   3.676  17.279 -2.6661  3.0229 -0.1310
  664MPD2     N 9832   3.573   3.834   0.007  0.0813 -0.0976 -0.3121
  664MPD2    H5 9833   3.625   3.913   0.045  0.6231  0.3792 -2.0189
  664MPD2    N1 9834   3.706   4.051  17.299 -0.0380 -0.1713  0.3137
  664MPD2    H7 9835   3.762   4.105  17.365 -0.7163  2.5479 -1.3364
  665TMC3    C1 9836   3.550   3.746   0.222 -0.5237  0.1985  0.0937
  665TMC3    C2 9837   3.465   3.696   0.310 -0.7892  0.1170  0.1671
  665TMC3    C3 9838   3.501   3.722   0.441 -0.0626 -0.2833 -0.3197
  665TMC3    C4 9839   3.667   3.815   0.259  0.5858  0.2157  0.0902
  665TMC3    C5 9840   3.706   3.829   0.391  0.0214  0.3948 -0.0550
  665TMC3    C6 9841   3.615   3.790   0.481 -0.1424  0.2317  0.0300
  665TMC3     C 9842   3.516   3.741   0.091  0.5204  0.9976  0.7303
  665TMC3     O 9843   3.428   3.664   0.063  0.4542 -0.8693 -0.4158
  665TMC3     H 9844   3.369   3.649   0.291 -0.5379 -0.4923  0.4152
  665TMC3    H1 9845   3.734   3.846   0.180  0.3119  0.0054 -0.2233
  665TMC3    H2 9846   3.614   3.841   0.577  2.7279 -0.7109  0.5502
  665TMC3    C7 9847   3.795   3.939   0.418 -0.2996  0.1496  0.4615
  665TMC3    C8 9848   3.407   3.699   0.545 -0.3067 -0.5683 -0.2801
  665TMC3    O1 9849   3.792   4.025   0.331 -0.0349  0.1833  0.3627
  665TMC3    O2 9850   3.448   3.703   0.658  0.6355 -0.0546  0.0932
  666TMC3    C1 9851   3.247   3.965  10.227 -0.4518 -0.5316  0.1273
  666TMC3    C2 9852   3.375   3.933  10.215 -0.1478  0.1414 -0.3577
  666TMC3    C3 9853   3.456   4.031  10.171 -0.2391  0.1575  1.4309
  666TMC3    C4 9854   3.191   4.081  10.178  0.8220 -0.2874  0.1599
  666TMC3    C5 9855   3.280   4.171  10.121 -0.2716  0.2647  0.0108
  666TMC3    C6 9856   3.413   4.153  10.120  0.2985 -0.8039 -0.3802
  666TMC3     C 9857   3.158   3.871  10.288 -0.3139 -0.0141 -0.6700
  666TMC3     O 9858   3.051   3.912  10.330  0.0546  0.1290 -0.6428
  666TMC3     H 9859   3.415   3.837  10.245  0.4703  0.0464 -1.4946
  666TMC3    H1 9860   3.088   4.106  10.195  0.4369 -0.9941 -1.0916
  666TMC3    H2 9861   3.474   4.243  10.126 -1.6299  0.3766  1.5958
  666TMC3    C7 9862   3.236   4.307  10.109 -0.5801 -0.6092 -0.5410
  666TMC3    C8 9863   3.583   4.028  10.238 -0.0073 -1.0326  0.4782
  666TMC3    O1 9864   3.148   4.350  10.177 -0.0047 -0.5629 -0.2713
  666TMC3    O2 9865   3.608   3.936  10.320  0.1835  0.1762  0.2476
  667MPD2     C 9866   4.634   4.058  14.460  0.6350 -0.3275  0.2615
  667MPD2    C1 9867   4.531   4.058  14.551 -0.2307 -0.2345  0.4765
  667MPD2    C2 9868   4.425   3.971  14.533 -0.1772 -0.1194 -0.2479
  667MPD2    C3 9869   4.419   3.883  14.419  0.5832 -0.7731  0.3784
  667MPD2    C4 9870   4.527   3.881  14.333 -0.3279 -0.9597 -0.3917
  667MPD2    C5 9871   4.631   3.970  14.352  0.4614 -0.1544  0.3451
  667MPD2     H 9872   4.344   3.970  14.605  2.3452  1.3608  2.5909
  667MPD2    H1 9873   4.530   3.811  14.250 -0.6855  0.6052 -1.7032
  667MPD2    H2 9874   0.003   4.116  14.477  0.3277  0.1220  0.3365
  667MPD2    H3 9875   4.716   3.967  14.286  0.3004  0.0650  0.1246
  667MPD2     N 9876   4.304   3.802  14.406 -0.1203 -0.2293 -0.2255
  667MPD2    H5 9877   4.298   3.739  14.327 -1.6830 -1.6046  0.9936
  667MPD2    N1 9878   4.524   4.145  14.663  0.3760  0.2893  0.2914
  667MPD2    H7 9879   4.452   4.119  14.729 -0.6406  1.6178 -0.2821
  668TMC3    C1 9880   4.605   4.312  14.822 -0.0155  0.3647  0.0310
  668TMC3    C2 9881   4.705   4.401  14.858  0.1682  0.2090  0.5325
  668TMC3    C3 9882   4.707   4.452  14.984  0.5248 -0.4778 -1.3099
  668TMC3    C4 9883   4.520   4.263  14.919 -0.1442  0.1094 -0.1195
  668TMC3    C5 9884   4.521   4.325  15.040 -0.1647 -0.0239 -0.0696
  668TMC3    C6 9885   4.620   4.414  15.076 -0.2375  0.8887 -0.4527
  668TMC3     C 9886   4.618   4.252  14.688 -0.7852  0.2391 -0.0732
  668TMC3     O 9887   4.704   4.297  14.606 -0.3865 -0.1291  0.1851
  668TMC3     H 9888   0.070   4.422  14.794  2.1095 -0.0569  2.9994
  668TMC3    H1 9889   4.429   4.217  14.883  0.0879 -0.9812  0.7018
  668TMC3    H2 9890   4.622   4.456  15.176 -2.4934  0.9939 -0.4520
  668TMC3    C7 9891   4.434   4.279  15.152  1.0332  0.8838  0.3404
  668TMC3    C8 9892   0.089   4.538  15.033 -0.7482 -0.0906 -0.2992
  668TMC3    O1 9893   4.454   4.335  15.257 -0.0663 -0.0010 -0.0681
  668TMC3    O2 9894   0.120   4.523  15.155 -0.6733  0.2840  0.0801
  669TMC3    C1 9895   2.435   3.974  14.069  0.1224  0.1479  0.7449
  669TMC3    C2 9896   2.320   4.042  14.028  0.6141  0.3209  0.0774
  669TMC3    C3 9897   2.326   4.157  13.960  0.9742 -0.0775  0.2773
  669TMC3    C4 9898   2.556   4.034  14.034 -0.3318  0.4134 -0.1833
  669TMC3    C5 9899   2.557   4.156  13.969 -0.8707  0.0018 -0.0645
  669TMC3    C6 9900   2.444   4.219  13.928 -0.3003  0.0469 -0.3740
  669TMC3     C 9901   2.427   3.893  14.188 -0.5995 -0.1087  0.9702
  669TMC3     O 9902   2.344   3.803  14.187 -0.5128  0.2049  0.2712
  669TMC3     H 9903   2.221   4.003  14.049  1.3241 -2.0940 -1.0565
  669TMC3    H1 9904   2.649   3.978  14.042 -0.6886  0.1486  2.2412
  669TMC3    H2 9905   2.444   4.314  13.876  2.5697  0.1190 -0.2109
  669TMC3    C7 9906   2.683   4.196  13.917  0.1219  0.1681 -0.1665
  669TMC3    C8 9907   2.207   4.217  13.908  0.6696 -0.3534 -0.2038
  669TMC3    O1 9908   2.781   4.138  13.958 -0.3941 -0.5869 -0.3253
  669TMC3    O2 9909   2.107   4.147  13.902 -0.5140 -0.8325  0.3160
  670MPD2     C 9910   1.070   2.196  12.930  0.2530 -0.2691  0.0224
  670MPD2    C1 9911   1.090   2.276  13.042 -0.2235 -0.6969 -0.3615
  670MPD2    C2 9912   1.046   2.225  13.169  0.2443 -0.4043 -0.2017
  670MPD2    C3 9913   0.973   2.104  13.182  1.2363 -0.1524  0.1520
  670MPD2    C4 9914   0.962   2.035  13.061  0.2346  0.5498 -0.9270
  670MPD2    C5 9915   1.013   2.074  12.941  0.6625  0.5263 -1.2436
  670MPD2     H 9916   1.061   2.289  13.256  0.2130 -1.1012  0.3177
  670MPD2    H1 9917   0.895   1.951  13.047 -0.3598  0.5597  1.8243
  670MPD2    H2 9918   1.103   2.230  12.833  2.8798  1.6135  1.5753
  670MPD2    H3 9919   1.000   2.014  12.851  1.4133  2.2629 -2.5177
  670MPD2     N 9920   0.930   2.054  13.304 -0.4658  0.1227  0.3695
  670MPD2    H5 9921   0.942   2.122  13.379 -0.8609  1.1921 -0.5411
  670MPD2    N1 9922   1.163   2.396  13.038 -0.6321  0.7319 -0.7153
  670MPD2    H7 9923   1.179   2.450  13.123 -0.1627  0.0780 -0.3782
  671TMC3    C1 9924   0.817   1.913  13.459  0.3574 -0.0371 -0.1243
  671TMC3    C2 9925   0.892   1.947  13.568  0.0435  0.1265 -0.6623
  671TMC3    C3 9926   0.874   1.883  13.690  0.2179  0.3679 -0.1272
  671TMC3    C4 9927   0.723   1.811  13.467  0.6220 -0.5792  0.6585
  671TMC3    C5 9928   0.704   1.749  13.586 -0.5658  0.7374 -0.3584
  671TMC3    C6 9929   0.785   1.780  13.693 -0.1711 -0.8675 -0.4342
  671TMC3     C 9930   0.861   1.935  13.323  0.9104 -0.0507 -0.2222
  671TMC3     O 9931   0.836   1.851  13.239 -0.2212  0.0610  0.4371
  671TMC3     H 9932   0.988   1.996  13.554  1.2234 -1.7350  0.8090
  671TMC3    H1 9933   0.666   1.782  13.380 -0.1730 -0.5306  1.1542
  671TMC3    H2 9934   0.776   1.707  13.773  1.2569  1.3918  1.7945
  671TMC3    C7 9935   0.697   1.607  13.562 -0.1312  0.3545  0.6253
  671TMC3    C8 9936   0.991   1.871  13.783  0.0889  0.1814 -0.5018
  671TMC3    O1 9937   0.746   1.568  13.455 -0.1813  0.3236  0.0913
  671TMC3    O2 9938   1.099   1.892  13.732 -0.0100  0.0700 -0.7093
  672MPD2     C 9939   0.400   2.411   1.628 -0.4276  0.7200 -0.7533
  672MPD2    C1 9940   0.432   2.480   1.516  0.5469  0.7734 -0.3558
  672MPD2    C2 9941   0.504   2.601   1.519  0.6008  0.0516  0.0746
  672MPD2    C3 9942   0.562   2.638   1.636  0.8454  0.0326 -0.2061
  672MPD2    C4 9943   0.536   2.564   1.750 -0.9223  0.0946  0.2985
  672MPD2    C5 9944   0.455   2.452   1.746 -0.4772 -0.3725  0.0072
  672MPD2     H 9945   0.515   2.653   1.425  3.0484 -0.2663  0.1796
  672MPD2    H1 9946   0.577   2.596   1.845  2.6473 -4.0492  0.1245
  672MPD2    H2 9947   0.348   2.315   1.627 -2.2229  1.6966 -1.0067
  672MPD2    H3 9948   0.457   2.387   1.833  2.0649 -0.9743 -0.5045
  672MPD2     N 9949   0.655   2.746   1.645 -0.3613  0.3624  0.3343
  672MPD2    H5 9950   0.695   2.766   1.736  1.4848  0.9339 -0.5984
  672MPD2    N1 9951   0.396   2.429   1.393  0.1593  0.0837  0.9287
  672MPD2    H7 9952   0.434   2.472   1.309  0.8368 -1.8020  0.2453
  673TMC3    C1 9953   0.314   2.295   1.219  0.2804  0.0992 -0.7187
  673TMC3    C2 9954   0.386   2.188   1.171  0.9738  0.4055  0.1954
  673TMC3    C3 9955   0.451   2.203   1.052  0.3110 -0.7683 -0.0251
  673TMC3    C4 9956   0.310   2.408   1.141  0.5349  0.0425  0.3484
  673TMC3    C5 9957   0.372   2.421   1.022  0.2534  0.6260  0.6515
  673TMC3    C6 9958   0.448   2.317   0.978  0.0498 -0.4057 -0.5476
  673TMC3     C 9959   0.320   2.318   1.365 -0.7340 -0.5749 -0.3382
  673TMC3     O 9960   0.268   2.234   1.437  0.3000 -0.3116 -0.0508
  673TMC3     H 9961   0.399   2.107   1.242  0.4725 -0.6953 -0.9684
  673TMC3    H1 9962   0.238   2.485   1.167 -0.2447 -0.3802 -0.5904
  673TMC3    H2 9963   0.485   2.318   0.876 -1.3045  1.3319 -1.0176
  673TMC3    C7 9964   0.324   2.526   0.928 -0.1218  0.5432  0.3300
  673TMC3    C8 9965   0.566   2.113   1.026 -0.0771 -0.9724 -0.0263
  673TMC3    O1 9966   0.226   2.588   0.968 -0.1121  1.0278 -0.6897
  673TMC3    O2 9967   0.556   1.994   1.052 -0.3668  0.9278 -0.1291
  674MPD2     C 9968   1.633   2.546   0.661  0.3720 -0.1156  0.1148
  674MPD2    C1 9969   1.645   2.410   0.652 -0.2661  0.3134  0.8822
  674MPD2    C2 9970   1.535   2.338   0.613  0.0040 -0.0683  0.1876
  674MPD2    C3 9971   1.414   2.398   0.590 -0.5842  1.0009  0.1253
  674MPD2    C4 9972   1.409   2.534   0.591  0.7439 -0.8457 -0.1961
  674MPD2    C5 9973   1.523   2.610   0.611  0.0593  0.0887 -0.0359
  674MPD2     H 9974   1.545   2.231   0.600 -2.3587 -0.0905 -1.4924
  674MPD2    H1 9975   1.315   2.583   0.572  1.3146  0.2425 -0.2435
  674MPD2    H2 9976   1.718   2.603   0.697  0.2854  0.8292 -1.1889
  674MPD2    H3 9977   1.503   2.717   0.617 -2.4983 -0.4589  1.1595
  674MPD2     N 9978   1.297   2.313   0.567  0.0869  0.0281 -0.2027
  674MPD2    H5 9979   1.321   2.216   0.550  1.1713  0.5193 -1.4102
  674MPD2    N1 9980   1.764   2.352   0.696  0.0765 -0.2250  0.3465
  674MPD2    H7 9981   1.835   2.409   0.740 -1.9001  0.8598  2.1626
  675TMC3    C1 9982   1.927   2.173   0.747 -0.0661 -0.4358  0.1906
  675TMC3    C2 9983   1.948   2.046   0.787 -0.2411 -0.2680 -0.3606
  675TMC3    C3 9984   2.076   2.008   0.816 -0.5102 -0.0691 -0.4671
  675TMC3    C4 9985   2.028   2.266   0.725  0.0572  0.7289 -0.2142
  675TMC3    C5 9986   2.156   2.215   0.736  0.1110  0.2121 -0.0168
  675TMC3    C6 9987   2.182   2.086   0.778  0.0026  0.1155  0.7597
  675TMC3     C 9988   1.793   2.215   0.702  0.1218 -0.0916  0.1639
  675TMC3     O 9989   1.715   2.122   0.686  0.4209  0.0924 -0.1922
  675TMC3     H 9990   1.867   1.973   0.786  0.1702 -0.7689  1.7086
  675TMC3    H1 9991   1.998   2.362   0.685 -2.3634 -1.0886 -2.8178
  675TMC3    H2 9992   2.286   2.058   0.794  0.7533  3.5062  1.8449
  675TMC3    C7 9993   2.263   2.309   0.700 -0.3267  0.0416 -0.3259
  675TMC3    C8 9994   2.114   1.875   0.832  0.0529  0.3501 -0.0838
  675TMC3    O1 9995   2.363   2.256   0.665 -0.2477 -0.4317  0.2330
  675TMC3    O2 9996   2.230   1.839   0.813 -0.4506 -0.1246 -0.0623
  676MPD2     C 9997   3.697   0.967  11.292 -0.5179  0.2947  0.0610
  676MPD2    C1 9998   3.570   0.913  11.307  0.0539 -0.9502 -0.1318
  676MPD2    C2 9999   3.533   0.816  11.217 -0.9653  0.5937  1.0406
  676MPD2    C310000   3.607   0.784  11.102  0.1411  0.5823 -0.9315
  676MPD2    C410001   3.726   0.848  11.080 -0.3311 -0.9323  0.2882
  676MPD2    C510002   3.772   0.938  11.178 -0.2423  0.7093  0.1177
  676MPD2     H10003   3.436   0.769  11.226 -0.4133 -0.7222  0.2695
  676MPD2    H110004   3.801   0.818  11.008  0.0761 -0.0430  0.3384
  676MPD2    H210005   3.747   1.022  11.371 -0.4680 -2.0250  1.6639
  676MPD2    H310006   3.875   0.972  11.175  0.5099 -1.6231 -0.9510
  676MPD2     N10007   3.567   0.689  11.005  0.5937  0.5364  0.3849
  676MPD2    H510008   3.623   0.687  10.921  2.8807  0.4571  1.9037
  676MPD2    N110009   3.491   0.933  11.417 -0.1314  0.2839  0.1728
  676MPD2    H710010   3.415   0.867  11.431 -1.6556  1.6630 -1.4847
  677TMC3    C110011   3.450   1.029  11.629 -0.8481 -0.3693 -0.8285
  677TMC3    C210012   3.488   0.913  11.698  0.2650  0.0237  0.2570
  677TMC3    C310013   3.540   0.931  11.825  0.1435 -0.3675  0.3515
  677TMC3    C410014   3.465   1.153  11.687 -0.0613  0.0836  0.0244
  677TMC3    C510015   3.517   1.168  11.815 -0.0216  0.4860 -0.1396
  677TMC3    C610016   3.552   1.056  11.886  0.1143 -0.5387  0.7410
  677TMC3     C10017   3.511   1.040  11.495 -0.4034 -0.3082  0.7129
  677TMC3     O10018   3.557   1.152  11.480 -0.1610  0.0767  0.1696
  677TMC3     H10019   3.492   0.815  11.652 -0.2022  0.3364 -0.4568
  677TMC3    H110020   3.415   1.237  11.642  1.5518  0.3098 -1.3402
  677TMC3    H210021   3.607   1.072  11.977  0.5918 -1.2073  0.5665
  677TMC3    C710022   3.627   1.257  11.823 -0.1697 -0.4175 -0.0948
  677TMC3    C810023   3.614   0.821  11.884 -0.4633  0.7003  0.2573
  677TMC3    O110024   3.671   1.293  11.932 -0.0152 -0.2532 -0.7386
  677TMC3    O210025   3.598   0.811  12.008 -0.3326  0.0304 -0.3282
  678MPD2     C10026   4.697   0.713   1.449 -0.0690  0.0198 -0.3586
  678MPD2    C110027   4.719   0.655   1.332  0.1011  0.2870 -0.0420
  678MPD2    C210028   4.643   0.544   1.300  0.2615 -0.8004  0.5145
  678MPD2    C310029   4.530   0.510   1.369 -0.1764 -0.3873  0.5444
  678MPD2    C410030   4.498   0.574   1.491  0.0878 -0.5333  0.3239
  678MPD2    C510031   4.594   0.670   1.531 -0.0012 -0.2622  0.5059
  678MPD2     H10032   4.669   0.496   1.206  1.0986  1.7444 -0.5361
  678MPD2    H110033   4.410   0.567   1.554  0.0434 -0.9087  0.2236
  678MPD2    H210034   0.031   0.803   1.472 -2.1580  0.9996  0.7019
  678MPD2    H310035   4.558   0.729   1.614  1.0226 -0.9329  1.4172
  678MPD2     N10036   4.451   0.407   1.310 -0.5268  0.2997 -0.3681
  678MPD2    H510037   4.494   0.357   1.233  1.0736  2.0737 -0.6425
  678MPD2    N110038   0.085   0.696   1.232  0.1919 -0.0548 -0.1351
  678MPD2    H710039   0.099   0.649   1.143 -1.7073  1.4938 -1.2653
  679TMC3    C110040   0.313   0.767   0.905 -0.1055  0.1573 -0.0662
  679TMC3    C210041   0.228   0.746   1.006  1.6785 -0.3926  0.0488
  679TMC3    C310042   0.223   0.835   1.115  0.5889  0.2520 -0.3982
  679TMC3    C410043   0.402   0.876   0.910 -0.4621 -0.3691  0.4407
  679TMC3    C510044   0.391   0.962   1.008 -0.3353 -0.3644  0.0630
  679TMC3    C610045   0.311   0.940   1.114  0.1294 -0.4034  0.4935
  679TMC3     C10046   0.342   0.654   0.822  0.4859 -0.5187 -0.3239
  679TMC3     O10047   0.325   0.546   0.870  0.7211 -0.2580 -0.0273
  679TMC3     H10048   0.170   0.657   0.988  1.6267 -0.6607  1.5273
  679TMC3    H110049   0.475   0.903   0.834 -0.0806 -1.9663  0.2458
  679TMC3    H210050   0.323   1.005   1.199 -0.0042  0.5969 -0.2504
  679TMC3    C710051   0.519   1.030   1.031  0.7122  0.1364 -0.1986
  679TMC3    C810052   0.140   0.821   1.229  0.0955 -0.0931  0.6739
  679TMC3    O110053   0.613   0.960   1.005 -0.6233  0.1789  0.1471
  679TMC3    O210054   0.136   0.913   1.311 -0.3430 -0.6699  0.0506
  680MPD2     C10055   0.151   4.098  13.656  0.5359  0.2231 -0.4956
  680MPD2    C110056   0.266   4.029  13.713 -0.1985 -0.1027  0.7885
  680MPD2    C210057   0.361   4.108  13.764  1.0266  0.0784  0.9930
  680MPD2    C310058   0.365   4.245  13.754  0.3748  0.0736 -0.0717
  680MPD2    C410059   0.259   4.305  13.689 -0.3082 -0.5501 -0.0297
  680MPD2    C510060   0.147   4.235  13.654 -0.7536  0.4143 -0.0943
  680MPD2     H10061   0.449   4.059  13.804  1.5528 -0.5339 -0.9149
  680MPD2    H110062   0.247   4.411  13.671 -0.7639 -0.5685  0.1749
  680MPD2    H210063   0.057   4.048  13.634  0.7181 -0.2286 -0.2354
  680MPD2    H310064   0.058   4.287  13.620 -1.2297 -1.3358 -1.5602
  680MPD2     N10065   0.475   4.332  13.775  0.0759  0.6612 -0.0529
  680MPD2    H510066   0.469   4.431  13.752 -0.9562  0.6146 -0.0205
  680MPD2    N110067   0.277   3.889  13.734  0.2426  0.4789  0.4839
  680MPD2    H710068   0.356   3.858  13.791 -0.5926 -0.2527  1.2412
  681TMC3    C110069   0.215   3.669  13.714 -0.3810  0.0014  0.0080
  681TMC3    C210070   0.275   3.641  13.830  0.0743  0.6619 -0.5199
  681TMC3    C310071   0.324   3.516  13.848  0.1375 -0.5330  0.4626
  681TMC3    C410072   0.188   3.564  13.628  0.3163 -0.1499  0.1287
  681TMC3    C510073   0.220   3.436  13.654  0.1327  0.1068  0.3700
  681TMC3    C610074   0.292   3.406  13.773 -0.0738 -0.3961  0.4464
  681TMC3     C10075   0.188   3.803  13.675 -1.2003  0.1256 -0.2541
  681TMC3     O10076   0.105   3.817  13.589 -0.5045  0.0796 -0.0521
  681TMC3     H10077   0.283   3.725  13.897  2.8518 -0.6144  0.7326
  681TMC3    H110078   0.141   3.584  13.532  1.9847  1.3529 -0.3775
  681TMC3    H210079   0.328   3.307  13.794 -0.2727 -0.4512  0.5240
  681TMC3    C710080   0.266   3.360  13.542 -0.1187  0.5084  0.0370
  681TMC3    C810081   0.399   3.481  13.970  0.1186  0.1696 -0.1939
  681TMC3    O110082   0.268   3.240  13.549  0.0199  0.2728  0.3737
  681TMC3    O210083   0.388   3.371  14.016  0.2095  0.8484  0.0078
  682MPD2     C10084   2.770   0.792  10.426  0.1647  0.0450  0.5714
  682MPD2    C110085   2.691   0.671  10.430  0.0967 -0.9369 -0.1469
  682MPD2    C210086   2.585   0.663  10.515  0.3652 -0.5504  0.5623
  682MPD2    C310087   2.548   0.770  10.602 -0.3731 -0.0084 -0.1237
  682MPD2    C410088   2.625   0.883  10.600  0.4344 -0.2006  0.3083
  682MPD2    C510089   2.732   0.891  10.517 -0.5334 -0.6478  0.3750
  682MPD2     H10090   2.524   0.574  10.515 -0.4501  0.0004  0.4574
  682MPD2    H110091   2.613   0.961  10.674 -1.6188  0.9599 -1.2570
  682MPD2    H210092   2.852   0.813  10.359 -0.4056  3.0547  0.8270
  682MPD2    H310093   2.800   0.975  10.519  0.9580 -1.8233 -1.8042
  682MPD2     N10094   2.465   0.755  10.717 -0.2133 -0.4908  0.1956
  682MPD2    H510095   2.470   0.832  10.783  0.2239 -1.6389  1.5041
  682MPD2    N110096   2.714   0.558  10.349  0.0384 -0.1412 -0.3218
  682MPD2    H710097   2.636   0.494  10.341  0.8565 -1.1901  0.1273
  683TMC3    C110098   2.417   0.626  11.096  0.4835 -0.0156  0.4076
  683TMC3    C210099   2.330   0.522  11.126 -0.4580 -0.7941  0.6151
  683TMC3    C310100   2.252   0.472  11.025 -0.1599  0.2263  0.0058
  683TMC3    C410101   2.418   0.683  10.975 -0.5997  0.1966 -0.0515
  683TMC3    C510102   2.340   0.633  10.877  0.2581  0.8162  0.5815
  683TMC3    C610103   2.252   0.533  10.898 -0.3892  0.3185  0.1095
  683TMC3     C10104   2.483   0.695  11.198 -0.2775 -0.2750  0.2387
  683TMC3     O10105   2.491   0.814  11.176  0.1062 -0.3884  0.2029
  683TMC3     H10106   2.339   0.484  11.227 -0.9468 -1.5400  0.3805
  683TMC3    H110107   2.484   0.767  10.957  0.5053 -0.8118 -0.6818
  683TMC3    H210108   2.192   0.499  10.814 -2.1057  3.1333  0.1731
  683TMC3    C710109   2.385   0.644  10.740  0.4713  0.2423  0.5174
  683TMC3    C810110   2.208   0.330  11.032 -0.8062  0.1883  0.1448
  683TMC3    O110111   2.358   0.554  10.664  0.0376 -0.5962 -0.2640
  683TMC3    O210112   2.119   0.306  10.949 -0.4317  0.4073 -0.4614
  684MPD2     C10113   0.741   0.105  16.338  0.2803  0.2145 -0.5240
  684MPD2    C110114   0.760   0.187  16.229 -0.0368 -0.9980 -0.5872
  684MPD2    C210115   0.805   0.317  16.246  0.1724  1.1650 -0.0689
  684MPD2    C310116   0.849   0.362  16.369  0.0065 -0.0380 -0.1445
  684MPD2    C410117   0.839   0.273  16.473  0.1226 -0.2856 -0.4399
  684MPD2    C510118   0.777   0.151  16.461  0.0739  0.7547 -0.2198
  684MPD2     H10119   0.831   0.372  16.156  0.0696 -0.1086 -0.8835
  684MPD2    H110120   0.858   0.309  16.573 -0.5493 -2.3655  0.4293
  684MPD2    H210121   0.688   0.013  16.318  1.3188 -0.3515 -0.7189
  684MPD2    H310122   0.750   0.097  16.550 -2.2805  1.5716 -0.4467
  684MPD2     N10123   0.913   0.482  16.392  0.6188 -0.3348  0.1085
  684MPD2    H510124   0.960   0.496  16.481  0.6520  1.9232 -0.2620
  684MPD2    N110125   0.732   0.150  16.095  0.2090  0.1072 -0.2570
  684MPD2    H710126   0.733   0.224  16.026  0.5879 -1.8677 -2.3606
  685TMC3    C110127   0.714   0.008  15.914 -0.0298  0.1893  0.7934
  685TMC3    C210128   0.648   0.102  15.837  0.0600  0.4104  0.1821
  685TMC3    C310129   0.653   0.097  15.703  0.1869 -0.2521 -0.1000
  685TMC3    C410130   0.780   4.618  15.852  0.9189 -0.0574 -0.1285
  685TMC3    C510131   0.778   4.614  15.713 -0.1599  0.8806  0.4544
  685TMC3    C610132   0.707   4.710  15.640 -0.6511  0.2286  0.0961
  685TMC3     C10133   0.727   0.018  16.058  0.6243  1.2250  0.4865
  685TMC3     O10134   0.749   4.636  16.121 -0.0503 -0.4062 -0.4068
  685TMC3     H10135   0.604   0.186  15.889  2.1558  1.0151  1.0033
  685TMC3    H110136   0.820   4.543  15.919 -0.6587  1.1749  2.1609
  685TMC3    H210137   0.697   4.695  15.533  1.9696 -0.5619 -0.0516
  685TMC3    C710138   0.858   4.526  15.632  0.6649  0.5031  0.0615
  685TMC3    C810139   0.550   0.174  15.629  0.0788  0.3089 -0.4857
  685TMC3    O110140   0.829   4.511  15.513 -0.0936 -0.1632 -1.0339
  685TMC3    O210141   0.539   0.292  15.648  0.4422  0.2531 -0.4030
  686MPD2     C10142   1.749   4.484  15.104  0.3860 -0.3664 -0.3550
  686MPD2    C110143   1.859   4.423  15.177 -0.2566  0.2497  0.5399
  686MPD2    C210144   1.970   4.390  15.104 -0.0164  0.0390 -0.8585
  686MPD2    C310145   1.974   4.390  14.965  0.5645  0.4374  0.0633
  686MPD2    C410146   1.860   4.435  14.903  0.3089  0.3380  0.3932
  686MPD2    C510147   1.747   4.484  14.970 -0.0959 -0.2391 -0.5145
  686MPD2     H10148   2.061   4.350  15.147  0.3298 -0.1530 -1.7675
  686MPD2    H110149   1.861   4.436  14.794  1.5703 -0.3893  0.3928
  686MPD2    H210150   1.660   4.519  15.155  1.0956  0.7230  0.1331
  686MPD2    H310151   1.667   4.528  14.911 -1.7145 -0.4673  1.5475
  686MPD2     N10152   2.082   4.367  14.884  0.1132  0.3811 -0.2513
  686MPD2    H510153   2.064   4.395  14.788  0.5612 -0.4205 -0.5684
  686MPD2    N110154   1.836   4.387  15.311  0.3225 -0.1145 -1.0537
  686MPD2    H710155   1.746   4.415  15.350  0.8953 -0.9329  0.8140
  687TMC3    C110156   2.195   4.201  15.018  0.0978 -0.1559 -0.1479
  687TMC3    C210157   2.088   4.115  15.029 -0.1093  0.6809  0.0142
  687TMC3    C310158   2.093   4.011  15.122  1.1238 -0.2028 -0.4254
  687TMC3    C410159   2.311   4.168  15.080 -0.2278  0.1473  0.6695
  687TMC3    C510160   2.317   4.065  15.169  0.8485  0.1108 -0.3840
  687TMC3    C610161   2.206   3.989  15.194 -0.2445  0.4825  0.7809
  687TMC3     C10162   2.203   4.309  14.924 -0.0878 -0.1463 -0.0106
  687TMC3     O10163   2.307   4.330  14.867  0.5787  0.4679 -0.1635
  687TMC3     H10164   1.995   4.124  14.973 -0.2392  1.0531  0.2896
  687TMC3    H110165   2.396   4.232  15.059 -0.4218  0.8294  1.9629
  687TMC3    H210166   2.199   3.921  15.278 -0.8151  2.0471  2.0064
  687TMC3    C710167   2.417   4.092  15.266  0.3321 -0.3793  0.4009
  687TMC3    C810168   1.968   3.948  15.180  0.1689  0.5803 -0.3517
  687TMC3    O110169   2.482   4.191  15.256 -0.0629  0.2044 -0.3815
  687TMC3    O210170   1.966   3.830  15.214  0.1656  0.2796 -0.2682
  688MPD2     C10171   1.191   3.383  17.054  0.4915  0.7055 -0.3804
  688MPD2    C110172   1.216   3.266  17.125  0.3245  0.1515 -0.2073
  688MPD2    C210173   1.336   3.198  17.107  0.2495  0.1904 -0.6443
  688MPD2    C310174   1.430   3.237  17.004  0.0638 -0.2721  1.3387
  688MPD2    C410175   1.414   3.365  16.958  0.6226 -0.4964 -0.3977
  688MPD2    C510176   1.295   3.430  16.982 -1.0389 -0.0693  0.4850
  688MPD2     H10177   1.352   3.104  17.159  1.7916  0.9936  0.3462
  688MPD2    H110178   1.484   3.408  16.888 -0.9883 -0.9307 -2.2887
  688MPD2    H210179   1.102   3.441  17.073  0.1916 -0.7617  2.8034
  688MPD2    H310180   1.270   3.530  16.949 -0.6171  0.0566  0.5454
  688MPD2     N10181   1.540   3.169  16.956  0.7834  0.2048  0.5410
  688MPD2    H510182   1.594   3.228  16.894  0.0846  2.0955  1.7160
  688MPD2    N110183   1.127   3.212  17.229  1.1685  0.0992 -0.3715
  688MPD2    H710184   1.170   3.147  17.294  0.7892  1.4789  1.2870
  689TMC3    C110185   0.949   3.204  17.376 -0.6535  0.4934 -0.2924
  689TMC3    C210186   0.898   3.289  17.464 -0.3086 -0.0862 -0.7339
  689TMC3    C310187   0.885   3.255  17.598  0.2302 -0.1252 -0.2511
  689TMC3    C410188   0.985   3.080  17.414  0.3254  0.2726 -0.0308
  689TMC3    C510189   0.966   3.036  17.542  0.5682 -0.5915 -0.1387
  689TMC3    C610190   0.920   3.130  17.638  1.0590  0.0926  0.2889
  689TMC3     C10191   0.992   3.251  17.245  0.0998 -0.2661 -0.0866
  689TMC3     O10192   0.933   3.349  17.202 -0.2138 -0.3334 -0.4584
  689TMC3     H10193   0.889   3.392  17.430  3.2898  0.8133  1.1203
  689TMC3    H110194   1.020   3.007  17.342  0.2037  1.2227 -1.0538
  689TMC3    H210195   0.912   3.101   0.058 -1.9805  0.9249  0.2829
  689TMC3    C710196   1.014   2.905  17.597  0.1071  0.2247  0.3960
  689TMC3    C810197   0.868   3.356   0.023  0.0409 -0.2112  0.3469
  689TMC3    O110198   1.045   2.895   0.032 -0.0214 -0.3752 -0.4011
  689TMC3    O210199   0.815   3.312   0.126 -0.5988 -0.2742  0.4255
  690MPD2     C10200   3.897   0.572  15.411  0.0910  0.7572  0.2590
  690MPD2    C110201   3.913   0.520  15.285 -1.0856  0.5474  0.6177
  690MPD2    C210202   4.031   0.543  15.216  0.4962  0.0596 -0.5432
  690MPD2    C310203   4.133   0.613  15.278  0.3966  0.3691  0.0461
  690MPD2    C410204   4.118   0.649  15.405  0.4475 -0.0946 -0.2389
  690MPD2    C510205   4.008   0.625  15.477 -0.0648 -0.7058  0.2679
  690MPD2     H10206   4.039   0.505  15.115  2.6908 -0.6735 -0.0876
  690MPD2    H110207   4.190   0.708  15.460 -1.0326  1.5878 -0.1296
  690MPD2    H210208   3.802   0.573  15.464 -0.3738  1.4623 -0.5921
  690MPD2    H310209   4.009   0.666  15.578 -0.7030  2.0363 -0.8398
  690MPD2     N10210   4.243   0.642  15.199  0.8299 -0.4468  0.4361
  690MPD2    H510211   4.241   0.616  15.101  0.3389 -0.9403  0.5743
  690MPD2    N110212   3.806   0.443  15.227  0.3030 -0.1538  0.3074
  690MPD2    H710213   3.824   0.383  15.147  0.9905 -1.2936  1.3236
  691TMC3    C110214   3.605   0.326  15.225  0.6529 -1.0361 -0.1205
  691TMC3    C210215   3.469   0.337  15.225 -0.0420 -0.1191 -0.6110
  691TMC3    C310216   3.395   0.225  15.194  0.3233 -0.1081  0.3037
  691TMC3    C410217   3.665   0.206  15.216  0.6080 -1.2047  0.3444
  691TMC3    C510218   3.589   0.092  15.201  0.0163 -0.0772  0.2557
  691TMC3    C610219   3.454   0.098  15.177  0.0351 -0.4509  0.1513
  691TMC3     C10220   3.680   0.433  15.283  0.6751  0.3389 -0.2263
  691TMC3     O10221   3.617   0.513  15.350  0.5505  0.2671 -0.3937
  691TMC3     H10222   3.424   0.435  15.234 -0.0559 -0.1438 -0.4153
  691TMC3    H110223   3.763   0.188  15.258 -0.7907 -0.4737  3.9402
  691TMC3    H210224   3.399   0.011  15.143  0.7239 -0.3360 -1.2400
  691TMC3    C710225   3.655   4.686  15.247 -0.6089  0.2056 -0.2546
  691TMC3    C810226   3.250   0.228  15.184  0.3665  0.1256  0.6391
  691TMC3    O110227   3.776   4.673  15.256 -0.2154  0.1637 -0.2159
  691TMC3    O210228   3.188   0.142  15.124  0.5039 -0.3991 -0.4015
  692TMC3    C110229   0.644   1.735  16.252 -0.3982 -0.8464  0.5714
  692TMC3    C210230   0.728   1.713  16.353 -0.0515  0.3664  0.1542
  692TMC3    C310231   0.853   1.663  16.319 -0.4832 -0.6546  0.5181
  692TMC3    C410232   0.668   1.703  16.127 -0.2135 -0.1992 -0.3442
  692TMC3    C510233   0.783   1.640  16.089 -0.3373  0.8950  0.6018
  692TMC3    C610234   0.875   1.612  16.193  0.0436  0.3677 -0.0247
  692TMC3     C10235   0.514   1.796  16.274 -0.4124 -0.2942 -0.9066
  692TMC3     O10236   0.422   1.758  16.202  0.1906 -0.3057  0.0016
  692TMC3     H10237   0.718   1.772  16.443  1.3645  3.7111 -1.8356
  692TMC3    H110238   0.595   1.707  16.046  0.1752 -1.5687 -0.7655
  692TMC3    H210239   0.976   1.586  16.164  0.7766  0.8275  2.1049
  692TMC3    C710240   0.771   1.547  15.982  0.2133  0.1410  0.0611
  692TMC3    C810241   0.898   1.564  16.415 -0.6705 -0.2952 -0.3342
  692TMC3    O110242   0.685   1.566  15.893  0.3860 -0.0052 -0.3750
  692TMC3    O210243   0.953   1.468  16.367 -0.4147 -0.0555  0.2554
  693MPD2     C10244   0.220   0.130  10.923  0.2781 -0.2709  0.9244
  693MPD2    C110245   0.181   0.032  10.842 -0.3559 -0.5560 -0.7706
  693MPD2    C210246   0.277   4.678  10.772 -0.5735  0.0997 -0.4494
  693MPD2    C310247   0.413   4.696  10.804 -0.2324 -0.1416  0.0579
  693MPD2    C410248   0.453   0.079  10.892 -0.3170 -0.0863 -0.4674
  693MPD2    C510249   0.358   0.153  10.948 -0.7525 -0.0443  0.2631
  693MPD2     H10250   0.252   4.588  10.717  0.6316  0.9263 -2.3686
  693MPD2    H110251   0.559   0.088  10.909 -0.5208  1.3503  0.0426
  693MPD2    H210252   0.144   0.184  10.977 -0.1069 -0.6607  0.7750
  693MPD2    H310253   0.374   0.237  11.015 -0.3019 -0.5954  0.8450
  693MPD2     N10254   0.504   4.602  10.761 -0.1892  0.6471 -0.9709
  693MPD2    H510255   0.598   4.596  10.798 -0.6419  2.6356  0.5011
  693MPD2    N110256   0.044   0.007  10.842  0.1303  0.5434  0.1373
  693MPD2    H710257   4.701   0.048  10.910 -1.2158 -1.8055  0.2999
  694TMC3    C110258   4.576   4.575  10.805 -0.0472  0.1875 -0.5330
  694TMC3    C210259   4.503   4.497  10.723  0.5617 -0.9326 -0.0986
  694TMC3    C310260   4.438   4.389  10.768 -0.0323 -0.0036  0.2114
  694TMC3    C410261   4.576   4.542  10.938 -0.4430 -0.6897 -0.7501
  694TMC3    C510262   4.518   4.426  10.984 -0.6603  0.0979  0.0312
  694TMC3    C610263   4.446   4.351  10.897  0.3149 -0.1294 -0.1715
  694TMC3     C10264   4.698   4.629  10.758  0.3217 -0.0842 -0.3436
  694TMC3     O10265   0.015   4.580  10.652 -0.0289  1.0233 -0.7478
  694TMC3     H10266   4.497   4.519  10.617 -3.0385  0.9888  0.5009
  694TMC3    H110267   4.651   4.585  11.003 -0.3399 -1.0324 -0.6452
  694TMC3    H210268   4.384   4.270  10.932  0.6417 -0.1163  0.4402
  694TMC3    C710269   4.519   4.403  11.125  0.3196  0.1203 -0.1946
  694TMC3    C810270   4.372   4.306  10.672 -0.1445 -0.4509  0.2032
  694TMC3    O110271   4.546   4.504  11.194  0.6129 -0.0659 -0.8650
  694TMC3    O210272   4.280   4.230  10.711  0.0618 -0.2277  0.1954
  695MPD2     C10273   1.535   1.632  13.319  0.0146 -0.4411  0.2063
  695MPD2    C110274   1.482   1.559  13.421  0.3668 -0.1199  0.9195
  695MPD2    C210275   1.355   1.499  13.402  1.2537 -0.0293  0.0360
  695MPD2    C310276   1.288   1.519  13.278 -0.2600  0.1407 -0.8814
  695MPD2    C410277   1.346   1.593  13.176 -0.4713  0.7913 -0.0882
  695MPD2    C510278   1.470   1.656  13.200  0.3654  0.4772 -0.1322
  695MPD2     H10279   1.315   1.443  13.486  0.8138 -0.8058 -0.6862
  695MPD2    H110280   1.306   1.604  13.075  0.2550  0.9684 -0.3540
  695MPD2    H210281   1.636   1.671  13.327  1.3833 -3.8911 -0.2379
  695MPD2    H310282   1.518   1.715  13.124  0.1738 -0.8472 -1.2685
  695MPD2     N10283   1.167   1.442  13.259  0.1337  0.5277  0.2503
  695MPD2    H510284   1.144   1.383  13.339 -2.3890  0.7168 -0.3435
  695MPD2    N110285   1.544   1.551  13.547  0.3215 -0.9413 -0.0078
  695MPD2    H710286   1.472   1.544  13.619 -0.5331  0.7107 -0.7125
  696TMC3    C110287   0.970   1.359  13.163 -0.3694 -0.9838 -0.0684
  696TMC3    C210288   0.969   1.270  13.265  0.4844  0.3672  0.1185
  696TMC3    C310289   0.851   1.229  13.323 -0.0974  0.0541  0.1126
  696TMC3    C410290   0.845   1.411  13.122  0.3810 -1.7505  0.4946
  696TMC3    C510291   0.734   1.370  13.179  0.1646 -0.5083 -0.8120
  696TMC3    C610292   0.733   1.282  13.284 -0.6436  0.1112 -0.1338
  696TMC3     C10293   1.080   1.453  13.152  0.2797  0.1174  0.0556
  696TMC3     O10294   1.080   1.530  13.058 -0.1341  0.0781  0.5808
  696TMC3     H10295   1.060   1.212  13.276  1.0838  0.7810 -2.5753
  696TMC3    H110296   0.851   1.495  13.055 -1.0709 -2.4989 -0.5787
  696TMC3    H210297   0.640   1.242  13.322 -0.9010  0.7146 -0.1367
  696TMC3    C710298   0.612   1.438  13.148  0.2264 -0.2755 -0.0742
  696TMC3    C810299   0.871   1.113  13.407 -0.3665  0.6816 -0.5643
  696TMC3    O110300   0.592   1.476  13.036 -0.5068  0.6777 -0.3438
  696TMC3    O210301   0.958   1.033  13.374 -0.3238 -0.1645  0.0510
  697MPD2     C10302   0.247   3.072  15.654 -0.5204 -0.0953  0.6628
  697MPD2    C110303   0.248   3.036  15.519  0.0135 -0.2171  0.1621
  697MPD2    C210304   0.304   3.124  15.427  0.3951 -0.3292  0.2485
  697MPD2    C310305   0.342   3.252  15.461  0.0544 -0.4828  0.9166
  697MPD2    C410306   0.330   3.288  15.596 -0.2652  0.1799  0.1442
  697MPD2    C510307   0.296   3.196  15.686  0.0795  0.2967  0.9519
  697MPD2     H10308   0.299   3.099  15.321 -0.4977  0.0575  0.2004
  697MPD2    H110309   0.364   3.385  15.631  1.0336 -1.1572  2.5759
  697MPD2    H210310   0.213   3.013  15.739  0.5641 -0.0503  1.1250
  697MPD2    H310311   0.289   3.224  15.791 -0.3873  0.7321  0.8005
  697MPD2     N10312   0.387   3.342  15.359 -0.5181 -0.3029 -0.6611
  697MPD2    H510313   0.388   3.305  15.264  1.8166  1.9598 -1.5413
  697MPD2    N110314   0.204   2.905  15.485  0.1829 -0.4489  0.8309
  697MPD2    H710315   0.223   2.871  15.391 -1.4166 -0.5066  0.5255
  698TMC3    C110316   0.495   3.530  15.267  1.2439  0.1546 -0.4439
  698TMC3    C210317   0.585   3.633  15.304  0.4597  0.5221 -0.7103
  698TMC3    C310318   0.665   3.692  15.212 -0.0242  0.5470 -0.0983
  698TMC3    C410319   0.483   3.486  15.138  0.3127  0.0426  0.1379
  698TMC3    C510320   0.564   3.545  15.046  0.0662 -0.1105 -0.4300
  698TMC3    C610321   0.654   3.645  15.082  0.5958 -0.6892  0.2498
  698TMC3     C10322   0.425   3.474  15.384  0.4995  0.0911 -0.1161
  698TMC3     O10323   0.445   3.534  15.488 -0.0134 -0.4188 -0.5518
  698TMC3     H10324   0.595   3.670  15.405  1.6749 -1.3485 -0.1393
  698TMC3    H110325   0.417   3.407  15.104 -1.0987  0.4339  1.9657
  698TMC3    H210326   0.738   3.668  15.016 -0.7691 -0.4874 -1.4088
  698TMC3    C710327   0.604   3.463  14.929  0.6307 -0.1370 -1.0621
  698TMC3    C810328   0.796   3.732  15.251 -0.1021 -0.2072  0.3867
  698TMC3    O110329   0.721   3.419  14.928  0.4921  0.0833 -0.8597
  698TMC3    O210330   0.825   3.688  15.361 -0.3739 -0.3700  0.0510
  699TMC3    C110331   0.327   1.356  12.824 -0.6496 -1.0578  0.4239
  699TMC3    C210332   0.383   1.293  12.934  0.3870 -0.6123  0.0488
  699TMC3    C310333   0.294   1.246  13.024  0.3212 -0.0914  0.7801
  699TMC3    C410334   0.193   1.368  12.809  0.4861  0.1045 -0.2904
  699TMC3    C510335   0.110   1.337  12.908 -0.0282 -0.5890  0.0437
  699TMC3    C610336   0.163   1.273  13.023 -1.0169  0.5686  0.4010
  699TMC3     C10337   0.411   1.410  12.720  0.2523  0.0003  0.1643
  699TMC3     O10338   0.363   1.403  12.605  0.0911  0.6908 -0.3109
  699TMC3     H10339   0.490   1.279  12.943  0.4716  0.5086  0.6185
  699TMC3    H110340   0.156   1.413  12.717  0.4763  2.1531  0.7010
  699TMC3    H210341   0.106   1.240  13.109 -1.7729  1.4309  0.2378
  699TMC3    C710342   4.684   1.331  12.894  0.2270 -0.2037  1.0370
  699TMC3    C810343   0.346   1.191  13.149 -0.2648 -0.4088 -0.2211
  699TMC3    O110344   4.623   1.260  12.967 -0.8463 -0.6836 -0.4724
  699TMC3    O210345   0.302   1.228  13.253  0.3160  0.1440  0.3113
  700TMC3    C110346   3.784   3.498  17.208 -0.3101  0.3078 -0.4110
  700TMC3    C210347   3.824   3.368  17.218 -0.5074 -0.3095 -0.4739
  700TMC3    C310348   3.917   3.342  17.309  0.4618  0.1335 -0.6331
  700TMC3    C410349   3.818   3.592  17.298 -0.4330  0.1726  0.7094
  700TMC3    C510350   3.903   3.554  17.400 -0.2946  0.9480  0.3114
  700TMC3    C610351   3.944   3.420  17.419  0.0819  0.4713  0.1742
  700TMC3     C10352   3.745   3.542  17.075 -0.0410 -0.1863  0.6954
  700TMC3     O10353   3.669   3.471  17.007 -0.1905 -0.1776  0.4860
  700TMC3     H10354   3.801   3.306  17.131  0.9233  0.0280 -1.0888
  700TMC3    H110355   3.785   3.694  17.281  0.5184  0.7763  2.5029
  700TMC3    H210356   4.021   3.392  17.490  2.3231 -0.2499 -2.5523
  700TMC3    C710357   3.914   3.636  17.516  0.0347  0.2168 -0.2909
  700TMC3    C810358   4.000   3.222  17.299  0.7983 -0.1932  0.4692
  700TMC3    O110359   3.902   3.593  17.627 -0.0703 -0.2750 -0.0805
  700TMC3    O210360   4.112   3.230  17.340 -0.2915 -0.2006  0.0940
  701TMC3    C110361   4.046   2.271  15.302 -0.6601  0.0601 -0.3605
  701TMC3    C210362   4.098   2.177  15.217 -0.4971 -0.3518  0.2487
  701TMC3    C310363   4.211   2.207  15.156  0.4542 -0.6175 -0.2759
  701TMC3    C410364   4.112   2.395  15.325  0.4181  0.4495  0.0795
  701TMC3    C510365   4.230   2.420  15.250 -0.1859 -0.5402  0.3650
  701TMC3    C610366   4.281   2.324  15.174 -0.4048  0.1888  0.0210
  701TMC3     C10367   3.927   2.249  15.383  0.9208  0.5255  0.0836
  701TMC3     O10368   3.896   2.340  15.456 -0.0959  0.5702 -0.1560
  701TMC3     H10369   4.049   2.086  15.188 -0.0143 -0.5526  0.0585
  701TMC3    H110370   4.054   2.474  15.373  1.7826  0.8459  1.0744
  701TMC3    H210371   4.376   2.339  15.124 -0.7604  2.4516  0.0304
  701TMC3    C710372   4.312   2.533  15.294  0.4122  0.0722 -0.3869
  701TMC3    C810373   4.250   2.108  15.054  0.1052 -0.6951  0.0586
  701TMC3    O110374   4.395   2.582  15.215  0.1650 -0.0586  0.3724
  701TMC3    O210375   4.366   2.070  15.052  0.3185  0.0988 -0.7963
  702MPD2     C10376   3.790   0.040  10.713 -0.4077  0.3920  0.1465
  702MPD2    C110377   3.660   0.047  10.666  0.2911  0.6124  0.5682
  702MPD2    C210378   3.601   4.661  10.599 -0.2108 -0.4832 -0.8721
  702MPD2    C310379   3.670   4.544  10.576 -0.2631 -0.6537  0.2032
  702MPD2    C410380   3.801   4.533  10.631 -0.2544  0.5948 -0.2889
  702MPD2    C510381   3.855   4.639  10.697  0.0971  0.2383  0.3513
  702MPD2     H10382   3.495   4.671  10.583 -0.4533 -0.2528  0.9657
  702MPD2    H110383   3.859   4.442  10.621  0.7818  1.2529 -0.2914
  702MPD2    H210384   3.828   0.124  10.770  0.2154  1.7761 -2.3109
  702MPD2    H310385   3.952   4.626  10.743 -0.5882 -2.3853  1.0832
  702MPD2     N10386   3.619   4.419  10.522  0.2762  1.0208  0.1507
  702MPD2    H510387   3.670   4.337  10.551  0.7581  0.4588 -2.3163
  702MPD2    N110388   3.575   0.162  10.687  0.7215  0.2726 -0.3431
  702MPD2    H710389   3.477   0.144  10.667  0.5168  0.3859  0.5311
  703TMC3    C110390   3.482   4.518  10.352  0.0249 -0.5501 -0.4911
  703TMC3    C210391   3.354   4.572  10.346 -0.0401  0.0580  0.2037
  703TMC3    C310392   3.327   4.683  10.275 -0.0908  0.7521 -0.4953
  703TMC3    C410393   3.588   4.574  10.286 -0.8943 -0.1507  0.1411
  703TMC3    C510394   3.559   4.695  10.219  0.6365  0.0253  0.5928
  703TMC3    C610395   3.433   0.024  10.215 -0.1160  0.4563  0.1265
  703TMC3     C10396   3.514   4.403  10.432 -0.1063 -0.5439 -1.0047
  703TMC3     O10397   3.472   4.292  10.400 -0.0738  0.0851 -0.1610
  703TMC3     H10398   3.285   4.512  10.404 -1.2993  0.0870 -1.2784
  703TMC3    H110399   3.686   4.532  10.305 -0.1785  2.4242  2.0967
  703TMC3    H210400   3.418   0.113  10.155 -2.9413  0.0073  0.1950
  703TMC3    C710401   3.672   0.059  10.228  0.5101 -0.4492 -0.1931
  703TMC3    C810402   3.226   0.052  10.331 -0.0450  0.7645 -0.9098
  703TMC3    O110403   3.786   0.014  10.212  0.0372  0.0226 -0.2773
  703TMC3    O210404   3.263   0.171  10.333 -0.3776  0.6190  0.6722
  704TMC3    C110405   1.136   3.086  12.548  0.1372 -0.6298 -0.1826
  704TMC3    C210406   1.264   3.130  12.554  0.2447 -1.0069  0.0532
  704TMC3    C310407   1.358   3.046  12.607  0.7054 -0.8268  0.0616
  704TMC3    C410408   1.099   2.960  12.594 -0.4138 -0.4250  0.8467
  704TMC3    C510409   1.198   2.877  12.640 -0.1160 -0.4004  0.1222
  704TMC3    C610410   1.332   2.915  12.649  1.1808  0.5611 -0.4542
  704TMC3     C10411   1.065   3.121  12.425 -0.1382 -0.6739  0.0295
  704TMC3     O10412   0.945   3.109  12.428  0.4239  0.4221  0.5846
  704TMC3     H10413   1.291   3.228  12.517  4.1177 -0.9674  3.1307
  704TMC3    H110414   1.000   2.919  12.578 -0.6986  0.6292 -0.1379
  704TMC3    H210415   1.412   2.848  12.680  2.4293  1.5476 -1.5927
  704TMC3    C710416   1.186   2.736  12.623 -0.5268 -0.1591  0.7142
  704TMC3    C810417   1.477   3.055  12.533 -0.1621 -0.9894  1.2613
  704TMC3    O110418   1.284   2.681  12.574  0.4247 -0.3461  0.3737
  704TMC3    O210419   1.459   3.122  12.430 -0.0740  0.0949  0.3282
  705MPD2     C10420   1.126   0.942  16.632 -0.0018 -0.2157 -0.4214
  705MPD2    C110421   1.061   1.030  16.542  1.2915 -0.3612 -0.0730
  705MPD2    C210422   0.928   1.006  16.512 -0.2393  0.5199  0.5826
  705MPD2    C310423   0.851   0.911  16.590 -0.6496  0.5618  0.0519
  705MPD2    C410424   0.918   0.830  16.680 -0.8090  0.6655 -0.4831
  705MPD2    C510425   1.053   0.845  16.700 -0.7584 -0.1209 -0.3154
  705MPD2     H10426   0.879   1.073  16.442  1.3188  1.3108  0.2503
  705MPD2    H110427   0.861   0.759  16.738  1.2962 -1.0711 -0.5030
  705MPD2    H210428   1.232   0.940  16.656  0.5010  2.4633 -2.2977
  705MPD2    H310429   1.099   0.800  16.788  0.8243  0.9778 -0.5903
  705MPD2     N10430   0.710   0.910  16.590 -0.4351 -0.3214  0.6978
  705MPD2    H510431   0.662   0.853  16.659 -4.6717 -0.7239 -2.5724
  705MPD2    N110432   1.135   1.135  16.481  0.7053 -0.3289  0.5802
  705MPD2    H710433   1.097   1.181  16.399  1.2950 -1.6097 -0.4068
  706TMC3    C110434   1.461   1.240  16.215  1.0174 -0.1865  0.5879
  706TMC3    C210435   1.404   1.343  16.148  0.3821  0.0131  0.2550
  706TMC3    C310436   1.302   1.401  16.225  0.0534  0.4778 -0.0715
  706TMC3    C410437   1.433   1.201  16.345 -0.4664  0.8551 -0.0012
  706TMC3    C510438   1.321   1.258  16.406  0.0403  0.0974 -0.2994
  706TMC3    C610439   1.251   1.353  16.342  0.0261  0.3409  0.4442
  706TMC3     C10440   1.585   1.188  16.163 -0.5780 -0.4478 -0.1513
  706TMC3     O10441   1.689   1.194  16.225  0.1105 -0.1316  0.2178
  706TMC3     H10442   1.456   1.375  16.058  0.2313  4.1743  1.6436
  706TMC3    H110443   1.488   1.120  16.392 -1.0356  1.0682  1.0441
  706TMC3    H210444   1.170   1.397  16.401 -2.6133 -0.8253 -2.3302
  706TMC3    C710445   1.262   1.177  16.511 -0.4984  0.7734  0.2583
  706TMC3    C810446   1.269   1.536  16.184  0.3081 -0.1292 -0.0278
  706TMC3    O110447   1.337   1.123  16.584  0.5564  0.5092  0.1477
  706TMC3    O210448   1.249   1.560  16.070 -0.2203 -0.3254 -0.1696
  707TMC3    C110449   2.629   4.533   1.528  0.4434 -0.3217  0.4484
  707TMC3    C210450   2.587   4.411   1.476  0.5549  0.4475 -0.2576
  707TMC3    C310451   2.455   4.380   1.476 -0.4445 -0.5344  0.5161
  707TMC3    C410452   2.537   4.627   1.580 -0.1305  0.5436 -0.1910
  707TMC3    C510453   2.407   4.592   1.573  0.1428 -0.2127  0.2866
  707TMC3    C610454   2.365   4.467   1.531 -0.0694 -0.8966  0.1675
  707TMC3     C10455   2.766   4.538   1.572  0.9320  0.2020  0.3106
  707TMC3     O10456   2.830   4.435   1.566  0.1227  0.1781 -0.0239
  707TMC3     H10457   2.664   4.349   1.430  1.2812 -0.2568  1.8643
  707TMC3    H110458   2.572   0.003   1.615  0.7631 -0.2278  1.0697
  707TMC3    H210459   2.261   4.437   1.541 -0.4503 -0.2434 -2.0208
  707TMC3    C710460   2.303   4.679   1.615 -0.4992  0.4450 -0.6525
  707TMC3    C810461   2.409   4.253   1.456  0.3093 -0.4921 -0.6310
  707TMC3    O110462   2.194   4.646   1.572 -0.1568  0.1051 -0.2204
  707TMC3    O210463   2.290   4.239   1.423  0.3609  0.9154 -0.0147
  708MPD2     C10464   4.156   4.696  13.914  0.4337 -0.4894 -0.6284
  708MPD2    C110465   4.110   4.587  13.843  0.1534 -0.2849 -0.8037
  708MPD2    C210466   4.174   4.469  13.857 -0.7973  0.4977  0.6469
  708MPD2    C310467   4.276   4.458  13.945 -0.3200 -0.7353  0.0747
  708MPD2    C410468   4.313   4.570  14.016 -1.0937  0.2554 -0.1601
  708MPD2    C510469   4.259   4.691  13.998  0.3968 -0.8725  0.0702
  708MPD2     H10470   4.122   4.381  13.819  0.8513 -1.1726  2.3101
  708MPD2    H110471   4.391   4.568  14.091 -0.7857  2.4802 -0.4183
  708MPD2    H210472   4.104   0.071  13.921  0.6547 -0.2113 -2.7672
  708MPD2    H310473   4.281   0.055  14.063  0.6101  0.2562 -1.4797
  708MPD2     N10474   4.312   4.334  14.009  0.2407  0.7298  0.4837
  708MPD2    H510475   4.348   4.351  14.102 -0.9697 -1.3192  1.3263
  708MPD2    N110476   3.987   4.599  13.777 -0.1803 -0.9676  0.0476
  708MPD2    H710477   3.945   4.692  13.787 -2.0340 -1.8520  0.5957
  709TMC3    C110478   3.794   4.525  13.673  0.0371 -0.3096  0.0031
  709TMC3    C210479   3.733   4.471  13.565 -0.1317  0.4690 -0.0969
  709TMC3    C310480   3.599   4.445  13.561  0.2712 -0.5356 -0.6833
  709TMC3    C410481   3.724   4.536  13.786  0.2278 -0.7017  0.3772
  709TMC3    C510482   3.596   4.488  13.788 -0.3385 -0.0499 -0.1580
  709TMC3    C610483   3.524   4.455  13.675 -0.0323  0.8362  0.2652
  709TMC3     C10484   3.939   4.509  13.691 -0.0535  0.9055  0.7934
  709TMC3     O10485   3.986   4.408  13.630  0.2163 -0.3847  0.0792
  709TMC3     H10486   3.800   4.450  13.483 -1.3211 -0.6071 -0.8064
  709TMC3    H110487   3.772   4.536  13.883 -1.3048 -0.1825  1.1410
  709TMC3    H210488   3.421   4.423  13.688  0.4566 -0.8808 -0.0825
  709TMC3    C710489   3.571   4.400  13.895  0.2878 -0.3122 -0.2673
  709TMC3    C810490   3.528   4.445  13.431  0.1074 -0.1869  0.0726
  709TMC3    O110491   3.600   4.434  14.013  0.0424  0.0797  0.2098
  709TMC3    O210492   3.409   4.427  13.436 -0.2200 -0.3830  0.2339
  710TMC3    C110493   1.273   1.254   0.693  0.4688 -0.2761 -0.4270
  710TMC3    C210494   1.284   1.141   0.620 -0.5134 -0.0667 -0.1718
  710TMC3    C310495   1.202   1.032   0.650  0.0577 -0.6667  0.2128
  710TMC3    C410496   1.192   1.251   0.806  0.1896  0.5504  0.4120
  710TMC3    C510497   1.110   1.145   0.831 -0.8373 -0.0519 -0.1089
  710TMC3    C610498   1.114   1.027   0.755 -0.7346  0.2382 -0.9719
  710TMC3     C10499   1.388   1.339   0.677 -0.2114  0.8243 -0.1684
  710TMC3     O10500   1.487   1.292   0.623 -0.4526 -0.1498  0.4533
  710TMC3     H10501   1.353   1.126   0.538  1.4630  0.7416  1.3632
  710TMC3    H110502   1.184   1.337   0.872 -1.7312  0.4073  0.3870
  710TMC3    H210503   1.063   0.935   0.779 -0.5682  0.1044 -1.1309
  710TMC3    C710504   1.001   1.152   0.920 -0.0296 -0.4950 -0.7521
  710TMC3    C810505   1.222   0.919   0.568 -0.0657  0.1926 -0.3996
  710TMC3    O110506   0.946   1.049   0.932  0.1284  0.1554  0.4331
  710TMC3    O210507   1.258   0.942   0.453  1.0187  0.5495  0.0991
  711TMC3    C110508   0.121   1.831  14.939  0.2318  0.4156  0.2432
  711TMC3    C210509   0.097   1.934  15.024 -0.4375 -0.0200  1.2409
  711TMC3    C310510   0.182   1.948  15.127 -0.2223 -0.6842  0.0466
  711TMC3    C410511   0.211   1.736  14.959 -0.3082 -0.5663 -0.7369
  711TMC3    C510512   0.296   1.759  15.066  0.2352 -0.0923  0.2558
  711TMC3    C610513   0.276   1.860  15.154  0.3390  0.5125  0.6447
  711TMC3     C10514   0.030   1.807  14.823 -0.1452 -0.0538  0.2439
  711TMC3     O10515   0.035   1.688  14.791  0.5644 -0.3921 -0.1451
  711TMC3     H10516   0.017   2.006  15.011 -1.0497 -0.9073 -0.0085
  711TMC3    H110517   0.213   1.647  14.898 -0.7728 -2.0182  1.3730
  711TMC3    H210518   0.356   1.870  15.227  1.7458 -0.5701 -0.7640
  711TMC3    C710519   0.406   1.671  15.097 -0.5730 -0.0388 -0.7076
  711TMC3    C810520   0.126   2.019  15.246 -0.0504  0.2390  0.7378
  711TMC3    O110521   0.426   1.654  15.217  0.5638 -0.2861  0.4434
  711TMC3    O210522   0.002   2.022  15.252 -0.1315  0.3530 -0.5506
  712MPD2     C10523   1.324   2.963  13.927 -0.0662 -0.0230  0.1185
  712MPD2    C110524   1.235   3.001  13.830  1.1009  0.3022 -0.4619
  712MPD2    C210525   1.227   3.134  13.812 -0.1780 -0.4769  0.7859
  712MPD2    C310526   1.319   3.225  13.866  0.6397 -0.6726 -0.2412
  712MPD2    C410527   1.411   3.180  13.965  0.1586  0.0297 -0.0431
  712MPD2    C510528   1.406   3.046  14.002 -0.4847 -0.7183  0.5286
  712MPD2     H10529   1.149   3.155  13.740 -0.1718 -0.1545  0.8722
  712MPD2    H110530   1.476   3.249  14.019  0.3199 -0.2089  0.0654
  712MPD2    H210531   1.329   2.856  13.942  2.5787  0.0677 -0.2646
  712MPD2    H310532   1.466   2.997  14.077  1.3502  1.4660  0.4846
  712MPD2     N10533   1.309   3.359  13.834  0.0567 -0.3104 -0.3730
  712MPD2    H510534   1.387   3.416  13.866  0.3106 -0.6915 -0.3089
  712MPD2    N110535   1.157   2.917  13.751 -0.1784 -0.1398  0.1841
  712MPD2    H710536   1.111   2.972  13.680  2.4761 -0.4096 -1.7677
  713TMC3    C110537   1.240   3.550  13.717  0.9195 -0.3223  0.2587
  713TMC3    C210538   1.366   3.577  13.683 -0.1117  0.7290 -0.3707
  713TMC3    C310539   1.391   3.693  13.623 -0.2960 -0.2681  0.8218
  713TMC3    C410540   1.134   3.631  13.694  0.3574  0.4934 -0.1359
  713TMC3    C510541   1.162   3.746  13.632  0.1626 -1.3669 -0.8217
  713TMC3    C610542   1.291   3.786  13.600 -0.8507 -0.2980  0.1704
  713TMC3     C10543   1.209   3.414  13.759  0.3756  0.4091  0.4209
  713TMC3     O10544   1.094   3.380  13.745  0.7283 -0.2220 -0.5338
  713TMC3     H10545   1.441   3.499  13.692  1.6530  2.3733 -0.5966
  713TMC3    H110546   1.032   3.610  13.725 -0.5216  1.1816 -2.5538
  713TMC3    H210547   1.316   3.864  13.528  1.2010  0.9600  2.2560
  713TMC3    C710548   1.058   3.844  13.603  0.8099  0.2330 -0.3818
  713TMC3    C810549   1.527   3.706  13.562  0.2361 -0.3440  0.4503
  713TMC3    O110550   0.942   3.812  13.593  0.1256 -0.5897  0.4125
  713TMC3    O210551   1.537   3.774  13.459 -0.7991  0.4345  0.3117
  714MPD2     C10552   3.780   1.443   1.442  0.7222 -0.0259 -0.9350
  714MPD2    C110553   3.760   1.341   1.352  0.2385  0.0840 -0.1635
  714MPD2    C210554   3.641   1.334   1.284  1.0050 -0.3939  0.3808
  714MPD2    C310555   3.543   1.430   1.299 -0.1405 -0.3684  0.1365
  714MPD2    C410556   3.562   1.527   1.396 -0.9638 -0.2764  0.4863
  714MPD2    C510557   3.681   1.540   1.459  0.2090  0.1065  0.0155
  714MPD2     H10558   3.628   1.245   1.223  2.9809 -0.4493  0.0574
  714MPD2    H110559   3.484   1.600   1.414 -0.1007  0.6648  0.3655
  714MPD2    H210560   3.868   1.456   1.504 -0.1412 -0.6511  0.4159
  714MPD2    H310561   3.678   1.617   1.535  1.8105  0.1308  0.0594
  714MPD2     N10562   3.426   1.429   1.214  0.2733 -0.0494 -0.6976
  714MPD2    H510563   3.406   1.350   1.154 -1.2674  0.0542 -0.3154
  714MPD2    N110564   3.850   1.230   1.337  0.3189  0.0615 -0.7865
  714MPD2    H710565   3.821   1.157   1.273  2.1531 -1.6409  0.3422
  715TMC3    C110566   4.047   1.093   1.371 -0.0240  0.4646  0.4182
  715TMC3    C210567   4.035   1.044   1.242 -0.0014 -0.0697 -0.6716
  715TMC3    C310568   4.146   1.001   1.173  0.1318 -0.2872  0.2391
  715TMC3    C410569   4.170   1.100   1.434 -0.2191  0.4450 -0.1740
  715TMC3    C510570   4.279   1.053   1.364 -0.0763  0.7785  0.1339
  715TMC3    C610571   4.272   1.007   1.235 -0.1992 -0.0884  0.5200
  715TMC3     C10572   3.950   1.196   1.423  0.2160 -0.3354  0.3268
  715TMC3     O10573   3.967   1.245   1.536 -0.0790  0.3269 -0.1840
  715TMC3     H10574   3.948   1.055   1.179 -1.4084  3.1508  1.8366
  715TMC3    H110575   4.176   1.158   1.526 -2.2953  1.1395 -0.4774
  715TMC3    H210576   4.360   0.970   1.185  0.5511  1.9639  0.3545
  715TMC3    C710577   4.406   1.116   1.394 -0.2427 -0.2898 -0.8839
  715TMC3    C810578   4.132   0.984   1.025 -0.1355  0.5509 -0.0856
  715TMC3    O110579   4.484   1.133   1.299  0.2207  0.3214 -0.2900
  715TMC3    O210580   4.025   0.993   0.969 -0.2062  0.1993 -0.1448
  716MPD2     C10581   4.187   4.355   9.958 -0.2382  0.3372 -0.0129
  716MPD2    C110582   4.160   4.357   9.819 -0.2474  0.5118  0.2193
  716MPD2    C210583   4.205   4.250   9.745  0.7983 -0.5407  0.9409
  716MPD2    C310584   4.283   4.149   9.801  0.6909  0.3172 -0.3350
  716MPD2    C410585   4.320   4.153   9.934  0.4908  0.5258  0.3161
  716MPD2    C510586   4.261   4.251  10.015  0.5971  0.1733  0.2220
  716MPD2     H10587   4.178   4.235   9.641 -1.1260  1.4659  1.1694
  716MPD2    H110588   4.391   4.087   9.983 -1.7861 -1.7688  0.5289
  716MPD2    H210589   4.160   4.438  10.022 -0.9949 -1.5664  2.1518
  716MPD2    H310590   4.272   4.252  10.122  0.7732 -2.6229  0.2346
  716MPD2     N10591   4.328   4.050   9.718  0.3608  0.7118  0.1925
  716MPD2    H510592   4.304   4.066   9.620 -3.0905  0.0033  0.9072
  716MPD2    N110593   4.088   4.467   9.765 -0.8491  0.8579 -0.9319
  716MPD2    H710594   4.070   4.546   9.827 -2.9983 -1.3550  1.2442
  717TMC3    C110595   4.413   3.843   9.647  0.2168 -0.3875 -0.2798
  717TMC3    C210596   4.381   3.892   9.524 -0.3122 -0.1168 -0.7113
  717TMC3    C310597   4.299   3.818   9.441  0.3714  0.4401  0.0443
  717TMC3    C410598   4.391   3.715   9.683 -0.4824 -0.1821 -0.5351
  717TMC3    C510599   4.329   3.635   9.587 -1.2641  0.1844  1.0363
  717TMC3    C610600   4.278   3.687   9.473 -0.2229  0.9110  0.1623
  717TMC3     C10601   4.393   3.936   9.753 -0.3166  0.1160  0.5861
  717TMC3     O10602   4.419   3.894   9.866  0.3363  0.1252  0.0564
  717TMC3     H10603   4.415   3.990   9.492 -0.3803  0.8575  2.2522
  717TMC3    H110604   4.420   3.686   9.783  0.8323 -0.7626 -1.0939
  717TMC3    H210605   4.199   3.630   9.425  3.2558 -2.5874 -1.5088
  717TMC3    C710606   4.318   3.494   9.631  0.0372  0.0223 -0.5039
  717TMC3    C810607   4.223   3.882   9.335  0.2954 -1.0291  0.4865
  717TMC3    O110608   4.370   3.461   9.740  0.4072  0.2446 -0.3364
  717TMC3    O210609   4.214   4.002   9.350 -0.1830  0.3864  0.2792
  718MPD2     C10610   3.242   3.475  12.752 -0.6961 -0.3446  0.5640
  718MPD2    C110611   3.178   3.555  12.665 -0.1920 -0.1273  0.0917
  718MPD2    C210612   3.040   3.539  12.646  0.5250  0.3401  0.3923
  718MPD2    C310613   2.963   3.447  12.720 -0.6427 -0.7335  0.4971
  718MPD2    C410614   3.031   3.370  12.810 -0.1199  0.2298 -0.1224
  718MPD2    C510615   3.166   3.392  12.822  0.2186 -0.2811 -0.6100
  718MPD2     H10616   2.995   3.603  12.571  1.5240  0.4501 -0.1020
  718MPD2    H110617   2.973   3.304  12.874  0.4414 -0.6340 -0.5081
  718MPD2    H210618   3.346   3.497  12.773 -1.0772 -0.6411  2.7510
  718MPD2    H310619   3.210   3.324  12.894  0.3298 -1.1662 -1.5083
  718MPD2     N10620   2.827   3.461  12.710 -0.0223  0.5462  0.2333
  718MPD2    H510621   2.808   3.534  12.642  0.0807  0.9263  0.6160
  718MPD2    N110622   3.250   3.649  12.594 -0.2746 -0.6840  0.6784
  718MPD2    H710623   3.351   3.652  12.603 -0.3548 -0.1745  1.4063
  719TMC3    C110624   3.292   3.834  12.462 -0.1017  0.2947 -0.0315
  719TMC3    C210625   3.233   3.947  12.420 -0.2099 -0.1640 -0.4297
  719TMC3    C310626   3.235   3.984  12.290 -0.9839 -0.4332  0.4588
  719TMC3    C410627   3.373   3.764  12.376 -0.1218 -0.7460 -0.0584
  719TMC3    C510628   3.379   3.794  12.246  0.1828 -0.0827 -0.0797
  719TMC3    C610629   3.305   3.904  12.203 -0.7582  1.0339  0.1708
  719TMC3     C10630   3.194   3.758  12.537 -0.7571 -0.2407  0.4067
  719TMC3     O10631   3.078   3.796  12.540  0.1888  0.0589  0.3141
  719TMC3     H10632   3.190   4.008  12.499 -1.4485  1.0728 -2.0769
  719TMC3    H110633   3.393   3.659  12.397  1.0505 -0.5792 -0.3542
  719TMC3    H210634   3.309   3.938  12.101  2.4119  0.5292  0.1102
  719TMC3    C710635   3.502   3.784  12.180 -0.1361  0.5585  0.2358
  719TMC3    C810636   3.106   4.031  12.244 -0.0779 -0.0971  0.2604
  719TMC3    O110637   3.521   3.830  12.070 -0.2687 -0.2094 -0.6505
  719TMC3    O210638   3.086   4.064  12.128 -0.2363 -0.1743  0.1944
  720MPD2     C10639   1.292   0.600  14.064 -0.0251 -0.0866  0.1945
  720MPD2    C110640   1.398   0.559  13.983 -0.0534 -0.0309 -0.1784
  720MPD2    C210641   1.498   0.470  14.030  0.5411  0.3296 -0.3506
  720MPD2    C310642   1.499   0.432  14.162  0.4663  0.4217  0.6216
  720MPD2    C410643   1.399   0.482  14.243  0.7760  0.5333 -0.3971
  720MPD2    C510644   1.296   0.565  14.196  0.1419 -0.4445  0.2106
  720MPD2     H10645   1.578   0.428  13.971  0.8555 -1.2698  1.2000
  720MPD2    H110646   1.394   0.452  14.346  1.1187 -0.0032 -0.5388
  720MPD2    H210647   1.209   0.660  14.027 -0.4357 -0.2695  0.8104
  720MPD2    H310648   1.215   0.591  14.264 -2.3223 -0.7961 -2.5669
  720MPD2     N10649   1.614   0.361  14.212  0.5494 -0.5411  0.5324
  720MPD2    H510650   1.695   0.347  14.152 -1.0431  1.5730 -2.0931
  720MPD2    N110651   1.412   0.606  13.851  0.1712 -0.8029 -0.4729
  720MPD2    H710652   1.480   0.565  13.787 -0.7894 -1.4364 -1.0861
  721TMC3    C110653   1.757   0.258  14.388 -0.5071  0.0225 -0.3189
  721TMC3    C210654   1.766   0.216  14.520  0.2185 -0.0952 -0.0375
  721TMC3    C310655   1.883   0.173  14.568  0.3276  0.4933  0.2435
  721TMC3    C410656   1.861   0.247  14.297  0.7463  0.5590  0.0824
  721TMC3    C510657   1.983   0.204  14.357 -0.3321 -0.0375  0.1937
  721TMC3    C610658   1.997   0.173  14.494 -0.3699 -0.1812  0.8435
  721TMC3     C10659   1.626   0.311  14.348 -0.4863 -0.2370 -0.2832
  721TMC3     O10660   1.539   0.314  14.435  0.1604  0.0159  0.5135
  721TMC3     H10661   1.682   0.243  14.582  0.6143  0.0228  0.4464
  721TMC3    H110662   1.861   0.277  14.193  0.7228 -0.0380 -0.0913
  721TMC3    H210663   2.096   0.142  14.528 -0.1378 -0.7531 -0.3458
  721TMC3    C710664   2.089   0.160  14.268  0.1049  0.7411 -0.0197
  721TMC3    C810665   1.905   0.173  14.711  0.2299 -0.1773 -0.0026
  721TMC3    O110666   2.098   0.218  14.159  0.1339 -0.4313 -0.6297
  721TMC3    O210667   2.014   0.183  14.768 -0.7649  0.7691 -0.5149
  722MPD2     C10668   0.141   3.713  13.188 -0.6151  0.2322  0.6120
  722MPD2    C110669   0.098   3.839  13.155  0.0171  0.5124  0.2609
  722MPD2    C210670   4.715   3.851  13.065 -0.5227  0.6234  0.1177
  722MPD2    C310671   4.660   3.735  13.011  0.0057  1.1275 -0.7066
  722MPD2    C410672   4.708   3.610  13.036 -0.3543  0.9020 -0.9806
  722MPD2    C510673   0.090   3.595  13.128  0.2886 -0.6495 -0.5980
  722MPD2     H10674   4.682   3.946  13.025 -0.2639 -0.3898 -2.4619
  722MPD2    H110675   4.667   3.516  12.999 -4.2526  1.6079  1.5542
  722MPD2    H210676   0.206   3.707  13.274  0.6446  0.2325 -0.3419
  722MPD2    H310677   0.121   3.497  13.163 -1.0387 -0.6304  0.6245
  722MPD2     N10678   4.540   3.760  12.935 -0.5154  0.0952  0.1311
  722MPD2    H510679   4.502   3.853  12.923  1.0684  0.5449 -1.4291
  722MPD2    N110680   0.157   3.953  13.209  0.1351  0.2135  0.4969
  722MPD2    H710681   0.127   4.044  13.175 -0.8750 -0.2557  0.1572
  723TMC3    C110682   4.350   3.699  12.796 -0.6066 -0.5551 -0.3188
  723TMC3    C210683   4.289   3.596  12.723  0.2843  0.4571  0.3548
  723TMC3    C310684   4.163   3.609  12.675  0.3035 -0.5727 -0.2868
  723TMC3    C410685   4.287   3.817  12.820 -0.1146  0.0869  0.1110
  723TMC3    C510686   4.153   3.817  12.784  0.5244 -0.9444  0.3028
  723TMC3    C610687   4.100   3.721  12.707 -0.1816 -0.0198 -0.5601
  723TMC3     C10688   4.466   3.656  12.872  0.0909 -0.6679 -0.8223
  723TMC3     O10689   4.487   3.536  12.866  0.8199 -0.6630  0.4543
  723TMC3     H10690   4.359   3.516  12.700  0.4794  0.5431  0.6382
  723TMC3    H110691   4.342   3.890  12.878  1.4780 -0.1752 -1.1015
  723TMC3    H210692   4.001   3.735  12.665 -0.3988  1.9139  0.6024
  723TMC3    C710693   4.063   3.930  12.805 -0.4543 -0.1182 -0.4313
  723TMC3    C810694   4.078   3.490  12.674  0.0863  0.4277  0.0168
  723TMC3    O110695   3.948   3.912  12.763  0.3724 -0.3603 -0.7058
  723TMC3    O210696   3.959   3.516  12.707 -0.0369  0.4055  0.0074
  724TMC3    C110697   1.495   1.979   9.586 -0.2302 -0.5487 -1.0652
  724TMC3    C210698   1.367   2.030   9.590 -0.4623  0.0621 -0.4909
  724TMC3    C310699   1.341   2.113   9.699  0.2453  0.7960 -0.7075
  724TMC3    C410700   1.575   1.964   9.694  0.0008  0.1961 -0.2963
  724TMC3    C510701   1.532   2.025   9.803  0.7868  0.0413 -0.2608
  724TMC3    C610702   1.418   2.108   9.813 -0.0539  0.5145  0.7059
  724TMC3     C10703   1.538   1.918   9.461  0.2121  0.1739 -0.4245
  724TMC3     O10704   1.456   1.847   9.404 -0.0213 -0.3769 -0.0735
  724TMC3     H10705   1.325   2.042   9.491  0.2743  4.2015 -0.3193
  724TMC3    H110706   1.675   1.926   9.678  0.5222  0.9284  1.2273
  724TMC3    H210707   1.385   2.159   9.903 -1.1409 -0.3011  0.7592
  724TMC3    C710708   1.626   2.044   9.911 -0.2820  0.1575 -0.1431
  724TMC3    C810709   1.253   2.228   9.666  0.0574 -0.5418  0.0202
  724TMC3    O110710   1.744   2.023   9.886  0.6833  0.2105 -0.4612
  724TMC3    O210711   1.160   2.204   9.591 -0.4063  0.4110  0.3215
  725TMC3    C110712   1.930   0.748  12.806 -0.1639  0.1295 -0.5113
  725TMC3    C210713   1.845   0.781  12.706  0.2506  0.2161 -0.6821
  725TMC3    C310714   1.761   0.683  12.656 -0.6278  0.9683 -0.3317
  725TMC3    C410715   1.945   0.618  12.844  0.0233  0.4958  0.4723
  725TMC3    C510716   1.862   0.522  12.799 -0.2382  0.5664 -0.3707
  725TMC3    C610717   1.762   0.556  12.709 -0.0677 -0.8207  0.4170
  725TMC3     C10718   1.997   0.856  12.876 -0.4016 -0.1362  0.1414
  725TMC3     O10719   2.010   0.953  12.809  0.0184  0.1484 -0.6180
  725TMC3     H10720   1.846   0.882  12.667  0.0707  0.1190 -0.9391
  725TMC3    H110721   2.024   0.584  12.910 -0.7015  0.9269  1.5519
  725TMC3    H210722   1.696   0.482  12.664 -0.0659  0.3253 -1.4435
  725TMC3    C710723   1.919   0.399  12.761 -0.8850  0.2443  0.2983
  725TMC3    C810724   1.681   0.706  12.535 -1.0318 -0.0665  0.3760
  725TMC3    O110725   1.864   0.347  12.664  0.4566 -0.1793  0.1724
  725TMC3    O210726   1.589   0.629  12.514  0.4405  0.1870  0.5281
  726MPD2     C10727   0.415   2.296   9.936 -0.1928 -0.6310 -0.0428
  726MPD2    C110728   0.308   2.338  10.014  0.8195  0.0088  0.3779
  726MPD2    C210729   0.204   2.252  10.035  0.3605  0.6314  0.2588
  726MPD2    C310730   0.208   2.125   9.991 -0.5309 -0.1266  0.7317
  726MPD2    C410731   0.306   2.091   9.895  0.6086 -0.2451  0.3623
  726MPD2    C510732   0.410   2.172   9.873 -0.1504 -0.5924  0.1483
  726MPD2     H10733   0.128   2.280  10.107  0.9634 -0.6137  1.3827
  726MPD2    H110734   0.308   1.995   9.845 -1.0683  0.0251 -0.2235
  726MPD2    H210735   0.497   2.366   9.920 -0.4537  0.0235  1.4332
  726MPD2    H310736   0.484   2.143   9.799  0.7585 -0.3968  0.9742
  726MPD2     N10737   0.107   2.028  10.019  0.2221  0.0436 -0.3240
  726MPD2    H510738   0.123   1.939   9.973  0.9046  0.5766 -1.1313
  726MPD2    N110739   0.313   2.467  10.080 -0.3214  0.1306 -0.5103
  726MPD2    H710740   0.227   2.491  10.128  1.3665  3.3743  0.8911
  727TMC3    C110741   0.397   2.683  10.145 -0.5761  0.1406 -0.2326
  727TMC3    C210742   0.504   2.754  10.194  0.0774 -0.5471  0.7096
  727TMC3    C310743   0.509   2.890  10.187 -0.7044 -0.2191  0.7221
  727TMC3    C410744   0.289   2.749  10.094 -0.1104 -0.7372  0.3105
  727TMC3    C510745   0.300   2.885  10.088 -0.1854 -0.2962  0.6273
  727TMC3    C610746   0.409   2.958  10.128 -0.0667  0.1354  0.0652
  727TMC3     C10747   0.426   2.548  10.089  0.0720  0.8546  0.4711
  727TMC3     O10748   0.544   2.517  10.071 -0.2032  0.3381 -0.6184
  727TMC3     H10749   0.591   2.703  10.232 -0.0273 -1.9248 -0.9393
  727TMC3    H110750   0.217   2.696  10.033 -0.2468 -0.6257  0.3750
  727TMC3    H210751   0.422   3.060  10.097  0.7170 -0.7139 -2.3675
  727TMC3    C710752   0.195   2.952  10.013 -0.5654  0.5814 -0.4302
  727TMC3    C810753   0.623   2.956  10.245  0.1339  0.1268  0.3774
  727TMC3    O110754   0.135   2.882   9.931 -0.0387 -0.3039  0.0745
  727TMC3    O210755   0.723   2.892  10.259  0.0658  0.3083 -0.2702
  728TMC3    C110756   4.460   0.719  15.142  0.0324  0.2084  1.0025
  728TMC3    C210757   4.561   0.810  15.182 -0.4168  0.9837  0.1910
  728TMC3    C310758   4.648   0.848  15.082  0.6509  0.5878 -0.0832
  728TMC3    C410759   4.450   0.674  15.008  0.1198 -0.3970  0.6866
  728TMC3    C510760   4.535   0.727  14.916  0.4202  0.7465 -0.5347
  728TMC3    C610761   4.637   0.814  14.951  0.8091  0.0835 -0.5409
  728TMC3     C10762   4.362   0.687  15.247 -0.3647  0.2652  0.0786
  728TMC3     O10763   4.387   0.703  15.367 -0.7445 -0.1849 -0.1915
  728TMC3     H10764   4.570   0.848  15.284  2.0084 -0.2928  0.4518
  728TMC3    H110765   4.377   0.600  14.977  0.2607 -0.2265 -0.0601
  728TMC3    H210766   4.707   0.837  14.871  0.9178 -2.3512 -1.1588
  728TMC3    C710767   4.516   0.688  14.782  0.7852 -0.0340 -0.3052
  728TMC3    C810768   0.050   0.925  15.118  0.4799 -0.9137  0.3151
  728TMC3    O110769   4.478   0.575  14.756 -0.3120 -0.4917  0.3127
  728TMC3    O210770   0.159   0.897  15.067  0.4057 -0.3505 -0.5632
  729MPD2     C10771   1.968   1.285  16.467  0.4527 -0.9621 -0.0241
  729MPD2    C110772   2.042   1.377  16.534  0.0106 -0.1994  0.0823
  729MPD2    C210773   2.041   1.388  16.669 -0.1619 -0.1308  0.5024
  729MPD2    C310774   1.962   1.298  16.741  0.4635 -0.3064 -0.4351
  729MPD2    C410775   1.881   1.210  16.672  0.3311 -0.7707  0.3477
  729MPD2    C510776   1.879   1.209  16.533 -0.1426  0.4392 -0.2023
  729MPD2     H10777   2.085   1.476  16.713  0.8768  0.9253 -2.6086
  729MPD2    H110778   1.821   1.131  16.715  0.4375 -0.6325  0.7525
  729MPD2    H210779   1.953   1.296  16.361  0.6199  1.1143  0.1747
  729MPD2    H310780   1.812   1.138  16.486  0.4385 -0.5751  0.5152
  729MPD2     N10781   1.920   1.311  16.872 -0.9191  0.2118 -0.3063
  729MPD2    H510782   1.853   1.248  16.915 -1.6334  1.6050  0.6167
  729MPD2    N110783   2.124   1.460  16.450 -0.4956  0.2162  0.1565
  729MPD2    H710784   2.109   1.464  16.350  1.1601  0.2556 -0.0986
  730TMC3    C110785   1.884   1.444  17.064 -0.8419 -0.3016  0.3645
  730TMC3    C210786   1.895   1.412  17.196 -0.5375 -0.5133 -0.4377
  730TMC3    C310787   1.810   1.477  17.282  0.2182 -0.6074 -0.0188
  730TMC3    C410788   1.783   1.529  17.020 -0.3588 -0.7983 -0.5233
  730TMC3    C510789   1.702   1.591  17.110  0.3448  0.0221 -0.0165
  730TMC3    C610790   1.710   1.567  17.247 -0.0197  1.0737 -0.5666
  730TMC3     C10791   1.974   1.406  16.954  0.5425 -0.7790 -0.0976
  730TMC3     O10792   2.075   1.472  16.936  0.3021 -0.2243 -0.0150
  730TMC3     H10793   1.972   1.343  17.230  0.9399  1.4393  0.1867
  730TMC3    H110794   1.762   1.542  16.914  0.6170  1.4446 -0.4393
  730TMC3    H210795   1.625   1.601  17.305 -0.3595  1.4173 -1.2698
  730TMC3    C710796   1.625   1.706  17.059 -0.6955  0.8861 -0.0401
  730TMC3    C810797   1.826   1.447  17.430 -0.2207  0.0392  0.2497
  730TMC3    O110798   1.627   1.710  16.935  0.0720  0.0852  0.4413
  730TMC3    O210799   1.887   1.346  17.459 -0.0924 -0.0199 -0.1369
  731MPD2     C10800   1.425   0.477  11.687  0.6703 -0.0331 -1.3144
  731MPD2    C110801   1.495   0.363  11.722 -0.5029  1.0765  0.5319
  731MPD2    C210802   1.519   0.345  11.860  0.4732 -0.9481  0.0180
  731MPD2    C310803   1.460   0.421  11.961 -1.0435  0.7126 -0.0200
  731MPD2    C410804   1.374   0.526  11.921  0.9351  0.0110  0.3015
  731MPD2    C510805   1.378   0.556  11.790 -0.8268  0.4491 -0.2553
  731MPD2     H10806   1.565   0.250  11.884  2.0210 -0.2279 -0.0740
  731MPD2    H110807   1.317   0.585  11.992  0.9703  0.0939  0.2614
  731MPD2    H210808   1.417   0.510  11.584 -0.2133 -1.7020 -1.7694
  731MPD2    H310809   1.318   0.639  11.754 -0.0709  0.9172 -0.4408
  731MPD2     N10810   1.474   0.370  12.097  0.0148  0.6063  0.1270
  731MPD2    H510811   1.526   0.283  12.108  0.0486  0.8439  1.8521
  731MPD2    N110812   1.533   0.263  11.636 -0.0408  0.4703  0.2572
  731MPD2    H710813   1.598   0.194  11.672 -1.6862 -0.3353  1.6515
  732TMC3    C110814   1.552   0.142  11.444 -0.2703  0.1784  0.1874
  732TMC3    C210815   1.466   0.061  11.381  0.4487  0.0592  0.6965
  732TMC3    C310816   1.519   4.680  11.307  0.0476 -0.2035 -1.0588
  732TMC3    C410817   1.690   0.127  11.431 -0.0121  0.0802  0.0071
  732TMC3    C510818   1.742   0.024  11.357 -0.2207  0.3738 -0.0788
  732TMC3    C610819   1.656   4.659  11.299  0.5302 -0.2566 -0.7473
  732TMC3     C10820   1.483   0.252  11.513  0.7144 -0.0248 -0.6155
  732TMC3     O10821   1.383   0.307  11.465  0.4171  0.4476  0.5763
  732TMC3     H10822   1.361   0.080  11.368  1.1790  1.9315 -2.5287
  732TMC3    H110823   1.752   0.191  11.493  2.0571  0.0013 -2.0133
  732TMC3    H210824   1.689   4.581  11.231 -1.0867 -2.6763  1.2380
  732TMC3    C710825   1.872   4.696  11.380 -0.0571 -0.0213 -0.5043
  732TMC3    C810826   1.442   4.561  11.313 -0.7581 -0.2649 -0.0133
  732TMC3    O110827   1.915   4.620  11.291  0.5317  0.3932  0.1961
  732TMC3    O210828   1.467   4.471  11.233 -0.1628 -0.5924  0.0011
  733TMC3    C110829   2.363   3.507  12.758 -0.7399  0.1501  0.1149
  733TMC3    C210830   2.475   3.438  12.787 -1.1889 -0.2791  0.1210
  733TMC3    C310831   2.594   3.483  12.738 -0.5416  0.4048 -0.2055
  733TMC3    C410832   2.367   3.620  12.674 -0.0974  0.4348  0.4399
  733TMC3    C510833   2.490   3.664  12.628 -0.4695 -0.2434  1.1894
  733TMC3    C610834   2.603   3.583  12.641  0.1897 -0.9153  0.0884
  733TMC3     C10835   2.235   3.486  12.827  0.1620  0.2035 -0.6329
  733TMC3     O10836   2.141   3.555  12.797  1.1402  0.1599  0.2452
  733TMC3     H10837   2.477   3.364  12.866 -0.8343 -0.7541 -0.3382
  733TMC3    H110838   2.280   3.679  12.648  0.6139  1.5088  0.4969
  733TMC3    H210839   2.692   3.611  12.585  0.2562 -1.7234 -0.2068
  733TMC3    C710840   2.483   3.771  12.528 -0.1417 -0.1779  0.5907
  733TMC3    C810841   2.722   3.415  12.783  0.4217 -0.7579  0.3032
  733TMC3    O110842   2.384   3.800  12.468 -0.1451  0.0847  0.5331
  733TMC3    O210843   2.727   3.357  12.890 -0.1879 -0.5699  0.4868
  734MPD2     C10844   0.165   1.385  11.863  0.2828 -0.1474  0.7161
  734MPD2    C110845   0.213   1.255  11.829 -0.2110  0.0913  0.5168
  734MPD2    C210846   0.236   1.229  11.693  0.4655 -0.2552  0.2736
  734MPD2    C310847   0.210   1.328  11.599 -0.3324  0.6859 -0.1988
  734MPD2    C410848   0.163   1.453  11.639  0.3603 -0.0062 -0.1016
  734MPD2    C510849   0.137   1.480  11.769  0.1608  0.3902 -0.0459
  734MPD2     H10850   0.280   1.133  11.670 -0.2413 -0.7078  0.7749
  734MPD2    H110851   0.132   1.537  11.579 -0.0414  1.6692  2.4499
  734MPD2    H210852   0.144   1.408  11.967  1.6363 -0.2066  1.0039
  734MPD2    H310853   0.090   1.575  11.791 -0.4094  0.0845  0.0712
  734MPD2     N10854   0.255   1.303  11.469  0.2275 -0.5166 -0.6416
  734MPD2    H510855   0.281   1.207  11.447 -1.1247 -1.7064  2.9835
  734MPD2    N110856   0.214   1.160  11.930  0.2436 -0.6041 -0.5791
  734MPD2    H710857   0.184   1.198  12.020 -1.0627  1.8050 -2.0224
  735TMC3    C110858   0.220   0.957  12.029 -0.2342 -0.2248  0.0039
  735TMC3    C210859   0.106   0.898  11.984 -0.2636 -0.3903 -1.2318
  735TMC3    C310860   0.080   0.767  11.993  0.4338 -0.5543 -0.5433
  735TMC3    C410861   0.313   0.875  12.095  0.3784  0.6975  0.7728
  735TMC3    C510862   0.287   0.741  12.105  0.0226  0.1231  0.2561
  735TMC3    C610863   0.172   0.687  12.054  0.5101  0.0836 -0.0067
  735TMC3     C10864   0.275   1.039  11.926  0.6818  0.4308 -0.5839
  735TMC3     O10865   0.334   0.976  11.840 -0.2739 -0.2741  0.1919
  735TMC3     H10866   0.047   0.957  11.914  0.0961 -0.0229 -1.2187
  735TMC3    H110867   0.407   0.911  12.135  1.7511 -0.0043 -1.8665
  735TMC3    H210868   0.155   0.581  12.039  1.6052 -0.1321  0.2400
  735TMC3    C710869   0.401   0.660  12.104 -0.2859 -0.3111  0.4950
  735TMC3    C810870   0.039   0.705  11.868 -0.0052 -0.5376 -0.0308
  735TMC3    O110871   0.494   0.698  12.034 -0.1836  0.0455 -0.1400
  735TMC3    O210872   4.674   0.616  11.863 -0.2630  0.6154 -0.9316
  736MPD2     C10873   0.431   0.327  12.254 -0.1658  0.5134 -0.3860
  736MPD2    C110874   0.467   0.434  12.171  0.2301  0.1555 -0.1297
  736MPD2    C210875   0.579   0.426  12.092 -0.1147  0.5979 -0.0659
  736MPD2    C310876   0.663   0.321  12.107  0.8980 -0.1169  0.2318
  736MPD2    C410877   0.630   0.227  12.201 -0.2994 -0.0090 -0.5371
  736MPD2    C510878   0.513   0.218  12.272  0.0762  0.0326  0.0910
  736MPD2     H10879   0.606   0.508  12.026 -0.8452  1.4632  0.7105
  736MPD2    H110880   0.698   0.143  12.214 -0.7288 -0.4710 -1.2804
  736MPD2    H210881   0.336   0.334  12.305 -1.0124 -2.6629 -1.5311
  736MPD2    H310882   0.486   0.144  12.346  0.2908 -0.8749 -0.7408
  736MPD2     N10883   0.786   0.296  12.034  0.0499 -0.0673  0.9035
  736MPD2    H510884   0.850   0.217  12.038  1.6948  1.2383  0.4373
  736MPD2    N110885   0.373   0.542  12.168  0.0472  0.0636  0.1056
  736MPD2    H710886   0.288   0.536  12.223  0.9801  0.3570  1.5757
  737TMC3    C110887   0.948   0.344  11.869 -0.0499 -0.7294  0.1051
  737TMC3    C210888   1.017   0.454  11.823  0.2916  0.8159  0.1741
  737TMC3    C310889   1.073   0.447  11.703  0.0971 -0.2935  0.5677
  737TMC3    C410890   0.936   0.229  11.802  0.5358  0.2824  0.0233
  737TMC3    C510891   1.011   0.220  11.688  0.6877  0.2208  0.2378
  737TMC3    C610892   1.078   0.329  11.638 -0.6289  0.2610  0.0075
  737TMC3     C10893   0.827   0.388  11.939  0.1691 -0.0525  0.2598
  737TMC3     O10894   0.793   0.502  11.900 -0.7878 -0.9762  0.1292
  737TMC3     H10895   1.014   0.547  11.878  0.2793  1.1628 -0.4121
  737TMC3    H110896   0.888   0.140  11.841  1.2064 -1.4171 -3.0618
  737TMC3    H210897   1.135   0.327  11.546 -0.2352  1.1181  0.2304
  737TMC3    C710898   0.992   0.102  11.611 -0.1922  0.5009 -0.3153
  737TMC3    C810899   1.065   0.574  11.634 -0.2787  0.2584  0.1575
  737TMC3    O110900   0.916   0.014  11.656 -0.0904 -0.3146  0.0384
  737TMC3    O210901   1.062   0.673  11.705 -0.1620  0.0040  0.3274
  738MPD2     C10902   1.076   3.836  15.290  0.1697  1.0249 -0.3307
  738MPD2    C110903   0.999   3.861  15.181 -0.1383  0.3068  0.2254
  738MPD2    C210904   1.051   3.942  15.080 -0.7469  0.2548  0.1278
  738MPD2    C310905   1.162   4.021  15.100 -0.0958 -0.3520  0.3667
  738MPD2    C410906   1.228   4.005  15.222 -0.2397  0.0710  0.4693
  738MPD2    C510907   1.191   3.905  15.308 -0.6055 -0.2428  0.4280
  738MPD2     H10908   0.992   3.952  14.990  0.9944  0.6937 -0.9599
  738MPD2    H110909   1.321   4.057  15.239 -0.6317  0.4065  1.5664
  738MPD2    H210910   1.043   3.767  15.367 -1.0601  0.7475 -1.1168
  738MPD2    H310911   1.249   3.881  15.397 -5.0355 -3.1235  2.5647
  738MPD2     N10912   1.213   4.116  15.005 -0.0219 -0.5616  0.7364
  738MPD2    H510913   1.297   4.162  15.038  0.7906  0.1081 -2.3189
  738MPD2    N110914   0.866   3.817  15.161  0.1931 -1.1638 -0.3380
  738MPD2    H710915   0.809   3.851  15.084  0.8420  0.5491 -0.0602
  739TMC3    C110916   1.243   4.259  14.819  0.1997 -0.3088 -0.2175
  739TMC3    C210917   1.189   4.329  14.716 -0.3902  0.8843 -0.0025
  739TMC3    C310918   1.270   4.404  14.637 -0.6030  0.9627  0.4982
  739TMC3    C410919   1.379   4.255  14.834 -0.4278  0.8593 -0.8043
  739TMC3    C510920   1.456   4.323  14.745  0.0520 -0.2627 -0.5580
  739TMC3    C610921   1.405   4.393  14.645  0.5137 -0.4222 -0.1206
  739TMC3     C10922   1.158   4.160  14.891  0.1417  0.3622  0.2272
  739TMC3     O10923   1.056   4.119  14.836  0.1430  0.0194  0.2018
  739TMC3     H10924   1.081   4.339  14.725 -0.6838 -0.0618 -2.4694
  739TMC3    H110925   1.420   4.201  14.919 -2.2085  0.9242  0.0922
  739TMC3    H210926   1.464   4.433  14.564 -2.2031  2.5492 -0.6444
  739TMC3    C710927   1.595   4.288  14.722  0.0041  0.2608 -0.4301
  739TMC3    C810928   1.206   4.466  14.525  0.6024  0.2205 -1.1896
  739TMC3    O110929   1.661   4.365  14.651 -0.6371 -0.4226 -0.1244
  739TMC3    O210930   1.095   4.428  14.487 -0.0779 -0.5695  0.2475
  740TMC3    C110931   1.514   0.832  14.285 -0.1988 -0.5590  0.2504
  740TMC3    C210932   1.582   0.775  14.391  0.1080 -0.4203 -0.0332
  740TMC3    C310933   1.708   0.729  14.372  0.5240 -0.0035  0.3494
  740TMC3    C410934   1.566   0.842  14.161 -0.3558  0.5050 -0.0514
  740TMC3    C510935   1.683   0.778  14.144  0.8802 -0.1519 -0.1295
  740TMC3    C610936   1.762   0.730  14.246 -0.8732 -0.3354 -0.3105
  740TMC3     C10937   1.378   0.884  14.313 -0.1756 -0.8733 -0.1103
  740TMC3     O10938   1.340   0.977  14.241 -0.3097 -0.0050 -0.0430
  740TMC3     H10939   1.529   0.755  14.484  2.0803 -0.6031  1.0489
  740TMC3    H110940   1.500   0.880  14.084  2.0722  0.6907 -2.0684
  740TMC3    H210941   1.861   0.688  14.231 -0.5982  0.0176  0.5120
  740TMC3    C710942   1.730   0.742  14.007  0.2401 -0.0654  0.4917
  740TMC3    C810943   1.780   0.649  14.467 -0.1592 -0.2647 -0.1671
  740TMC3    O110944   1.800   0.644  13.996  0.3449 -0.3924  0.6150
  740TMC3    O210945   1.871   0.579  14.425  0.0222  0.6671  0.5034
  741TMC3    C110946   1.006   0.293  14.400  0.1712 -0.7939  0.4915
  741TMC3    C210947   0.961   0.194  14.317 -0.3801  0.0778  0.1278
  741TMC3    C310948   0.948   0.066  14.369  0.4690 -0.0447  0.4116
  741TMC3    C410949   1.058   0.263  14.527  0.0013  0.0772 -0.4085
  741TMC3    C510950   1.033   0.132  14.575  0.3501  0.0648  0.2749
  741TMC3    C610951   0.986   0.031  14.498 -0.6255  0.5816 -0.4801
  741TMC3     C10952   0.974   0.424  14.362  0.4565  0.1218  0.3706
  741TMC3     O10953   0.997   0.457  14.247  0.1476  0.9560  0.1169
  741TMC3     H10954   0.917   0.211  14.219  0.6093 -0.7219 -0.4521
  741TMC3    H110955   1.098   0.343  14.588  2.2812 -1.1083 -0.3641
  741TMC3    H210956   0.972   4.650  14.536  0.0402  0.9980  0.8619
  741TMC3    C710957   1.078   0.100  14.706 -0.3202  0.6533  0.1716
  741TMC3    C810958   0.863   4.700  14.295 -0.2747  0.5511  0.1364
  741TMC3    O110959   1.035   0.000  14.759 -0.6585  0.0471 -0.9690
  741TMC3    O210960   0.809   0.014  14.190  0.2313 -0.5533  0.2916
  742TMC3    C110961   0.695   2.384  15.318 -0.1579 -0.4515 -0.3697
  742TMC3    C210962   0.663   2.454  15.204 -0.4620  0.6590  0.3693
  742TMC3    C310963   0.695   2.392  15.085  0.0547 -0.6767  0.1320
  742TMC3    C410964   0.778   2.273  15.319  0.1028 -0.0528 -0.1776
  742TMC3    C510965   0.824   2.227  15.195 -0.1665  0.6835 -0.0752
  742TMC3    C610966   0.785   2.288  15.077 -0.0408  0.3335 -0.4581
  742TMC3     C10967   0.643   2.418  15.449 -0.8285 -0.1429  0.6916
  742TMC3     O10968   0.635   2.323  15.524 -0.3893  0.1418 -0.6625
  742TMC3     H10969   0.598   2.539  15.219 -2.5885 -0.8749 -0.1730
  742TMC3    H110970   0.802   2.230  15.416  2.1364 -1.0040 -1.1154
  742TMC3    H210971   0.823   2.252  14.982  1.7486  0.5032  0.1888
  742TMC3    C710972   0.937   2.137  15.191 -0.0293 -0.1835 -0.0240
  742TMC3    C810973   0.639   2.452  14.969  0.1771  0.2569  0.3045
  742TMC3    O110974   1.021   2.153  15.100  0.1054 -0.2438 -0.6648
  742TMC3    O210975   0.703   2.422  14.870  0.3379  0.4194  0.0854
  743MPD2     C10976   3.320   3.559   1.791  0.0037  0.3520  0.4647
  743MPD2    C110977   3.377   3.590   1.668  0.1506  0.2987 -0.2155
  743MPD2    C210978   3.515   3.590   1.648  0.2794  0.3000  0.7214
  743MPD2    C310979   3.596   3.558   1.751 -0.2195  0.3499 -0.4154
  743MPD2    C410980   3.544   3.526   1.876 -0.3348  0.3033  0.0293
  743MPD2    C510981   3.409   3.529   1.894  0.0674 -0.6334 -0.3301
  743MPD2     H10982   3.559   3.615   1.552 -0.7916  0.8235  0.3750
  743MPD2    H110983   3.608   3.494   1.957 -1.8720  0.0884  1.1571
  743MPD2    H210984   3.214   3.559   1.816  0.0236 -2.2758  0.6203
  743MPD2    H310985   3.363   3.505   1.989  0.2157 -0.8205 -0.3059
  743MPD2     N10986   3.739   3.564   1.715  0.2931 -0.7001  0.0506
  743MPD2    H510987   3.759   3.587   1.618 -1.0704 -0.9944 -0.3101
  743MPD2    N110988   3.291   3.629   1.563  0.1254  0.7537 -0.1769
  743MPD2    H710989   3.193   3.611   1.583  0.3854 -0.7259 -0.2315
  744TMC3    C110990   3.196   3.659   1.354  0.4647  0.8693  0.5796
  744TMC3    C210991   3.085   3.720   1.406 -0.2260 -0.0913 -0.0535
  744TMC3    C310992   2.976   3.728   1.326  0.5486  0.1565 -0.8867
  744TMC3    C410993   3.205   3.618   1.224  0.3431  0.0754 -0.4867
  744TMC3    C510994   3.098   3.638   1.138 -0.4278  0.3599  0.1277
  744TMC3    C610995   2.980   3.688   1.190  0.0253 -0.2236 -0.6996
  744TMC3     C10996   3.319   3.673   1.428 -0.2250  0.5457 -0.8093
  744TMC3     O10997   3.422   3.692   1.364  0.9614 -0.1358 -0.7005
  744TMC3     H10998   3.088   3.765   1.504 -0.3733  1.9566 -0.9901
  744TMC3    H110999   3.288   3.558   1.187  2.2853  0.7239  2.8339
  744TMC3    H211000   2.889   3.693   1.132  0.0218 -2.0962 -0.8445
  744TMC3    C711001   3.107   3.608   0.996 -0.6050 -0.3823 -0.4443
  744TMC3    C811002   2.868   3.807   1.370  0.0877 -0.2783 -0.2521
  744TMC3    O111003   3.194   3.529   0.961 -0.3925  0.0936  0.5385
  744TMC3    O211004   2.908   3.900   1.439  0.2247  0.3580 -0.4213
  745TMC3    C111005   1.044   2.732  13.670  0.7977 -0.4191  0.5236
  745TMC3    C211006   0.916   2.696  13.699 -1.1057 -0.2786  0.6130
  745TMC3    C311007   0.814   2.710  13.612 -0.6925 -0.1870 -0.4497
  745TMC3    C411008   1.068   2.788  13.547 -0.4500 -0.1284  0.4037
  745TMC3    C511009   0.970   2.791  13.451 -0.2855 -0.0037 -0.2216
  745TMC3    C611010   0.847   2.743  13.483  0.3106  0.3316 -0.4947
  745TMC3     C11011   1.132   2.783  13.780 -0.1537  0.1286  0.0629
  745TMC3     O11012   1.114   2.721  13.882 -0.2419 -0.1540  0.5658
  745TMC3     H11013   0.894   2.661  13.800  1.0726 -1.6015  0.6245
  745TMC3    H111014   1.167   2.816  13.513 -0.8264  2.5721  1.5015
  745TMC3    H211015   0.764   2.755  13.414  1.7226  4.1776 -1.5386
  745TMC3    C711016   0.989   2.844  13.318  0.6726  0.2914  0.1097
  745TMC3    C811017   0.716   2.802  13.666  0.0484  0.0396 -0.8863
  745TMC3    O111018   0.914   2.803  13.231  0.5429 -0.7608 -0.4210
  745TMC3    O211019   0.639   2.856  13.585  0.7466  0.1445  0.4022
  746TMC3    C111020   3.427   0.534  10.900  0.7505  0.1698 -0.5897
  746TMC3    C211021   3.529   0.494  10.815 -0.5596 -0.8203 -0.2572
  746TMC3    C311022   3.506   0.386  10.733  0.6023 -0.8801  0.1868
  746TMC3    C411023   3.308   0.462  10.908 -0.5972  0.8967  0.4934
  746TMC3    C511024   3.292   0.358  10.816 -0.3102 -0.2331 -0.5122
  746TMC3    C611025   3.390   0.319  10.726  0.2052 -0.7503  0.7105
  746TMC3     C11026   3.458   0.607  11.017 -0.2135 -0.3829 -0.3871
  746TMC3     O11027   3.377   0.585  11.105 -0.4625 -0.0872 -0.4175
  746TMC3     H11028   3.633   0.518  10.835 -1.1337  0.4741  1.2556
  746TMC3    H111029   3.236   0.500  10.979 -0.8719  1.8197 -0.2758
  746TMC3    H211030   3.354   0.258  10.643  0.7569  2.5295 -1.9439
  746TMC3    C711031   3.184   0.265  10.827 -0.4715  1.0439  0.1690
  746TMC3    C811032   3.617   0.294  10.716  0.1504  0.2323  0.0103
  746TMC3    O111033   3.184   0.170  10.753  0.3983  0.2498  0.1735
  746TMC3    O211034   3.729   0.329  10.745 -0.1621  0.3375 -0.2076
  747TMC3    C111035   1.144   0.147  10.591  0.0143 -0.1933  0.1922
  747TMC3    C211036   1.170   0.042  10.675 -0.6334 -0.0580 -0.2183
  747TMC3    C311037   1.184   0.070  10.807 -0.0465  0.2216 -0.4435
  747TMC3    C411038   1.152   0.279  10.640 -0.7321  0.0901 -0.5604
  747TMC3    C511039   1.194   0.300  10.769 -0.6632 -0.4001 -0.1307
  747TMC3    C611040   1.209   0.196  10.852 -0.4413 -0.4018 -0.0033
  747TMC3     C11041   1.115   0.130  10.448  0.7138 -0.6158 -0.1304
  747TMC3     O11042   1.091   0.237  10.392  0.6509 -0.0514 -0.0192
  747TMC3     H11043   1.125   4.667  10.649 -0.7275 -0.5127  1.6232
  747TMC3    H111044   1.155   0.365  10.575  0.4469  2.1413  2.1851
  747TMC3    H211045   1.245   0.208  10.954 -2.5497 -0.6357  0.7724
  747TMC3    C711046   1.218   0.439  10.809  0.1206  0.7785  0.0497
  747TMC3    C811047   1.142   4.686  10.905 -0.5226  0.4288  0.5373
  747TMC3    O111048   1.169   0.532  10.745  0.2075 -0.0695  0.6454
  747TMC3    O211049   1.106   4.575  10.861 -0.6308  0.2587 -0.6777
  748MPD2     C11050   2.448   0.093   1.321  0.1388 -0.6112 -0.5389
  748MPD2    C111051   2.482   0.210   1.383 -0.2421 -0.4498 -0.1906
  748MPD2    C211052   2.613   0.240   1.393 -0.0255 -0.5415 -0.9169
  748MPD2    C311053   2.713   0.152   1.350  0.1052  0.5572  0.1420
  748MPD2    C411054   2.680   0.046   1.276 -0.5778 -0.1676 -0.3360
  748MPD2    C511055   2.546   0.014   1.266  0.6168  0.1077  0.0672
  748MPD2     H11056   2.647   0.341   1.410  1.0841 -0.8714 -1.2133
  748MPD2    H111057   2.755   4.698   1.238  0.6300 -1.8412  5.0965
  748MPD2    H211058   2.347   0.055   1.315 -0.5661  1.3065 -0.7987
  748MPD2    H311059   2.514   4.648   1.208 -0.0388  0.5477 -0.2316
  748MPD2     N11060   2.846   0.202   1.358  0.1212  0.3555  0.6622
  748MPD2    H511061   2.856   0.292   1.405 -0.7668  0.8713 -0.1569
  748MPD2    N111062   2.382   0.293   1.417 -0.2669 -0.3021 -0.0785
  748MPD2    H711063   2.288   0.255   1.408  0.4867 -2.3528  0.7720
  749TMC3    C111064   3.071   0.231   1.268 -0.4092 -0.0775 -0.0804
  749TMC3    C211065   3.167   0.146   1.219 -0.2981  0.3174  0.4118
  749TMC3    C311066   3.201   0.170   1.085 -0.7438 -0.0798 -0.8572
  749TMC3    C411067   3.029   0.345   1.195  0.2867 -0.4358  0.5120
  749TMC3    C511068   3.075   0.360   1.061  0.1060 -0.1718  0.1895
  749TMC3    C611069   3.158   0.273   1.005  0.2335 -0.7158  0.3814
  749TMC3     C11070   2.953   0.148   1.289 -0.1628 -0.4231 -0.0814
  749TMC3     O11071   2.953   0.042   1.226  0.6550  0.7761 -0.3071
  749TMC3     H11072   3.199   0.056   1.270 -0.1728  0.7974  1.1829
  749TMC3    H111073   2.939   0.403   1.217  0.6281  1.1021 -2.1555
  749TMC3    H211074   3.191   0.280   0.902  0.0860  1.6552  0.4964
  749TMC3    C711075   3.000   0.454   0.976 -0.0888  0.4655  0.2892
  749TMC3    C811076   3.254   0.056   1.006  0.0180  0.0634  0.0843
  749TMC3    O111077   2.971   0.565   1.020  0.2910 -0.3408 -0.4379
  749TMC3    O211078   3.258   0.065   0.884  0.0694 -0.4096  0.2549
  750MPD2     C11079   4.142   1.886  10.812  0.8177  0.5779  0.1101
  750MPD2    C111080   4.052   1.825  10.891 -0.5561  0.2476  0.9324
  750MPD2    C211081   3.984   1.713  10.844 -0.6179  0.6808  0.6926
  750MPD2    C311082   4.019   1.667  10.715  0.3250 -0.2118  0.2026
  750MPD2    C411083   4.110   1.731  10.637  0.0032 -1.0328 -0.1182
  750MPD2    C511084   4.172   1.839  10.691 -0.4894 -0.2950  0.3285
  750MPD2     H11085   3.910   1.663  10.904  0.8212  0.3167  2.1567
  750MPD2    H111086   4.155   1.690  10.547  0.4275 -1.2182  0.1774
  750MPD2    H211087   4.198   1.973  10.844 -0.6173  1.0839  1.2282
  750MPD2    H311088   4.262   1.876  10.643  0.5628 -0.4733  2.1475
  750MPD2     N11089   3.947   1.557  10.662  0.0090 -0.2354  0.4763
  750MPD2    H511090   3.967   1.534  10.565 -0.9286  0.0275  0.2222
  750MPD2    N111091   4.039   1.888  11.021  0.1798 -0.0072 -0.4388
  750MPD2    H711092   4.107   1.958  11.048  1.4613 -0.8854 -1.4034
  751TMC3    C111093   3.805   1.382  10.641  0.0804  0.8127 -0.2057
  751TMC3    C211094   3.671   1.360  10.659 -0.3788 -0.1807 -0.7197
  751TMC3    C311095   3.614   1.279  10.561 -0.9712  0.1571  0.9375
  751TMC3    C411096   3.878   1.348  10.530 -0.2006  0.0763  0.1067
  751TMC3    C511097   3.819   1.264  10.445  0.7800 -0.5321  0.5368
  751TMC3    C611098   3.680   1.234  10.456  0.6628  0.4361  0.3027
  751TMC3     C11099   3.862   1.475  10.732  0.0992  0.2730  0.0376
  751TMC3     O11100   3.816   1.485  10.843  0.1195 -0.0331 -0.0511
  751TMC3     H11101   3.618   1.381  10.751  1.6337  0.2882  0.3253
  751TMC3    H111102   3.986   1.355  10.538 -0.1416 -0.2074 -0.4747
  751TMC3    H211103   3.636   1.169  10.382  0.7146 -1.0553  1.5767
  751TMC3    C711104   3.908   1.160  10.390  0.1984 -0.7912  0.1375
  751TMC3    C811105   3.473   1.229  10.584  0.3616 -0.3011  0.1430
  751TMC3    O111106   3.862   1.107  10.289 -0.3133  0.1174 -0.6685
  751TMC3    O211107   3.430   1.145  10.505  0.2874 -0.1894 -0.0735
  752TMC3    C111108   2.072   1.781  17.301 -0.1001 -0.3829 -0.2038
  752TMC3    C211109   2.136   1.659  17.292  0.1451  0.4043 -1.2441
  752TMC3    C311110   2.159   1.582  17.401  0.2951  0.0224  0.4976
  752TMC3    C411111   2.064   1.832  17.430 -0.6360  0.2390 -0.1382
  752TMC3    C511112   2.075   1.751  17.541 -0.2827  0.0240 -0.3499
  752TMC3    C611113   2.115   1.624  17.529 -0.4021 -0.1632  0.4621
  752TMC3     C11114   2.015   1.851  17.191 -0.2277  0.0804 -0.3752
  752TMC3     O11115   1.930   1.931  17.217  0.7005 -0.3623 -0.3080
  752TMC3     H11116   2.138   1.617  17.192  0.3714  1.0843 -1.5291
  752TMC3    H111117   2.035   1.936  17.439 -0.4141  0.4452 -1.8687
  752TMC3    H211118   2.095   1.560  17.613 -0.2352  2.5717  2.5979
  752TMC3    C711119   2.056   1.810  17.668  0.1389  0.0811  0.1791
  752TMC3    C811120   2.202   1.441  17.382 -0.3106 -0.0632  0.0934
  752TMC3    O111121   2.032   1.929  17.662  0.0559 -0.3012  0.2307
  752TMC3    O211122   2.216   1.394  17.269  0.2479 -0.4999 -0.2055
  753TMC3    C111123   4.507   2.626  13.486  0.3296 -0.3041 -0.1925
  753TMC3    C211124   4.518   2.657  13.621  0.7998  0.3248 -0.3870
  753TMC3    C311125   4.491   2.558  13.719  0.3954 -0.1704  0.0365
  753TMC3    C411126   4.489   2.502  13.438  0.8122 -0.0267  0.3923
  753TMC3    C511127   4.479   2.402  13.530  0.3972  0.5213  0.3677
  753TMC3    C611128   4.477   2.430  13.669 -0.1061  0.0815 -0.8163
  753TMC3     C11129   4.484   2.734  13.393  0.2360  0.2134  0.3129
  753TMC3     O11130   4.394   2.722  13.310 -0.0355 -0.2665 -0.3230
  753TMC3     H11131   4.536   2.757  13.657  2.1371  0.6662 -1.9949
  753TMC3    H111132   4.494   2.487  13.331 -1.8980  1.0494  0.1190
  753TMC3    H211133   4.447   2.353  13.739 -0.0055 -0.0229 -0.8877
  753TMC3    C711134   4.480   2.269  13.481  0.4684 -0.2517 -0.1713
  753TMC3    C811135   4.549   2.567  13.857  0.5259  0.0025 -0.5372
  753TMC3    O111136   4.457   2.256  13.361  0.1520  0.1999  0.1571
  753TMC3    O211137   4.572   2.458  13.910 -0.2667 -0.2334 -0.5227
  754MPD2     C11138   3.177   1.482  13.180  0.2377 -0.3806 -0.2570
  754MPD2    C111139   3.095   1.380  13.225 -0.5029 -0.8005 -0.5691
  754MPD2    C211140   2.963   1.394  13.200 -0.9168  0.4077 -0.1046
  754MPD2    C311141   2.922   1.515  13.140  0.3412  0.4676  0.4731
  754MPD2    C411142   3.008   1.616  13.108 -0.3397  0.0266  0.3981
  754MPD2    C511143   3.137   1.596  13.125  0.1274 -0.0998 -1.2340
  754MPD2     H11144   2.893   1.314  13.222 -0.5763 -0.1679 -1.1132
  754MPD2    H111145   2.966   1.711  13.075 -1.7848 -0.3860  1.0730
  754MPD2    H211146   3.285   1.487  13.190  0.4640  0.1983 -2.9769
  754MPD2    H311147   3.204   1.676  13.096 -0.1193  0.5960  0.1439
  754MPD2     N11148   2.778   1.549  13.135 -0.6514  1.0476 -0.2080
  754MPD2    H511149   2.745   1.630  13.085  1.4703  2.0275 -0.0366
  754MPD2    N111150   3.162   1.266  13.272 -0.3678 -0.0998 -0.2199
  754MPD2    H711151   3.256   1.256  13.234  0.6887  1.5284  1.9629
  755MPD2     C11152   2.462   2.275  12.925 -0.0520 -0.3356 -0.3903
  755MPD2    C111153   2.352   2.198  12.938 -0.3768  0.1074 -0.3563
  755MPD2    C211154   2.371   2.059  12.946 -0.0422 -0.3110 -0.5828
  755MPD2    C311155   2.489   2.001  12.934 -0.1477  0.1812 -0.8103
  755MPD2    C411156   2.600   2.075  12.909 -0.1599  0.6520 -0.6828
  755MPD2    C511157   2.586   2.213  12.911 -0.0316 -0.0204  0.2352
  755MPD2     H11158   2.284   1.994  12.950 -1.7121  1.8503 -1.5120
  755MPD2    H111159   2.698   2.028  12.902 -0.8111 -0.8822  0.3077
  755MPD2    H211160   2.465   2.383  12.914  1.3735 -0.3068  0.2469
  755MPD2    H311161   2.672   2.277  12.893  0.1711 -0.1137  0.8748
  755MPD2     N11162   2.508   1.858  12.938 -0.7486  0.1533  0.5172
  755MPD2    H511163   2.598   1.815  12.954 -0.5126  0.1386 -0.8585
  755MPD2    N111164   2.224   2.255  12.948 -0.6721  0.0708 -0.0684
  755MPD2    H711165   2.155   2.181  12.953 -1.9855  1.1671 -1.6995
  756MPD2     C11166   4.128   1.740   9.288  0.0683  0.0145 -0.0711
  756MPD2    C111167   4.052   1.825   9.357  0.6786  0.5575 -0.4053
  756MPD2    C211168   3.933   1.879   9.307 -0.3376 -0.3934 -0.1361
  756MPD2    C311169   3.868   1.821   9.201 -0.2409  0.1678 -0.3481
  756MPD2    C411170   3.948   1.731   9.128 -0.0027  0.3338  0.3579
  756MPD2    C511171   4.075   1.690   9.174  0.4901 -0.0795 -0.0415
  756MPD2     H11172   3.883   1.950   9.371  0.8608  0.6516 -0.3712
  756MPD2    H111173   3.900   1.684   9.043 -2.4039  1.8130  0.8829
  756MPD2    H211174   4.220   1.697   9.326  0.4817 -0.5384 -1.7108
  756MPD2    H311175   4.116   1.615   9.107  0.2694  0.2035 -0.4931
  756MPD2     N11176   3.729   1.849   9.181 -0.9705  0.1367  0.0646
  756MPD2    H511177   3.678   1.911   9.243 -1.8444 -0.2561 -0.2659
  756MPD2    N111178   4.096   1.876   9.481  0.3743  0.3114  0.3569
  756MPD2    H711179   4.030   1.931   9.536 -0.2532 -3.2205  3.1602
  757MPD2     C11180   2.929   1.281   9.273 -0.1449 -0.0900  0.1175
  757MPD2    C111181   3.052   1.307   9.341  0.8133 -0.0538  0.3467
  757MPD2    C211182   3.136   1.418   9.315  0.2065  0.1604  0.7705
  757MPD2    C311183   3.105   1.499   9.205 -0.2936 -0.4359 -0.0509
  757MPD2    C411184   2.994   1.466   9.124  0.2925 -0.4782 -0.2304
  757MPD2    C511185   2.912   1.363   9.170  0.2084  0.4550  0.4512
  757MPD2     H11186   3.226   1.439   9.373  0.6343  1.0870 -0.2126
  757MPD2    H111187   2.972   1.525   9.036 -2.8529 -1.6538 -0.2202
  757MPD2    H211188   2.860   1.205   9.306 -0.7329 -0.0925 -1.1308
  757MPD2    H311189   2.823   1.353   9.109 -0.3790 -0.5637  1.4942
  757MPD2     N11190   3.193   1.611   9.187 -0.1776  0.4929 -0.2601
  757MPD2    H511191   3.275   1.615   9.247 -0.2688 -0.4056 -0.0724
  757MPD2    N111192   3.084   1.202   9.432 -0.9081  0.4325 -0.4686
  757MPD2    H711193   3.033   1.116   9.418 -0.6421  0.1509  0.3031
  758MPD2     C11194   3.141   0.582  15.984 -0.6739 -0.5145 -0.8096
  758MPD2    C111195   3.218   0.551  16.090 -0.9536 -0.3690  0.4878
  758MPD2    C211196   3.166   0.558  16.221 -0.0293  0.0003  0.0910
  758MPD2    C311197   3.026   0.591  16.227  0.2441  0.1963  0.0593
  758MPD2    C411198   2.953   0.620  16.116 -0.2088 -0.0161  0.1167
  758MPD2    C511199   3.010   0.621  15.990  0.7140 -0.4912  0.3594
  758MPD2     H11200   3.224   0.537  16.310  2.5253  1.6852 -1.1842
  758MPD2    H111201   2.849   0.648  16.125  0.0750  0.7348  1.1555
  758MPD2    H211202   3.177   0.574  15.882  0.1690  1.6980 -0.6859
  758MPD2    H311203   2.954   0.650  15.902 -0.9430  2.5116  2.3703
  758MPD2     N11204   2.960   0.594  16.349 -0.2089 -0.1986  0.3888
  758MPD2    H511205   2.865   0.630  16.348 -1.4580 -3.6311 -2.0766
  758MPD2    N111206   3.355   0.514  16.071  0.3816 -0.5427 -1.1964
  758MPD2    H711207   3.375   0.503  15.973  0.0820  0.3031 -1.3564
  759MPD2     C11208   3.125   3.836   9.933 -0.1154 -0.6262  0.2987
  759MPD2    C111209   2.994   3.876   9.954 -0.1361  0.6720  0.1983
  759MPD2    C211210   2.973   4.008   9.913 -0.5732  0.0312  0.2698
  759MPD2    C311211   3.061   4.087   9.847  0.3009  0.4218 -0.2543
  759MPD2    C411212   3.181   4.026   9.817 -0.0080  0.0930 -0.5991
  759MPD2    C511213   3.218   3.901   9.856 -0.8074  0.8548  0.7062
  759MPD2     H11214   2.879   4.060   9.928 -2.2520 -2.8889 -0.1145
  759MPD2    H111215   3.247   4.081   9.751  1.3735  0.0635  0.7742
  759MPD2    H211216   3.145   3.733   9.964  0.7715 -0.0511  1.6521
  759MPD2    H311217   3.312   3.853   9.833  0.0446  3.2308 -0.6973
  759MPD2     N11218   3.007   4.209   9.807 -0.0406 -0.3938  0.3828
  759MPD2    H511219   2.908   4.229   9.816 -0.6116 -1.0354 -4.2798
  759MPD2    N111220   2.891   3.798  10.020 -0.3771  1.1555 -0.2516
  759MPD2    H711221   2.810   3.848  10.055 -0.0363 -0.4891  2.8716
  760MPD2     C11222   1.504   2.065  11.752 -0.0132  0.0625 -0.0918
  760MPD2    C111223   1.638   2.055  11.722  0.2144 -0.1341  0.1489
  760MPD2    C211224   1.697   1.940  11.765  0.0430  0.2506 -0.2995
  760MPD2    C311225   1.625   1.831  11.825 -0.4098  0.8327 -1.0425
  760MPD2    C411226   1.493   1.860  11.857 -0.4211  0.2348  0.6063
  760MPD2    C511227   1.434   1.976  11.823  0.5881  0.1523  0.5216
  760MPD2     H11228   1.798   1.928  11.728  0.7497  2.1450  1.0259
  760MPD2    H111229   1.430   1.779  11.890 -0.4575 -1.4420 -3.5720
  760MPD2    H211230   1.444   2.142  11.704 -0.2059 -1.3720 -2.1227
  760MPD2    H311231   1.328   1.990  11.839  0.1616 -2.3740 -0.1673
  760MPD2     N11232   1.677   1.706  11.847 -0.5743  0.9231 -0.4405
  760MPD2    H511233   1.610   1.639  11.884  1.4875 -1.6880 -1.4382
  760MPD2    N111234   1.712   2.144  11.643  0.0644 -0.1215 -0.0690
  760MPD2    H711235   1.810   2.123  11.623  0.0474 -1.8353  1.7213
  761MPD2     C11236   3.043   1.233  10.862  0.1381 -0.5101 -0.1965
  761MPD2    C111237   3.105   1.133  10.794 -0.0905 -0.0718 -0.2736
  761MPD2    C211238   3.222   1.159  10.720 -0.0874  0.3312  0.0982
  761MPD2    C311239   3.278   1.283  10.724 -0.1238  0.2563  0.2831
  761MPD2    C411240   3.218   1.382  10.799  0.3378  0.0112  0.9729
  761MPD2    C511241   3.098   1.357  10.860  0.6385 -0.3403  0.5305
  761MPD2     H11242   3.275   1.077  10.672 -0.1152 -0.7608  1.9415
  761MPD2    H111243   3.268   1.478  10.805  1.5856 -0.5539 -0.5825
  761MPD2    H211244   2.946   1.220  10.907  0.6702 -1.1584  0.7711
  761MPD2    H311245   3.042   1.439  10.903  0.6598 -1.3541  2.5107
  761MPD2     N11246   3.406   1.311  10.666 -0.4991  0.2280  0.3480
  761MPD2    H511247   3.452   1.399  10.686 -1.1123  0.6414 -0.0487
  761MPD2    N111248   3.045   1.004  10.792  0.7325 -0.3016 -0.5367
  761MPD2    H711249   2.950   1.001  10.828  1.3456  0.8257  1.1427
  762MPD2     C11250   2.751   0.168  10.508 -0.4786  0.8639  0.2351
  762MPD2    C111251   2.868   0.240  10.513  0.4242  0.5159  0.4397
  762MPD2    C211252   2.984   0.187  10.457 -0.7317  0.0648  0.1680
  762MPD2    C311253   2.989   0.061  10.406 -0.3595  0.4577 -0.3719
  762MPD2    C411254   2.871   4.718  10.402  0.0227  0.3044  0.0840
  762MPD2    C511255   2.754   0.042  10.460  0.1044 -0.1441  0.4307
  762MPD2     H11256   3.075   0.244  10.472 -1.3313  0.8868  0.6685
  762MPD2    H111257   2.865   4.620  10.357 -2.3635  0.5268 -0.0737
  762MPD2    H211258   2.662   0.207  10.556 -1.6229 -0.0570 -1.1580
  762MPD2    H311259   2.658   4.712  10.455 -1.1567  2.3371 -0.5315
  762MPD2     N11260   3.101   4.713  10.351 -0.1409 -0.1093 -0.8465
  762MPD2    H511261   3.088   4.614  10.330 -2.2470 -0.3239  1.3855
  762MPD2    N111262   2.876   0.367  10.580  0.1618  0.5907  0.2752
  762MPD2    H711263   2.790   0.401  10.622 -0.4160 -1.5218  0.8386
  763MPD2     C11264   0.530   1.234  16.169 -0.0475  0.0336  0.2943
  763MPD2    C111265   0.396   1.240  16.177 -0.2823 -0.3700  0.9246
  763MPD2    C211266   0.336   1.305  16.282 -0.3726 -0.1678 -0.2276
  763MPD2    C311267   0.420   1.359  16.378  0.3057 -0.2654 -0.7801
  763MPD2    C411268   0.559   1.340  16.366  0.2391  0.1631  0.5038
  763MPD2    C511269   0.611   1.277  16.261  0.4431 -0.5277 -0.2363
  763MPD2     H11270   0.228   1.303  16.286 -0.4383  1.9719 -1.3593
  763MPD2    H111271   0.632   1.367  16.441  0.6882  0.3131  0.0136
  763MPD2    H211272   0.583   1.211  16.078 -1.4291  0.3907 -0.6125
  763MPD2    H311273   0.715   1.308  16.257  0.2390 -0.2091 -3.2052
  763MPD2     N11274   0.379   1.430  16.490 -0.3063  0.3177  0.5843
  763MPD2    H511275   0.439   1.486  16.550  1.6088  0.5243 -1.5326
  763MPD2    N111276   0.319   1.196  16.068  0.0449  0.2299 -0.1556
  763MPD2    H711277   0.228   1.238  16.052 -0.4590  0.0357  2.2429
  764MPD2     C11278   2.449   1.797  17.238 -0.3032  0.7467  0.4985
  764MPD2    C111279   2.392   1.916  17.272 -0.2545 -0.1555 -0.0593
  764MPD2    C211280   2.380   1.950  17.398  0.2053 -0.0577  1.2471
  764MPD2    C311281   2.416   1.870  17.501 -1.0963 -0.5545 -0.4574
  764MPD2    C411282   2.478   1.752  17.471 -0.3539 -0.0640 -0.8269
  764MPD2    C511283   2.488   1.713  17.337 -0.2017  0.0084 -0.6490
  764MPD2     H11284   2.348   2.046  17.437  0.5669  0.4770  0.2345
  764MPD2    H111285   2.509   1.681  17.547 -0.2352  0.7143 -0.1482
  764MPD2    H211286   2.486   1.766  17.141 -2.7290  0.1140 -0.2288
  764MPD2    H311287   2.533   1.620  17.304  0.1829  0.4293 -1.3065
  764MPD2     N11288   2.401   1.923  17.626  0.1242  0.2191 -0.5321
  764MPD2    H511289   2.339   2.003  17.638  1.6842  0.9781  2.6502
  764MPD2    N111290   2.356   2.017  17.180 -0.3230 -0.4182 -0.4886
  764MPD2    H711291   2.318   2.106  17.214  0.2665 -0.5767  0.6052
  765MPD2     C11292   2.801   0.402  15.351 -0.0791 -0.8161 -0.1541
  765MPD2    C111293   2.902   0.458  15.427 -0.1064 -1.0078  0.3559
  765MPD2    C211294   3.034   0.432  15.401  0.5690 -0.2969  0.4148
  765MPD2    C311295   3.069   0.348  15.296  0.4748 -0.1160 -0.5717
  765MPD2    C411296   2.968   0.299  15.219  0.2316  0.4344 -0.1293
  765MPD2    C511297   2.838   0.334  15.237  0.6992 -0.7056 -0.5543
  765MPD2     H11298   3.107   0.486  15.459 -0.1226  1.3777 -0.2834
  765MPD2    H111299   2.996   0.248  15.127 -2.9030 -0.6017 -0.5219
  765MPD2    H211300   2.696   0.425  15.366  0.1397  0.4185 -0.5145
  765MPD2    H311301   2.761   0.302  15.168  0.6329 -0.1012 -0.7628
  765MPD2     N11302   3.199   0.324  15.267  0.2281 -0.4241  0.4576
  765MPD2    H511303   3.260   0.376  15.329  0.3420 -0.6056  0.4957
  765MPD2    N111304   2.862   0.551  15.529  0.4999 -0.1761 -0.2459
  765MPD2    H711305   2.761   0.559  15.524  0.5315 -0.3629 -1.1421
  766MPD2     C11306   2.222   0.852  15.414  0.1468 -0.3240  0.0870
  766MPD2    C111307   2.341   0.783  15.413 -0.1201 -0.0092  0.1185
  766MPD2    C211308   2.364   0.679  15.323  0.0401  0.1921 -0.0870
  766MPD2    C311309   2.272   0.661  15.224 -0.0195 -0.3829 -0.3145
  766MPD2    C411310   2.154   0.735  15.223  0.0390 -0.1924 -0.7263
  766MPD2    C511311   2.135   0.832  15.312 -0.2397 -0.7532 -1.0283
  766MPD2     H11312   2.455   0.621  15.322 -0.9052 -1.2823  0.1817
  766MPD2    H111313   2.074   0.713  15.152 -0.4677 -1.9923  0.3999
  766MPD2    H211314   2.208   0.937  15.480  0.7173  0.6011 -0.9764
  766MPD2    H311315   2.035   0.875  15.318  0.5290  1.3405 -3.2431
  766MPD2     N11316   2.308   0.580  15.110  0.0056  0.0103  0.1532
  766MPD2    H511317   2.252   0.594  15.026  0.1753  2.1885  0.4098
  766MPD2    N111318   2.428   0.816  15.517 -0.7846  0.4166 -0.7328
  766MPD2    H711319   2.415   0.896  15.579  1.1058 -0.7017  1.0627
  767MPD2     C11320   2.163   0.999  15.045  0.9740  0.1236  0.3462
  767MPD2    C111321   2.288   0.951  15.003  0.2574  0.5898  0.0462
  767MPD2    C211322   2.286   0.882  14.881  0.9502 -0.0505 -0.5584
  767MPD2    C311323   2.178   0.882  14.795  0.0243 -0.1254 -0.4136
  767MPD2    C411324   2.058   0.930  14.842 -0.1163 -0.4733  0.3301
  767MPD2    C511325   2.055   0.993  14.961  0.4425  0.1459  0.2490
  767MPD2     H11326   2.378   0.845  14.838  1.2072 -0.4802  0.3510
  767MPD2    H111327   1.968   0.933  14.780  0.1116  0.9530  0.0660
  767MPD2    H211328   2.157   1.056  15.137 -3.0428 -1.9099  1.3371
  767MPD2    H311329   1.962   1.041  14.989 -1.2351 -1.1007 -3.2155
  767MPD2     N11330   2.192   0.815  14.671 -0.1151  0.1028 -0.2130
  767MPD2    H511331   2.277   0.762  14.657 -0.9508 -1.0789 -0.8393
  767MPD2    N111332   2.404   0.940  15.089  0.1477 -0.0677 -0.0253
  767MPD2    H711333   2.394   0.995  15.174  0.8492 -0.1942  0.1327
  768MPD2     C11334   3.127   4.088  10.637  0.0737  0.0277 -0.7041
  768MPD2    C111335   3.111   4.215  10.678  0.0699 -0.3346  0.2316
  768MPD2    C211336   3.222   4.287  10.732  1.2897  0.5389  0.1212
  768MPD2    C311337   3.352   4.231  10.731 -0.0230 -0.5789 -0.3390
  768MPD2    C411338   3.355   4.102  10.679  0.9068  0.6153  0.0877
  768MPD2    C511339   3.250   4.032  10.625  0.6231 -0.1224 -0.4587
  768MPD2     H11340   3.205   4.384  10.775  1.0185  0.7163 -0.3912
  768MPD2    H111341   3.443   4.040  10.693 -1.3362 -3.0833 -2.0148
  768MPD2    H211342   3.043   4.027  10.605 -0.2674  1.4329 -2.5104
  768MPD2    H311343   3.253   3.928  10.595  1.4527  0.5916 -2.8892
  768MPD2     N11344   3.468   4.285  10.782 -0.8268 -0.4997 -0.1964
  768MPD2    H511345   3.545   4.221  10.770 -1.2175 -0.9010 -0.5545
  768MPD2    N111346   2.984   4.280  10.689 -0.5591  0.3058  0.1963
  768MPD2    H711347   2.986   4.373  10.728 -0.2562  0.5018 -0.2819
  769MPD2     C11348   4.118   1.859  14.626  0.2620 -0.5890  0.1957
  769MPD2    C111349   4.028   1.959  14.645  0.4222 -0.0828  1.2249
  769MPD2    C211350   4.047   2.036  14.761  0.4406 -0.6445  0.5427
  769MPD2    C311351   4.152   2.010  14.855  0.1179  0.3989 -0.2693
  769MPD2    C411352   4.246   1.919  14.827 -0.5318  0.2326 -0.1886
  769MPD2    C511353   4.221   1.845  14.714  0.7911 -0.0322  0.0730
  769MPD2     H11354   3.983   2.122  14.779 -0.5309 -1.4721  1.0137
  769MPD2    H111355   4.330   1.886  14.887 -0.3905  1.9849  0.5851
  769MPD2    H211356   4.111   1.787  14.546  0.2964  0.5904 -0.8595
  769MPD2    H311357   4.286   1.764  14.684  0.4263  0.0196 -0.8719
  769MPD2     N11358   4.146   2.085  14.973 -0.1226  0.4256 -0.0961
  769MPD2    H511359   4.063   2.142  14.986 -1.9655 -2.1671 -0.5133
  769MPD2    N111360   3.919   1.960  14.559  0.2485 -0.3653 -0.0480
  769MPD2    H711361   3.926   1.904  14.474  0.3773  0.1891 -0.3992
  770MPD2     C11362   3.455   1.449  15.130  0.3641 -0.2114  0.2969
  770MPD2    C111363   3.508   1.380  15.022  0.1422 -0.8969  0.2246
  770MPD2    C211364   3.497   1.435  14.893  0.4951  0.2457 -0.3641
  770MPD2    C311365   3.456   1.568  14.888 -0.2470 -0.3372 -0.5259
  770MPD2    C411366   3.396   1.634  14.994  0.6200  0.0701 -0.7483
  770MPD2    C511367   3.392   1.572  15.115 -0.2542  0.5405  0.1719
  770MPD2     H11368   3.536   1.390  14.802  0.0420 -0.6781 -0.1044
  770MPD2    H111369   3.363   1.737  14.994 -0.8860 -0.4082 -1.2181
  770MPD2    H211370   3.454   1.417  15.233  1.4855  0.8157  0.6205
  770MPD2    H311371   3.347   1.625  15.198 -0.4190  1.6531 -0.6184
  770MPD2     N11372   3.492   1.639  14.771  0.4171 -0.4563  0.0359
  770MPD2    H511373   3.547   1.592  14.700  0.0702 -1.7616  0.6309
  770MPD2    N111374   3.575   1.254  15.039 -0.1198  0.0121 -0.4209
  770MPD2    H711375   3.608   1.235  15.133  0.8692  0.6242 -0.6418
  771MPD2     C11376   0.139   0.157  13.692 -0.8155  0.0577 -0.3135
  771MPD2    C111377   0.046   0.256  13.664  0.4577 -0.0078  0.2769
  771MPD2    C211378   4.636   0.224  13.612 -0.2269 -1.2013 -0.1964
  771MPD2    C311379   4.601   0.091  13.596  0.8763  0.1136  0.9923
  771MPD2    C411380   4.697   4.713  13.618 -0.0553  0.2013 -0.0514
  771MPD2    C511381   0.100   0.026  13.667  0.3322 -0.2753 -0.1405
  771MPD2     H11382   4.569   0.304  13.585  0.5004 -0.1649  1.0816
  771MPD2    H111383   4.677   4.607  13.606 -0.1751  0.4006 -1.5654
  771MPD2    H211384   0.243   0.176  13.716 -0.7446 -0.7059 -0.0336
  771MPD2    H311385   0.164   4.662  13.690  1.1393  0.2661 -0.3968
  771MPD2     N11386   4.474   0.057  13.557  0.7342  0.3501  0.9044
  771MPD2    H511387   4.415   0.138  13.543 -1.4834 -1.5107 -0.4530
  771MPD2    N111388   0.078   0.393  13.677  0.6303  0.5950  0.5564
  771MPD2    H711389   0.001   0.455  13.653 -0.4690 -0.5964  0.9856
  772MPD2     C11390   4.381   0.918  13.938  0.2921 -0.1523 -0.0730
  772MPD2    C111391   4.425   0.794  13.908  0.6270 -0.5462 -0.3776
  772MPD2    C211392   4.333   0.686  13.927 -0.0572 -0.1532 -0.0688
  772MPD2    C311393   4.204   0.718  13.974  0.0675 -0.0809  0.1317
  772MPD2    C411394   4.170   0.850  13.997  0.1333 -0.2001 -0.7136
  772MPD2    C511395   4.257   0.950  13.983 -0.2284  0.1719  0.8425
  772MPD2     H11396   4.358   0.583  13.907  1.2706 -0.0783  1.2132
  772MPD2    H111397   4.072   0.881  14.030  0.7058 -1.3372  2.0210
  772MPD2    H211398   4.444   1.007  13.934 -0.7023  0.5508 -0.0800
  772MPD2    H311399   4.220   1.048  14.010  2.1534  1.4647 -0.5335
  772MPD2     N11400   4.102   0.623  13.994 -0.2562  0.8254  0.0008
  772MPD2    H511401   4.013   0.661  14.025 -0.1298  2.2657 -1.4048
  772MPD2    N111402   4.564   0.764  13.875 -0.1851  0.3716  1.1848
  772MPD2    H711403   4.583   0.667  13.854 -0.3935  0.1288  2.1299
  773MPD2     C11404   3.537   1.322  16.976  1.1879  0.4698 -0.2996
  773MPD2    C111405   3.473   1.219  17.041  0.2504 -0.2415  0.4212
  773MPD2    C211406   3.508   1.197  17.174  0.0556  0.3271  0.1058
  773MPD2    C311407   3.609   1.275  17.235 -0.4237 -0.6713 -0.5376
  773MPD2    C411408   3.671   1.376  17.163 -1.0106  0.0236  0.5589
  773MPD2    C511409   3.630   1.406  17.037 -0.2586  0.2787  1.0156
  773MPD2     H11410   3.466   1.112  17.225  1.5053  1.2372  2.8241
  773MPD2    H111411   3.743   1.443  17.207  0.4873 -1.2097 -0.0108
  773MPD2    H211412   3.519   1.350  16.873 -0.0452  0.0919 -0.1845
  773MPD2    H311413   3.679   1.483  16.979 -0.1123  0.6599  1.6421
  773MPD2     N11414   3.662   1.252  17.364  0.1540 -0.1271  0.7092
  773MPD2    H511415   3.736   1.315  17.394 -1.2939  1.3030  1.2816
  773MPD2    N111416   3.376   1.147  16.971 -0.0485 -0.0913 -0.2219
  773MPD2    H711417   3.326   1.081  17.031 -1.3451 -0.8129 -2.0869
  774MPD2     C11418   2.460   0.614  13.739  0.5141 -0.3112  0.4343
  774MPD2    C111419   2.590   0.576  13.723  0.5755 -0.1556  0.8256
  774MPD2    C211420   2.680   0.680  13.686 -0.6094 -0.6610 -0.4128
  774MPD2    C311421   2.632   0.805  13.654 -0.1583 -0.2318 -0.2655
  774MPD2    C411422   2.497   0.839  13.660 -0.1367 -0.0773  0.2403
  774MPD2    C511423   2.413   0.740  13.715  0.2761  0.1831  0.4510
  774MPD2     H11424   2.786   0.659  13.681 -0.6956 -0.3725 -3.3854
  774MPD2    H111425   2.459   0.934  13.624  0.3320  1.2553  3.2785
  774MPD2    H211426   2.389   0.538  13.769 -0.7864  0.1887 -1.3453
  774MPD2    H311427   2.306   0.753  13.722  0.2320 -0.4664  1.0220
  774MPD2     N11428   2.722   0.904  13.604  0.2659  0.0244 -0.2523
  774MPD2    H511429   2.817   0.867  13.597 -0.7710 -2.3691 -1.7167
  774MPD2    N111430   2.629   0.440  13.749 -0.3204 -0.0290  0.2891
  774MPD2    H711431   2.561   0.377  13.791  1.8980 -1.3438  1.8632
  775MPD2     C11432   4.283   2.008  15.491  0.3648  0.2912 -0.0178
  775MPD2    C111433   4.284   2.095  15.593  0.3074  0.4627 -0.1543
  775MPD2    C211434   4.373   2.208  15.584  0.0057 -0.2589  0.3580
  775MPD2    C311435   4.466   2.212  15.478 -0.5151  0.6704  0.3105
  775MPD2    C411436   4.454   2.118  15.380  0.3108 -0.3513 -0.3455
  775MPD2    C511437   4.358   2.020  15.379  0.3974 -0.1471  0.3998
  775MPD2     H11438   4.368   2.288  15.657 -1.6226  0.5770 -0.6640
  775MPD2    H111439   4.510   2.140  15.290  0.7943 -2.1045 -0.4777
  775MPD2    H211440   4.209   1.929  15.486  0.5565 -0.0024  1.6428
  775MPD2    H311441   4.352   1.942  15.304  2.0405  0.7434 -0.6520
  775MPD2     N11442   4.571   2.310  15.464 -0.3591  0.5315  0.1710
  775MPD2    H511443   4.634   2.294  15.386 -1.4519  2.0419 -1.0167
  775MPD2    N111444   4.173   2.107  15.682 -0.3065 -0.8039 -0.6249
  775MPD2    H711445   4.169   2.188  15.743  1.4451 -0.2547 -1.2403
  776MPD2     C11446   4.265   2.443  11.500 -0.1335 -0.1824  0.1359
  776MPD2    C111447   4.134   2.460  11.465 -0.3252 -0.2893 -0.0396
  776MPD2    C211448   4.088   2.590  11.466 -0.4858  0.5853  0.0236
  776MPD2    C311449   4.162   2.703  11.507 -0.3363 -0.2501 -0.5028
  776MPD2    C411450   4.295   2.681  11.537  0.2307 -0.2329  0.8367
  776MPD2    C511451   4.343   2.546  11.539  0.1003  0.0635 -0.1731
  776MPD2     H11452   3.984   2.606  11.441 -1.1665 -3.7955  0.1194
  776MPD2    H111453   4.360   2.757  11.577  0.8499 -1.1952  1.6442
  776MPD2    H211454   4.319   2.349  11.489 -1.4645 -0.9159 -0.1200
  776MPD2    H311455   4.446   2.536  11.569  0.5066  0.2977 -1.4644
  776MPD2     N11456   4.111   2.832  11.528 -0.0728 -0.3827 -0.4447
  776MPD2    H511457   4.174   2.900  11.568 -0.0647 -1.1390  0.8093
  776MPD2    N111458   4.053   2.355  11.419  0.0529  0.0521 -0.0996
  776MPD2    H711459   3.960   2.383  11.391  1.4936  3.5819 -1.3052
  777MPD2     C11460   4.127   4.206   0.683  0.6854  0.5287  0.1436
  777MPD2    C111461   4.061   4.133   0.772  0.5272  0.1761  0.3302
  777MPD2    C211462   3.967   4.038   0.736  0.1833  0.5502  0.1597
  777MPD2    C311463   3.942   4.035   0.600 -1.1924 -0.7940 -0.8086
  777MPD2    C411464   4.008   4.111   0.508 -0.4311  0.2027 -0.2444
  777MPD2    C511465   4.105   4.196   0.549  0.4999  0.7874 -0.0010
  777MPD2     H11466   3.917   3.974   0.807 -1.0832  0.6882 -0.5993
  777MPD2    H111467   3.982   4.116   0.403  0.8451  0.8140 -0.5319
  777MPD2    H211468   4.201   4.276   0.721 -0.0059  1.6551 -0.5899
  777MPD2    H311469   4.156   4.257   0.476  0.2604  0.1707 -0.6791
  777MPD2     N11470   3.841   3.946   0.548  0.3833  0.3183 -0.3746
  777MPD2    H511471   3.801   3.873   0.606  0.0328 -1.1788 -2.5116
  777MPD2    N111472   4.086   4.173   0.910 -0.1072 -0.3539 -0.4207
  777MPD2    H711473   4.159   4.244   0.911  0.3746 -0.8953  1.5271
  778MPD2     C11474   0.271   0.041  15.092 -0.4063 -0.1485  0.7657
  778MPD2    C111475   0.220   0.015  14.967  0.3105  1.0929  0.2514
  778MPD2    C211476   0.247   0.091  14.859  0.7385  0.1929  0.6501
  778MPD2    C311477   0.332   0.202  14.874 -0.4107 -1.0017  0.2442
  778MPD2    C411478   0.379   0.236  15.001  0.5349  0.4566  0.7320
  778MPD2    C511479   0.347   0.157  15.107 -0.0133  0.5373 -1.0239
  778MPD2     H11480   0.212   0.062  14.761 -0.8755 -2.4298  2.0333
  778MPD2    H111481   0.451   0.313  15.025  0.8712  1.1298 -2.3868
  778MPD2    H211482   0.243   4.701  15.178 -0.4876 -0.6788  0.3670
  778MPD2    H311483   0.374   0.188  15.207 -2.8211  1.3409 -0.5186
  778MPD2     N11484   0.373   0.274  14.756 -0.0047  0.7780 -0.2661
  778MPD2    H511485   0.360   0.231  14.665 -1.7910 -0.4352  0.5624
  778MPD2    N111486   0.135   4.627  14.941  0.4666 -0.2336  0.1347
  778MPD2    H711487   0.097   4.621  14.847 -0.5339 -0.8803  0.5878
  779MPD2     C11488   4.578   3.866  13.909  0.2657  0.0765 -0.0677
  779MPD2    C111489   4.687   3.870  13.991 -0.8562 -0.2268 -0.4698
  779MPD2    C211490   0.023   3.996  14.008  0.5499 -0.6303  0.4467
  779MPD2    C311491   4.693   4.110  13.948 -0.6394  0.9038  0.2930
  779MPD2    C411492   4.589   4.103  13.865  0.8783  0.1970  0.1976
  779MPD2    C511493   4.538   3.976  13.832  0.4481 -0.0658 -0.7590
  779MPD2     H11494   0.118   4.004  14.060  1.5547 -1.8559 -1.1992
  779MPD2    H111495   4.548   4.181  13.801 -2.5739 -1.9594 -0.2565
  779MPD2    H211496   4.529   3.773  13.881 -0.4258  0.0058  1.3890
  779MPD2    H311497   4.466   3.962  13.751  1.8563 -2.7591 -1.5569
  779MPD2     N11498   0.027   4.237  13.980  0.3777 -0.3674  0.1013
  779MPD2    H511499   0.111   4.240  14.036  0.9184 -1.0026 -0.6635
  779MPD2    N111500   0.027   3.752  14.042  0.4361  0.1238 -0.1610
  779MPD2    H711501   0.113   3.762  14.094  1.5482  2.4457 -2.4654
  780MPD2     C11502   3.095   3.322   0.678  0.1910 -0.4803  0.3152
  780MPD2    C111503   3.213   3.258   0.713  0.1157  0.0107  0.1439
  780MPD2    C211504   3.312   3.252   0.614  0.4982 -0.5227 -0.1039
  780MPD2    C311505   3.294   3.311   0.493  0.2640  0.5216  0.5200
  780MPD2    C411506   3.184   3.381   0.470 -0.7290  0.3586 -0.1573
  780MPD2    C511507   3.081   3.384   0.555 -0.4738 -0.4653  0.0270
  780MPD2     H11508   3.405   3.201   0.634 -0.0227 -0.2549  3.0406
  780MPD2    H111509   3.186   3.442   0.381  0.1746 -1.4202 -1.3595
  780MPD2    H211510   3.023   3.324   0.759  0.0407  2.8393  0.1122
  780MPD2    H311511   2.991   3.440   0.533 -0.2866  0.3139  1.2350
  780MPD2     N11512   3.405   3.311   0.410 -0.4475  0.3641 -0.1268
  780MPD2    H511513   3.485   3.257   0.440 -0.6434 -1.2564 -2.5257
  780MPD2    N111514   3.221   3.195   0.833  0.2517 -0.2615 -0.4885
  780MPD2    H711515   3.134   3.180   0.881  1.6407 -0.8535  1.8340
  781MPD2     C11516   0.756   0.997  12.019 -0.2555 -0.6550 -0.4363
  781MPD2    C111517   0.885   0.974  11.970 -0.2538 -0.6328  0.3910
  781MPD2    C211518   0.919   0.989  11.839  0.2446  0.7496 -0.1555
  781MPD2    C311519   0.824   1.046  11.755  0.2147 -0.3157 -0.3871
  781MPD2    C411520   0.701   1.082  11.807  0.0860 -0.0478  0.2093
  781MPD2    C511521   0.667   1.053  11.937  0.4968 -0.6231  0.0472
  781MPD2     H11522   1.015   0.956  11.802  0.9769  0.1040  2.2894
  781MPD2    H111523   0.625   1.129  11.746  2.2980  1.4971 -1.3276
  781MPD2    H211524   0.721   0.961  12.116 -0.4426  0.8151  0.0349
  781MPD2    H311525   0.568   1.074  11.974  0.7465  1.0383 -0.2278
  781MPD2     N11526   0.862   1.070  11.620 -0.1768 -0.1671 -0.5710
  781MPD2    H511527   0.948   1.026  11.588  1.2830  1.4199  1.2147
  781MPD2    N111528   0.977   0.908  12.050 -0.5032 -0.1864 -0.0910
  781MPD2    H711529   1.064   0.868  12.016  0.1094 -0.6436  2.0162
  782MPD2     C11530   4.342   1.289   9.608  0.1566  0.3310 -0.5657
  782MPD2    C111531   4.374   1.254   9.739 -0.7459  0.0035  0.1915
  782MPD2    C211532   4.387   1.349   9.842 -0.3880  0.7929 -0.6998
  782MPD2    C311533   4.382   1.488   9.812  0.7413 -0.5403 -0.1682
  782MPD2    C411534   4.342   1.524   9.686  0.0893 -0.1069 -0.2152
  782MPD2    C511535   4.326   1.428   9.583  0.2194  0.1350  0.5501
  782MPD2     H11536   4.425   1.314   9.937 -0.2497 -0.8083 -1.3456
  782MPD2    H111537   4.326   1.628   9.659  1.9668  0.2277 -0.0429
  782MPD2    H211538   4.337   1.226   9.521  0.4427 -1.5552  0.7737
  782MPD2    H311539   4.287   1.458   9.486  0.7672 -0.5371  0.1245
  782MPD2     N11540   4.440   1.570   9.905  0.2975  0.3514 -0.2753
  782MPD2    H511541   4.458   1.532   9.998 -0.2643  0.2874 -0.1920
  782MPD2    N111542   4.401   1.121   9.768 -0.5991  0.3330  0.0498
  782MPD2    H711543   4.430   1.095   9.862 -0.2368  1.7550  0.3377
  783MPD2     C11544   4.231   1.050  10.516  0.2649 -0.9131 -0.3525
  783MPD2    C111545   4.136   1.068  10.419 -1.2309  0.5817  0.5918
  783MPD2    C211546   4.150   1.012  10.289 -0.2822 -0.7149  0.3123
  783MPD2    C311547   4.269   0.943  10.256 -0.2899 -0.0903  1.1358
  783MPD2    C411548   4.368   0.938  10.352  0.0006  0.0974 -0.7307
  783MPD2    C511549   4.348   0.985  10.475 -0.4390 -0.0059 -0.3018
  783MPD2     H11550   4.071   1.032  10.217  1.6828  2.3903 -0.9488
  783MPD2    H111551   4.467   0.897  10.339  0.0475  0.5170 -1.6759
  783MPD2    H211552   4.227   1.089  10.618  0.1166 -1.2991 -0.2106
  783MPD2    H311553   4.430   0.982  10.546 -1.6459 -1.9930  1.0006
  783MPD2     N11554   4.279   0.889  10.126 -0.3618  0.0116 -0.1087
  783MPD2    H511555   4.208   0.924  10.062  0.5806  0.6723 -0.7810
  783MPD2    N111556   4.025   1.144  10.459  0.3363  0.1223 -0.0001
  783MPD2    H711557   4.022   1.174  10.556 -2.2594 -0.4885  0.0894
  784MPD2     C11558   1.042   1.993   0.898  0.1967  0.4037  0.3702
  784MPD2    C111559   1.032   2.127   0.923 -0.1425  0.1688 -0.3944
  784MPD2    C211560   0.913   2.181   0.952 -1.0027 -0.2112 -0.2527
  784MPD2    C311561   0.797   2.108   0.951 -0.7179  0.4453  0.1228
  784MPD2    C411562   0.802   1.970   0.925 -0.9041  0.2253 -0.5137
  784MPD2    C511563   0.928   1.920   0.903  0.4883 -0.6294 -0.2073
  784MPD2     H11564   0.911   2.289   0.961  0.9667 -0.2573  0.6447
  784MPD2    H111565   0.716   1.909   0.901 -0.2584 -0.7751 -0.2837
  784MPD2    H211566   1.139   1.952   0.874 -1.0321 -2.9087  0.9897
  784MPD2    H311567   0.934   1.816   0.871 -0.0194 -0.3175 -1.2937
  784MPD2     N11568   0.673   2.180   0.980 -0.4727  0.5717 -0.0274
  784MPD2    H511569   0.672   2.282   0.983 -1.4943  0.5494  0.3396
  784MPD2    N111570   1.151   2.214   0.916  0.0780 -0.4164  0.5212
  784MPD2    H711571   1.142   2.312   0.940 -1.0696 -0.3088 -0.3474
  785MPD2     C11572   1.958   0.060  10.569  0.4950 -0.0710  0.4356
  785MPD2    C111573   1.906   0.183  10.537  0.4951  0.0998  0.2065
  785MPD2    C211574   1.783   0.200  10.485 -0.6684  0.5023  0.3261
  785MPD2    C311575   1.706   0.089  10.453 -0.1744  0.4661  0.6062
  785MPD2    C411576   1.761   4.686  10.471 -0.1543 -0.0475  0.2660
  785MPD2    C511577   1.884   4.669  10.535  0.0948  0.1979 -0.0035
  785MPD2     H11578   1.741   0.296  10.459 -2.5621 -0.3332  0.2965
  785MPD2    H111579   1.707   4.601  10.432 -0.7101  1.1915 -1.7010
  785MPD2    H211580   2.049   0.041  10.625  0.6507  1.0887  0.5686
  785MPD2    H311581   1.926   4.570  10.549 -1.1519  0.2753  4.1633
  785MPD2     N11582   1.583   0.115  10.397 -0.1788  0.1309 -0.2435
  785MPD2    H511583   1.562   0.214  10.386 -0.7576 -0.1078 -1.2452
  785MPD2    N111584   1.985   0.294  10.565  1.0023  0.2511  0.1073
  785MPD2    H711585   2.083   0.279  10.589  0.2433 -1.2745  2.2792
  786MPD2     C11586   0.224   2.599  14.694 -0.6794 -0.8150  0.0282
  786MPD2    C111587   0.343   2.551  14.656 -0.0783 -0.1676 -0.1312
  786MPD2    C211588   0.442   2.530  14.752 -0.9543  0.2499 -0.7752
  786MPD2    C311589   0.427   2.557  14.885  0.2286  0.2249 -0.6008
  786MPD2    C411590   0.304   2.605  14.924  0.4407  0.0874 -0.2560
  786MPD2    C511591   0.208   2.625  14.830  0.2612  0.2957 -0.0516
  786MPD2     H11592   0.534   2.480  14.723 -0.3217  0.9312  0.0547
  786MPD2    H111593   0.286   2.643  15.024  2.0153  2.6370 -0.9310
  786MPD2    H211594   0.142   2.632  14.631  1.3924 -1.4030 -2.9589
  786MPD2    H311595   0.120   2.680  14.861  1.2957  1.6784  0.4135
  786MPD2     N11596   0.521   2.525  14.988  0.0067 -0.5784  0.7432
  786MPD2    H511597   0.487   2.543  15.082 -1.8194 -0.5891  0.0969
  786MPD2    N111598   0.377   2.535  14.522 -0.0114  0.1272 -0.5541
  786MPD2    H711599   0.476   2.518  14.510  0.0514  1.9359 -2.7923
  787MPD2     C11600   0.633   2.145  14.639  0.5015 -0.8494 -0.7465
  787MPD2    C111601   0.660   2.154  14.509  0.1570  0.2947 -0.6885
  787MPD2    C211602   0.782   2.109  14.469 -0.1837 -0.4904  0.2568
  787MPD2    C311603   0.870   2.050  14.556 -0.4086 -0.0724  0.2210
  787MPD2    C411604   0.834   2.049  14.693 -0.0867 -0.1806 -0.2712
  787MPD2    C511605   0.714   2.098  14.731 -0.4479 -0.4354  0.4723
  787MPD2     H11606   0.816   2.126  14.367  1.1879  3.0700  1.3130
  787MPD2    H111607   0.908   2.014  14.764 -2.7712 -1.8272  1.7063
  787MPD2    H211608   0.534   2.180  14.664  1.8488  2.1302  0.3027
  787MPD2    H311609   0.678   2.103  14.833 -2.1466 -2.3820 -0.0337
  787MPD2     N11610   0.992   1.995  14.505  0.0829 -0.2984  0.2818
  787MPD2    H511611   1.004   1.990  14.405 -0.1768 -0.4512  0.2583
  787MPD2    N111612   0.563   2.208  14.423 -0.5601  0.2040 -0.3397
  787MPD2    H711613   0.483   2.252  14.468 -0.3575  0.8531 -0.6126
  788MPD2     C11614   1.729   4.514   1.314  0.9341  0.2717 -0.5409
  788MPD2    C111615   1.715   4.564   1.182  0.1130  0.2858  0.3532
  788MPD2    C211616   1.772   4.687   1.157  0.7533 -0.4080  0.2633
  788MPD2    C311617   1.815   0.052   1.260  0.1311 -0.0483 -0.2666
  788MPD2    C411618   1.817   0.005   1.390 -0.0089  0.6153  0.0131
  788MPD2    C511619   1.773   4.598   1.414  0.2448 -0.2594  0.3783
  788MPD2     H11620   1.760   0.004   1.056  1.5072  1.0011  0.6923
  788MPD2    H111621   1.864   0.064   1.468  0.4635 -0.4773  0.5575
  788MPD2    H211622   1.687   4.423   1.355 -2.7826  2.1692 -0.0454
  788MPD2    H311623   1.774   4.573   1.520 -0.0787  1.2135  0.7228
  788MPD2     N11624   1.834   0.195   1.243  0.2755 -0.0422  0.1212
  788MPD2    H511625   1.870   0.247   1.323 -0.0324  1.2248 -0.5785
  788MPD2    N111626   1.659   4.492   1.074  0.7192 -0.4340  0.6191
  788MPD2    H711627   1.668   4.539   0.984  0.3955  2.6725  2.2014
  789MPD2     C11628   2.607   0.168  16.632  0.2460  0.0219  1.2943
  789MPD2    C111629   2.640   0.258  16.536 -0.2324  0.3767  0.4491
  789MPD2    C211630   2.553   0.362  16.515  0.2910 -0.3083 -0.1896
  789MPD2    C311631   2.444   0.382  16.596 -0.0146  0.0944  0.1252
  789MPD2    C411632   2.416   0.289  16.690 -0.6579  0.5228 -0.2469
  789MPD2    C511633   2.497   0.182  16.713 -0.3370 -0.2282 -0.7330
  789MPD2     H11634   2.579   0.430  16.435  0.4322 -0.4043 -0.2255
  789MPD2    H111635   2.330   0.307  16.753  0.3339 -1.0214  1.5566
  789MPD2    H211636   2.648   0.068  16.642 -0.3750 -0.4401 -0.8705
  789MPD2    H311637   2.467   0.116  16.793 -0.3243  0.5988 -0.0523
  789MPD2     N11638   2.351   0.494  16.597  0.0271 -0.3426 -0.2263
  789MPD2    H511639   2.270   0.498  16.658  1.5894 -1.4540  1.9467
  789MPD2    N111640   2.751   0.267  16.444  0.1627 -0.1054 -0.4020
  789MPD2    H711641   2.749   0.348  16.384 -1.7852  1.9494  2.4462
  790MPD2     C11642   3.666   2.354  13.562  0.5319  0.1910 -0.5987
  790MPD2    C111643   3.747   2.323  13.453 -0.6285 -0.7915 -0.2129
  790MPD2    C211644   3.706   2.359  13.326 -0.4611 -0.0865  0.0704
  790MPD2    C311645   3.587   2.428  13.311  0.0257  0.0879  0.2748
  790MPD2    C411646   3.518   2.474  13.426  0.2717  0.0739  0.2003
  790MPD2    C511647   3.554   2.425  13.545 -0.0923  0.5183 -0.0549
  790MPD2     H11648   3.760   2.332  13.236  0.4953  2.2425 -0.0484
  790MPD2    H111649   3.430   2.536  13.424  1.3651  1.6187  0.1712
  790MPD2    H211650   3.693   2.328  13.664 -0.2915 -1.1434 -0.7171
  790MPD2    H311651   3.494   2.450  13.632  0.0710 -1.6389  0.6767
  790MPD2     N11652   3.543   2.456  13.177 -0.2766  0.3884 -0.3148
  790MPD2    H511653   3.602   2.422  13.101 -2.1353 -0.4616 -1.3640
  790MPD2    N111654   3.857   2.234  13.481  0.8166 -0.1094 -0.4859
  790MPD2    H711655   3.886   2.224  13.577  0.6671  2.1278 -0.2024
  791MPD2     C11656   2.821   2.690  12.738  0.1020 -0.2247  0.5697
  791MPD2    C111657   2.901   2.584  12.701 -0.2150  0.3951 -0.4155
  791MPD2    C211658   2.839   2.476  12.640  0.8585  0.2073  0.7990
  791MPD2    C311659   2.701   2.473  12.615 -0.4670 -0.2282 -1.0585
  791MPD2    C411660   2.624   2.579  12.661 -1.0625  0.2191  0.5527
  791MPD2    C511661   2.690   2.693  12.712 -0.2569  0.1758  0.2697
  791MPD2     H11662   2.906   2.400  12.602  0.2108  1.3909 -2.7704
  791MPD2    H111663   2.516   2.589  12.663 -1.0847  0.3631 -1.3004
  791MPD2    H211664   2.865   2.781  12.776 -0.2030  0.8328 -1.6515
  791MPD2    H311665   2.635   2.784  12.735 -1.3186 -0.4231  0.1288
  791MPD2     N11666   2.647   2.349  12.569  0.0756  0.2002 -0.5132
  791MPD2    H511667   2.710   2.272  12.548 -0.0778  0.0487 -0.4205
  791MPD2    N111668   3.038   2.571  12.735  0.2046 -0.2481 -0.1733
  791MPD2    H711669   3.089   2.492  12.696  0.5735  0.5184 -1.2315
  792MPD2     C11670   4.279   2.565  11.167  0.2353  0.4806  0.1364
  792MPD2    C111671   4.158   2.618  11.136  0.5182  0.2761  0.4685
  792MPD2    C211672   4.064   2.528  11.093 -0.0911  0.7601  0.1938
  792MPD2    C311673   4.090   2.396  11.056 -0.0387  0.6938  0.4394
  792MPD2    C411674   4.216   2.350  11.086 -0.1202 -0.0797  0.8606
  792MPD2    C511675   4.303   2.433  11.141  0.1166 -0.3218  0.0216
  792MPD2     H11676   3.962   2.561  11.081 -0.4398 -0.3278  0.1562
  792MPD2    H111677   4.244   2.246  11.067  2.1247  0.4467  1.3245
  792MPD2    H211678   4.358   2.627  11.207  0.3187  1.4541 -1.5279
  792MPD2    H311679   4.406   2.401  11.158 -0.4034 -2.6842 -1.2848
  792MPD2     N11680   3.987   2.312  10.997  0.1469 -0.2633 -0.1997
  792MPD2    H511681   3.893   2.352  10.996 -0.8946 -2.7522  0.0100
  792MPD2    N111682   4.131   2.752  11.144  0.5072  0.9682  0.4244
  792MPD2    H711683   4.202   2.817  11.176  0.7639  0.0624  1.7161
  793MPD2     C11684   3.934   1.687  10.196 -0.6144  0.1446  0.5148
  793MPD2    C111685   3.965   1.817  10.195 -0.3735 -0.8428  0.2521
  793MPD2    C211686   3.934   1.897  10.300 -0.1744 -0.6490 -0.9090
  793MPD2    C311687   3.872   1.846  10.410 -0.2592  0.1126 -0.0746
  793MPD2    C411688   3.827   1.714  10.402 -0.6933  0.4483  1.1252
  793MPD2    C511689   3.860   1.639  10.291  0.2994 -0.7689 -0.1017
  793MPD2     H11690   3.980   1.996  10.295 -3.2833  0.8689  0.6304
  793MPD2    H111691   3.763   1.669  10.477  0.3521 -3.8498 -0.6095
  793MPD2    H211692   3.947   1.621  10.111  0.2607 -1.0330  1.5733
  793MPD2    H311693   3.841   1.532  10.291 -0.5798 -0.6119 -1.9413
  793MPD2     N11694   3.852   1.929  10.519  0.2224 -0.1235 -0.3728
  793MPD2    H511695   3.885   2.025  10.520  0.8899 -0.3664  1.3163
  793MPD2    N111696   4.042   1.872  10.092 -0.2811  0.0533 -0.4219
  793MPD2    H711697   4.057   1.972  10.095  1.4127 -0.1625 -1.8472
  794MPD2     C11698   2.950   1.047  16.241 -0.2004 -0.3326 -0.8259
  794MPD2    C111699   2.955   1.159  16.322  0.6133 -0.2352 -0.2360
  794MPD2    C211700   2.928   1.287  16.271  0.7563 -0.7009 -0.5082
  794MPD2    C311701   2.889   1.297  16.138  0.0325  0.2903  0.4477
  794MPD2    C411702   2.872   1.183  16.063  0.4377 -0.3129 -1.0681
  794MPD2    C511703   2.919   1.061  16.107  0.6382 -0.1649  0.5938
  794MPD2     H11704   2.941   1.373  16.335  2.8637 -2.0849  0.9365
  794MPD2    H111705   2.848   1.186  15.957  1.1926  0.6602 -1.2053
  794MPD2    H211706   2.987   0.952  16.278  0.3838 -0.3287 -1.4038
  794MPD2    H311707   2.914   0.980  16.036 -0.8119 -0.7534  1.3738
  794MPD2     N11708   2.851   1.424  16.075  0.3921 -0.7077  0.6350
  794MPD2    H511709   2.838   1.432  15.975  0.5641  0.4285  0.7119
  794MPD2    N111710   2.984   1.143  16.463 -0.3083  0.1838  0.0839
  794MPD2    H711711   2.995   1.225  16.521  2.1205 -1.8257  2.4697
  795MPD2     C11712   0.885   4.321  13.490  0.1596 -0.6595  0.1384
  795MPD2    C111713   0.822   4.203  13.471  0.2316 -0.2103  0.2939
  795MPD2    C211714   0.893   4.089  13.503  0.3206 -0.0754  0.1890
  795MPD2    C311715   1.023   4.087  13.550 -0.3475 -0.4726  0.0502
  795MPD2    C411716   1.081   4.213  13.557  0.0003 -1.2375  0.0313
  795MPD2    C511717   1.010   4.323  13.533 -0.6807 -0.7159 -0.2702
  795MPD2     H11718   0.851   3.992  13.478 -1.8165  1.1586 -1.0292
  795MPD2    H111719   1.187   4.229  13.574 -0.2926  0.0600  0.5956
  795MPD2    H211720   0.851   4.413  13.445  1.9701 -0.0658 -0.0319
  795MPD2    H311721   1.062   4.418  13.534  0.2044 -1.1855 -1.9018
  795MPD2     N11722   1.106   3.976  13.581 -0.0980  1.2131 -0.0056
  795MPD2    H511723   1.203   3.998  13.603  0.3092 -1.0418  0.4817
  795MPD2    N111724   0.687   4.191  13.422  0.6070  0.8534  0.4684
  795MPD2    H711725   0.650   4.099  13.400 -0.7697  1.4355  0.3383
  796MPD2     C11726   0.820   1.055  15.891 -0.4086 -0.1237 -0.0635
  796MPD2    C111727   0.902   1.093  15.994  0.3702 -0.4148 -0.4439
  796MPD2    C211728   0.903   1.221  16.042  0.2948  0.3126 -0.1090
  796MPD2    C311729   0.841   1.315  15.961  0.2300 -0.7361 -0.1774
  796MPD2    C411730   0.764   1.284  15.853 -0.1689 -0.2935  0.5262
  796MPD2    C511731   0.752   1.152  15.830 -0.6156  0.3092 -0.1206
  796MPD2     H11732   0.955   1.251  16.132  0.6632 -1.0465  0.1256
  796MPD2    H111733   0.707   1.356  15.796 -1.6077  0.7616  3.3038
  796MPD2    H211734   0.823   0.959  15.840 -0.4258  0.1103 -0.5055
  796MPD2    H311735   0.692   1.119  15.746 -1.3276  4.7629 -1.3762
  796MPD2     N11736   0.860   1.444  16.008 -0.6249  0.4431 -0.0547
  796MPD2    H511737   0.917   1.451  16.092 -0.3544  2.2390 -0.3839
  796MPD2    N111738   0.975   0.991  16.050 -0.7226 -0.6770  0.0620
  796MPD2    H711739   0.964   0.898  16.011 -2.3702 -0.8347  0.8910
  797MPD2     C11740   2.426   0.234  17.224  0.1088 -0.2817  0.7599
  797MPD2    C111741   2.363   0.321  17.307 -0.3850 -0.0186 -0.1025
  797MPD2    C211742   2.232   0.363  17.274 -0.5989  0.6732 -0.1051
  797MPD2    C311743   2.177   0.337  17.151 -0.4651 -0.4066  0.4129
  797MPD2    C411744   2.252   0.263  17.060  0.1068 -0.5573  0.1853
  797MPD2    C511745   2.376   0.208  17.101  0.2618 -0.2181 -0.0758
  797MPD2     H11746   2.178   0.414  17.353  0.3528  1.2595  0.1630
  797MPD2    H111747   2.207   0.235  16.966 -0.9087 -0.1414  0.5530
  797MPD2    H211748   2.513   0.177  17.256  0.1332 -2.3125 -2.9507
  797MPD2    H311749   2.419   0.134  17.035 -0.6731  0.2960 -1.2747
  797MPD2     N11750   2.052   0.372  17.115  0.8225  0.0156 -0.0319
  797MPD2    H511751   2.022   0.351  17.021 -0.7071 -1.2815  0.7497
  797MPD2    N111752   2.399   0.334  17.440 -0.2350 -0.0129  0.2177
  797MPD2    H711753   2.477   0.280  17.477  1.0592  0.7990 -1.3255
  798MPD2     C11754   1.753   0.794  17.622 -0.2624  0.0371 -0.1472
  798MPD2    C111755   1.833   0.712  17.537 -0.1943 -0.3244  0.5966
  798MPD2    C211756   1.950   0.666  17.584  0.2092 -0.4132 -0.2958
  798MPD2    C311757   2.006   0.703   0.022 -0.1593  0.9827 -0.8066
  798MPD2    C411758   1.928   0.778   0.103 -0.1499  0.7699  0.4643
  798MPD2    C511759   1.808   0.819   0.061  0.4245 -0.4111  0.2397
  798MPD2     H11760   2.013   0.604  17.522 -0.8325  0.0581 -1.8411
  798MPD2    H111761   1.964   0.811   0.200 -0.2305 -1.7430  1.3521
  798MPD2    H211762   1.659   0.826  17.581 -1.0196 -1.4506  0.4021
  798MPD2    H311763   1.757   0.892   0.124  0.7361 -0.1514  0.1884
  798MPD2     N11764   2.130   0.652   0.059  0.3002 -0.3169 -0.2180
  798MPD2    H511765   2.170   0.587  17.676  0.1438  1.1409 -1.7218
  798MPD2    N111766   1.791   0.669  17.413 -0.1626 -0.6419  0.2715
  798MPD2    H711767   1.844   0.595  17.367  0.8661 -0.8453  1.7899
  799MPD2     C11768   0.390   1.882  14.612 -0.0490 -0.4939  0.2213
  799MPD2    C111769   0.472   1.809  14.521  0.0015  0.0430 -0.4283
  799MPD2    C211770   0.427   1.807  14.394  0.1724 -0.4841 -0.0620
  799MPD2    C311771   0.301   1.854  14.359 -0.5893 -0.1465 -0.0292
  799MPD2    C411772   0.216   1.909  14.454  0.5684 -0.3940 -0.5797
  799MPD2    C511773   0.269   1.923  14.574 -0.4142 -0.2651 -0.0433
  799MPD2     H11774   0.493   1.767  14.318  0.3532 -1.7577  0.7576
  799MPD2    H111775   0.115   1.940  14.433  0.4218  0.7148  1.7095
  799MPD2    H211776   0.421   1.895  14.715 -1.0676 -1.3226  0.6364
  799MPD2    H311777   0.212   1.959  14.659 -1.1871 -3.1355  0.6718
  799MPD2     N11778   0.260   1.862  14.225  0.1063  0.3213  0.2657
  799MPD2    H511779   0.179   1.919  14.203  0.4172 -0.3854 -2.7615
  799MPD2    N111780   0.597   1.756  14.562 -0.1770  0.4277 -0.0322
  799MPD2    H711781   0.649   1.709  14.489  0.7694 -1.6010  1.9291
  800MPD2     C11782   0.667   3.216  13.975 -0.4716 -0.0980  0.6451
  800MPD2    C111783   0.789   3.154  13.988  0.3702  0.4633 -0.3193
  800MPD2    C211784   0.818   3.037  13.922 -0.3711  0.2998  0.7688
  800MPD2    C311785   0.723   2.984  13.836 -0.7272  1.0432 -0.2042
  800MPD2    C411786   0.603   3.053  13.816 -0.5837  0.0898 -0.2213
  800MPD2    C511787   0.585   3.177  13.874 -0.1291  0.3211 -0.0077
  800MPD2     H11788   0.917   2.993  13.918 -0.0479  0.9397  1.8249
  800MPD2    H111789   0.520   3.011  13.760 -1.5201 -0.7907  1.7965
  800MPD2    H211790   0.643   3.305  14.032  2.6881  0.8152  0.5358
  800MPD2    H311791   0.481   3.207  13.873 -0.2779 -0.2122 -0.6669
  800MPD2     N11792   0.770   2.862  13.773 -0.2723 -0.3043 -0.1847
  800MPD2    H511793   0.859   2.833  13.811  0.2481  1.9823  0.3626
  800MPD2    N111794   0.891   3.223  14.059 -0.1196 -0.2914 -0.2859
  800MPD2    H711795   0.886   3.324  14.050  1.9305 -0.1824 -0.2557
  801MPD2     C11796   1.273   3.845  13.953  0.5492  0.2896 -0.3968
  801MPD2    C111797   1.166   3.797  14.027  0.8424 -0.0866  0.8126
  801MPD2    C211798   1.065   3.879  14.061 -0.1969 -0.1661 -0.1225
  801MPD2    C311799   1.072   4.013  14.018  0.2402 -0.8406 -0.1954
  801MPD2    C411800   1.178   4.066  13.939  0.2947 -0.0339  0.0684
  801MPD2    C511801   1.277   3.971  13.911  0.1098  0.5653 -0.3473
  801MPD2     H11802   0.976   3.837  14.106 -0.8621  0.5127 -0.8034
  801MPD2    H111803   1.191   4.167  13.902  0.0209  0.5482  1.5575
  801MPD2    H211804   1.352   3.785  13.909  1.7549  0.4351  1.6129
  801MPD2    H311805   1.362   4.001  13.850  0.2851  1.9598  0.5838
  801MPD2     N11806   0.987   4.099  14.070  0.9857 -0.1758  0.0787
  801MPD2    H511807   1.011   4.198  14.067  1.3079 -0.3249 -2.3184
  801MPD2    N111808   1.154   3.665  14.065 -0.4891 -0.3928  0.3303
  801MPD2    H711809   1.073   3.625  14.111 -0.0594 -1.7798 -0.1143
  802MPD2     C11810   4.536   3.856  16.923 -0.0739  0.5694 -0.2808
  802MPD2    C111811   4.621   3.781  17.005 -0.4395  0.0943  0.1240
  802MPD2    C211812   4.708   3.695  16.944  0.2167 -0.0227 -0.4270
  802MPD2    C311813   4.703   3.679  16.806 -0.4789 -0.1857 -0.2584
  802MPD2    C411814   4.626   3.759  16.730  0.3926  0.5717  0.2012
  802MPD2    C511815   4.540   3.839  16.788 -0.4580  1.0644  0.2419
  802MPD2     H11816   0.056   3.639  17.007 -0.4410  0.1015  0.3971
  802MPD2    H111817   4.640   3.767  16.623 -1.2134 -0.8651 -0.1029
  802MPD2    H211818   4.484   3.941  16.964 -0.1996 -0.9856  2.8129
  802MPD2    H311819   4.466   3.892  16.729 -0.3564  2.5096  1.4268
  802MPD2     N11820   0.070   3.596  16.737 -0.5492  0.0027 -0.1889
  802MPD2    H511821   0.069   3.618  16.638 -0.3231 -1.3985 -0.5157
  802MPD2    N111822   4.618   3.792  17.145 -0.3367  0.3607  0.5143
  802MPD2    H711823   4.679   3.728  17.194 -0.9168 -0.0901  0.6580
  803MPD2     C11824   1.468   2.521  11.823 -0.5868  0.5419 -0.3953
  803MPD2    C111825   1.567   2.515  11.924 -0.1588  0.2165 -0.2566
  803MPD2    C211826   1.552   2.428  12.028 -0.1988  0.5358 -0.2432
  803MPD2    C311827   1.451   2.334  12.035  0.0356  0.0958  0.4009
  803MPD2    C411828   1.361   2.344  11.935 -0.2530 -0.3137 -0.1196
  803MPD2    C511829   1.367   2.428  11.827  0.3441  0.2580 -0.0068
  803MPD2     H11830   1.638   2.425  12.094 -0.8550  1.5341  0.6519
  803MPD2    H111831   1.281   2.271  11.927 -2.3141  1.8105  1.1338
  803MPD2    H211832   1.456   2.584  11.736  1.3893  0.5822 -0.6394
  803MPD2    H311833   1.278   2.441  11.766  0.1539  2.0573  0.6480
  803MPD2     N11834   1.422   2.234  12.138  0.2997  0.1609 -0.3211
  803MPD2    H511835   1.334   2.184  12.135  0.9391 -1.1344  2.7022
  803MPD2    N111836   1.677   2.607  11.931 -0.0178 -0.6000 -0.2825
  803MPD2    H711837   1.733   2.613  12.015 -2.5000  0.9184  1.2727
  804MPD2     C11838   1.046   3.275  16.465  0.0833  0.1345  1.1921
  804MPD2    C111839   1.038   3.283  16.604 -0.4305 -0.0066 -0.2196
  804MPD2    C211840   1.092   3.397  16.664 -1.2749  0.4381  0.0053
  804MPD2    C311841   1.167   3.487  16.585  1.2435  0.5051  0.6178
  804MPD2    C411842   1.169   3.476  16.451  0.5388 -0.0926 -0.2461
  804MPD2    C511843   1.112   3.369  16.397 -0.2082  0.0657 -0.0180
  804MPD2     H11844   1.084   3.393  16.772 -1.5374 -1.4371 -0.0765
  804MPD2    H111845   1.212   3.556  16.393  0.6532 -0.4440 -0.6412
  804MPD2    H211846   1.004   3.191  16.412  1.0494  1.2104 -1.2863
  804MPD2    H311847   1.108   3.365  16.289  0.8812 -0.6181 -0.0330
  804MPD2     N11848   1.216   3.595  16.659 -0.5493  0.4803  0.4175
  804MPD2    H511849   1.186   3.607  16.755  1.6317  2.0694  0.9000
  804MPD2    N111850   0.982   3.188  16.690 -0.2511  0.2031  0.0895
  804MPD2    H711851   0.985   3.201  16.790 -2.0252 -1.6992  0.3838
  805MPD2     C11852   0.105   2.078  15.533  0.4093 -0.1746 -0.0795
  805MPD2    C111853   0.219   2.093  15.461 -0.7158  0.0875 -0.0981
  805MPD2    C211854   0.336   2.124  15.532  0.2944  0.6702 -0.4267
  805MPD2    C311855   0.338   2.147  15.670 -0.1342  0.5624  0.1973
  805MPD2    C411856   0.215   2.134  15.735  0.2118  0.4083 -0.2185
  805MPD2    C511857   0.097   2.104  15.665 -0.4772 -0.5222 -0.3421
  805MPD2     H11858   0.428   2.132  15.476  0.3774  0.1808 -0.3585
  805MPD2    H111859   0.211   2.144  15.843  2.5158 -1.5678  0.0513
  805MPD2    H211860   0.009   2.051  15.490  0.2782 -1.1093  0.8179
  805MPD2    H311861   0.003   2.080  15.712 -1.1303  0.2820 -1.2464
  805MPD2     N11862   0.462   2.179  15.730 -0.5251 -0.2238  0.8548
  805MPD2    H511863   0.548   2.188  15.678 -0.9485  1.0165  0.3655
  805MPD2    N111864   0.226   2.060  15.328 -0.0321 -0.8061 -0.1491
  805MPD2    H711865   0.320   2.051  15.290  0.1938 -0.5112  0.3398
  806MPD2     C11866   1.998   1.413   1.004 -0.0738  0.6094  0.3563
  806MPD2    C111867   1.926   1.509   1.073 -0.4654 -0.3386 -0.0739
  806MPD2    C211868   1.944   1.643   1.042  0.0044  0.8318 -0.4876
  806MPD2    C311869   2.026   1.678   0.942  0.5405  0.1648 -0.0668
  806MPD2    C411870   2.107   1.582   0.887  0.7124  0.4167 -0.1705
  806MPD2    C511871   2.095   1.452   0.914  0.2650 -0.4047 -0.2206
  806MPD2     H11872   1.873   1.717   1.076 -0.5661  0.0447  0.0593
  806MPD2    H111873   2.173   1.610   0.806 -0.1330  0.1674 -0.9424
  806MPD2    H211874   1.977   1.307   0.999  0.1049  0.5757  0.3365
  806MPD2    H311875   2.148   1.372   0.864 -0.0982 -1.0239  0.3864
  806MPD2     N11876   2.026   1.817   0.913  0.2678  0.2777 -0.3556
  806MPD2    H511877   1.963   1.886   0.954  0.7857 -1.5511  3.5875
  806MPD2    N111878   1.820   1.467   1.162 -0.4410  0.7205  0.2544
  806MPD2    H711879   1.803   1.369   1.179  1.2321  0.2677 -0.6079
  807MPD2     C11880   1.086   1.797   1.511 -0.5334  0.5949 -0.8414
  807MPD2    C111881   1.084   1.668   1.469 -0.1724 -0.2000  0.4933
  807MPD2    C211882   0.972   1.587   1.479 -0.5395  0.4045 -0.0644
  807MPD2    C311883   0.855   1.642   1.535 -0.0518 -0.9498  0.4932
  807MPD2    C411884   0.852   1.776   1.564  0.0028 -0.5485  0.3113
  807MPD2    C511885   0.964   1.857   1.553 -0.0256 -0.2268  0.0251
  807MPD2     H11886   0.974   1.485   1.441  1.8889  0.0253  1.1378
  807MPD2    H111887   0.760   1.815   1.608 -0.8911  0.2581 -2.2545
  807MPD2    H211888   1.173   1.860   1.501 -1.3028  1.9204  0.8454
  807MPD2    H311889   0.966   1.963   1.573  0.4011 -0.1808 -0.2533
  807MPD2     N11890   0.754   1.547   1.563 -0.1041  0.2150 -0.1467
  807MPD2    H511891   0.767   1.458   1.516  2.3041  0.6672 -0.3527
  807MPD2    N111892   1.190   1.613   1.402 -0.4467 -0.7067 -0.4633
  807MPD2    H711893   1.178   1.517   1.370  0.2958 -1.3862  1.3268
  808MPD2     C11894   2.059   3.156  10.115  0.0536 -0.3949 -0.1061
  808MPD2    C111895   1.957   3.244  10.101  0.7738  0.1621  1.0477
  808MPD2    C211896   1.986   3.382  10.089 -0.0350  0.3333  0.0882
  808MPD2    C311897   2.113   3.430  10.100 -0.9228  0.4182 -0.1069
  808MPD2    C411898   2.215   3.336  10.121 -0.0277  0.4126  0.3410
  808MPD2    C511899   2.190   3.200  10.122  0.5694 -0.1055  0.2887
  808MPD2     H11900   1.903   3.449  10.069 -0.8656 -0.1407  1.9484
  808MPD2    H111901   2.315   3.378  10.126 -0.1145  0.7599 -0.7832
  808MPD2    H211902   2.040   3.050  10.121 -0.5254 -0.2835  0.0798
  808MPD2    H311903   2.273   3.133  10.139  2.2392  1.9988  0.5036
  808MPD2     N11904   2.151   3.561  10.076  0.7369  1.1346 -0.9856
  808MPD2    H511905   2.243   3.594  10.104  1.0097 -0.1868 -0.3390
  808MPD2    N111906   1.822   3.206  10.081 -0.0781 -0.3282  0.7353
  808MPD2    H711907   1.765   3.286  10.058 -0.5539 -0.7716  0.3779
  809MPD2     C11908   2.771   4.152   9.546 -0.6074  0.3001 -0.3336
  809MPD2    C111909   2.795   4.028   9.604  0.2516 -0.2450  0.5112
  809MPD2    C211910   2.689   3.975   9.685 -0.9475 -0.2463  0.3957
  809MPD2    C311911   2.575   4.048   9.718  0.6704  0.8512 -0.2678
  809MPD2    C411912   2.565   4.174   9.660  0.2170 -0.0669  0.0531
  809MPD2    C511913   2.664   4.223   9.579  0.3084  0.3500  0.6244
  809MPD2     H11914   2.701   3.872   9.718  2.2111  0.7458  2.3862
  809MPD2    H111915   2.483   4.239   9.687  0.0671  0.6104 -2.0310
  809MPD2    H211916   2.834   4.203   9.474  1.3630 -1.1609  0.3871
  809MPD2    H311917   2.645   4.321   9.536 -1.2551 -0.3520 -0.2955
  809MPD2     N11918   2.476   4.005   9.815 -0.3032  0.2908  0.0937
  809MPD2    H511919   2.403   4.073   9.833  0.4785  2.0408 -3.2978
  809MPD2    N111920   2.915   3.955   9.576  0.4494  0.4281  0.4839
  809MPD2    H711921   2.927   3.862   9.616  0.3591  1.5509  3.1353
  810MPD2     C11922   1.441   2.406  10.220  0.1573 -0.5631 -0.4023
  810MPD2    C111923   1.332   2.482  10.231 -0.1005  0.1282 -0.1565
  810MPD2    C211924   1.343   2.602  10.288 -0.1393  0.1929 -0.5490
  810MPD2    C311925   1.461   2.664  10.311 -0.2019  0.3415 -0.2337
  810MPD2    C411926   1.577   2.594  10.296 -0.2267 -0.6858  0.2935
  810MPD2    C511927   1.563   2.464  10.246  0.6863  0.5001  0.3489
  810MPD2     H11928   1.254   2.659  10.312  1.0550  2.1308 -0.7040
  810MPD2    H111929   1.678   2.629  10.312 -0.9547  0.7058  1.7790
  810MPD2    H211930   1.434   2.301  10.197  1.3195 -0.6168 -0.5051
  810MPD2    H311931   1.650   2.400  10.233 -0.7857 -1.6798  1.3131
  810MPD2     N11932   1.464   2.805  10.342  0.2079  0.5619 -0.0264
  810MPD2    H511933   1.558   2.843  10.343  0.1963  0.4987  3.7715
  810MPD2    N111934   1.205   2.450  10.181 -0.1246 -0.1438  0.4839
  810MPD2    H711935   1.132   2.512  10.215  0.9918  0.2461  2.1154
  811MPD2     C11936   0.529   2.814   9.819 -0.3053 -0.0066  0.2452
  811MPD2    C111937   0.659   2.819   9.858 -0.5531 -0.9947  0.2065
  811MPD2    C211938   0.712   2.933   9.897  0.0597  0.0284  0.6192
  811MPD2    C311939   0.640   3.053   9.890 -0.4223  0.8083 -0.9791
  811MPD2    C411940   0.511   3.051   9.845 -0.7162 -0.4343 -0.6215
  811MPD2    C511941   0.461   2.931   9.807  0.0122 -0.3656 -0.1427
  811MPD2     H11942   0.812   2.942   9.938  0.3826  1.8119 -0.5210
  811MPD2    H111943   0.447   3.137   9.830  0.5941  0.9746  1.8330
  811MPD2    H211944   0.480   2.723   9.785 -0.0758  0.8961 -2.5372
  811MPD2    H311945   0.360   2.937   9.768 -0.2296  1.6137  0.7635
  811MPD2     N11946   0.702   3.170   9.938 -0.4051 -0.0218 -0.0803
  811MPD2    H511947   0.803   3.174   9.945 -0.4680  1.5796  0.0270
  811MPD2    N111948   0.728   2.698   9.864  0.2033  0.2291 -0.1754
  811MPD2    H711949   0.674   2.616   9.839  2.3811 -1.4720  0.6905
  812MPD2     C11950   4.293   2.535  11.915  0.2771  0.9348 -0.7373
  812MPD2    C111951   4.287   2.570  12.043  0.3649 -0.4519 -0.8131
  812MPD2    C211952   4.282   2.469  12.136  0.2206 -0.3475 -0.3760
  812MPD2    C311953   4.294   2.336  12.096  0.3115  0.7868  0.4207
  812MPD2    C411954   4.300   2.305  11.963 -0.0547  0.3093  0.6637
  812MPD2    C511955   4.299   2.407  11.873  0.3258  0.3167 -0.8674
  812MPD2     H11956   4.286   2.493  12.242  1.1238  2.1625 -0.9860
  812MPD2    H111957   4.310   2.205  11.922 -1.4302  0.3310  0.2565
  812MPD2    H211958   4.311   2.607  11.835  0.0964 -0.6624 -2.2181
  812MPD2    H311959   4.308   2.398  11.765  1.3103  1.9262 -0.9217
  812MPD2     N11960   4.314   2.235  12.197 -0.5845  0.4063 -0.2248
  812MPD2    H511961   4.304   2.259  12.295 -1.9962  0.6236 -0.4260
  812MPD2    N111962   4.286   2.706  12.074 -0.4473 -0.0721 -0.2373
  812MPD2    H711963   4.324   2.768  12.003 -0.8323 -0.0402 -0.4130
  813MPD2     C11964   3.678   4.241  12.602  0.1432  0.6559  0.1496
  813MPD2    C111965   3.605   4.356  12.617 -0.5527 -0.6438  0.6721
  813MPD2    C211966   3.498   4.361  12.701 -0.0400  0.0654  0.0044
  813MPD2    C311967   3.492   4.266  12.803  0.1279  0.6598  0.0822
  813MPD2    C411968   3.569   4.152  12.794  0.0088 -0.4260 -0.4241
  813MPD2    C511969   3.651   4.136  12.685 -0.3294 -0.6913 -0.0872
  813MPD2     H11970   3.443   4.454  12.709  0.3103  0.3267 -0.6118
  813MPD2    H111971   3.567   4.060  12.851  0.1458 -0.7500 -0.9425
  813MPD2    H211972   3.766   4.228  12.539 -0.8942  0.4696 -1.2617
  813MPD2    H311973   3.693   4.038  12.667 -1.6342 -1.3620  0.5044
  813MPD2     N11974   3.387   4.275  12.895  0.5107 -0.2048 -0.3817
  813MPD2    H511975   3.321   4.353  12.895  0.7420 -0.0081 -0.5709
  813MPD2    N111976   3.649   4.462  12.529 -0.2504 -0.0510 -0.1675
  813MPD2    H711977   3.735   4.438  12.482 -0.9181 -0.3307 -1.2419
  814MPD2     C11978   4.533   1.053  11.928  0.7952  0.8719  0.1315
  814MPD2    C111979   4.514   1.092  11.795 -0.4457 -0.3312 -0.5220
  814MPD2    C211980   4.522   1.227  11.758 -0.5817 -0.4083 -0.2133
  814MPD2    C311981   4.531   1.322  11.856 -1.0873  0.5970 -0.4893
  814MPD2    C411982   4.562   1.281  11.985 -0.1788 -0.5810  0.5811
  814MPD2    C511983   4.563   1.152  12.017 -0.1476 -0.3282  0.1571
  814MPD2     H11984   4.510   1.264  11.657  2.3594  0.6278 -0.1883
  814MPD2    H111985   4.572   1.343  12.073 -1.1846  0.8885 -0.3307
  814MPD2    H211986   4.528   0.950  11.962  0.1034  1.7157  2.6004
  814MPD2    H311987   4.568   1.118  12.120  0.4490  3.4881  1.3989
  814MPD2     N11988   4.527   1.462  11.840  0.7473  0.1605 -0.3668
  814MPD2    H511989   4.533   1.522  11.922  1.2672 -0.3011 -0.0644
  814MPD2    N111990   4.478   1.000  11.695  1.1056  0.3074  0.0127
  814MPD2    H711991   4.465   1.032  11.599  2.0258  1.6522  0.3379
  815MPD2     C11992   0.020   4.653  11.643  0.2141  0.9103  0.4415
  815MPD2    C111993   0.043   4.535  11.711  0.2529 -0.2164  0.4983
  815MPD2    C211994   4.654   4.478  11.779  0.5123 -0.0611 -0.1902
  815MPD2    C311995   4.527   4.524  11.756  0.1230  0.4185 -0.4035
  815MPD2    C411996   4.511   4.640  11.683  0.0853 -0.5868 -0.0387
  815MPD2    C511997   4.610   4.708  11.632  0.1130 -0.1882  0.0884
  815MPD2     H11998   4.678   4.392  11.840 -0.7167 -1.7708 -2.1049
  815MPD2    H111999   4.410   4.670  11.658  0.1866 -0.2700 -0.0713
  815MPD2    H212000   0.104   4.706  11.599 -1.6202  3.1811 -0.2770
  815MPD2    H312001   4.591   0.079  11.576  1.7726  1.3045  1.9892
  815MPD2     N12002   4.405   4.454  11.803 -0.6922  0.2858 -0.2748
  815MPD2    H512003   4.314   4.485  11.771 -0.5572 -0.2501 -1.1803
  815MPD2    N112004   0.170   4.474  11.703  0.2054 -0.0652  0.7911
  815MPD2    H712005   0.246   4.527  11.660 -1.3712  0.1707 -1.7240
  816MPD2     C12006   3.908   2.905  17.139  0.3177  0.8957 -0.7430
  816MPD2    C112007   3.993   3.006  17.184 -0.3197  0.0281 -0.4423
  816MPD2    C212008   4.134   2.991  17.170 -0.3537 -0.1269  0.2461
  816MPD2    C312009   4.181   2.871  17.114  0.5571 -1.0724  0.6559
  816MPD2    C412010   4.087   2.773  17.071  0.9077 -0.2058  0.5994
  816MPD2    C512011   3.959   2.799  17.069  0.8882  0.0153  0.0816
  816MPD2     H12012   4.204   3.073  17.180 -1.2955  0.5800  1.0492
  816MPD2    H112013   4.118   2.679  17.026  0.6950 -0.9274  1.9786
  816MPD2    H212014   3.800   2.911  17.149  0.4711  2.5422 -0.1067
  816MPD2    H312015   3.893   2.721  17.033 -0.3374  1.1869 -0.2510
  816MPD2     N12016   4.315   2.860  17.083  0.2153  0.3999  0.8178
  816MPD2    H512017   4.370   2.942  17.105  1.9389 -0.2463 -1.1098
  816MPD2    N112018   3.932   3.116  17.235 -0.6260 -0.3019  0.0256
  816MPD2    H712019   3.831   3.110  17.227 -0.5265  1.3953 -2.2718
  817MPD2     C12020   4.351   0.289   9.717  0.5257  0.5181  0.3361
  817MPD2    C112021   4.315   0.239   9.593 -0.1525 -0.1059 -0.6341
  817MPD2    C212022   4.277   0.335   9.499  0.0662 -0.3882  0.1954
  817MPD2    C312023   4.281   0.467   9.514 -0.0644 -0.6155 -0.1985
  817MPD2    C412024   4.334   0.512   9.633 -0.1432  0.2911  1.0150
  817MPD2    C512025   4.378   0.419   9.723  0.4526 -0.8151  1.2952
  817MPD2     H12026   4.246   0.306   9.399  1.7983 -0.5005 -0.3160
  817MPD2    H112027   4.342   0.618   9.651 -1.2740  0.0346  3.0165
  817MPD2    H212028   4.392   0.234   9.802 -1.5683 -0.4011  0.7380
  817MPD2    H312029   4.428   0.455   9.813  0.4827  1.4709  0.3753
  817MPD2     N12030   4.227   0.551   9.413 -0.3119 -0.3963 -0.2204
  817MPD2    H512031   4.158   0.510   9.351 -3.5063  2.7617  1.2350
  817MPD2    N112032   4.303   0.103   9.554 -0.3592 -0.2080 -0.2888
  817MPD2    H712033   4.289   0.081   9.456 -0.9994 -0.9305 -0.0307
  818MPD2     C12034   3.287   0.065   9.898  0.2798  0.2605  0.7925
  818MPD2    C112035   3.184   0.012   9.980 -0.3022 -0.4448  0.0530
  818MPD2    C212036   3.193   4.596  10.026  0.8059 -0.3872  0.1273
  818MPD2    C312037   3.292   4.512   9.984 -0.2019  0.1585  0.2804
  818MPD2    C412038   3.380   4.562   9.892 -0.9685 -0.0853  0.2766
  818MPD2    C512039   3.380   4.696   9.858  0.2900 -0.2446  0.7057
  818MPD2     H12040   3.115   4.565  10.095  0.7884  0.6848  0.5940
  818MPD2    H112041   3.462   4.497   9.866 -1.0411 -0.5630  1.2801
  818MPD2    H212042   3.282   0.163   9.853 -1.5250 -0.7484 -1.2219
  818MPD2    H312043   3.458   0.009   9.790  0.8582  0.3065  1.6339
  818MPD2     N12044   3.305   4.377  10.018  0.0274 -0.3153  0.2640
  818MPD2    H512045   3.371   4.323   9.963  0.2796  0.7648 -0.4956
  818MPD2    N112046   3.078   0.086  10.027  0.0012  0.3614  0.4992
  818MPD2    H712047   2.999   0.037  10.069  1.1066 -2.4759 -0.7487
  819MPD2     C12048   1.281   1.588  15.756 -0.4148  0.6009 -0.1038
  819MPD2    C112049   1.284   1.466  15.696 -0.1673  0.4448  0.5526
  819MPD2    C212050   1.407   1.397  15.700  0.0160  0.3835  0.5186
  819MPD2    C312051   1.515   1.470  15.737 -0.3519  0.3738 -0.5651
  819MPD2    C412052   1.517   1.596  15.796 -0.0290 -0.0362 -0.3105
  819MPD2    C512053   1.391   1.660  15.801 -0.6389  0.1378  0.5601
  819MPD2     H12054   1.417   1.293  15.672  1.8503  0.4696  0.8573
  819MPD2    H112055   1.596   1.666  15.819 -1.4405  1.8000 -0.9990
  819MPD2    H212056   1.185   1.637  15.752 -0.3842  0.6195 -0.7220
  819MPD2    H312057   1.389   1.766  15.824 -0.1438  0.3940 -0.5756
  819MPD2     N12058   1.639   1.407  15.710  0.4091 -0.2008 -0.5544
  819MPD2    H512059   1.639   1.316  15.665 -1.3629  0.7022 -2.3681
  819MPD2    N112060   1.157   1.415  15.650  0.4285 -0.3147  0.3647
  819MPD2    H712061   1.073   1.471  15.658  2.0573  2.0237  1.1682
  820MPD2     C12062   0.585   1.464  14.846 -0.1579 -0.1912  0.6777
  820MPD2    C112063   0.556   1.517  14.970 -0.0950 -0.0772  0.3189
  820MPD2    C212064   0.621   1.466  15.078  0.9298  0.2720  0.0640
  820MPD2    C312065   0.720   1.373  15.067  0.0753 -0.1903  0.3296
  820MPD2    C412066   0.751   1.321  14.948 -0.1037  0.3639 -0.3491
  820MPD2    C512067   0.687   1.367  14.834  0.7394 -0.1370 -0.1398
  820MPD2     H12068   0.593   1.491  15.179  1.8867  1.1345  0.1194
  820MPD2    H112069   0.826   1.244  14.930 -0.7861 -0.2309 -0.6155
  820MPD2    H212070   0.526   1.502  14.763 -1.1015 -1.0013  0.9707
  820MPD2    H312071   0.715   1.325  14.738  3.7091  0.5289  0.4460
  820MPD2     N12072   0.783   1.314  15.177  0.5161 -0.4046  0.2238
  820MPD2    H512073   0.832   1.226  15.167 -1.1758 -1.0288 -2.3468
  820MPD2    N112074   0.456   1.612  14.984  0.3903  0.3297 -1.3532
  820MPD2    H712075   0.415   1.653  14.901 -1.8081  0.8565 -0.0066
  821MPD2     C12076   1.079   2.972  13.062  0.7463 -0.2608 -0.1213
  821MPD2    C112077   1.107   3.022  13.188  0.3120 -0.5072  0.7199
  821MPD2    C212078   1.167   3.147  13.191  0.0131  0.3497 -0.0554
  821MPD2    C312079   1.207   3.214  13.076  0.2351  0.0929 -0.6047
  821MPD2    C412080   1.171   3.164  12.954 -0.0488 -0.2858 -0.7926
  821MPD2    C512081   1.111   3.039  12.947  0.0980  0.2037  0.2863
  821MPD2     H12082   1.185   3.190  13.289 -0.0450 -0.6157  0.3762
  821MPD2    H112083   1.186   3.221  12.863  2.7644  0.7720  0.3387
  821MPD2    H212084   1.026   2.880  13.043 -1.9430  1.0249  1.0673
  821MPD2    H312085   1.080   2.999  12.851  1.0377 -1.6324  0.7509
  821MPD2     N12086   1.285   3.335  13.074  0.8047  0.1268 -0.4679
  821MPD2    H512087   1.291   3.392  12.990 -0.8181 -0.5049 -1.0166
  821MPD2    N112088   1.066   2.956  13.310 -0.0742 -0.1087 -0.4264
  821MPD2    H712089   1.075   3.006  13.398  0.0202 -0.0029 -0.4969
  822MPD2     C12090   1.699   2.962  15.524 -0.0354 -0.3986  0.0080
  822MPD2    C112091   1.690   2.916  15.650  0.1956 -1.1909 -0.4839
  822MPD2    C212092   1.589   2.964  15.734  0.0204  0.4577 -0.1134
  822MPD2    C312093   1.494   3.052  15.687 -0.0050  0.0523 -0.4505
  822MPD2    C412094   1.504   3.106  15.562  0.0322 -0.2148  0.0161
  822MPD2    C512095   1.607   3.057  15.486 -0.4659  0.4126  0.5469
  822MPD2     H12096   1.587   2.934  15.838  0.3647 -1.9306 -0.7854
  822MPD2    H112097   1.433   3.180  15.527 -0.8316 -1.4556 -0.8494
  822MPD2    H212098   1.776   2.931  15.454 -1.6396 -0.2944 -1.8168
  822MPD2    H312099   1.625   3.104  15.389  1.7242  2.1418  1.7778
  822MPD2     N12100   1.411   3.099  15.791  0.5042  0.0148  0.7116
  822MPD2    H512101   1.411   3.040  15.874  1.4906  0.6963  1.1912
  822MPD2    N112102   1.792   2.828  15.710  0.3988 -0.6841  0.1630
  822MPD2    H712103   1.793   2.820  15.811  0.2914  0.3612  0.2473
  823MPD2     C12104   1.302   3.102  16.611  0.0517 -0.7918 -0.2620
  823MPD2    C112105   1.343   3.042  16.497  0.2848 -1.1824 -0.8199
  823MPD2    C212106   1.379   2.909  16.503  0.0049 -0.3087  0.0280
  823MPD2    C312107   1.370   2.843  16.630  0.2384  0.0230 -0.3704
  823MPD2    C412108   1.317   2.908  16.740  0.3440 -0.8655 -0.6092
  823MPD2    C512109   1.287   3.036  16.733  0.1856  0.3450 -0.0178
  823MPD2     H12110   1.417   2.854  16.418 -0.2484 -0.1116 -0.2133
  823MPD2    H112111   1.309   2.861  16.837 -0.1766  0.0945 -0.1918
  823MPD2    H212112   1.285   3.209  16.608  0.9722 -0.6392 -0.0664
  823MPD2    H312113   1.248   3.083  16.823  1.3185  1.1405  0.0492
  823MPD2     N12114   1.413   2.715  16.649  0.3116  0.1432 -0.2455
  823MPD2    H512115   1.382   2.683  16.740 -0.0424  0.1806 -0.3516
  823MPD2    N112116   1.346   3.110  16.373 -0.2544 -0.2532  0.2634
  823MPD2    H712117   1.313   3.206  16.382 -0.4522 -0.2025 -0.9967
  824MPD2     C12118   2.243   2.053  15.877 -0.3838 -0.6984  0.7211
  824MPD2    C112119   2.267   2.158  15.786  0.5084  0.0093 -0.0704
  824MPD2    C212120   2.360   2.143  15.687 -0.0384  0.2151 -1.1942
  824MPD2    C312121   2.434   2.022  15.676 -0.2295  0.5780  0.2267
  824MPD2    C412122   2.405   1.925  15.769  0.4409 -0.1234  0.2288
  824MPD2    C512123   2.313   1.939  15.868  0.0749  0.3192 -0.6398
  824MPD2     H12124   2.387   2.224  15.620  0.1848  2.7274  1.9029
  824MPD2    H112125   2.452   1.828  15.778  0.7873  0.0227 -0.0300
  824MPD2    H212126   2.173   2.056  15.960 -0.6402 -1.7816  0.5456
  824MPD2    H312127   2.290   1.864  15.942 -0.4495  0.7791 -0.3419
  824MPD2     N12128   2.532   2.013  15.580  0.4099 -0.1223  0.0051
  824MPD2    H512129   2.535   2.087  15.510 -0.9008  0.2498  0.3418
  824MPD2    N112130   2.190   2.271  15.801 -0.6165  0.0037 -0.3548
  824MPD2    H712131   2.126   2.266  15.879 -0.2473  1.6902  0.0559
  825MPD2     C12132   2.908   2.158  14.838 -0.0759 -0.5827 -0.4061
  825MPD2    C112133   2.915   2.209  14.970 -0.0934  0.8827 -0.6350
  825MPD2    C212134   2.962   2.335  14.991 -0.4414  0.4330 -0.6230
  825MPD2    C312135   2.986   2.425  14.890 -0.2716  0.8876 -0.0404
  825MPD2    C412136   2.970   2.383  14.758 -0.0463  0.5594 -0.4737
  825MPD2    C512137   2.937   2.250  14.740  0.3165 -0.5537  0.2185
  825MPD2     H12138   2.963   2.364  15.095 -2.4589 -0.0037 -0.4651
  825MPD2    H112139   2.987   2.453  14.677 -0.2674  0.6468 -0.4460
  825MPD2    H212140   2.884   2.058  14.805 -0.5781 -1.0911  1.4684
  825MPD2    H312141   2.937   2.222  14.635  2.2891 -2.9095  0.8497
  825MPD2     N12142   3.035   2.558  14.903 -0.0509  0.2424  0.0189
  825MPD2    H512143   3.057   2.606  14.816 -0.4965 -0.8732 -0.7007
  825MPD2    N112144   2.890   2.120  15.079 -0.4976 -0.5217 -0.4578
  825MPD2    H712145   2.879   2.021  15.057  0.2468 -0.6982 -0.0011
  826MPD2     C12146   2.164   2.125  13.502 -0.2115  0.5188  0.0106
  826MPD2    C112147   2.220   2.236  13.430  0.2168 -0.4900 -0.3624
  826MPD2    C212148   2.164   2.359  13.453 -0.2841 -0.3025 -0.4290
  826MPD2    C312149   2.056   2.375  13.538  0.2336  0.4332  0.2938
  826MPD2    C412150   1.990   2.264  13.589 -0.5859  0.3709  0.1300
  826MPD2    C512151   2.043   2.144  13.564  0.4456  0.3055  0.5952
  826MPD2     H12152   2.209   2.450  13.415 -0.5602 -0.4160 -1.0273
  826MPD2    H112153   1.910   2.272  13.662  1.4396  1.4325  2.2063
  826MPD2    H212154   2.213   2.028  13.502 -1.7690 -0.2686 -0.4961
  826MPD2    H312155   1.990   2.063  13.614  0.9266 -0.4182 -0.0631
  826MPD2     N12156   2.002   2.496  13.568  0.3943  0.2261 -0.7419
  826MPD2    H512157   1.917   2.502  13.624  0.4690 -1.8575 -0.4169
  826MPD2    N112158   2.343   2.219  13.360 -0.4069 -0.5230  0.3452
  826MPD2    H712159   2.387   2.133  13.390  0.4127 -0.4758 -0.7401
  827MPD2     C12160   3.699   3.862   9.886  0.3228 -0.0039  0.0350
  827MPD2    C112161   3.716   3.751   9.960  0.1292  0.7258 -0.0789
  827MPD2    C212162   3.667   3.626   9.914 -0.5968 -0.2528  0.3919
  827MPD2    C312163   3.621   3.619   9.787  0.5819  0.0448  1.3054
  827MPD2    C412164   3.601   3.737   9.716  0.4698  0.2391 -0.2605
  827MPD2    C512165   3.636   3.859   9.765  0.0976 -0.0603  0.9536
  827MPD2     H12166   3.685   3.533   9.967  0.8127 -1.4588 -2.2193
  827MPD2    H112167   3.549   3.733   9.621 -0.9274  1.8649  0.4378
  827MPD2    H212168   3.722   3.962   9.923 -0.5258 -0.2018  1.0878
  827MPD2    H312169   3.604   3.956   9.727  0.0310 -0.3100  0.3727
  827MPD2     N12170   3.571   3.490   9.741 -0.2826  1.0522 -0.2558
  827MPD2    H512171   3.577   3.417   9.811  1.1659 -0.1227 -1.6090
  827MPD2    N112172   3.783   3.765  10.088  0.1736 -0.1054  0.6592
  827MPD2    H712173   3.828   3.850  10.119 -0.2208  1.1521 -2.1610
  828MPD2     C12174   1.556   3.300  12.864  0.0714 -0.0832  0.4679
  828MPD2    C112175   1.574   3.359  12.739  0.6449 -0.3168  0.4471
  828MPD2    C212176   1.695   3.353  12.675 -0.6509 -0.0531 -0.0093
  828MPD2    C312177   1.806   3.311  12.747  0.2557  0.0209  0.5932
  828MPD2    C412178   1.783   3.266  12.868 -0.5004 -0.1323 -0.1959
  828MPD2    C512179   1.664   3.255  12.935 -0.6502  0.1297  0.1078
  828MPD2     H12180   1.720   3.392  12.577 -0.3881 -0.4681 -0.1070
  828MPD2    H112181   1.865   3.228  12.927  1.1903  0.9078 -1.8321
  828MPD2    H212182   1.455   3.284  12.900 -0.8403  1.5903 -1.3600
  828MPD2    H312183   1.652   3.190  13.021  0.4644 -0.3248 -0.0727
  828MPD2     N12184   1.938   3.297  12.699  0.1643 -0.2942  0.1069
  828MPD2    H512185   1.994   3.233  12.755 -0.5692  0.5023  1.7480
  828MPD2    N112186   1.467   3.409  12.661  0.1916  0.3266 -0.3293
  828MPD2    H712187   1.484   3.442  12.567 -2.2097 -1.3063 -1.3218
  829MPD2     C12188   1.645   3.648  11.875 -0.2208  0.5840  0.6144
  829MPD2    C112189   1.507   3.652  11.864 -0.3330  0.2424  0.0910
  829MPD2    C212190   1.417   3.622  11.967  0.6267  0.0600  0.3519
  829MPD2    C312191   1.477   3.585  12.087  0.2674 -0.2938 -0.6273
  829MPD2    C412192   1.613   3.576  12.096 -0.3666  0.1350 -0.4978
  829MPD2    C512193   1.700   3.602  11.993 -0.0809 -0.6238 -0.3616
  829MPD2     H12194   1.309   3.619  11.955  0.6097  1.6420  0.1071
  829MPD2    H112195   1.659   3.559  12.193 -1.8146 -1.9542 -0.1866
  829MPD2    H212196   1.718   3.676  11.801 -0.8573 -0.6280 -0.4695
  829MPD2    H312197   1.808   3.596  12.005 -0.3641  0.5894  2.5994
  829MPD2     N12198   1.407   3.553  12.206  0.4262 -0.5623 -0.2063
  829MPD2    H512199   1.467   3.514  12.279  0.4519  0.5422  0.3725
  829MPD2    N112200   1.459   3.675  11.732 -0.2092 -0.3512 -0.0947
  829MPD2    H712201   1.527   3.702  11.662 -0.6765 -0.4321 -0.5769
  830MPD2     C12202   1.809   1.320  15.096 -0.5378  0.4240  0.5359
  830MPD2    C112203   1.930   1.315  15.160  0.7929 -0.4054 -0.1930
  830MPD2    C212204   2.041   1.322  15.078 -0.5586  0.4907 -0.6233
  830MPD2    C312205   2.029   1.333  14.941  0.9447  0.7716 -0.3063
  830MPD2    C412206   1.908   1.310  14.881 -0.6257  0.0239  0.0507
  830MPD2    C512207   1.796   1.304  14.958 -0.2253 -0.1177  0.7939
  830MPD2     H12208   2.141   1.334  15.120 -0.6192 -1.3940  0.0751
  830MPD2    H112209   1.906   1.300  14.773  0.5246 -0.9739  0.1161
  830MPD2    H212210   1.716   1.313  15.152 -0.1056 -0.3493  1.1646
  830MPD2    H312211   1.707   1.282  14.899  0.8807 -0.5382 -0.7122
  830MPD2     N12212   2.141   1.342  14.859  0.5098  0.3829  0.0220
  830MPD2    H512213   2.132   1.318  14.761 -0.3525 -0.1714  0.2388
  830MPD2    N112214   1.930   1.321  15.307 -0.0351 -0.5583 -0.0284
  830MPD2    H712215   1.842   1.339  15.353 -0.6958 -4.1121  0.1000
  831MPD2     C12216   1.784   3.201  16.318  0.3464 -0.0005 -0.3317
  831MPD2    C112217   1.763   3.172  16.186 -0.4426  0.1021 -0.2393
  831MPD2    C212218   1.716   3.047  16.152  0.2549 -0.1043 -0.0271
  831MPD2    C312219   1.690   2.952  16.246 -0.2114 -0.0962 -0.4638
  831MPD2    C412220   1.700   2.987  16.376 -0.3983 -0.5907 -0.4645
  831MPD2    C512221   1.754   3.108  16.406  0.3903  0.1339  0.8414
  831MPD2     H12222   1.701   3.021  16.048 -0.0550 -0.4615  0.1057
  831MPD2    H112223   1.665   2.919  16.453 -0.2438  0.4353  0.5052
  831MPD2    H212224   1.823   3.295  16.357  0.7524  0.1714 -1.1635
  831MPD2    H312225   1.750   3.144  16.509 -3.2841 -0.3814  0.9004
  831MPD2     N12226   1.654   2.815  16.216 -0.3337  0.0537 -0.2603
  831MPD2    H512227   1.621   2.750  16.286 -3.2613  0.3718 -1.3255
  831MPD2    N112228   1.770   3.282  16.092  0.3599 -0.0422 -0.2682
  831MPD2    H712229   1.794   3.372  16.133  0.2702  1.1648 -2.8948
  832MPD2     C12230   4.622   4.259  17.575  0.6814 -0.1752  0.3505
  832MPD2    C112231   4.679   4.334  17.478 -0.3089 -0.2028  0.7677
  832MPD2    C212232   4.638   4.323  17.344 -0.0990  0.1956 -0.3855
  832MPD2    C312233   4.552   4.224  17.313  0.5224 -0.3928 -0.3726
  832MPD2    C412234   4.492   4.150  17.412 -0.1781 -0.3239  0.1661
  832MPD2    C512235   4.521   4.171  17.542 -0.1896 -0.0211  0.2760
  832MPD2     H12236   4.698   4.363  17.263  1.3795  1.0952  1.1599
  832MPD2    H112237   4.414   4.081  17.383 -0.5865  0.8652 -1.5625
  832MPD2    H212238   4.648   4.269  17.680  0.2144  2.6523  0.1933
  832MPD2    H312239   4.465   4.119  17.619 -1.7168 -1.6197 -1.9347
  832MPD2     N12240   4.521   4.195  17.182 -0.7064  0.7674  0.0127
  832MPD2    H512241   4.462   4.115  17.160  0.3855  0.4385 -1.7463
  832MPD2    N112242   0.058   4.423  17.529  0.6106 -0.0363 -0.1721
  832MPD2    H712243   0.050   4.441  17.629 -1.6511  0.1742 -0.4097
  833MPD2     C12244   2.604   1.394  12.343 -0.7262  0.2426 -0.1557
  833MPD2    C112245   2.563   1.473  12.236 -1.0347  0.0626 -0.1140
  833MPD2    C212246   2.634   1.463  12.125 -1.4220 -0.2831 -1.1766
  833MPD2    C312247   2.742   1.369  12.114  0.0098  0.6978 -0.5457
  833MPD2    C412248   2.773   1.285  12.211  0.1090 -0.9101  0.9997
  833MPD2    C512249   2.707   1.303  12.333  0.4149 -0.0582  0.4862
  833MPD2     H12250   2.605   1.526  12.042  1.2908  0.5470 -1.4712
  833MPD2    H112251   2.858   1.218  12.202  0.0373 -0.6803 -1.3045
  833MPD2    H212252   2.562   1.403  12.443  1.9581  2.4313  0.7781
  833MPD2    H312253   2.739   1.239  12.415 -0.9886 -1.0348  0.2736
  833MPD2     N12254   2.804   1.355  11.990  0.2505 -0.0703  0.2035
  833MPD2    H512255   2.856   1.269  11.977  1.1004  0.2505  1.4848
  833MPD2    N112256   2.462   1.574  12.250 -0.1686 -0.4311  0.3553
  833MPD2    H712257   2.451   1.636  12.170 -0.6523 -1.3900 -0.3236
  834MPD2     C12258   2.545   0.598  11.547  0.0296 -0.5773  0.2997
  834MPD2    C112259   2.558   0.684  11.433 -0.4497  0.0311 -0.2498
  834MPD2    C212260   2.629   0.801  11.438  0.4085  0.1711  0.2382
  834MPD2    C312261   2.683   0.838  11.556 -0.3116  0.1904 -0.1796
  834MPD2    C412262   2.671   0.755  11.664  0.5887  0.2535 -0.4595
  834MPD2    C512263   2.603   0.634  11.664 -0.5822 -0.1903  0.1556
  834MPD2     H12264   2.644   0.856  11.346 -0.1612  1.2313  0.7815
  834MPD2    H112265   2.729   0.771  11.754 -2.3481  1.2132  1.2958
  834MPD2    H212266   2.488   0.506  11.548 -1.0124  0.0378 -2.0008
  834MPD2    H312267   2.581   0.580  11.755 -0.0815  1.9693  1.5519
  834MPD2     N12268   2.743   0.960  11.557  0.8990 -0.0571  0.5403
  834MPD2    H512269   2.754   1.001  11.465 -0.2253 -1.3120 -0.1637
  834MPD2    N112270   2.492   0.634  11.320 -0.0146 -0.3724 -0.3083
  834MPD2    H712271   2.450   0.542  11.327 -0.3713 -0.1264  0.7975
  835MPD2     C12272   2.468   3.714  11.085 -0.0256 -1.0230 -0.0610
  835MPD2    C112273   2.333   3.741  11.067 -0.1857  0.1428  0.0666
  835MPD2    C212274   2.251   3.770  11.176 -0.7632 -0.3760 -0.2175
  835MPD2    C312275   2.306   3.787  11.301 -0.3003 -0.5154 -0.5933
  835MPD2    C412276   2.443   3.771  11.320  0.2895  0.0290  0.1888
  835MPD2    C512277   2.521   3.740  11.208  0.5169 -1.1525  0.2994
  835MPD2     H12278   2.147   3.795  11.158 -0.5157  0.3593 -0.5946
  835MPD2    H112279   2.484   3.779  11.420  1.0378 -2.3257  0.0611
  835MPD2    H212280   2.544   3.699  11.009  0.9702  2.1549  0.2945
  835MPD2    H312281   2.628   3.736  11.222  0.7893  1.9229 -0.9242
  835MPD2     N12282   2.227   3.830  11.408 -0.6201  0.0448  0.3821
  835MPD2    H512283   2.280   3.849  11.493  0.7993 -0.6405 -0.3495
  835MPD2    N112284   2.268   3.752  10.938 -0.2213  0.0935 -0.3853
  835MPD2    H712285   2.170   3.775  10.932  0.3265  2.5080 -0.2435
  836MPD2     C12286   1.461   4.013  11.560 -0.3117  0.0793  0.1273
  836MPD2    C112287   1.535   4.007  11.676 -0.2630 -0.0698 -0.0061
  836MPD2    C212288   1.471   4.018  11.800 -0.1652  0.4724  0.6625
  836MPD2    C312289   1.329   4.025  11.802 -0.8319  0.7635  0.6322
  836MPD2    C412290   1.259   4.029  11.684  0.2222  0.8821  0.1551
  836MPD2    C512291   1.328   4.027  11.568 -0.9038 -0.6894 -0.7659
  836MPD2     H12292   1.522   4.015  11.896  1.9140 -2.1050 -0.4992
  836MPD2    H112293   1.155   4.061  11.683  0.3931  1.3563 -1.6749
  836MPD2    H212294   1.514   4.018  11.466 -1.2364 -0.6748 -0.4298
  836MPD2    H312295   1.269   4.028  11.478 -1.5402  4.2878 -0.2997
  836MPD2     N12296   1.271   4.022  11.934 -0.2409  0.1113 -0.2627
  836MPD2    H512297   1.339   3.993  12.005  0.4090  2.1048 -0.0852
  836MPD2    N112298   1.673   3.984  11.655 -0.1560 -0.9084 -0.0242
  836MPD2    H712299   1.714   3.974  11.563  0.7395 -1.7377  0.4789
  837MPD2     C12300   0.557   3.974  10.240  0.3809 -0.4509  0.2000
  837MPD2    C112301   0.561   3.918  10.111  0.7664 -0.5764 -0.2031
  837MPD2    C212302   0.516   4.002  10.008  0.3522 -0.2820 -0.2358
  837MPD2    C312303   0.459   4.128  10.033  0.0390  0.6386  0.2743
  837MPD2    C412304   0.455   4.183  10.159 -0.5563 -0.0716 -1.1036
  837MPD2    C512305   0.497   4.099  10.258  0.0606  1.1928  0.1264
  837MPD2     H12306   0.520   3.978   9.902  0.5737  1.1450 -0.5530
  837MPD2    H112307   0.405   4.278  10.178  0.3069  0.1272  0.1913
  837MPD2    H212308   0.592   3.924  10.329  3.8162  1.9524  0.1865
  837MPD2    H312309   0.487   4.130  10.362  0.1167  0.9645  0.1998
  837MPD2     N12310   0.429   4.206   9.918  0.2553 -0.1657 -0.0635
  837MPD2    H512311   0.424   4.148   9.835  0.1768  0.3004 -0.3844
  837MPD2    N112312   0.617   3.797  10.081 -0.0605 -0.7284  0.6095
  837MPD2    H712313   0.615   3.773   9.982  1.5979  1.6039  0.0114
  838MPD2     C12314   3.735   1.071  10.830  0.0289  0.6589 -0.3208
  838MPD2    C112315   3.765   1.173  10.918  0.4802 -0.4197 -0.8100
  838MPD2    C212316   3.656   1.221  10.995 -0.2138  0.5229  0.1636
  838MPD2    C312317   3.532   1.162  10.996  0.4653 -0.7259  0.6832
  838MPD2    C412318   3.510   1.071  10.892 -0.4313  0.0663  0.4230
  838MPD2    C512319   3.607   1.026  10.803 -0.4048  0.1623 -0.2645
  838MPD2     H12320   3.670   1.305  11.062  2.6272  1.4568 -1.5951
  838MPD2    H112321   3.418   1.014  10.903 -0.5536  0.2805  0.5014
  838MPD2    H212322   3.811   1.021  10.771 -2.4315 -1.2309 -1.8195
  838MPD2    H312323   3.587   0.951  10.728  0.0975 -0.8654  0.6426
  838MPD2     N12324   3.434   1.213  11.087  0.3855 -0.0116  0.0140
  838MPD2    H512325   3.459   1.301  11.132  0.6386 -0.5141  0.8469
  838MPD2    N112326   3.895   1.214  10.954 -0.1843  0.3021 -0.5261
  838MPD2    H712327   3.904   1.275  11.035 -2.2334 -0.4690  0.2627
  839MPD2     C12328   3.857   1.425  11.752  0.1832  0.0583 -0.1720
  839MPD2    C112329   3.800   1.339  11.662  0.2644  0.0631  0.2314
  839MPD2    C212330   3.865   1.324  11.546  0.9414 -0.3098 -0.2386
  839MPD2    C312331   3.983   1.384  11.521  0.2612 -0.1050  0.1494
  839MPD2    C412332   4.042   1.468  11.611  0.4635 -0.7938 -0.1963
  839MPD2    C512333   3.987   1.475  11.733  0.7192 -0.4161  0.6523
  839MPD2     H12334   3.823   1.260  11.469 -1.2699 -0.8255  1.3893
  839MPD2    H112335   4.128   1.530  11.588 -0.3070  0.7200  0.9652
  839MPD2    H212336   3.818   1.458  11.848  2.2646  0.7895  0.4368
  839MPD2    H312337   4.033   1.534  11.811  0.9055 -0.0219  0.2465
  839MPD2     N12338   4.061   1.368  11.407 -0.8550 -0.4796  0.3455
  839MPD2    H512339   4.156   1.403  11.401 -1.5015  1.1782 -0.2771
  839MPD2    N112340   3.683   1.263  11.696  0.4101  0.2845  0.6274
  839MPD2    H712341   3.642   1.199  11.630  0.5026  0.9123 -0.0369
  840MPD2     C12342   4.353   4.024  10.244  0.3543 -0.2725  0.0998
  840MPD2    C112343   4.271   4.039  10.352  0.1092  0.2724  1.0102
  840MPD2    C212344   4.299   4.132  10.456  0.4869 -0.3314 -0.3006
  840MPD2    C312345   4.410   4.213  10.447  0.1903 -0.3214  0.7507
  840MPD2    C412346   4.492   4.193  10.340  0.3343 -0.2621  0.8037
  840MPD2    C512347   4.468   4.105  10.240  0.2417  0.0861  0.3186
  840MPD2     H12348   4.217   4.145  10.526  2.0892 -0.6350  1.6043
  840MPD2    H112349   4.583   4.250  10.324  1.0816 -1.8897 -0.6904
  840MPD2    H212350   4.334   3.953  10.165 -1.5459  1.3060 -0.8693
  840MPD2    H312351   4.545   4.092  10.164 -2.3458  0.0994 -2.2836
  840MPD2     N12352   4.442   4.298  10.558  0.2760 -0.6185  0.3081
  840MPD2    H512353   4.527   4.353  10.551 -0.7636  0.9958  0.2085
  840MPD2    N112354   4.169   3.942  10.360 -0.0357 -0.3980 -0.0073
  840MPD2    H712355   4.158   3.899  10.269 -2.1862  2.7681 -1.2729
  841MPD2     C12356   3.456   3.283  14.575  0.0764  0.1013 -0.3542
  841MPD2    C112357   3.542   3.218  14.482  0.2939 -0.2052  0.4326
  841MPD2    C212358   3.632   3.300  14.415 -0.2704  0.3919  0.6282
  841MPD2    C312359   3.640   3.435  14.430  0.0591 -0.5518  0.1080
  841MPD2    C412360   3.558   3.501  14.527 -0.2518 -0.1654 -0.0204
  841MPD2    C512361   3.464   3.418  14.590  0.7769 -0.2506 -0.7394
  841MPD2     H12362   3.688   3.245  14.339 -0.9118 -0.9134  1.0908
  841MPD2    H112363   3.572   3.605  14.555 -0.2228 -0.0704 -0.3872
  841MPD2    H212364   3.383   3.227  14.632  0.3383  0.5953  0.4621
  841MPD2    H312365   3.390   3.466  14.653  1.1132 -0.6930 -0.0206
  841MPD2     N12366   3.737   3.500  14.355  0.0029  0.4254  0.4022
  841MPD2    H512367   3.807   3.449  14.301  0.1329 -0.2192  1.1844
  841MPD2    N112368   3.544   3.079  14.455  0.0426 -0.0509  0.4866
  841MPD2    H712369   3.600   3.055  14.374  0.0332  3.0546 -0.4558
  842MPD2     C12370   4.101   4.649  16.461 -0.4300  0.2168  0.5304
  842MPD2    C112371   4.017   4.538  16.447  0.7865 -0.6321  0.3732
  842MPD2    C212372   4.012   4.446  16.552 -0.1227 -0.2783  0.3346
  842MPD2    C312373   4.065   4.472  16.673  0.0990  0.0645  0.0131
  842MPD2    C412374   4.145   4.589  16.681  0.1091 -0.3037  0.2616
  842MPD2    C512375   4.166   4.672  16.578 -0.0718  0.1142 -0.4742
  842MPD2     H12376   3.945   4.360  16.546 -1.6491  0.8899  0.5041
  842MPD2    H112377   4.208   4.598  16.769  0.7333 -0.7695 -0.1411
  842MPD2    H212378   4.110   0.009  16.389 -1.2959  1.4147  1.7470
  842MPD2    H312379   4.219   0.044  16.594  1.2038 -0.7095  0.1162
  842MPD2     N12380   4.044   4.403  16.793  0.8696 -0.1479  0.0773
  842MPD2    H512381   4.089   4.438  16.877 -1.7652  0.9458  1.0523
  842MPD2    N112382   3.951   4.517  16.324  0.0319  0.0789 -0.1968
  842MPD2    H712383   3.972   4.585  16.252  0.1168  0.9549  0.6561
  843MPD2     C12384   1.495   4.499  17.289 -0.9368 -0.3358  0.3031
  843MPD2    C112385   1.450   4.454  17.411  0.3006 -0.2126  0.1358
  843MPD2    C212386   1.534   4.465  17.521 -0.1005  0.1132  0.0507
  843MPD2    C312387   1.648   4.546  17.518 -0.4486 -0.3126 -0.2826
  843MPD2    C412388   1.685   4.598  17.399  0.3972 -0.0828 -0.3471
  843MPD2    C512389   1.606   4.577  17.288  0.7706 -0.6475 -0.8908
  843MPD2     H12390   1.514   4.416  17.616  0.0906 -0.5689 -0.2603
  843MPD2    H112391   1.780   4.647  17.384  0.4367 -0.6122 -1.8688
  843MPD2    H212392   1.441   4.487  17.196 -2.3967  0.0029  1.1204
  843MPD2    H312393   1.637   4.624  17.195  2.0466 -2.0391 -1.1681
  843MPD2     N12394   1.713   4.572  17.647  0.0102  0.2167  0.0287
  843MPD2    H512395   1.693   4.504   0.035  0.7357  1.6750  1.5832
  843MPD2    N112396   1.320   4.404  17.413 -0.1648 -0.3428 -0.0468
  843MPD2    H712397   1.269   4.393  17.326  0.2480  0.2144 -0.3566
  844MPD2     C12398   4.651   4.037  16.324 -0.0928  0.0594 -0.0229
  844MPD2    C112399   4.718   3.929  16.375  0.1906 -0.4972 -0.0510
  844MPD2    C212400   0.058   3.943  16.499 -0.0464 -0.5144 -0.5429
  844MPD2    C312401   0.061   4.058  16.565 -0.4662 -0.1194 -0.7864
  844MPD2    C412402   0.005   4.175  16.512 -0.1537 -0.4560  0.0168
  844MPD2    C512403   4.658   4.156  16.394  0.2021  0.8088  0.8045
  844MPD2     H12404   0.099   3.854  16.547  1.0725  0.3052  0.0207
  844MPD2    H112405   4.717   4.273  16.558  3.5587  0.0126 -0.2655
  844MPD2    H212406   4.595   4.044  16.232  2.0366  2.1374 -1.1552
  844MPD2    H312407   4.600   4.238  16.353 -2.3750 -1.1775  0.4901
  844MPD2     N12408   0.109   4.052  16.697  0.7117  0.1414 -1.5441
  844MPD2    H512409   0.136   3.962  16.735 -1.6124  0.6576  1.3470
  844MPD2    N112410   4.712   3.810  16.307 -0.4701 -1.0671  0.0579
  844MPD2    H712411   4.683   3.809  16.210 -2.0476 -3.3202  0.5331
  845MPD2     C12412   0.748   0.033  16.901 -0.2875 -0.5122 -0.1569
  845MPD2    C112413   0.631   0.039  16.974  0.3387 -0.6244  0.0720
  845MPD2    C212414   0.544   4.648  16.975  0.2200 -0.1675 -0.0139
  845MPD2    C312415   0.582   4.529  16.912 -0.1023 -0.7610  0.1517
  845MPD2    C412416   0.694   4.528  16.824 -0.7859  0.0216  0.0407
  845MPD2    C512417   0.774   4.643  16.828 -0.2901 -0.1373 -0.3421
  845MPD2     H12418   0.463   4.645  17.047  0.1245 -0.2229 -0.1252
  845MPD2    H112419   0.723   4.439  16.769  1.2621 -0.5447  2.0082
  845MPD2    H212420   0.811   0.121  16.894 -0.6057 -0.5336 -3.3661
  845MPD2    H312421   0.860   4.642  16.762  0.5755  3.3776  0.7854
  845MPD2     N12422   0.501   4.422  16.926 -0.2752 -0.7052  0.3168
  845MPD2    H512423   0.412   4.441  16.971  0.7268  0.8063  1.6612
  845MPD2    N112424   0.621   0.155  17.053  0.1430 -0.0719  0.5753
  845MPD2    H712425   0.689   0.231  17.043 -1.6090  1.4888  0.4622
  846MPD2     C12426   1.765   0.738  13.504  0.0008 -0.4458 -0.3581
  846MPD2    C112427   1.754   0.874  13.538 -0.5366 -0.3001  0.0476
  846MPD2    C212428   1.733   0.904  13.670 -0.0925 -0.5149 -0.0704
  846MPD2    C312429   1.720   0.803  13.768  0.0646 -0.0078 -0.0561
  846MPD2    C412430   1.735   0.671  13.731 -0.4704 -0.6196  0.3605
  846MPD2    C512431   1.758   0.644  13.598  0.2685  0.2998 -0.0664
  846MPD2     H12432   1.720   1.005  13.708 -1.0648 -0.9688  0.8112
  846MPD2    H112433   1.726   0.582  13.792 -0.0716 -2.2206 -1.9073
  846MPD2    H212434   1.785   0.704  13.403 -0.8593 -0.4204 -0.5363
  846MPD2    H312435   1.771   0.541  13.565 -0.6383  0.6677 -1.5909
  846MPD2     N12436   1.698   0.835  13.904 -0.2094  0.1939 -0.0463
  846MPD2    H512437   1.654   0.922  13.930  0.8703  0.0855  2.1687
  846MPD2    N112438   1.775   0.988  13.449  0.5536  0.1085  0.1161
  846MPD2    H712439   1.786   1.081  13.489 -2.0100  0.3655  0.2361
  847MPD2     C12440   2.374   1.175  14.501  0.0465  0.2147 -0.2260
  847MPD2    C112441   2.463   1.262  14.459 -0.8234 -0.3820 -0.0497
  847MPD2    C212442   2.577   1.276  14.530 -0.5325  0.0476 -0.0530
  847MPD2    C312443   2.598   1.225  14.656 -0.5786  0.3568  0.0579
  847MPD2    C412444   2.499   1.154  14.711 -0.8649 -0.3533  0.3555
  847MPD2    C512445   2.393   1.127  14.630 -0.2043  0.0597  0.5275
  847MPD2     H12446   2.648   1.346  14.486 -1.9478  1.4049 -0.1453
  847MPD2    H112447   2.503   1.135  14.818 -0.0851 -0.0775  0.3766
  847MPD2    H212448   2.287   1.133  14.452 -0.8489  2.3277 -0.4238
  847MPD2    H312449   2.312   1.064  14.665  0.4228 -0.1152  1.6548
  847MPD2     N12450   2.711   1.250  14.739  0.6100  0.2688  0.1120
  847MPD2    H512451   2.702   1.219  14.835 -2.1401 -0.9209 -0.5507
  847MPD2    N112452   2.446   1.331  14.335  0.3849  0.0708 -0.4306
  847MPD2    H712453   2.528   1.381  14.301  1.6625 -1.6109  0.1912
  848MPD2     C12454   4.455   4.439  16.363 -0.4489 -0.4451 -0.1542
  848MPD2    C112455   4.466   4.484  16.485 -0.1908 -0.0327  0.5600
  848MPD2    C212456   4.503   4.619  16.501 -0.5157 -0.0032  0.5271
  848MPD2    C312457   4.524   4.701  16.387 -0.5210 -0.3356  1.3304
  848MPD2    C412458   4.501   4.646  16.262  0.4201  0.5150 -0.1340
  848MPD2    C512459   4.464   4.516  16.248  0.5267 -0.2395  0.3272
  848MPD2     H12460   4.506   4.661  16.600  2.0717 -1.3353  1.0064
  848MPD2    H112461   4.500   4.708  16.174  0.6179 -1.2632 -1.3943
  848MPD2    H212462   4.428   4.336  16.344 -2.5612  0.0178  0.3170
  848MPD2    H312463   4.452   4.475  16.148  0.8049  0.7041 -0.0951
  848MPD2     N12464   4.523   0.122  16.377  0.6306  0.5171 -0.7125
  848MPD2    H512465   4.502   0.154  16.283 -0.7718  0.2421 -0.4881
  848MPD2    N112466   4.458   4.408  16.603  0.3179 -0.8961  0.2514
  848MPD2    H712467   4.485   4.444  16.694 -0.6715 -0.1951  0.2635
  849MPD2     C12468   3.523   4.041  13.911 -0.3549 -0.7533 -0.7347
  849MPD2    C112469   3.597   4.156  13.939  0.3767 -0.0151 -0.3522
  849MPD2    C212470   3.702   4.157  14.035  1.0013 -0.0102  0.7235
  849MPD2    C312471   3.747   4.041  14.084  0.1301  0.8518  0.0845
  849MPD2    C412472   3.674   3.925  14.056  0.8786  0.3671 -0.2102
  849MPD2    C512473   3.561   3.928  13.979  0.2010 -0.1633 -0.3075
  849MPD2     H12474   3.750   4.252  14.057 -0.5827  1.5002 -2.3497
  849MPD2    H112475   3.707   3.830  14.096  0.4858  0.8929  1.3712
  849MPD2    H212476   3.439   4.046  13.843 -1.6434  0.4025  0.9412
  849MPD2    H312477   3.514   3.833  13.957  1.2174 -0.9269  0.7745
  849MPD2     N12478   3.867   4.027  14.156  0.6114 -0.1546 -0.5752
  849MPD2    H512479   3.907   3.935  14.169 -2.6133 -1.3984  0.6245
  849MPD2    N112480   3.557   4.268  13.855 -0.5364 -0.5390 -0.3737
  849MPD2    H712481   3.521   4.245  13.763  1.2546  0.7802 -1.4240
  850MPD2     C12482   1.442   2.398  14.976  0.3311  0.3713 -0.1973
  850MPD2    C112483   1.569   2.380  15.019 -0.1569 -0.7778  0.1857
  850MPD2    C212484   1.659   2.485  15.014 -0.6377  0.2165 -0.8489
  850MPD2    C312485   1.621   2.612  14.979 -0.4952 -0.0730  0.0367
  850MPD2    C412486   1.486   2.627  14.946  0.5907  0.3565  0.1202
  850MPD2    C512487   1.398   2.517  14.948  0.3647 -0.5444 -0.2378
  850MPD2     H12488   1.766   2.472  15.027 -0.7252  0.2112 -0.1343
  850MPD2    H112489   1.451   2.723  14.911 -0.2005 -0.4898 -1.3974
  850MPD2    H212490   1.372   2.315  14.974 -0.8916  1.4148 -0.5787
  850MPD2    H312491   1.295   2.532  14.915  1.3330  1.5691 -2.2690
  850MPD2     N12492   1.721   2.713  14.972 -0.3303 -1.0403 -0.4366
  850MPD2    H512493   1.813   2.687  15.006 -0.6808  0.4524  1.6661
  850MPD2    N112494   1.596   2.251  15.074 -0.4822  0.0232 -0.2096
  850MPD2    H712495   1.528   2.176  15.064  0.3939 -0.5558 -1.8584
  851MPD2     C12496   2.286   2.014  15.216 -0.3927  0.0881  0.0906
  851MPD2    C112497   2.209   1.908  15.179  0.2072  0.4817  0.2976
  851MPD2    C212498   2.254   1.816  15.092  0.2527  0.0210  0.1109
  851MPD2    C312499   2.378   1.825  15.035  0.0139 -0.0240  0.5107
  851MPD2    C412500   2.462   1.937  15.063 -0.6854  0.4179  0.0018
  851MPD2    C512501   2.416   2.024  15.160 -0.1869 -0.4793 -0.0742
  851MPD2     H12502   2.190   1.735  15.061  0.1785 -0.4972  1.6416
  851MPD2    H112503   2.560   1.942  15.017 -0.4419  0.1232  0.4716
  851MPD2    H212504   2.257   2.091  15.286  0.9212 -1.0218  1.8384
  851MPD2    H312505   2.470   2.114  15.185 -0.1288 -0.5562  0.0778
  851MPD2     N12506   2.406   1.721  14.944 -0.5787 -0.3584 -0.3309
  851MPD2    H512507   2.351   1.636  14.950  0.8972 -1.3979 -1.5854
  851MPD2    N112508   2.074   1.914  15.221 -0.1029  0.4102 -0.2158
  851MPD2    H712509   2.047   2.002  15.265  0.2616  0.5014 -0.1682
  852MPD2     C12510   1.617   0.141   9.643  0.4429  0.0362 -0.1328
  852MPD2    C112511   1.640   0.244   9.734  0.6459 -0.2960  0.6040
  852MPD2    C212512   1.744   0.333   9.708 -0.5616 -0.6872  0.1981
  852MPD2    C312513   1.822   0.321   9.594  0.7340 -0.7370  0.5289
  852MPD2    C412514   1.790   0.227   9.499 -0.5028 -0.1289  0.4180
  852MPD2    C512515   1.682   0.145   9.522 -0.5244 -0.0744  0.7511
  852MPD2     H12516   1.766   0.416   9.774 -2.1083 -0.1628  0.0710
  852MPD2    H112517   1.831   0.222   9.399  2.7546 -2.3845  1.8889
  852MPD2    H212518   1.535   0.071   9.654  0.9086 -0.6154 -0.8056
  852MPD2    H312519   1.652   0.078   9.443 -0.8011  3.3807 -2.0850
  852MPD2     N12520   1.925   0.414   9.573  0.1307  0.7353 -0.1764
  852MPD2    H512521   1.942   0.483   9.646 -0.9431  0.8286 -0.0116
  852MPD2    N112522   1.567   0.256   9.848  0.5793 -0.0732  0.0048
  852MPD2    H712523   1.570   0.343   9.901 -0.3032  0.6975 -1.2343
  853MPD2     C12524   3.348   0.053  12.292  0.1331  0.1713 -0.4256
  853MPD2    C112525   3.280   0.170  12.274 -0.0637 -0.2200 -0.2859
  853MPD2    C212526   3.323   0.250  12.170  0.7959  0.2194 -0.3775
  853MPD2    C312527   3.418   0.204  12.077 -0.7626 -0.6665 -0.2195
  853MPD2    C412528   3.480   0.083  12.097 -0.0878  1.0098 -0.5505
  853MPD2    C512529   3.441   0.010  12.206  0.0042  0.5012  0.4839
  853MPD2     H12530   3.287   0.352  12.163  0.2034 -0.0319 -0.9987
  853MPD2    H112531   3.550   0.044  12.024 -0.0864 -1.8993  0.9732
  853MPD2    H212532   3.316   4.711  12.375 -1.4240  0.4562 -0.8095
  853MPD2    H312533   3.490   4.639  12.237 -1.2035 -0.0038  0.9477
  853MPD2     N12534   3.458   0.272  11.958  0.5762  0.1509  0.0877
  853MPD2    H512535   3.515   0.219  11.893  0.4332  1.7148 -1.3218
  853MPD2    N112536   3.176   0.205  12.372  0.1112  0.3169 -0.2187
  853MPD2    H712537   3.163   0.134  12.443  1.0667  0.8511  0.4814
  854MPD2     C12538   4.344   0.305  12.669 -0.2645  0.5214 -0.3163
  854MPD2    C112539   4.462   0.360  12.712 -0.5653  0.1581 -0.4054
  854MPD2    C212540   4.547   0.281  12.777  0.5295  1.3468  0.3396
  854MPD2    C312541   4.532   0.142  12.776  0.0792  0.4506  0.1342
  854MPD2    C412542   4.428   0.088  12.713 -0.3486  0.1510  0.8333
  854MPD2    C512543   4.323   0.174  12.664  0.7125  0.3967  0.3766
  854MPD2     H12544   4.628   0.327  12.832  0.6737 -1.1068  2.1817
  854MPD2    H112545   4.411   4.702  12.721  0.7868 -0.1419 -0.6916
  854MPD2    H212546   4.263   0.375  12.647 -2.0490 -1.7188 -0.8785
  854MPD2    H312547   4.226   0.141  12.628 -0.3803  2.2835  1.5956
  854MPD2     N12548   4.633   0.048  12.817  0.5483  0.0994 -0.1139
  854MPD2    H512549   4.611   4.671  12.805  1.1383 -0.1685  0.9881
  854MPD2    N112550   4.472   0.501  12.689 -0.4028  0.0410 -0.2283
  854MPD2    H712551   4.405   0.546  12.628 -0.5424 -3.0484 -2.3399
  855MPD2     C12552   0.718   0.169  13.445 -0.9690  0.1745  0.5876
  855MPD2    C112553   0.695   0.036  13.429 -1.2048 -0.0599 -0.0409
  855MPD2    C212554   0.623   4.716  13.319  0.0664 -0.1524  0.3394
  855MPD2    C312555   0.559   0.086  13.234  0.0459 -0.3187 -0.2104
  855MPD2    C412556   0.575   0.223  13.257  0.2467 -0.5219 -0.2268
  855MPD2    C512557   0.649   0.258  13.371  0.6366  0.9009  1.0260
  855MPD2     H12558   0.617   4.608  13.306  0.7280 -0.1749  0.2046
  855MPD2    H112559   0.537   0.299  13.189  1.5030  0.2547 -0.0543
  855MPD2    H212560   0.773   0.215  13.527 -0.1519  2.2765 -1.1194
  855MPD2    H312561   0.666   0.364  13.389 -0.8599  1.3062  0.0955
  855MPD2     N12562   0.462   0.050  13.140  0.2756 -0.0723  0.1396
  855MPD2    H512563   0.406   0.120  13.092  1.7940  0.4308 -0.8870
  855MPD2    N112564   0.727   4.656  13.528 -0.2876  0.0452  0.5428
  855MPD2    H712565   0.705   4.558  13.512  1.1946 -0.3545  0.9343
  856MPD2     C12566   2.477   1.064  13.926  0.0623  0.2786  0.4832
  856MPD2    C112567   2.600   1.136  13.927  0.7774 -0.8410 -0.6887
  856MPD2    C212568   2.593   1.274  13.932  0.2300  0.0294 -0.1566
  856MPD2    C312569   2.470   1.345  13.915 -0.1873 -0.9332 -0.5572
  856MPD2    C412570   2.352   1.269  13.915  0.4688  0.0312 -0.6570
  856MPD2    C512571   2.359   1.134  13.926  1.0189  0.1308 -0.1493
  856MPD2     H12572   2.686   1.321  13.961  0.1430 -0.6809  1.3021
  856MPD2    H112573   2.253   1.312  13.907  0.3298 -0.4345 -1.3778
  856MPD2    H212574   2.467   0.956  13.933  1.3886  0.0952 -0.5788
  856MPD2    H312575   2.267   1.081  13.947  0.3871  0.1523 -2.7836
  856MPD2     N12576   2.463   1.487  13.892 -0.2451  0.6262 -0.1857
  856MPD2    H512577   2.370   1.520  13.867 -0.6126  0.9062  1.5742
  856MPD2    N112578   2.726   1.070  13.944  0.3207 -0.2559  0.5416
  856MPD2    H712579   2.813   1.123  13.947 -1.1826  2.2931 -0.4199
  857MPD2     C12580   3.965   2.995  12.649 -0.4774 -0.3210  0.0628
  857MPD2    C112581   4.097   3.011  12.614  0.6039 -0.7848  0.2355
  857MPD2    C212582   4.151   3.130  12.614 -0.2247  0.5297 -0.0544
  857MPD2    C312583   4.080   3.241  12.654  1.1772 -0.6646 -0.1998
  857MPD2    C412584   3.940   3.229  12.676  1.2262  0.0695 -1.1941
  857MPD2    C512585   3.888   3.101  12.677 -0.0967 -0.0325 -0.1977
  857MPD2     H12586   4.255   3.152  12.594 -0.3508 -1.0025 -2.3888
  857MPD2    H112587   3.869   3.306  12.703 -0.1701 -1.5636 -0.1582
  857MPD2    H212588   3.926   2.895  12.664  0.9175 -0.7149  0.9767
  857MPD2    H312589   3.783   3.082  12.693  0.3070  0.7207  3.4536
  857MPD2     N12590   4.142   3.368  12.650  0.0977  0.2227 -0.1649
  857MPD2    H512591   4.243   3.370  12.637  0.4546  0.4213  2.5297
  857MPD2    N112592   4.163   2.892  12.582  0.3557 -0.0802 -0.3692
  857MPD2    H712593   4.106   2.808  12.580  0.2172  0.0433 -1.5342
  858MPD2     C12594   4.671   1.982  16.956  0.4405 -0.3258 -0.5113
  858MPD2    C112595   0.072   1.943  17.010  0.1702 -0.5268  0.3918
  858MPD2    C212596   0.135   2.003  17.111  0.3230 -0.0312 -0.0211
  858MPD2    C312597   0.080   2.121  17.159 -0.6529 -0.6933 -0.0375
  858MPD2    C412598   4.676   2.163  17.123  0.1227 -0.3678  0.4496
  858MPD2    C512599   4.610   2.090  17.020  0.5891  0.7453  0.7972
  858MPD2     H12600   0.236   1.967  17.127 -1.0775 -3.5219  0.9895
  858MPD2    H112601   4.634   2.253  17.166  2.0150  0.5164  0.4085
  858MPD2    H212602   4.621   1.939  16.870 -1.1839 -0.9051  0.7199
  858MPD2    H312603   4.517   2.134  16.985  0.2311 -0.8037 -0.1999
  858MPD2     N12604   0.138   2.197  17.268  0.1739 -0.6229  0.0141
  858MPD2    H512605   0.080   2.275  17.298  1.3125 -0.1324  0.9617
  858MPD2    N112606   0.143   1.836  16.955 -0.0060 -0.2546 -0.0049
  858MPD2    H712607   0.237   1.813  16.985 -0.2494 -1.2676 -0.0102
  859MPD2     C12608   3.571   3.338  15.123 -0.2288 -0.9193 -0.8084
  859MPD2    C112609   3.643   3.360  15.008 -0.2019  0.3408 -0.6209
  859MPD2    C212610   3.704   3.245  14.945 -0.4136 -0.3610 -0.7058
  859MPD2    C312611   3.673   3.121  14.986 -1.0042 -0.9088  0.4400
  859MPD2    C412612   3.585   3.107  15.091  0.2431  1.2488 -0.4618
  859MPD2    C512613   3.535   3.214  15.164 -0.1034 -0.6859 -0.3272
  859MPD2     H12614   3.763   3.268  14.857  0.2563 -1.2935 -0.4987
  859MPD2    H112615   3.554   3.008  15.120 -1.2254  2.0336  0.6626
  859MPD2    H212616   3.531   3.422  15.177 -1.7549 -1.0164 -1.7693
  859MPD2    H312617   3.467   3.199  15.247 -1.2550  1.3598 -0.9071
  859MPD2     N12618   3.707   3.001  14.911  0.4075 -0.1211  0.4393
  859MPD2    H512619   3.667   2.915  14.947 -0.2950 -0.6583 -1.6610
  859MPD2    N112620   3.654   3.495  14.977  0.4261 -0.1065  0.8225
  859MPD2    H712621   3.591   3.565  15.016  1.2636  3.1376 -3.6803
  860MPD2     C12622   1.235   4.366  11.389  0.0689 -0.2620 -0.0733
  860MPD2    C112623   1.268   4.469  11.472 -0.7544 -0.1002  0.2349
  860MPD2    C212624   1.203   4.488  11.593  0.7503  0.4169 -0.6542
  860MPD2    C312625   1.106   4.398  11.638  0.3182 -0.2206 -0.0281
  860MPD2    C412626   1.074   4.293  11.554  0.5048  0.3561  0.6239
  860MPD2    C512627   1.135   4.275  11.433  0.7896  0.3541  0.0650
  860MPD2     H12628   1.216   4.577  11.654 -1.3013 -1.2523  2.2143
  860MPD2    H112629   1.002   4.216  11.579  0.7125  0.1850  0.7000
  860MPD2    H212630   1.288   4.347  11.296 -1.4699  0.4988 -1.1128
  860MPD2    H312631   1.108   4.197  11.363 -1.1917  0.2212  0.9622
  860MPD2     N12632   1.045   4.429  11.759 -0.5697 -0.3366 -0.4841
  860MPD2    H512633   1.087   4.507  11.809  0.9259 -2.1242  1.0621
  860MPD2    N112634   1.369   4.564  11.431 -0.0550 -0.5466  0.4547
  860MPD2    H712635   1.394   4.641  11.491  1.2176  0.9505 -1.9822
  861MPD2     C12636   4.551   3.074  11.031 -0.3711  0.3724 -0.6248
  861MPD2    C112637   4.597   3.189  11.095 -0.0257 -0.3668 -0.3304
  861MPD2    C212638   4.557   3.316  11.047 -0.0739 -0.2714 -0.3713
  861MPD2    C312639   4.468   3.325  10.945 -0.5958  0.2356 -0.3845
  861MPD2    C412640   4.423   3.208  10.887  0.4322  0.5232  0.5094
  861MPD2    C512641   4.465   3.087  10.927  0.0687  0.1047 -0.1541
  861MPD2     H12642   4.596   3.407  11.091  0.9766 -0.9105  0.0144
  861MPD2    H112643   4.361   3.209  10.798 -1.0249  0.1850  1.5420
  861MPD2    H212644   4.602   2.979  11.046 -1.9927 -0.2643  0.8297
  861MPD2    H312645   4.442   2.992  10.882 -1.0508  0.9510 -1.3845
  861MPD2     N12646   4.427   3.451  10.889 -0.1284  0.1802  0.4557
  861MPD2    H512647   4.356   3.450  10.817 -1.3975  2.0254  1.6718
  861MPD2    N112648   4.695   3.191  11.205  0.2105 -0.1867  0.0360
  861MPD2    H712649   4.718   3.271  11.263  0.7708  0.2121 -0.7403
  862MPD2     C12650   4.536   3.703  10.218  0.1454 -0.6095  0.7654
  862MPD2    C112651   4.521   3.620  10.327  0.2546 -0.9647  0.2626
  862MPD2    C212652   4.516   3.489  10.310 -0.1722  0.2886 -0.1286
  862MPD2    C312653   4.536   3.436  10.185 -0.6084  0.0143 -0.3327
  862MPD2    C412654   4.514   3.519  10.077 -0.5982 -0.0319  0.1879
  862MPD2    C512655   4.526   3.652  10.092 -0.1560 -0.5571  0.2095
  862MPD2     H12656   4.515   3.433  10.402  2.9300 -1.4258 -1.1261
  862MPD2    H112657   4.512   3.483   9.975  0.0815  0.6420 -0.0567
  862MPD2    H212658   4.541   3.811  10.220 -1.5361 -0.4739 -1.1368
  862MPD2    H312659   4.521   3.718  10.007  0.8592 -0.1426  0.4737
  862MPD2     N12660   4.554   3.302  10.157  0.2761  0.1649 -0.5113
  862MPD2    H512661   4.546   3.280  10.058 -0.2992  0.0022 -0.4332
  862MPD2    N112662   4.513   3.661  10.462 -0.3549 -0.9455  0.4716
  862MPD2    H712663   4.494   3.585  10.526  0.4360 -0.0825  1.7191
  863MPD2     C12664   2.978   0.207  17.104 -0.1073 -0.2540 -0.0539
  863MPD2    C112665   3.035   0.309  17.034 -0.5855  0.1788  0.3106
  863MPD2    C212666   3.122   0.395  17.094  0.3480  0.9057  0.2528
  863MPD2    C312667   3.179   0.361  17.217 -0.3083  0.6826  0.3896
  863MPD2    C412668   3.138   0.249  17.281 -0.1000  0.6778 -0.0722
  863MPD2    C512669   3.034   0.175  17.226  0.1387  0.0064  0.6225
  863MPD2     H12670   3.160   0.481  17.041 -1.7412  0.9889 -1.1268
  863MPD2    H112671   3.176   0.226  17.379 -2.6786  0.6042  0.9027
  863MPD2    H212672   2.900   0.142  17.065 -0.6009  0.6788 -0.6207
  863MPD2    H312673   2.991   0.092  17.280 -0.1577  1.1826  2.2075
  863MPD2     N12674   3.269   0.450  17.291  0.1861 -0.0975 -0.1727
  863MPD2    H512675   3.290   0.420  17.386 -0.1059  0.9760  0.2308
  863MPD2    N112676   2.982   0.352  16.911  0.3077  0.9413  0.1946
  863MPD2    H712677   3.025   0.424  16.853  1.5256  0.1156  0.0914
  864MPD2     C12678   3.186   2.245  16.515 -0.4498  0.0026 -0.2313
  864MPD2    C112679   3.260   2.195  16.621  0.6514  0.2491  0.0083
  864MPD2    C212680   3.366   2.266  16.679  0.0761  0.9423 -0.1531
  864MPD2    C312681   3.393   2.388  16.617 -0.2529  0.8286  0.7813
  864MPD2    C412682   3.321   2.442  16.512 -0.4944 -0.0781 -0.8940
  864MPD2    C512683   3.220   2.366  16.460  0.0711  0.1459  0.1363
  864MPD2     H12684   3.421   2.217  16.759 -1.1752 -1.2956 -0.6829
  864MPD2    H112685   3.341   2.545  16.484  0.2930  0.3667  1.2388
  864MPD2    H212686   3.112   2.187  16.460 -0.3190 -1.4427  1.1195
  864MPD2    H312687   3.151   2.407  16.387  0.7693 -0.9763 -1.1458
  864MPD2     N12688   3.511   2.453  16.649 -0.0783  0.1028 -0.1974
  864MPD2    H512689   3.524   2.542  16.604  0.5909  0.3189  0.4273
  864MPD2    N112690   3.238   2.058  16.647  0.0609 -0.8005  0.0176
  864MPD2    H712691   3.173   2.005  16.590  0.1607 -2.7189  1.6794
  865MPD2     C12692   3.885   2.607  15.996  0.3140  0.2678  1.3699
  865MPD2    C112693   3.907   2.497  16.072 -0.1231 -0.3519  0.1003
  865MPD2    C212694   3.902   2.526  16.205 -0.3426  0.2526 -0.7942
  865MPD2    C312695   3.882   2.647  16.263  0.2050  0.1921  0.1111
  865MPD2    C412696   3.850   2.755  16.181  0.4013 -0.3054  0.5565
  865MPD2    C512697   3.853   2.733  16.046 -0.7980 -0.4640 -0.0109
  865MPD2     H12698   3.925   2.446  16.274 -1.6548 -0.4024 -1.1101
  865MPD2    H112699   3.841   2.855  16.220  0.1899 -0.2720  0.4220
  865MPD2    H212700   3.883   2.606  15.887  1.0879  0.0898  1.3605
  865MPD2    H312701   3.856   2.825  15.991  0.0025  0.1703  1.0996
  865MPD2     N12702   3.883   2.656  16.406  0.2902  0.2855  0.2729
  865MPD2    H512703   3.821   2.716  16.458  0.3905 -0.4332  1.2228
  865MPD2    N112704   3.915   2.370  16.005  0.9409  0.3832 -0.9260
  865MPD2    H712705   3.919   2.365  15.904  0.9324 -0.4472 -0.8846
  866MPD2     C12706   0.905   3.542  11.401 -0.3926 -0.0220  0.1394
  866MPD2    C112707   0.884   3.552  11.261 -0.1367 -0.8252 -0.4788
  866MPD2    C212708   0.771   3.616  11.220  0.1321 -0.1359 -0.2896
  866MPD2    C312709   0.670   3.663  11.302  0.0030  0.0059 -0.5494
  866MPD2    C412710   0.685   3.631  11.434  0.3260  0.3739  0.2753
  866MPD2    C512711   0.797   3.570  11.481  0.1841 -0.8753 -0.3768
  866MPD2     H12712   0.753   3.643  11.117  1.0888 -0.7326 -0.6117
  866MPD2    H112713   0.620   3.675  11.509  0.7927  0.9157  0.3636
  866MPD2    H212714   0.987   3.483  11.440 -0.4861  0.1990  0.6653
  866MPD2    H312715   0.806   3.559  11.589 -1.8662 -0.3168 -0.1595
  866MPD2     N12716   0.561   3.739  11.271  1.3451 -0.5790 -0.2157
  866MPD2    H512717   0.504   3.757  11.353  0.0106  1.9782 -1.7219
  866MPD2    N112718   0.980   3.493  11.172 -0.5493  0.2187 -0.3936
  866MPD2    H712719   1.057   3.442  11.215 -2.5337 -2.7871 -0.4418
  867MPD2     C12720   2.395   2.252  16.128  0.1400 -0.6666  0.0989
  867MPD2    C112721   2.463   2.153  16.207  0.5879  0.2974 -0.0145
  867MPD2    C212722   2.471   2.169  16.347 -0.6654 -0.2888 -0.0096
  867MPD2    C312723   2.405   2.279  16.413  0.5787  0.8553  0.2577
  867MPD2    C412724   2.344   2.367  16.334  1.0055 -0.2090  0.0744
  867MPD2    C512725   2.337   2.354  16.196 -0.2098 -0.1571 -0.0937
  867MPD2     H12726   2.532   2.110  16.415 -1.0297 -0.2426  0.3628
  867MPD2    H112727   2.292   2.443  16.391  1.2414 -0.7538  1.0252
  867MPD2    H212728   2.381   2.239  16.021 -0.6992 -1.4407  0.2921
  867MPD2    H312729   2.287   2.421  16.127  0.5005 -0.9887 -1.4240
  867MPD2     N12730   2.390   2.292  16.552  0.4918  0.4391 -0.4191
  867MPD2    H512731   2.327   2.362  16.590 -0.3746 -0.7749  0.4085
  867MPD2    N112732   2.532   2.047  16.140  0.6852 -0.2338 -0.3918
  867MPD2    H712733   2.532   2.057  16.039 -1.2693 -2.7335 -0.6241
  868MPD2     C12734   4.474   1.462  12.627  0.2558  0.7866 -0.1582
  868MPD2    C112735   4.507   1.389  12.736  0.2517  0.7367  0.2204
  868MPD2    C212736   4.412   1.295  12.782 -0.6201  0.1888 -0.3316
  868MPD2    C312737   4.286   1.282  12.721  0.8523  0.4070  0.2773
  868MPD2    C412738   4.256   1.364  12.614 -0.0789 -0.0009  0.3509
  868MPD2    C512739   4.353   1.451  12.571 -0.6863 -0.4167  0.8490
  868MPD2     H12740   4.420   1.231  12.869 -0.1438  0.8917  0.1399
  868MPD2    H112741   4.167   1.363  12.552 -0.5968  1.1958  1.0558
  868MPD2    H212742   4.542   1.528  12.574 -0.4649 -0.0958 -2.1964
  868MPD2    H312743   4.339   1.508  12.480  1.3158 -0.2006  0.6802
  868MPD2     N12744   4.183   1.200  12.771 -0.9336 -0.5246  0.0405
  868MPD2    H512745   4.202   1.143  12.853  0.4425 -0.8292 -0.4959
  868MPD2    N112746   4.643   1.409  12.783  0.0960 -0.5474  0.6283
  868MPD2    H712747   4.708   1.462  12.727 -0.0145 -0.6253  0.4252
  869MPD2     C12748   0.249   4.077   1.077 -0.1276 -0.1893 -0.2025
  869MPD2    C112749   0.366   4.148   1.087  0.6225 -0.4574 -0.2298
  869MPD2    C212750   0.408   4.231   0.983  0.3512 -0.3176 -0.5756
  869MPD2    C312751   0.339   4.233   0.864 -0.4516  0.2214 -0.0865
  869MPD2    C412752   0.222   4.159   0.854  0.0895  0.2750 -0.1739
  869MPD2    C512753   0.175   4.083   0.956  0.4484 -0.2730  0.3503
  869MPD2     H12754   0.503   4.282   0.986 -1.1820  2.2530  3.8432
  869MPD2    H112755   0.165   4.162   0.762 -0.7137  3.0420  0.4003
  869MPD2    H212756   0.216   4.013   1.158 -0.5752 -1.6052 -1.4837
  869MPD2    H312757   0.089   4.021   0.935 -1.3168  0.5735  5.1594
  869MPD2     N12758   0.366   4.316   0.753  0.4938  0.8447 -0.0926
  869MPD2    H512759   0.294   4.307   0.682  0.7190  0.5334 -0.2829
  869MPD2    N112760   0.426   4.137   1.214 -0.3465  0.4477 -0.2623
  869MPD2    H712761   0.382   4.074   1.280  0.1020  0.9123  0.4887
  870MPD2     C12762   4.435   2.994   1.369  0.1856 -0.3501 -0.1474
  870MPD2    C112763   4.564   3.043   1.339 -0.2465 -0.0987 -0.0874
  870MPD2    C212764   4.596   3.082   1.208  0.7697 -0.4411 -0.8219
  870MPD2    C312765   4.493   3.098   1.120  0.0255 -0.0685 -0.3585
  870MPD2    C412766   4.362   3.063   1.152  0.4137 -0.0027  0.6205
  870MPD2    C512767   4.334   3.003   1.277 -0.5957 -0.7257  0.4641
  870MPD2     H12768   4.692   3.122   1.177  0.5667  2.2508  1.9630
  870MPD2    H112769   4.280   3.080   1.082  0.9296  0.7145  0.1898
  870MPD2    H212770   4.409   2.963   1.469  1.0162  0.2651  0.2543
  870MPD2    H312771   4.233   2.986   1.313 -1.4994  1.3037 -1.1073
  870MPD2     N12772   4.521   3.153   0.994  0.5246  0.3929 -0.0982
  870MPD2    H512773   4.609   3.199   0.978 -0.3920  1.3253 -2.5874
  870MPD2    N112774   4.660   3.036   1.442  0.3058 -0.1690  0.7178
  870MPD2    H712775   4.620   3.008   1.531  0.4862 -0.6469  0.6497
  871MPD2     C12776   1.662   2.117  16.125 -0.3699 -0.6487 -0.0101
  871MPD2    C112777   1.707   2.116  16.259 -0.1553 -0.4223 -0.3223
  871MPD2    C212778   1.825   2.049  16.291 -0.4108 -0.8687 -0.3544
  871MPD2    C312779   1.890   1.968  16.199  0.6762  0.5663  0.5386
  871MPD2    C412780   1.833   1.953  16.072 -0.4642 -0.1768  0.4133
  871MPD2    C512781   1.721   2.026  16.034  0.7322  0.0106 -0.7508
  871MPD2     H12782   1.864   2.062  16.391 -1.2028 -0.6564 -0.0719
  871MPD2    H112783   1.877   1.886  15.999 -3.2035  0.0066 -1.4075
  871MPD2    H212784   1.574   2.177  16.105  1.1159  1.0103 -1.5952
  871MPD2    H312785   1.677   2.002  15.939 -0.5016  2.1622 -0.7188
  871MPD2     N12786   2.018   1.916  16.233  0.0221  0.2504  0.2747
  871MPD2    H512787   2.046   1.944  16.326  0.6324 -0.9384  0.4414
  871MPD2    N112788   1.651   2.205  16.354 -0.2004 -1.3188  0.1237
  871MPD2    H712789   1.585   2.276  16.326 -0.5527 -1.4157  0.7045
  872MPD2     C12790   2.496   4.578  14.199  0.7153 -0.6780 -0.3104
  872MPD2    C112791   2.471   4.705  14.152  0.0165  0.5384  0.2461
  872MPD2    C212792   2.346   0.037  14.182  0.2885  0.5898  0.7285
  872MPD2    C312793   2.250   4.697  14.264  0.0595 -0.1576 -0.0499
  872MPD2    C412794   2.290   4.570  14.311  0.4790 -0.3509 -0.1433
  872MPD2    C512795   2.411   4.512  14.278 -0.0837  0.0972  0.3118
  872MPD2     H12796   2.330   0.140  14.151  1.1044  0.7090  0.6994
  872MPD2    H112797   2.220   4.511  14.370 -0.7129  0.1255 -1.0855
  872MPD2    H212798   2.585   4.518  14.180  1.3484  0.6444 -1.5541
  872MPD2    H312799   2.445   4.412  14.302  0.0614 -0.0343 -0.4473
  872MPD2     N12800   2.136   0.042  14.312  0.4909  0.0405 -0.1266
  872MPD2    H512801   2.088   0.001  14.391  0.3607 -0.2441 -0.3533
  872MPD2    N112802   2.556   0.062  14.079  0.4908 -0.3094 -0.1207
  872MPD2    H712803   2.525   0.155  14.052  1.3220  0.3976  1.3291
  873MPD2     C12804   4.684   4.707   0.940  0.9076  1.1669 -0.1207
  873MPD2    C112805   4.552   4.661   0.948  0.8009 -0.6564  0.6538
  873MPD2    C212806   4.516   4.534   0.903 -0.3102  0.2624 -0.7460
  873MPD2    C312807   4.617   4.462   0.840 -0.0870  0.4302 -0.0376
  873MPD2    C412808   0.027   4.510   0.824 -0.1025  0.5420  0.4391
  873MPD2    C512809   0.060   4.631   0.884 -0.5251  0.5135  0.4377
  873MPD2     H12810   4.412   4.506   0.920 -0.1563 -0.4969 -1.0329
  873MPD2    H112811   0.107   4.441   0.798 -0.1003  0.6158  0.2531
  873MPD2    H212812   4.718   0.076   0.990  0.0418  3.1690 -3.0644
  873MPD2    H312813   0.163   4.661   0.898  0.1796 -1.4811 -0.5192
  873MPD2     N12814   4.600   4.332   0.781 -0.4778  0.0122 -0.1930
  873MPD2    H512815   4.678   4.297   0.725 -0.6244 -0.3136 -0.1959
  873MPD2    N112816   4.464   0.033   1.014  0.2412  0.3362 -0.0575
  873MPD2    H712817   4.490   0.125   1.046 -0.0400  0.6104 -0.6190
  874MPD2     C12818   3.970   0.338  15.866 -0.6116  0.3114  0.1374
  874MPD2    C112819   3.976   0.247  15.969  0.4232  0.2731 -0.1956
  874MPD2    C212820   4.062   0.272  16.077 -0.9030 -0.4029  0.9368
  874MPD2    C312821   4.130   0.395  16.076 -0.1702  0.5953  0.2265
  874MPD2    C412822   4.131   0.476  15.963 -0.2573  0.3726 -0.1674
  874MPD2    C512823   4.045   0.450  15.862 -0.0222 -0.2634 -0.3890
  874MPD2     H12824   4.079   0.213  16.166  1.6726  2.3052  2.2023
  874MPD2    H112825   4.189   0.568  15.963 -0.6844  0.6427 -0.0211
  874MPD2    H212826   3.903   0.325  15.782 -1.3606 -0.0117  0.7775
  874MPD2    H312827   4.034   0.524  15.783 -1.0375 -0.3563 -0.3251
  874MPD2     N12828   4.211   0.426  16.184 -1.1272  0.4151  0.3906
  874MPD2    H512829   4.207   0.360  16.260 -0.2368  1.3206  1.2268
  874MPD2    N112830   3.903   0.134  15.955  0.0836  0.8902  0.5729
  874MPD2    H712831   3.840   0.134  15.875  1.9895  2.5400 -0.9541
  875MPD2     C12832   0.476   3.206  14.502  0.1262  0.3491 -0.4653
  875MPD2    C112833   0.372   3.298  14.528  0.1216 -0.7046 -0.4401
  875MPD2    C212834   0.370   3.358  14.650 -0.3184  0.0775 -0.5626
  875MPD2    C312835   0.480   3.347  14.737  0.0159  0.5014  0.0226
  875MPD2    C412836   0.584   3.266  14.705 -0.4365 -0.0251  0.0980
  875MPD2    C512837   0.575   3.193  14.586  0.1518  0.5251  0.0655
  875MPD2     H12838   0.284   3.421  14.671 -1.0352 -1.0900  0.0376
  875MPD2    H112839   0.679   3.266  14.757  0.4294  2.4980 -1.4634
  875MPD2    H212840   0.479   3.158  14.405 -0.5892  0.2473 -0.4401
  875MPD2    H312841   0.668   3.145  14.557 -1.1350 -0.7777 -1.8657
  875MPD2     N12842   0.497   3.444  14.840 -0.1584 -0.0572 -0.2214
  875MPD2    H512843   0.421   3.510  14.856 -0.5065 -0.2319 -1.1394
  875MPD2    N112844   0.286   3.320  14.421  0.1629 -0.4333  0.7440
  875MPD2    H712845   0.289   3.263  14.337  0.4169 -0.2512  0.6302
  876MPD2     C12846   3.759   4.378  15.765  0.0788  1.0414  0.1433
  876MPD2    C112847   3.893   4.362  15.749  0.1551 -0.4102 -0.7688
  876MPD2    C212848   3.964   4.283  15.835  0.5008  0.0194 -0.5912
  876MPD2    C312849   3.893   4.208  15.924 -0.3438 -0.3060  0.1843
  876MPD2    C412850   3.757   4.219  15.938  0.0579 -0.8743 -0.3722
  876MPD2    C512851   3.690   4.311  15.860 -0.0696 -0.4510  0.7443
  876MPD2     H12852   4.069   4.270  15.814  0.6225  2.2525 -1.2834
  876MPD2    H112853   3.689   4.159  15.997 -1.5573  0.2868 -1.0358
  876MPD2    H212854   3.713   4.444  15.692  2.4480  1.2005 -1.2237
  876MPD2    H312855   3.582   4.318  15.867  0.0164  0.1414  1.6264
  876MPD2     N12856   3.968   4.104  15.987  0.3878 -0.0537  0.4328
  876MPD2    H512857   4.068   4.117  15.974  0.2250  1.2214  0.3926
  876MPD2    N112858   3.955   4.429  15.643 -0.0828  0.5483  0.4124
  876MPD2    H712859   3.897   4.472  15.572 -2.0681 -0.4397  1.4418
  877MPD2     C12860   4.523   0.160  15.183  0.3108  0.4855  0.7371
  877MPD2    C112861   4.400   0.120  15.138 -0.4940  0.5851  0.0700
  877MPD2    C212862   4.343   0.189  15.032  0.5904  0.0453  0.4311
  877MPD2    C312863   4.420   0.286  14.968  0.5585 -0.7500 -0.7168
  877MPD2    C412864   4.546   0.320  15.015  0.2114 -0.1353 -0.1257
  877MPD2    C512865   4.596   0.249  15.117 -0.3479  0.6851  1.1663
  877MPD2     H12866   4.246   0.152  14.999  1.1768 -1.5389  0.5226
  877MPD2    H112867   4.598   0.400  14.963  3.8569 -2.6239 -0.3485
  877MPD2    H212868   4.581   0.108  15.258  0.2137  0.7200  0.9724
  877MPD2    H312869   4.700   0.260  15.144 -0.6026 -1.1962  2.8728
  877MPD2     N12870   4.373   0.353  14.855  0.5572 -0.5684  0.3079
  877MPD2    H512871   4.429   0.422  14.807 -1.1820 -0.0607 -0.9826
  877MPD2    N112872   4.325   0.017  15.197  0.1184  0.2364 -0.0365
  877MPD2    H712873   4.242   4.720  15.142  0.0680  1.6626 -0.4192
  878MPD2     C12874   3.462   4.583  12.948 -0.9704 -0.0593  0.7310
  878MPD2    C112875   3.594   4.593  12.980 -0.0775  0.1763 -0.7865
  878MPD2    C212876   3.643   4.567  13.109  0.1007 -0.2347  0.4545
  878MPD2    C312877   3.551   4.530  13.202 -0.7738 -0.7088 -0.5330
  878MPD2    C412878   3.418   4.525  13.169  0.4706 -0.2624  0.2273
  878MPD2    C512879   3.376   4.542  13.041  0.3202  0.2831  0.1498
  878MPD2     H12880   3.747   4.575  13.138 -0.3520  0.4339  1.8778
  878MPD2    H112881   3.344   4.465  13.222 -1.9736  1.2054 -1.5001
  878MPD2    H212882   3.420   4.626  12.858 -0.3373 -1.5664 -0.2808
  878MPD2    H312883   3.270   4.536  13.019  0.4833 -1.9330 -0.0535
  878MPD2     N12884   3.602   4.494  13.324 -0.0134 -0.2102  0.3323
  878MPD2    H512885   3.703   4.494  13.335  0.3302 -3.3609 -2.9347
  878MPD2    N112886   3.673   4.634  12.869 -0.4873  0.5434  0.1960
  878MPD2    H712887   3.631   4.638  12.777 -2.1667 -1.5164  0.8829
  879MPD2     C12888   4.416   0.452   0.047 -0.8967 -0.6282 -0.2735
  879MPD2    C112889   4.452   0.523  17.611 -0.4005 -0.3083  0.4200
  879MPD2    C212890   4.369   0.530  17.505 -0.1514 -0.4929 -0.4517
  879MPD2    C312891   4.247   0.455  17.509  0.2473 -0.0930  0.1063
  879MPD2    C412892   4.209   0.387  17.626  0.7088  0.2350  0.5933
  879MPD2    C512893   4.297   0.377   0.047 -0.4593  0.2965  0.2675
  879MPD2     H12894   4.389   0.602  17.426  0.3760 -1.8606 -1.5748
  879MPD2    H112895   4.114   0.337  17.632  0.7864 -0.0915 -0.8293
  879MPD2    H212896   4.471   0.455   0.141 -1.1049 -0.3307 -0.1571
  879MPD2    H312897   4.250   0.320   0.127  3.9165 -1.9288  1.2733
  879MPD2     N12898   4.148   0.462  17.407  0.5674 -0.1285 -0.2839
  879MPD2    H512899   4.066   0.405  17.423 -0.1748  0.8971 -0.4381
  879MPD2    N112900   4.566   0.605  17.621  0.5420  0.1116  0.3540
  879MPD2    H712901   4.604   0.617   0.030  0.9487  1.2479  0.0429
  880MPD2     C12902   0.326   2.863   0.546  0.2523  0.7012 -0.1677
  880MPD2    C112903   0.421   2.769   0.512 -0.0300  0.7474 -0.6017
  880MPD2    C212904   0.439   2.666   0.602  1.0674 -0.2117 -0.4613
  880MPD2    C312905   0.373   2.664   0.724 -0.1463  0.3740 -0.1736
  880MPD2    C412906   0.289   2.766   0.754  0.3661 -0.0110  0.5595
  880MPD2    C512907   0.258   2.864   0.661  0.7216 -0.1828  0.1466
  880MPD2     H12908   0.491   2.582   0.557 -0.6380 -0.0764 -2.6981
  880MPD2    H112909   0.226   2.763   0.843 -1.6669 -1.3131 -0.9311
  880MPD2    H212910   0.306   2.940   0.472 -1.2960  2.4342  2.0870
  880MPD2    H312911   0.184   2.938   0.689  0.9946 -0.0264  0.4612
  880MPD2     N12912   0.392   2.548   0.813  0.3534 -0.2095  0.3208
  880MPD2    H512913   0.469   2.484   0.794 -0.1856 -1.1757  1.3658
  880MPD2    N112914   0.482   2.781   0.383 -0.2097  0.5614  0.0126
  880MPD2    H712915   0.447   2.864   0.337 -1.0352  0.7928  1.0453
  881MPD2     C12916   0.589   3.149  17.137 -0.1830 -0.1553 -0.0205
  881MPD2    C112917   0.674   3.046  17.173  0.1263 -0.4839  0.0116
  881MPD2    C212918   0.677   2.997  17.303  0.3453  0.1534  1.0600
  881MPD2    C312919   0.588   3.062  17.394 -0.1046 -0.5718 -0.3833
  881MPD2    C412920   0.502   3.158  17.353  0.3006  0.0389 -0.4535
  881MPD2    C512921   0.501   3.201  17.224 -0.3033 -0.7779 -0.5784
  881MPD2     H12922   0.738   2.912  17.332  0.4079  0.1381  0.8823
  881MPD2    H112923   0.432   3.195  17.427  1.7405  0.0643  0.9164
  881MPD2    H212924   0.611   3.203  17.045 -0.0357 -0.2521 -0.0412
  881MPD2    H312925   0.431   3.278  17.194  1.0561  0.2678 -1.1051
  881MPD2     N12926   0.578   3.033  17.536 -0.1856  0.4141  0.1738
  881MPD2    H512927   0.515   3.093  17.589 -0.0964  2.0238 -1.5478
  881MPD2    N112928   0.773   3.017  17.082 -0.1089 -0.2335  0.6849
  881MPD2    H712929   0.776   3.065  16.993  0.7351 -1.4372  0.0446
  882MPD2     C12930   4.056   4.622  14.255 -0.1105 -0.6154  0.1088
  882MPD2    C112931   3.992   0.015  14.304  0.0559  0.4825 -0.0486
  882MPD2    C212932   3.853   0.022  14.285 -0.9051 -0.0951 -0.4346
  882MPD2    C312933   3.781   4.647  14.218 -0.3891 -0.2540  0.1027
  882MPD2    C412934   3.852   4.538  14.168  0.0429 -0.4877 -0.3400
  882MPD2    C512935   3.987   4.523  14.196 -0.1718  0.0386 -0.1972
  882MPD2     H12936   3.805   0.110  14.326  0.8506  0.7103 -0.1085
  882MPD2    H112937   3.801   4.463  14.109  0.5199  0.4270 -1.8926
  882MPD2    H212938   4.163   4.616  14.271  0.2631  0.3682 -1.9276
  882MPD2    H312939   4.035   4.436  14.152 -1.5806 -1.6434  1.6238
  882MPD2     N12940   3.640   4.646  14.203 -0.1311  0.0850 -0.5716
  882MPD2    H512941   3.608   4.562  14.156  0.1182 -0.5935  0.4659
  882MPD2    N112942   4.075   0.109  14.376  0.5479 -0.2019 -0.1057
  882MPD2    H712943   4.176   0.100  14.379  0.4460 -1.6625 -1.2287
  883MPD2     C12944   1.690   0.479  16.389 -0.4479  0.8316  0.1838
  883MPD2    C112945   1.622   0.456  16.273  0.7130 -0.3006  0.3340
  883MPD2    C212946   1.680   0.495  16.154 -0.4445 -0.2577 -0.2265
  883MPD2    C312947   1.812   0.540  16.139 -0.2377 -0.0458 -0.3612
  883MPD2    C412948   1.877   0.566  16.262 -1.1442  0.1587 -1.0572
  883MPD2    C512949   1.817   0.523  16.379  0.7170 -0.1695 -0.6042
  883MPD2     H12950   1.611   0.481  16.071 -1.5659 -1.9925  0.9896
  883MPD2    H112951   1.976   0.611  16.266  0.2934 -3.2647  1.7095
  883MPD2    H212952   1.655   0.437  16.483  0.5575  1.8953  1.0413
  883MPD2    H312953   1.861   0.552  16.474  0.0799  1.4062 -0.7972
  883MPD2     N12954   1.864   0.549  16.012  0.2385 -0.3274  0.1751
  883MPD2    H512955   1.804   0.545  15.930 -0.5613  1.8741  0.6557
  883MPD2    N112956   1.489   0.403  16.268 -0.7150  0.6453  0.7602
  883MPD2    H712957   1.442   0.403  16.177 -0.4822  0.3259  0.6401
  884MPD2     C12958   3.378   0.541  14.966 -0.0209  0.5131  0.2764
  884MPD2    C112959   3.390   0.641  15.059  0.4350  0.1198  0.4165
  884MPD2    C212960   3.281   0.683  15.133 -0.3717  0.4441 -0.0133
  884MPD2    C312961   3.150   0.644  15.100 -0.0660 -0.2230 -1.0534
  884MPD2    C412962   3.140   0.538  15.012 -0.1403  0.1726  0.5488
  884MPD2    C512963   3.255   0.482  14.955 -1.3052 -0.3889  0.9025
  884MPD2     H12964   3.302   0.765  15.201  1.8410 -0.1199 -0.0153
  884MPD2    H112965   3.047   0.487  14.989  1.8158 -2.6203 -1.2638
  884MPD2    H212966   3.457   0.495  14.907  0.1462 -2.1770  2.6146
  884MPD2    H312967   3.245   0.400  14.885  1.2388  0.1284 -0.0453
  884MPD2     N12968   3.038   0.709  15.165  0.4617  0.2808 -0.4011
  884MPD2    H512969   3.068   0.769  15.241 -0.6412 -0.8562  0.9267
  884MPD2    N112970   3.508   0.717  15.080 -0.0278 -0.5706  0.1944
  884MPD2    H712971   3.507   0.799  15.141  2.4259  0.3822 -1.0422
  885MPD2     C12972   1.543   1.208   0.294  0.2307 -0.4187 -0.9580
  885MPD2    C112973   1.541   1.083   0.230  0.2566  0.0790  0.3323
  885MPD2    C212974   1.534   1.072   0.097  0.4320  0.3394 -0.0600
  885MPD2    C312975   1.527   1.181   0.013 -0.2133  0.0701  0.4304
  885MPD2    C412976   1.537   1.299   0.069 -0.0657  0.6359  0.0111
  885MPD2    C512977   1.547   1.319   0.205  0.3100 -0.1872  0.2393
  885MPD2     H12978   1.534   0.972   0.056  3.5822 -0.7334  2.6079
  885MPD2    H112979   1.554   1.385   0.004 -0.1850  0.4159 -0.3107
  885MPD2    H212980   1.568   1.222   0.398 -0.5960  2.5313 -1.1317
  885MPD2    H312981   1.573   1.416   0.248 -4.0469  0.5620  1.2337
  885MPD2     N12982   1.535   1.158  17.561 -0.6213 -0.4147  0.0756
  885MPD2    H512983   1.544   1.063  17.527 -1.9304 -0.3017 -0.5728
  885MPD2    N112984   1.560   0.972   0.313  0.4646 -0.2539 -0.0808
  885MPD2    H712985   1.593   0.993   0.407 -0.4335  1.7874 -0.2417
  886MPD2     C12986   2.726   4.530  15.427 -0.5480  0.0675 -0.3377
  886MPD2    C112987   2.746   4.421  15.349  0.1116 -0.1891 -0.7427
  886MPD2    C212988   2.693   4.430  15.220 -0.1132 -0.1174 -0.4953
  886MPD2    C312989   2.667   4.549  15.158  0.5736 -0.3956  0.2153
  886MPD2    C412990   2.658   4.659  15.240  0.2568 -0.4267  0.0257
  886MPD2    C512991   2.680   4.648  15.377  0.0588 -0.2372 -0.1763
  886MPD2     H12992   2.681   4.338  15.165 -0.0604  0.6322 -1.7583
  886MPD2    H112993   2.639   0.034  15.192  0.1122 -0.1285  0.6773
  886MPD2    H212994   2.770   4.525  15.526  0.4440 -1.8031 -0.8731
  886MPD2    H312995   2.683   0.011  15.445  3.3053  0.6365 -1.4199
  886MPD2     N12996   2.645   4.562  15.011  0.6784  0.0586 -0.4856
  886MPD2    H512997   2.641   4.655  14.972  2.1477 -0.1508 -1.1157
  886MPD2    N112998   2.810   4.301  15.389  0.1452 -0.0496 -0.3752
  886MPD2    H712999   2.815   4.234  15.313 -3.0211 -0.1161 -0.5294
  887MPD2     C13000   3.580   4.199  15.424 -0.4003 -0.6706  0.4091
  887MPD2    C113001   3.466   4.272  15.416  0.4275  0.0912  0.1290
  887MPD2    C213002   3.458   4.402  15.381 -0.8611  0.5789 -0.3384
  887MPD2    C313003   3.572   4.465  15.335  0.1955  0.0872 -0.0206
  887MPD2    C413004   3.684   4.397  15.342 -0.5689  0.0534 -0.1527
  887MPD2    C513005   3.690   4.265  15.387  0.3088 -0.0466 -0.2121
  887MPD2     H13006   3.364   4.455  15.393 -1.9235 -0.5614 -3.5054
  887MPD2    H113007   3.770   4.441  15.293 -1.1722 -0.1136 -1.3699
  887MPD2    H213008   3.591   4.095  15.451  2.0603 -0.2225  1.0885
  887MPD2    H313009   3.780   4.207  15.367 -0.1176 -0.6650 -0.3296
  887MPD2     N13010   3.554   4.595  15.284  0.3141 -0.3609  0.1268
  887MPD2    H513011   3.461   4.632  15.300  0.6791  0.8345 -0.5214
  887MPD2    N113012   3.338   4.212  15.427  0.2889 -0.2090  0.2688
  887MPD2    H713013   3.257   4.268  15.402  0.0472 -0.7152 -0.0811
  888MPD2     C13014   0.560   4.600  14.700  0.0002 -0.5670 -0.0971
  888MPD2    C113015   0.557   4.622  14.835 -0.1827  0.0199  0.0467
  888MPD2    C213016   0.615   0.013  14.888  0.3970 -0.9733 -0.3736
  888MPD2    C313017   0.683   0.107  14.817  0.1094 -0.2811 -0.1661
  888MPD2    C413018   0.680   0.096  14.680  0.2991  0.1097 -0.9654
  888MPD2    C513019   0.619   4.705  14.625  0.7241 -0.7997  0.3246
  888MPD2     H13020   0.608   0.033  14.994 -0.7388  0.0196 -0.6365
  888MPD2    H113021   0.719   0.174  14.616  1.5592  0.8205  0.6818
  888MPD2    H213022   0.505   4.519  14.652 -0.3892  1.3301 -2.8163
  888MPD2    H313023   0.607   4.700  14.517 -2.3689  1.4546  0.5877
  888MPD2     N13024   0.730   0.214  14.882 -0.0460 -0.2410 -0.2799
  888MPD2    H513025   0.711   0.212  14.982  0.9534 -1.0585 -0.1029
  888MPD2    N113026   0.509   4.529  14.931  0.0051 -0.1528  0.1350
  888MPD2    H713027   0.517   4.558  15.028  3.3652  0.6006 -0.3820
  889MPD2     C13028   3.946   4.186  12.862  0.0424  0.0581  0.7172
  889MPD2    C113029   4.066   4.146  12.918 -0.5607  0.0438  0.4281
  889MPD2    C213030   4.101   4.195  13.048 -0.0189  0.1876  0.4062
  889MPD2    C313031   4.053   4.319  13.072  0.9021 -0.5592 -0.0554
  889MPD2    C413032   3.947   4.374  13.003  0.7702 -0.3571  0.0019
  889MPD2    C513033   3.893   4.309  12.899  0.1484 -0.8416  0.3509
  889MPD2     H13034   4.192   4.159  13.096  1.0407 -0.4628 -2.1085
  889MPD2    H113035   3.909   4.471  13.033 -1.5443 -0.8107 -1.4958
  889MPD2    H213036   3.915   4.134  12.772 -0.1502  1.9947 -0.3334
  889MPD2    H313037   3.804   4.358  12.860  2.0322  1.8491 -0.5481
  889MPD2     N13038   4.102   4.386  13.185 -0.2983  0.1462  0.0844
  889MPD2    H513039   4.187   4.348  13.225 -0.0199  0.4919 -0.1626
  889MPD2    N113040   4.122   4.020  12.889 -0.1452  0.2751 -0.2974
  889MPD2    H713041   4.200   3.991  12.946 -1.2808  0.2618  1.2650
  890MPD2     C13042   4.317   0.854  14.331  0.5398  0.4786 -0.6214
  890MPD2    C113043   4.373   0.961  14.395  0.1691  0.5969 -0.2912
  890MPD2    C213044   4.432   0.937  14.522  0.0473 -0.1364  0.2836
  890MPD2    C313045   4.450   0.807  14.574  0.7407  0.4767  0.5440
  890MPD2    C413046   4.408   0.702  14.500  1.2919 -0.4637  0.3100
  890MPD2    C513047   4.330   0.723  14.386 -0.2370 -0.1468 -0.0396
  890MPD2     H13048   4.466   1.020  14.583  0.4355 -1.8535  2.4253
  890MPD2    H113049   4.411   0.600  14.537  2.2663 -1.7240 -3.2352
  890MPD2    H213050   4.249   0.869  14.248 -0.4845 -0.9552 -0.0425
  890MPD2    H313051   4.296   0.638  14.328  0.2538 -0.0902 -0.4072
  890MPD2     N13052   4.491   0.800  14.709 -0.2967 -0.7916 -0.5461
  890MPD2    H513053   4.500   0.888  14.758  2.0211 -0.3742 -1.6858
  890MPD2    N113054   4.366   1.086  14.327  0.2369 -0.5558  0.1309
  890MPD2    H713055   4.321   1.084  14.235  1.3470 -0.0766 -0.4145
  891MPD2     C13056   1.932   4.212  16.186 -0.5864 -0.1789  0.1303
  891MPD2    C113057   1.856   4.124  16.260  0.2039  0.5364  0.0354
  891MPD2    C213058   1.918   4.057  16.369 -0.1543  0.4712 -0.6983
  891MPD2    C313059   2.056   4.069  16.390 -0.2930 -0.5348 -0.5784
  891MPD2    C413060   2.134   4.143  16.299  0.0596 -0.0374  0.0316
  891MPD2    C513061   2.071   4.215  16.205  0.0506  0.9932  1.2200
  891MPD2     H13062   1.856   3.996  16.434  0.6678 -2.9927 -3.1139
  891MPD2    H113063   2.239   4.164  16.319  0.6189 -1.2774 -1.5612
  891MPD2    H213064   1.889   4.271  16.105 -0.0520 -0.2486 -0.2081
  891MPD2    H313065   2.138   4.290  16.164 -0.7695 -0.1730 -2.2332
  891MPD2     N13066   2.113   4.018  16.508 -0.0787 -0.1595 -0.0498
  891MPD2    H513067   2.050   3.971  16.573  0.5076 -2.2482 -0.9888
  891MPD2    N113068   1.726   4.100  16.223  0.2723  0.5820 -0.3972
  891MPD2    H713069   1.693   4.147  16.139 -0.8412 -1.6513 -1.2086
  892MPD2     C13070   2.949   0.050  14.900  0.5132  0.2467  0.2069
  892MPD2    C113071   2.909   0.119  14.785  0.7494  0.4512 -0.1463
  892MPD2    C213072   2.971   0.080  14.672  0.4524 -0.8701 -0.1313
  892MPD2    C313073   3.083   0.003  14.675  0.5162  0.4946  0.3146
  892MPD2    C413074   3.132   4.669  14.790  0.1243  0.7277  0.5864
  892MPD2    C513075   3.058   4.692  14.901 -0.4135 -0.0808  0.3276
  892MPD2     H13076   2.946   0.139  14.584  2.7787  3.0046  1.8108
  892MPD2    H113077   3.204   4.589  14.784  0.2468  0.8462  0.4640
  892MPD2    H213078   2.903   0.077  14.994 -1.8286  1.8820 -1.4156
  892MPD2    H313079   3.087   4.643  14.994 -1.2983  0.1113  0.6975
  892MPD2     N13080   3.150   4.685  14.556 -0.3011  0.8587  0.2220
  892MPD2    H513081   3.241   4.639  14.557 -1.3876 -1.2479  1.3798
  892MPD2    N113082   2.800   0.207  14.778 -1.0334 -0.4257 -0.2676
  892MPD2    H713083   2.799   0.266  14.696  0.0514 -0.1112 -0.0471
  893MPD2     C13084   4.264   3.133   1.812  0.0575 -0.3454  1.0944
  893MPD2    C113085   4.218   3.180   1.692 -0.7232 -0.7341  0.5646
  893MPD2    C213086   4.085   3.190   1.658 -0.0029  0.0832  0.0016
  893MPD2    C313087   3.983   3.163   1.749  0.5422  0.2819  0.4156
  893MPD2    C413088   4.028   3.109   1.871  0.0825  0.7102 -0.0911
  893MPD2    C513089   4.165   3.095   1.900  0.3332  0.1926  0.1639
  893MPD2     H13090   4.067   3.224   1.557  2.0217 -0.1010 -0.4055
  893MPD2    H113091   3.960   3.084   1.952  1.8026  1.0901  1.4655
  893MPD2    H213092   4.361   3.097   1.844  0.6784  2.3035  2.1875
  893MPD2    H313093   4.191   3.044   1.992  0.5109 -1.3020 -0.6988
  893MPD2     N13094   3.846   3.181   1.723 -0.4490  0.1646  0.0547
  893MPD2    H513095   3.784   3.155   1.800 -0.7391 -1.4725 -0.7398
  893MPD2    N113096   4.320   3.221   1.599 -0.3933  0.2349  0.2545
  893MPD2    H713097   4.416   3.208   1.630 -0.5523 -0.6015  0.3908
  894MPD2     C13098   2.519   1.134   1.238 -0.4531  0.6796 -0.1462
  894MPD2    C113099   2.508   1.271   1.222  0.3002 -0.5062 -0.3500
  894MPD2    C213100   2.617   1.340   1.174  0.5210 -0.3166 -0.9372
  894MPD2    C313101   2.736   1.276   1.157  0.3417 -0.0382  0.5150
  894MPD2    C413102   2.747   1.138   1.185 -0.5776 -1.0144  0.6070
  894MPD2    C513103   2.637   1.067   1.215  0.0443  0.7709 -0.0582
  894MPD2     H13104   2.607   1.446   1.155  0.4663 -0.1697 -0.1074
  894MPD2    H113105   2.837   1.085   1.157  1.1591  1.3426  1.7248
  894MPD2    H213106   2.437   1.069   1.266  1.4781 -1.4824  0.5438
  894MPD2    H313107   2.637   0.959   1.223  0.0838  0.6153 -2.2055
  894MPD2     N13108   2.839   1.347   1.091 -0.5641 -0.4766 -0.5206
  894MPD2    H513109   2.818   1.446   1.081 -0.4926 -0.1744  2.1374
  894MPD2    N113110   2.391   1.343   1.237  0.4118 -0.2191 -0.3531
  894MPD2    H713111   2.390   1.443   1.221 -1.7692 -0.1626  0.1496
  895MPD2     C13112   2.330   4.661  13.287 -0.6372 -0.2802 -0.1068
  895MPD2    C113113   2.202   4.609  13.272  0.0568  0.1202  0.3702
  895MPD2    C213114   2.187   4.471  13.273 -0.6790  0.0241  0.6530
  895MPD2    C313115   2.295   4.388  13.271  0.2812  0.2882  0.2474
  895MPD2    C413116   2.422   4.443  13.280 -0.3702 -0.3956  0.8926
  895MPD2    C513117   2.437   4.577  13.290  0.4609 -0.3099 -0.1817
  895MPD2     H13118   2.093   4.431  13.237  0.7235 -2.8898  0.2373
  895MPD2    H113119   2.511   4.381  13.288 -0.4072 -0.4215  1.1118
  895MPD2    H213120   2.350   0.046  13.304 -1.6009 -0.5229  2.5888
  895MPD2    H313121   2.538   4.616  13.302  0.8538 -1.4761  0.3361
  895MPD2     N13122   2.269   4.254  13.226 -0.2245 -0.2653 -0.3879
  895MPD2    H513123   2.171   4.235  13.209 -0.4792  1.1259 -0.4649
  895MPD2    N113124   2.084   4.689  13.266 -0.1516 -0.3536 -0.5011
  895MPD2    H713125   1.992   4.647  13.260  0.1187 -1.2594  1.6172
  896MPD2     C13126   4.473   1.575   1.439 -0.6068 -0.3598  0.1053
  896MPD2    C113127   4.495   1.634   1.322 -0.3504 -0.2241  0.1688
  896MPD2    C213128   4.407   1.615   1.217 -0.2783 -0.3186  0.0243
  896MPD2    C313129   4.293   1.544   1.234 -0.5711  0.4070 -0.7346
  896MPD2    C413130   4.274   1.488   1.356  0.2039 -0.0016  0.0162
  896MPD2    C513131   4.363   1.498   1.461  0.7371  0.2385  0.3437
  896MPD2     H13132   4.414   1.666   1.122 -2.9309 -0.3917 -0.2366
  896MPD2    H113133   4.184   1.429   1.371  0.5160 -0.0167  1.8041
  896MPD2    H213134   4.539   1.612   1.517 -1.3030  2.3327 -0.5938
  896MPD2    H313135   4.349   1.462   1.563 -1.9227  1.4567  0.4128
  896MPD2     N13136   4.194   1.540   1.125  0.3657  0.0575 -0.0369
  896MPD2    H513137   4.200   1.611   1.053 -0.8959  0.0287 -0.1706
  896MPD2    N113138   4.603   1.722   1.309  0.0510 -0.4919  0.2575
  896MPD2    H713139   4.650   1.766   1.387 -0.4236  0.9559 -0.2851
  897MPD2     C13140   0.995   3.760  10.311  0.5765  0.2668 -0.3050
  897MPD2    C113141   0.993   3.889  10.283  0.1716  0.0304 -0.3729
  897MPD2    C213142   0.923   3.973  10.368 -0.8342 -0.5169 -0.5480
  897MPD2    C313143   0.863   3.933  10.487 -0.2299 -0.6972 -0.4878
  897MPD2    C413144   0.875   3.796  10.519 -0.2881  0.0136  0.1224
  897MPD2    C513145   0.936   3.716  10.428 -0.5746  0.3584 -0.2724
  897MPD2     H13146   0.943   4.079  10.351 -0.3066 -0.4283  0.6519
  897MPD2    H113147   0.838   3.742  10.606 -1.1512  1.2014  0.4868
  897MPD2    H213148   1.054   3.692  10.251 -0.5242 -0.8504 -0.1230
  897MPD2    H313149   0.943   3.612  10.459  1.5644  0.4633 -0.3885
  897MPD2     N13150   0.801   4.026  10.572  0.0853 -0.4272  0.7229
  897MPD2    H513151   0.762   3.991  10.659 -0.3673 -0.7988  0.3727
  897MPD2    N113152   1.068   3.957  10.185 -0.2724  0.0988 -0.0688
  897MPD2    H713153   1.070   4.059  10.191  2.6212  0.0455  0.1152
  898MPD2     C13154   2.933   3.943   0.146 -0.2098  0.5064  0.4195
  898MPD2    C113155   2.985   4.076   0.159  0.2656 -0.0910  0.1305
  898MPD2    C213156   2.916   4.181   0.110  0.4030 -0.5423  0.1377
  898MPD2    C313157   2.785   4.161   0.066 -0.0634 -0.1229 -0.0172
  898MPD2    C413158   2.737   4.040   0.057  0.2052  0.3497  0.5728
  898MPD2    C513159   2.809   3.929   0.093  0.0777 -0.5469 -0.0034
  898MPD2     H13160   2.952   4.282   0.118 -0.7849 -0.0992 -0.0784
  898MPD2    H113161   2.639   4.025   0.013  0.4949  2.4053 -0.7648
  898MPD2    H213162   2.995   3.857   0.165 -1.3265 -0.5261 -0.6362
  898MPD2    H313163   2.770   3.829   0.079 -0.0393 -0.2084 -2.1236
  898MPD2     N13164   2.714   4.273   0.019  0.9054 -0.4452  0.7261
  898MPD2    H513165   2.766   4.360   0.019  0.9937 -0.4931 -2.2856
  898MPD2    N113166   3.113   4.097   0.217 -0.6078 -0.4568  0.9804
  898MPD2    H713167   3.141   4.193   0.236  0.1001  0.0384 -2.6112
  899MPD2     C13168   3.267   0.458   0.226  0.2807  0.0741 -0.4271
  899MPD2    C113169   3.310   0.584   0.184  0.1574  0.6082  0.0954
  899MPD2    C213170   3.305   0.694   0.265  0.1241 -0.2580 -0.1903
  899MPD2    C313171   3.238   0.683   0.390 -0.0012 -0.7061 -0.0632
  899MPD2    C413172   3.181   0.560   0.429 -0.3268  0.1386  0.2840
  899MPD2    C513173   3.200   0.453   0.342 -0.2381 -0.4375  1.2485
  899MPD2     H13174   3.353   0.788   0.241  0.5419 -0.8227 -1.5529
  899MPD2    H113175   3.135   0.543   0.525 -1.1810 -0.4946 -0.2392
  899MPD2    H213176   3.288   0.368   0.170  3.1940 -1.0757  2.5072
  899MPD2    H313177   3.177   0.360   0.393 -0.3213 -0.6345  0.8437
  899MPD2     N13178   3.217   0.792   0.469 -0.2355 -0.3922  0.0636
  899MPD2    H513179   3.208   0.772   0.568  3.3698  0.1125  0.5060
  899MPD2    N113180   3.372   0.583   0.057  0.4368  0.2739  0.1816
  899MPD2    H713181   3.361   0.502  17.681  0.3835 -0.1137  0.7122
  900MPD2     C13182   3.436   2.658  11.726  0.3557  1.0968 -0.1998
  900MPD2    C113183   3.342   2.563  11.747  0.7947  0.3914 -0.7000
  900MPD2    C213184   3.208   2.600  11.724  0.4916 -0.1493 -0.0956
  900MPD2    C313185   3.168   2.724  11.676  0.5159 -0.2605 -1.0802
  900MPD2    C413186   3.272   2.818  11.667 -0.1054  0.6101  0.1575
  900MPD2    C513187   3.401   2.782  11.686  0.3578 -0.3127  0.1741
  900MPD2     H13188   3.126   2.530  11.730 -0.9014  1.7293  2.6131
  900MPD2    H113189   3.258   2.922  11.643  0.3619  0.5545 -0.3814
  900MPD2    H213190   3.537   2.635  11.758 -0.2930 -1.0662  0.3553
  900MPD2    H313191   3.489   2.844  11.672 -0.9830  1.6520  0.4723
  900MPD2     N13192   3.030   2.752  11.644  0.2587 -0.2354  0.2425
  900MPD2    H513193   2.967   2.675  11.665  0.5211 -0.3779  0.5060
  900MPD2    N113194   3.382   2.429  11.779  0.3793 -0.4093 -0.0202
  900MPD2    H713195   3.481   2.412  11.795  0.5680  0.0784 -0.6720
  901MPD2     C13196   3.064   1.524  12.268 -0.5661 -0.3788  0.0733
  901MPD2    C113197   3.195   1.497  12.237  0.4079 -0.1607 -0.3202
  901MPD2    C213198   3.269   1.587  12.158  0.3536 -0.0008  0.5456
  901MPD2    C313199   3.192   1.690  12.096 -0.0662 -0.0993 -0.1358
  901MPD2    C413200   3.056   1.699  12.120 -0.2569 -0.9819 -1.1332
  901MPD2    C513201   2.991   1.622  12.210  0.1759 -0.8179  0.5627
  901MPD2     H13202   3.373   1.572  12.129  0.2715  0.8390 -0.1788
  901MPD2    H113203   2.999   1.783  12.082 -0.9834 -0.1436  1.8733
  901MPD2    H213204   3.006   1.456  12.330  1.1581 -1.8949  0.0241
  901MPD2    H313205   2.892   1.642  12.248 -0.3041  0.2480 -1.2445
  901MPD2     N13206   3.259   1.787  12.019  1.1081  0.1441  0.7232
  901MPD2    H513207   3.359   1.786  12.036  1.0394  0.2501  1.1348
  901MPD2    N113208   3.254   1.371  12.288 -0.3093 -0.6090 -0.2002
  901MPD2    H713209   3.184   1.312  12.332  1.3841 -0.6985  2.3523
  902MPD2     C13210   2.142   0.158  12.938 -0.7010 -0.0498  0.3069
  902MPD2    C113211   2.077   0.213  12.830 -0.1646  0.1538  0.1003
  902MPD2    C213212   2.074   0.139  12.714  0.2406  0.6765  0.5395
  902MPD2    C313213   2.127   0.011  12.705 -0.0761  0.0730 -0.0891
  902MPD2    C413214   2.188   4.680  12.818  0.1332 -0.9457 -0.2301
  902MPD2    C513215   2.198   0.036  12.932 -0.1439  0.4953  0.1617
  902MPD2     H13216   2.039   0.194  12.628  2.0780 -0.7632 -1.1424
  902MPD2    H113217   2.241   4.585  12.808  0.3414 -1.1167  2.3868
  902MPD2    H213218   2.154   0.223  13.024 -1.5170  2.6733 -1.6690
  902MPD2    H313219   2.254   0.006  13.021  0.7854 -1.5915 -1.1344
  902MPD2     N13220   2.146   4.664  12.581 -0.1421 -0.8433  0.5718
  902MPD2    H513221   2.195   4.578  12.602 -0.0847 -1.1984 -1.0071
  902MPD2    N113222   2.018   0.338  12.842  0.0577 -0.3972  0.3803
  902MPD2    H713223   2.021   0.373  12.937  1.2296  0.4639  0.0172
  903MPD2     C13224   2.279   4.603  11.658  0.3579 -0.9563  0.0165
  903MPD2    C113225   2.182   4.637  11.744 -0.9180 -0.0023  0.4284
  903MPD2    C213226   2.069   4.693  11.687 -0.0559  0.1133 -0.0215
  903MPD2    C313227   2.044   4.684  11.552  0.4237  0.2842  0.0351
  903MPD2    C413228   2.147   4.640  11.462  0.6671  0.2169  0.6254
  903MPD2    C513229   2.271   4.617  11.523 -0.5206 -0.0271  0.8531
  903MPD2     H13230   1.992   0.012  11.753 -0.6931 -0.6623 -0.3024
  903MPD2    H113231   2.135   4.637  11.354 -0.4768 -3.8350  0.8610
  903MPD2    H213232   2.381   4.584  11.688  0.7713 -3.3086 -2.8733
  903MPD2    H313233   2.356   4.591  11.462 -1.1140 -1.8204  0.7806
  903MPD2     N13234   1.918   4.720  11.507  0.0977 -0.2194 -0.6934
  903MPD2    H513235   1.853   0.031  11.579  2.4816  2.2971  0.3425
  903MPD2    N113236   2.208   4.611  11.876  0.7909  0.5924  0.3138
  903MPD2    H713237   2.286   4.548  11.893 -2.4073 -3.5217 -0.3142
  904MPD2     C13238   1.776   4.179  13.501 -0.7847  0.5948  0.4311
  904MPD2    C113239   1.742   4.093  13.603  0.4551  0.2333 -0.3746
  904MPD2    C213240   1.841   4.019  13.666 -0.3504  0.1586  0.0704
  904MPD2    C313241   1.968   4.027  13.618  0.2488 -1.2144  0.9030
  904MPD2    C413242   1.999   4.116  13.516 -0.4469  0.6780  0.0712
  904MPD2    C513243   1.904   4.193  13.457  0.1426 -0.7227 -0.1557
  904MPD2     H13244   1.811   3.943  13.738 -1.2006 -0.8183 -1.3205
  904MPD2    H113245   2.099   4.145  13.489 -0.6382  0.1972 -1.1667
  904MPD2    H213246   1.704   4.233  13.441 -2.9658 -2.5850  0.1897
  904MPD2    H313247   1.930   4.257  13.373 -0.7531  0.7215  0.6570
  904MPD2     N13248   2.062   3.945  13.684  0.0197  0.1319 -0.0033
  904MPD2    H513249   2.022   3.879  13.751 -2.6960  0.7494 -1.0123
  904MPD2    N113250   1.611   4.059  13.640  0.0839  0.1568  0.5310
  904MPD2    H713251   1.611   3.977  13.700  1.6250 -0.3066 -0.0899
  905MPD2     C13252   1.463   4.162  12.995 -0.4291  0.8993 -0.3882
  905MPD2    C113253   1.547   4.212  13.091  0.0463  0.6532  0.1070
  905MPD2    C213254   1.684   4.186  13.094 -0.0381  0.0120 -0.0185
  905MPD2    C313255   1.727   4.094  13.000 -0.4461 -0.1889 -0.1582
  905MPD2    C413256   1.647   4.050  12.896 -0.7072  0.0977  0.6015
  905MPD2    C513257   1.515   4.081  12.898 -0.1433 -0.3221  0.3676
  905MPD2     H13258   1.749   4.224  13.172 -0.4984  0.4334  0.1635
  905MPD2    H113259   1.686   3.980  12.822  0.1640 -0.0303  1.1831
  905MPD2    H213260   1.357   4.181  12.996 -1.0311 -2.3646  0.3448
  905MPD2    H313261   1.451   4.051  12.815  1.5175  2.1673 -1.8390
  905MPD2     N13262   1.855   4.043  13.002  0.3496 -0.0133 -0.2817
  905MPD2    H513263   1.885   3.970  12.938 -0.0812 -1.1493  0.8287
  905MPD2    N113264   1.484   4.292  13.190  0.7683  1.1998  0.7106
  905MPD2    H713265   1.383   4.285  13.186  0.8979 -0.1067 -0.0087
  906MPD2     C13266   4.525   4.305  11.415 -0.2551  0.4976  0.3541
  906MPD2    C113267   4.469   4.237  11.310  0.6041  0.9491 -0.0158
  906MPD2    C213268   4.412   4.112  11.338  0.0017 -0.4476  0.5212
  906MPD2    C313269   4.402   4.070  11.471  0.4988 -0.1437 -0.3742
  906MPD2    C413270   4.438   4.138  11.578  0.4009 -0.0835  0.2111
  906MPD2    C513271   4.506   4.250  11.546 -0.2331 -0.6773  0.4006
  906MPD2     H13272   4.374   4.052  11.257  0.7869  2.6412 -2.1116
  906MPD2    H113273   4.418   4.108  11.680 -0.0524 -1.9776 -0.4365
  906MPD2    H213274   4.575   4.401  11.410 -0.5423  0.6380  0.1625
  906MPD2    H313275   4.552   4.304  11.628 -0.1367  0.5205 -0.4376
  906MPD2     N13276   4.345   3.942  11.503  0.8412 -0.1264 -0.2211
  906MPD2    H513277   4.323   3.931  11.602 -2.4927  0.7795 -0.8382
  906MPD2    N113278   4.486   4.277  11.172 -0.5603  0.8387 -0.3202
  906MPD2    H713279   4.451   4.212  11.103  1.2221  0.8617 -1.2464
  907MPD2     C13280   3.219   3.153  15.444  0.3993  0.6204 -0.4408
  907MPD2    C113281   3.121   3.053  15.447  0.3124 -0.4409  0.1118
  907MPD2    C213282   3.081   2.998  15.565  1.2078 -0.0663 -0.0697
  907MPD2    C313283   3.136   3.044  15.680  0.7140  0.6749 -0.0303
  907MPD2    C413284   3.223   3.154  15.678 -0.0095  0.1152 -0.3671
  907MPD2    C513285   3.263   3.203  15.561  0.4124  0.3656 -0.6280
  907MPD2     H13286   3.014   2.913  15.565  0.1506  0.7660  1.2892
  907MPD2    H113287   3.264   3.193  15.770 -3.8960 -1.5562  2.0859
  907MPD2    H213288   3.266   3.200  15.359  2.0429 -2.0727 -1.0002
  907MPD2    H313289   3.331   3.287  15.560 -0.8759  1.4378  1.1010
  907MPD2     N13290   3.098   2.982  15.800  0.1325 -0.4241  0.1383
  907MPD2    H513291   3.043   2.897  15.792  0.8662 -1.1006  2.3869
  907MPD2    N113292   3.061   3.013  15.324 -0.1312 -0.3106 -0.8235
  907MPD2    H713293   2.998   2.933  15.318  0.5804 -0.9129 -0.2801
  908MPD2     C13294   1.995   3.878   9.692 -0.2008 -0.4226  0.4738
  908MPD2    C113295   1.915   3.770   9.716  0.1515 -0.0215 -0.2039
  908MPD2    C213296   1.782   3.784   9.754  0.6919 -0.9113 -0.4042
  908MPD2    C313297   1.732   3.917   9.767  0.4351 -0.3510  0.6099
  908MPD2    C413298   1.820   4.019   9.752 -0.4160 -1.0563 -0.8511
  908MPD2    C513299   1.949   4.000   9.717  0.2516 -0.8068  0.5727
  908MPD2     H13300   1.710   3.705   9.768  0.6319 -1.0302 -1.3632
  908MPD2    H113301   1.782   4.121   9.755  1.2898 -0.5188  2.2329
  908MPD2    H213302   2.095   3.873   9.650  0.2652  0.5780  1.4670
  908MPD2    H313303   1.996   4.095   9.694 -1.0724 -0.2779  0.0395
  908MPD2     N13304   1.593   3.947   9.796 -0.4787 -0.6246 -0.0304
  908MPD2    H513305   1.528   3.870   9.782 -2.0191  0.4657  1.1227
  908MPD2    N113306   1.957   3.627   9.709 -0.6850 -0.0014 -0.3962
  908MPD2    H713307   1.889   3.552   9.715 -0.1827 -0.3420  0.9632
  909MPD2     C13308   1.066   1.683  11.167  0.1399  0.2532  0.1910
  909MPD2    C113309   1.114   1.807  11.201  0.1465 -0.0670 -0.1804
  909MPD2    C213310   1.039   1.885  11.286  1.3894 -0.2385 -0.5369
  909MPD2    C313311   0.911   1.852  11.320  0.4250  0.5303 -0.1549
  909MPD2    C413312   0.866   1.725  11.292 -0.1461 -0.4076 -0.1944
  909MPD2    C513313   0.944   1.638  11.210  0.1205 -0.1977 -0.0886
  909MPD2     H13314   1.077   1.983  11.310  3.7095 -0.8330 -1.7370
  909MPD2    H113315   0.767   1.691  11.319  0.2803 -0.2358  1.5579
  909MPD2    H213316   1.117   1.606  11.111 -0.0770 -0.0241  0.3766
  909MPD2    H313317   0.907   1.539  11.186 -0.0560  0.4429 -2.4513
  909MPD2     N13318   0.837   1.945  11.398 -0.0071 -0.6783  0.7071
  909MPD2    H513319   0.885   2.027  11.435  0.7335 -0.0753 -1.5324
  909MPD2    N113320   1.238   1.867  11.163 -0.4278 -0.3618 -0.6454
  909MPD2    H713321   1.262   1.958  11.201 -0.1336 -1.8807  2.7467
  910MPD2     C13322   2.288   3.662  15.628  0.2501  0.5150 -0.2371
  910MPD2    C113323   2.370   3.590  15.541  0.1378  0.4040  0.3853
  910MPD2    C213324   2.336   3.595  15.408  0.1901 -0.5989  0.1455
  910MPD2    C313325   2.228   3.666  15.367  0.3347  0.4014  0.2080
  910MPD2    C413326   2.144   3.723  15.451  0.2204 -0.0918 -0.2267
  910MPD2    C513327   2.179   3.732  15.583 -0.3008 -0.3375 -0.0601
  910MPD2     H13328   2.386   3.529  15.337  0.1029  1.8004 -2.1201
  910MPD2    H113329   2.049   3.768  15.421  0.3084  1.2995  1.5634
  910MPD2    H213330   2.307   3.662  15.735  2.1391 -2.6339 -0.5839
  910MPD2    H313331   2.117   3.792  15.648  1.5821  0.5307  0.9360
  910MPD2     N13332   2.188   3.664  15.234  0.5485  0.0445 -0.0977
  910MPD2    H513333   2.093   3.693  15.210  0.3626 -1.7807 -1.6133
  910MPD2    N113334   2.475   3.512  15.587  0.0240  0.7451  0.6123
  910MPD2    H713335   2.523   3.449  15.522  0.2752 -0.0186  1.5416
  911MPD2     C13336   0.144   4.402  16.203  0.0705 -0.3291 -0.0994
  911MPD2    C113337   0.119   4.285  16.133 -0.5677  0.5091 -0.7906
  911MPD2    C213338   0.023   4.287  16.032 -0.0181  0.0567  0.0319
  911MPD2    C313339   4.691   4.399  15.978 -0.0368  0.0845 -0.2732
  911MPD2    C413340   0.014   4.518  16.039 -0.0465  0.1496  0.2857
  911MPD2    C513341   0.091   4.520  16.152 -0.3511 -0.2866 -0.1924
  911MPD2     H13342   4.702   4.191  16.001 -0.8560  0.0726  1.1214
  911MPD2    H113343   4.690   4.611  16.008  0.3582 -0.0989 -1.0166
  911MPD2    H213344   0.218   4.411  16.282  1.0339  0.2882 -1.0585
  911MPD2    H313345   0.107   4.609  16.211 -0.9359 -1.0353  1.0759
  911MPD2     N13346   4.600   4.389  15.862  0.1344  0.3660 -0.0238
  911MPD2    H513347   4.592   4.297  15.819  0.0093  0.7379 -0.7915
  911MPD2    N113348   0.199   4.174  16.164  0.3605  0.8363 -0.1405
  911MPD2    H713349   0.270   4.188  16.235  0.9141  0.8387 -0.6888
  912MPD2     C13350   0.089   3.842  15.463  0.6296 -0.0271 -0.1637
  912MPD2    C113351   0.022   3.905  15.568  0.6451  0.4662 -0.2601
  912MPD2    C213352   0.023   3.857  15.695 -0.3508  0.6052 -0.4188
  912MPD2    C313353   0.077   3.727  15.712 -0.6043 -0.2956  0.1718
  912MPD2    C413354   0.139   3.657  15.616 -0.3197 -0.1090  0.0474
  912MPD2    C513355   0.153   3.722  15.494 -0.1854 -0.0121  0.2455
  912MPD2     H13356   4.693   3.902  15.779  0.3987  3.8911 -1.7423
  912MPD2    H113357   0.186   3.560  15.614 -0.9722 -0.4537  1.6288
  912MPD2    H213358   0.076   3.873  15.360 -1.2747  0.9140  0.3615
  912MPD2    H313359   0.200   3.669  15.412 -0.9555  0.6645 -0.6216
  912MPD2     N13360   0.049   3.671  15.847 -0.4385  0.5335 -0.7332
  912MPD2    H513361   0.030   3.729  15.928  0.4585 -1.4748  0.9419
  912MPD2    N113362   4.677   4.026  15.529 -0.1475 -0.6928 -0.0451
  912MPD2    H713363   4.697   4.058  15.434  1.7648  0.3555  0.7016
  913MPD2     C13364   1.001   0.665  10.505 -0.1769 -0.2928 -0.2383
  913MPD2    C113365   1.097   0.761  10.502  0.0435  0.0418  0.7156
  913MPD2    C213366   1.083   0.866  10.413 -0.3056 -0.1630 -0.2443
  913MPD2    C313367   0.967   0.889  10.341 -0.4926 -0.2350 -0.2915
  913MPD2    C413368   0.870   0.791  10.348 -0.1111  0.1636 -0.0567
  913MPD2    C513369   0.889   0.677  10.426 -0.0607  0.5998  0.4572
  913MPD2     H13370   1.160   0.940  10.395  3.0024 -3.0292  2.1812
  913MPD2    H113371   0.791   0.799  10.275 -0.9076  3.9396  1.2129
  913MPD2    H213372   1.014   0.574  10.564 -1.4421  0.2357  0.8538
  913MPD2    H313373   0.818   0.595  10.428  2.0780 -1.2972 -2.5909
  913MPD2     N13374   0.952   0.995  10.243 -0.1398 -0.1119 -0.4084
  913MPD2    H513375   0.867   0.998  10.187 -0.3479  1.5871 -0.0122
  913MPD2    N113376   1.215   0.731  10.578  0.5185  0.1370  0.0496
  913MPD2    H713377   1.207   0.656  10.646 -0.9405  0.5702  0.3585
  914MPD2     C13378   3.078   0.832  11.668  0.4685  0.7756  0.7843
  914MPD2    C113379   3.127   0.965  11.678 -0.4287 -0.0786  0.3738
  914MPD2    C213380   3.173   1.003  11.807  0.0779 -0.1204  0.1761
  914MPD2    C313381   3.175   0.916  11.914  0.0641  0.0423 -0.0793
  914MPD2    C413382   3.133   0.788  11.899 -0.4089 -0.0896 -0.2427
  914MPD2    C513383   3.082   0.750  11.777  0.2334  0.5822  0.7339
  914MPD2     H13384   3.211   1.104  11.816  1.8065 -0.7194 -0.3028
  914MPD2    H113385   3.120   0.710  11.974  1.1061 -0.6712 -0.5708
  914MPD2    H213386   3.031   0.791  11.578 -0.1786  1.8660  0.6280
  914MPD2    H313387   3.028   0.656  11.781 -0.4409  0.8520 -1.7524
  914MPD2     N13388   3.215   0.965  12.032  0.1902 -0.1091  0.2787
  914MPD2    H513389   3.245   1.062  12.025 -1.7168  0.6113  1.8329
  914MPD2    N113390   3.122   1.042  11.560  0.5028 -0.9390  0.6864
  914MPD2    H713391   3.091   0.991  11.477  0.0355  0.5429 -0.0422
  915MPD2     C13392   1.835   0.918  15.820  0.5820  0.6441  0.0742
  915MPD2    C113393   1.722   0.977  15.754  0.2268 -0.3497  0.3646
  915MPD2    C213394   1.633   1.049  15.826  0.0243 -0.6841  0.0094
  915MPD2    C313395   1.659   1.073  15.960 -0.4825 -1.1966  0.0694
  915MPD2    C413396   1.770   1.020  16.025 -0.4631  0.0862 -0.0436
  915MPD2    C513397   1.850   0.935  15.955 -0.0551 -0.3610  1.0305
  915MPD2     H13398   1.545   1.095  15.781 -0.9723 -3.2101 -0.6125
  915MPD2    H113399   1.793   1.019  16.131 -0.5302  1.7091 -0.0223
  915MPD2    H213400   1.916   0.868  15.768 -0.1997 -0.2870 -0.2408
  915MPD2    H313401   1.931   0.889  16.012 -0.6159 -0.9698  1.3421
  915MPD2     N13402   1.560   1.145  16.035 -0.1198  0.8725  0.6425
  915MPD2    H513403   1.471   1.152  15.987  0.5693 -2.8098 -1.1976
  915MPD2    N113404   1.699   0.951  15.615 -0.2245 -0.1486 -0.1095
  915MPD2    H713405   1.749   0.882  15.560 -1.2513 -0.9422 -0.0578
  916MPD2     C13406   4.244   3.838  15.586 -0.6723 -0.2923  0.3961
  916MPD2    C113407   4.301   3.760  15.681 -0.2789 -0.0020  0.1959
  916MPD2    C213408   4.415   3.679  15.658 -0.0784 -0.2703  0.4668
  916MPD2    C313409   4.467   3.663  15.524  0.2995  0.7474 -0.9448
  916MPD2    C413410   4.420   3.752  15.434  0.4547  0.3269 -0.3710
  916MPD2    C513411   4.312   3.832  15.464  1.0446 -0.2475  0.4271
  916MPD2     H13412   4.447   3.610  15.734 -0.1319 -0.8253 -0.0149
  916MPD2    H113413   4.472   3.771  15.340  2.5794  0.0177  0.7506
  916MPD2    H213414   4.164   3.909  15.604 -0.1357  0.5939 -0.7193
  916MPD2    H313415   4.275   3.901  15.389  0.5814 -0.7645  0.1807
  916MPD2     N13416   4.566   3.568  15.500  0.3609  0.1409  0.1773
  916MPD2    H513417   4.616   3.521  15.575  1.0238  1.1625  0.3691
  916MPD2    N113418   4.226   3.763  15.803 -0.0632 -0.8716 -0.0970
  916MPD2    H713419   4.140   3.817  15.809  0.2274 -0.2837 -1.2532
  917MPD2     C13420   0.065   1.536  10.481  0.3566 -0.0370  0.2886
  917MPD2    C113421   0.111   1.626  10.567 -0.0624 -0.6738  0.3189
  917MPD2    C213422   0.181   1.730  10.518 -0.3656  0.1268  0.3114
  917MPD2    C313423   0.217   1.736  10.383  1.1335  0.0545 -0.1946
  917MPD2    C413424   0.173   1.641  10.297  0.0595  0.9194  0.3211
  917MPD2    C513425   0.093   1.540  10.346 -0.2597  0.0055 -0.3469
  917MPD2     H13426   0.222   1.808  10.582 -2.3886  0.0198  1.7574
  917MPD2    H113427   0.191   1.643  10.190  1.1577  2.5642  0.5399
  917MPD2    H213428   0.005   1.454  10.519 -0.8640 -0.6569 -2.9979
  917MPD2    H313429   0.043   1.472  10.278  0.0159 -0.2930 -0.2473
  917MPD2     N13430   0.284   1.850  10.349  0.2273 -0.1200  0.1167
  917MPD2    H513431   0.307   1.917  10.422  1.5862  1.2626 -1.5920
  917MPD2    N113432   0.084   1.601  10.703  0.2040 -0.3934 -0.0431
  917MPD2    H713433   0.047   1.509  10.725  2.5964 -1.2526  0.4156
  918MPD2     C13434   0.218   1.985  11.698 -0.0833 -0.0854  0.1567
  918MPD2    C113435   0.270   1.859  11.665 -0.0070  0.5889  0.3816
  918MPD2    C213436   0.233   1.793  11.552  0.2315 -0.0268  0.4901
  918MPD2    C313437   0.127   1.839  11.477  0.1143  0.4582  0.1954
  918MPD2    C413438   0.071   1.964  11.501  0.1309  0.4375  0.8481
  918MPD2    C513439   0.123   2.035  11.612  0.0606  0.3437 -0.0907
  918MPD2     H13440   0.300   1.714  11.520  1.1619  1.1126 -0.3944
  918MPD2    H113441   4.710   2.008  11.446  1.5445  2.2348  0.1897
  918MPD2    H213442   0.252   2.038  11.786 -0.5151 -0.6989  0.7001
  918MPD2    H313443   0.085   2.136  11.623 -0.7150 -0.1740  1.9637
  918MPD2     N13444   0.092   1.756  11.370 -0.6517 -0.4739 -1.0178
  918MPD2    H513445   0.124   1.660  11.370 -1.0282 -0.6025  0.3058
  918MPD2    N113446   0.358   1.802  11.746 -0.0124 -0.0863  0.3967
  918MPD2    H713447   0.401   1.720  11.704 -1.4328  0.4152 -2.0126
  919MPD2     C13448   0.867   0.753  11.508  0.2520  0.2107  0.4652
  919MPD2    C113449   0.932   0.653  11.443 -0.5212  0.5920  0.6168
  919MPD2    C213450   0.896   0.621  11.312 -0.0950  0.0044  0.2739
  919MPD2    C313451   0.795   0.692  11.254 -0.1259 -0.2338 -0.2358
  919MPD2    C413452   0.719   0.779  11.320  0.1561 -0.8372  1.1136
  919MPD2    C513453   0.748   0.802  11.453  0.5209 -0.3156  0.3209
  919MPD2     H13454   0.958   0.546  11.265  0.1558  0.3898 -0.0082
  919MPD2    H113455   0.636   0.820  11.263  0.4458 -0.3692  1.0340
  919MPD2    H213456   0.873   0.777  11.614  0.6941 -0.5749  0.6230
  919MPD2    H313457   0.695   0.878  11.509 -0.1328 -0.6254  0.1147
  919MPD2     N13458   0.763   0.684  11.124  0.0701  0.3704 -0.0457
  919MPD2    H513459   0.690   0.748  11.093 -0.5341 -0.3298 -0.0492
  919MPD2    N113460   1.031   0.566  11.503  0.3950 -0.1386  0.2597
  919MPD2    H713461   1.066   0.485  11.451 -0.0231  0.8485 -1.5321
  920MPD2     C13462   4.627   0.738  10.715  1.0153 -0.4291  0.1133
  920MPD2    C113463   4.680   0.649  10.625 -0.1442  0.0418 -0.0634
  920MPD2    C213464   0.096   0.623  10.634  0.2028  0.6225  0.6321
  920MPD2    C313465   0.177   0.696  10.717  0.7961 -0.3355 -0.5303
  920MPD2    C413466   0.123   0.782  10.812  0.3008  0.3341  0.3101
  920MPD2    C513467   4.711   0.800  10.809  1.0032 -0.3579  0.3705
  920MPD2     H13468   0.140   0.556  10.561 -2.2342 -1.0676  0.7152
  920MPD2    H113469   0.178   0.839  10.885  0.3213  1.0532 -0.2701
  920MPD2    H213470   4.524   0.769  10.703  0.5829 -2.4582 -1.5694
  920MPD2    H313471   4.670   0.872  10.880 -1.6854 -1.7361  0.2443
  920MPD2     N13472   0.318   0.663  10.713  0.5603 -0.1813  0.5226
  920MPD2    H513473   0.349   0.601  10.638  1.6403  0.3355  0.5397
  920MPD2    N113474   4.612   0.595  10.518 -0.0719  0.2668  0.5217
  920MPD2    H713475   4.674   0.542  10.458  0.8469 -0.8337  2.4777
  921MPD2     C13476   1.005   3.967  16.571  0.5263 -0.3163 -0.4739
  921MPD2    C113477   1.012   3.918  16.446  0.7936 -0.4832  0.2119
  921MPD2    C213478   0.893   3.874  16.389  1.1314  0.2467  0.2147
  921MPD2    C313479   0.765   3.900  16.451 -0.2219 -0.7119  0.3757
  921MPD2    C413480   0.764   3.947  16.583 -0.4743 -0.2821 -0.2325
  921MPD2    C513481   0.890   3.970  16.643  0.0812  0.6486 -0.1018
  921MPD2     H13482   0.888   3.826  16.292  0.6549 -0.8295  0.7606
  921MPD2    H113483   0.674   3.949  16.642 -0.6023  0.5272 -0.4567
  921MPD2    H213484   1.097   3.988  16.624 -0.3736 -1.5724  1.5939
  921MPD2    H313485   0.895   3.992  16.749  0.0879 -1.1620  0.2772
  921MPD2     N13486   0.655   3.871  16.371 -1.2015 -0.3894 -0.1896
  921MPD2    H513487   0.677   3.831  16.281  2.3010 -1.8192  1.2738
  921MPD2    N113488   1.142   3.910  16.387 -0.2700  0.0028  0.0155
  921MPD2    H713489   1.213   3.970  16.429  1.5313 -1.0175 -1.5676
  922MPD2     C13490   1.791   1.565   0.239  0.6017 -0.6937 -0.2386
  922MPD2    C113491   1.731   1.665   0.166  0.1648 -0.0284  0.6259
  922MPD2    C213492   1.735   1.661   0.032  0.1633  0.3359  0.5112
  922MPD2    C313493   1.781   1.554  17.647  0.0283  0.0877  0.4799
  922MPD2    C413494   1.826   1.445   0.034 -0.3111 -0.0961 -0.3713
  922MPD2    C513495   1.833   1.452   0.173 -0.1829 -0.0344 -0.1438
  922MPD2     H13496   1.693   1.745  17.662  0.0589  1.0407  1.6980
  922MPD2    H113497   1.850   1.349  17.675 -0.2129 -1.4318  2.7086
  922MPD2    H213498   1.798   1.559   0.347 -1.5332 -1.4503 -0.1592
  922MPD2    H313499   1.855   1.364   0.233  0.7326 -1.0571 -2.0000
  922MPD2     N13500   1.771   1.550  17.505  0.5020  0.6127 -0.4383
  922MPD2    H513501   1.737   1.633  17.459 -0.1297  1.2397  1.1637
  922MPD2    N113502   1.662   1.764   0.240  0.0298 -0.0887  0.2470
  922MPD2    H713503   1.685   1.778   0.338 -1.3418  2.2192  0.2566
  923MPD2     C13504   3.824   3.850   9.010  0.6291 -0.1279  0.6880
  923MPD2    C113505   3.869   3.958   9.078 -0.3537  1.1251 -0.3835
  923MPD2    C213506   3.980   3.948   9.162  0.1774 -0.5081  0.0601
  923MPD2    C313507   4.044   3.823   9.173 -0.0595  1.1715 -0.1928
  923MPD2    C413508   4.001   3.717   9.100  0.1404  0.3652  0.2504
  923MPD2    C513509   3.887   3.728   9.022  0.3687  0.3784  0.0646
  923MPD2     H13510   4.019   4.029   9.223  1.0681 -1.3584  0.6178
  923MPD2    H113511   4.043   3.620   9.125  0.5250  0.1800 -1.1449
  923MPD2    H213512   3.735   3.858   8.948  0.2114  0.8725  1.4243
  923MPD2    H313513   3.837   3.648   8.968  1.8415  1.4285 -2.8264
  923MPD2     N13514   4.149   3.795   9.263 -0.3915 -0.4980  0.4454
  923MPD2    H513515   4.181   3.699   9.255  2.0245  0.2789  0.5949
  923MPD2    N113516   3.786   4.067   9.060  0.4460  0.2747  0.2209
  923MPD2    H713517   3.698   4.054   9.011  0.8187 -1.8754  0.1080
  924MPD2     C13518   3.182   2.134  15.873  0.2218  0.0975 -0.4390
  924MPD2    C113519   3.114   2.175  15.986  0.4504 -0.2295  0.3525
  924MPD2    C213520   3.136   2.310  16.022 -0.7379 -0.2913 -0.6587
  924MPD2    C313521   3.188   2.402  15.935  0.6074  0.1976  0.0071
  924MPD2    C413522   3.248   2.357  15.815  0.0184  0.0613 -0.1513
  924MPD2    C513523   3.246   2.219  15.791  0.5081 -0.7865  0.8254
  924MPD2     H13524   3.083   2.352  16.107  1.5048 -1.0063  1.1183
  924MPD2    H113525   3.296   2.425  15.745  0.5514  0.2325  0.3859
  924MPD2    H213526   3.170   2.028  15.854 -1.1262 -0.0476  1.1864
  924MPD2    H313527   3.291   2.184  15.699 -0.7301  0.4600 -0.2546
  924MPD2     N13528   3.195   2.537  15.968 -0.0980  0.2941  0.1892
  924MPD2    H513529   3.238   2.595  15.896  1.4419  0.3546  1.1680
  924MPD2    N113530   3.046   2.077  16.063 -0.0545 -0.0987 -0.1144
  924MPD2    H713531   3.091   1.987  16.051 -0.3564 -0.3402  0.6036
  925MPD2     C13532   1.801   0.269  14.985  0.1509  0.7955  0.1316
  925MPD2    C113533   1.744   0.169  14.907  0.1145  0.5399 -0.5354
  925MPD2    C213534   1.618   0.122  14.944 -0.7136 -0.2389  0.0869
  925MPD2    C313535   1.558   0.166  15.059 -0.5598  0.5539 -0.2341
  925MPD2    C413536   1.616   0.270  15.137  0.6467 -0.1206  0.5718
  925MPD2    C513537   1.738   0.321  15.098 -0.3930 -0.1090  0.1704
  925MPD2     H13538   1.572   0.042  14.887 -2.0839  0.7628 -0.2087
  925MPD2    H113539   1.561   0.306  15.223  0.3380 -0.6814  0.6045
  925MPD2    H213540   1.891   0.319  14.948  1.7896 -2.0214  0.3066
  925MPD2    H313541   1.787   0.396  15.158 -0.2372  0.3145 -0.4869
  925MPD2     N13542   1.446   0.101  15.119 -0.1552  0.1385  0.0581
  925MPD2    H513543   1.427   0.124  15.216  0.1198 -0.1610  0.1822
  925MPD2    N113544   1.783   0.144  14.769  0.0356 -0.0458  0.2140
  925MPD2    H713545   1.720   0.089  14.713 -0.2382  0.0984  0.3803
  926MPD2     C13546   0.333   3.271  13.271  0.6971 -0.3041  0.0591
  926MPD2    C113547   0.357   3.403  13.311  0.5114  0.0695 -0.5910
  926MPD2    C213548   0.412   3.498  13.231 -0.1835 -0.4226  0.6334
  926MPD2    C313549   0.426   3.469  13.099  0.2413  0.5712  0.3818
  926MPD2    C413550   0.403   3.341  13.052 -0.2529 -0.7397  0.0617
  926MPD2    C513551   0.362   3.240  13.138 -0.4199 -0.6282  0.2864
  926MPD2     H13552   0.418   3.597  13.275 -2.1066 -0.3514  0.7357
  926MPD2    H113553   0.417   3.311  12.948  1.0913  0.8119 -0.2086
  926MPD2    H213554   0.297   3.189  13.332 -2.7412  0.8201 -0.4867
  926MPD2    H313555   0.352   3.139  13.098  1.5528 -1.4648  1.9099
  926MPD2     N13556   0.459   3.574  13.007  0.0288 -0.4191 -1.0057
  926MPD2    H513557   0.454   3.558  12.906 -0.9338 -0.3104 -0.9762
  926MPD2    N113558   0.322   3.438  13.444 -0.0774  0.2814  0.3505
  926MPD2    H713559   0.340   3.536  13.464  1.4901  0.0380  0.1317
  927MPD2     C13560   1.173   0.565   0.669  0.3263  0.4451  0.1602
  927MPD2    C113561   1.202   0.666   0.581  0.3468  0.3887  1.2210
  927MPD2    C213562   1.217   0.635   0.447  0.1993 -0.4962 -0.2091
  927MPD2    C313563   1.210   0.501   0.406 -0.8332  0.5605  0.4652
  927MPD2    C413564   1.196   0.398   0.489  0.5928  0.0825 -0.0289
  927MPD2    C513565   1.179   0.434   0.619 -0.4291  0.5971  0.2224
  927MPD2     H13566   1.222   0.714   0.374 -2.4103  0.8627  1.0950
  927MPD2    H113567   1.186   0.293   0.467 -2.1632  0.2050  0.6562
  927MPD2    H213568   1.150   0.591   0.772 -2.1983  0.8315 -0.4841
  927MPD2    H313569   1.175   0.353   0.692  2.9897 -0.0024 -0.2360
  927MPD2     N13570   1.213   0.471   0.262  0.2235 -0.0141 -0.6166
  927MPD2    H513571   1.228   0.553   0.204 -1.0532  0.8940  0.3313
  927MPD2    N113572   1.199   0.797   0.632 -0.3193 -0.3605 -0.3639
  927MPD2    H713573   1.172   0.805   0.730 -0.2333  0.4055 -0.4054
  928MPD2     C13574   2.924   3.713   0.702 -0.3989 -0.7973 -0.2231
  928MPD2    C113575   3.036   3.681   0.774  0.2022  0.5165 -0.0513
  928MPD2    C213576   3.159   3.666   0.711 -0.2186 -0.1870 -0.2972
  928MPD2    C313577   3.164   3.696   0.576 -0.3110 -0.0478  0.5999
  928MPD2    C413578   3.049   3.720   0.502 -0.1569  0.0830 -1.0934
  928MPD2    C513579   2.929   3.730   0.568  0.2923  0.1205  0.3391
  928MPD2     H13580   3.249   3.649   0.768  0.1553 -1.4372 -1.2732
  928MPD2    H113581   3.052   3.728   0.394  2.6402  0.2026 -0.9854
  928MPD2    H213582   2.830   3.725   0.755 -1.0712  0.4034 -1.6660
  928MPD2    H313583   2.840   3.753   0.512  0.9896 -0.5311 -1.0227
  928MPD2     N13584   3.281   3.700   0.497 -0.0922 -0.0323  0.0617
  928MPD2    H513585   3.266   3.704   0.397 -1.8599 -0.1707  0.3159
  928MPD2    N113586   3.025   3.681   0.916 -0.0857  0.3663 -0.3084
  928MPD2    H713587   2.950   3.729   0.963 -1.5249 -1.6268 -0.5571
  929MPD2     C13588   3.995   4.276  10.387 -0.4353  0.4652  0.0712
  929MPD2    C113589   3.903   4.196  10.457 -0.2682 -0.0948  0.2552
  929MPD2    C213590   3.802   4.134  10.385 -0.4065  0.0220  0.0325
  929MPD2    C313591   3.788   4.154  10.254 -0.1441 -0.2024  0.0738
  929MPD2    C413592   3.883   4.221  10.186 -0.2139  0.3371  0.2670
  929MPD2    C513593   3.990   4.275  10.252 -0.2965 -0.3499 -0.9920
  929MPD2     H13594   3.719   4.094  10.443 -0.8451  1.6133  0.4954
  929MPD2    H113595   3.876   4.229  10.078 -1.3584 -1.9823  0.1766
  929MPD2    H213596   4.076   4.329  10.435  0.5067 -1.6023  0.7459
  929MPD2    H313597   4.050   4.340  10.189 -0.1551 -0.0274 -0.5226
  929MPD2     N13598   3.669   4.119  10.194  0.3564  0.0395  0.6772
  929MPD2    H513599   3.655   4.163  10.103  1.1475  0.1706  0.6143
  929MPD2    N113600   3.928   4.161  10.593  0.3143  0.2530 -0.6043
  929MPD2    H713601   4.023   4.166  10.628 -0.0377  1.8647  0.0947
  930MPD2     C13602   0.540   1.322  13.750  0.3954 -0.1452  0.1946
  930MPD2    C113603   0.635   1.386  13.672  0.4690 -0.2719 -0.6151
  930MPD2    C213604   0.720   1.308  13.594 -0.4892  0.3481  0.4577
  930MPD2    C313605   0.703   1.174  13.592 -0.4542  1.0043  0.1264
  930MPD2    C413606   0.621   1.113  13.690 -0.2000  0.1046 -0.1535
  930MPD2    C513607   0.535   1.192  13.764  0.3404 -0.6042  0.0858
  930MPD2     H13608   0.802   1.364  13.550 -1.8552  1.4457 -0.6754
  930MPD2    H113609   0.617   1.005  13.695  0.6063 -0.0464 -2.5067
  930MPD2    H213610   0.468   1.388  13.798  0.4394  0.3259 -0.3782
  930MPD2    H313611   0.469   1.138  13.831 -1.8469 -0.2513 -1.8078
  930MPD2     N13612   0.787   1.091  13.518  0.3400  0.1245  0.2131
  930MPD2    H513613   0.773   0.992  13.536  0.1410  0.4654  1.9380
  930MPD2    N113614   0.636   1.528  13.659 -0.6761  0.2307  0.0852
  930MPD2    H713615   0.581   1.576  13.729  2.4712 -1.3568  3.6713
  931MPD2     C13616   0.844   1.419   1.108 -0.2206  0.3258 -0.3141
  931MPD2    C113617   0.851   1.302   1.039 -0.0561  0.2885 -0.0367
  931MPD2    C213618   0.742   1.218   1.038 -0.2621  0.3479  0.2531
  931MPD2    C313619   0.624   1.244   1.094 -1.0575 -0.0862 -0.2771
  931MPD2    C413620   0.615   1.366   1.159 -0.7278 -0.1544 -0.1149
  931MPD2    C513621   0.723   1.452   1.165  0.0239  0.0955  0.0729
  931MPD2     H13622   0.753   1.139   0.964 -1.8470  0.3786 -0.0185
  931MPD2    H113623   0.524   1.383   1.215 -0.7407  0.3505 -0.2924
  931MPD2    H213624   0.921   1.494   1.116  1.1304 -0.9852 -1.0069
  931MPD2    H313625   0.715   1.543   1.222  0.6796  0.6506 -0.7238
  931MPD2     N13626   0.514   1.154   1.094  0.0078 -0.0085  0.4830
  931MPD2    H513627   0.427   1.195   1.125  0.2648  1.6166 -0.9362
  931MPD2    N113628   0.970   1.274   0.974  0.3439  0.0801  0.7021
  931MPD2    H713629   1.028   1.356   0.962  1.0195 -0.4237  0.5589
  932MPD2     C13630   2.221   0.035  11.034 -0.2084 -0.5158  0.5484
  932MPD2    C113631   2.290   0.115  11.118  0.2428  0.5645  0.2166
  932MPD2    C213632   2.391   0.069  11.202 -0.1049 -0.6105  0.8945
  932MPD2    C313633   2.427   4.655  11.191 -0.2175 -0.3548 -0.2751
  932MPD2    C413634   2.361   4.570  11.107  0.1674 -0.2850  0.3730
  932MPD2    C513635   2.255   4.624  11.029  0.6221 -0.3599  0.5105
  932MPD2     H13636   2.445   0.133  11.271  0.7403  0.1877 -0.5033
  932MPD2    H113637   2.398   4.468  11.098 -2.2724 -0.7682 -4.5989
  932MPD2    H213638   2.143   0.072  10.969  1.4650  1.1104 -0.5446
  932MPD2    H313639   2.203   4.560  10.959 -0.3118 -0.0333  0.9115
  932MPD2     N13640   2.541   4.611  11.261 -0.3569 -0.0431  0.1310
  932MPD2    H513641   2.579   4.671  11.334 -0.2155 -1.7520  1.4663
  932MPD2    N113642   2.278   0.254  11.125 -0.3291  0.9114 -0.1041
  932MPD2    H713643   2.351   0.296  11.181  0.8520  0.6088 -1.4280
  933MPD2     C13644   2.507   3.761   1.314  0.2742  0.3349  0.3191
  933MPD2    C113645   2.627   3.813   1.364 -0.4005 -0.3605  0.0962
  933MPD2    C213646   2.623   3.943   1.416 -0.5224 -0.4976 -0.3841
  933MPD2    C313647   2.503   4.019   1.418 -0.0427  0.3187  0.1921
  933MPD2    C413648   2.386   3.966   1.361  0.0466 -0.1286 -0.0104
  933MPD2    C513649   2.385   3.834   1.316 -0.4584  0.5464 -0.2845
  933MPD2     H13650   2.713   3.991   1.454 -1.9467  1.8366  0.0550
  933MPD2    H113651   2.301   4.029   1.338  0.2822  0.6419  1.2259
  933MPD2    H213652   2.499   3.666   1.262  0.5245  0.8636 -0.6866
  933MPD2    H313653   2.300   3.802   1.258  0.7951 -0.8287 -1.3589
  933MPD2     N13654   2.509   4.156   1.466  1.1789  0.3885  0.3541
  933MPD2    H513655   2.600   4.192   1.495  1.9456 -0.4818 -0.9598
  933MPD2    N113656   2.748   3.749   1.342  0.3331 -0.0097  0.5805
  933MPD2    H713657   2.749   3.665   1.286 -0.0765 -1.2325  2.4120
  934MPD2     C13658   0.026   1.351   1.696 -0.3463  0.2030 -0.7024
  934MPD2    C113659   0.000   1.366   1.563 -0.2313  0.0543 -0.3857
  934MPD2    C213660   4.633   1.276   1.501  0.0999 -0.6115  0.2766
  934MPD2    C313661   4.546   1.200   1.577  0.0849  0.7204 -0.0905
  934MPD2    C413662   4.564   1.185   1.713 -0.2285 -0.7081 -0.4309
  934MPD2    C513663   4.671   1.255   1.764  0.1530 -0.1529  0.1618
  934MPD2     H13664   4.625   1.284   1.394  0.0312 -0.0893  0.3180
  934MPD2    H113665   4.505   1.123   1.780  0.6190 -0.2149  0.7648
  934MPD2    H213666   0.104   1.403   1.750 -0.0049 -1.5200  0.4344
  934MPD2    H313667   4.711   1.221   1.858 -1.0659 -1.1464  0.3035
  934MPD2     N13668   4.433   1.131   1.526 -1.0457 -0.4060  0.7254
  934MPD2    H513669   4.378   1.090   1.601  1.0915  1.3863  3.2477
  934MPD2    N113670   0.076   1.460   1.491  0.3825  0.2714 -0.1225
  934MPD2    H713671   0.055   1.458   1.392 -0.3537 -0.6037  0.0500
  935MPD2     C13672   4.373   0.966   0.565 -1.0556 -0.0772 -0.2090
  935MPD2    C113673   4.269   1.042   0.603 -0.8849  0.5171  0.5592
  935MPD2    C213674   4.215   1.025   0.730  0.4437  0.0626  0.3410
  935MPD2    C313675   4.281   0.947   0.822 -0.1061  0.1764 -0.4565
  935MPD2    C413676   4.386   0.861   0.783 -0.1502  0.1861  0.6126
  935MPD2    C513677   4.428   0.884   0.658  0.1909 -0.3557 -0.3017
  935MPD2     H13678   4.134   1.091   0.758 -0.2157 -0.2273 -0.8676
  935MPD2    H113679   4.443   0.802   0.854 -0.7371 -0.3013  0.6734
  935MPD2    H213680   4.406   0.967   0.462 -0.0536  0.9770  0.1139
  935MPD2    H313681   4.515   0.830   0.622 -0.0016 -1.9874  1.6762
  935MPD2     N13682   4.255   0.951   0.961 -0.0288 -0.6270  0.2736
  935MPD2    H513683   4.329   0.915   1.020 -0.3465 -0.3084  0.8693
  935MPD2    N113684   4.214   1.137   0.510 -0.0777 -0.8993  0.7481
  935MPD2    H713685   4.133   1.184   0.548  0.9676  2.1071 -0.8181
  936MPD2     C13686   2.599   3.977  12.328 -0.0210 -0.5819  0.3054
  936MPD2    C113687   2.665   3.925  12.436  0.0823  0.4621 -0.0816
  936MPD2    C213688   2.807   3.935  12.433 -0.2125 -0.5772 -0.4550
  936MPD2    C313689   2.865   3.992  12.323  0.1586 -0.7770 -0.5781
  936MPD2    C413690   2.797   4.042  12.219  0.1366  0.0459 -0.4900
  936MPD2    C513691   2.662   4.035  12.219 -0.0072  0.4951  0.1031
  936MPD2     H13692   2.870   3.893  12.510 -0.2761 -0.3188 -0.2648
  936MPD2    H113693   2.839   4.081  12.127 -2.1353  0.8905 -1.1759
  936MPD2    H213694   2.491   3.964  12.329 -0.0474 -0.4242 -0.4891
  936MPD2    H313695   2.612   4.061  12.127 -1.2656  0.5518  0.8028
  936MPD2     N13696   3.008   3.987  12.332  0.1359 -0.0188  0.2623
  936MPD2    H513697   3.047   3.938  12.412  2.6692  0.1984 -0.8348
  936MPD2    N113698   2.605   3.841  12.537 -0.0379 -0.0675 -0.4221
  936MPD2    H713699   2.665   3.816  12.615  1.0009 -1.3758 -1.6428
  937MPD2     C13700   0.961   4.616  11.390 -0.4742 -0.8045  0.5542
  937MPD2    C113701   1.043   0.009  11.385 -0.5220  0.0338  0.0363
  937MPD2    C213702   1.094   0.050  11.264  0.4438 -0.4840  0.6020
  937MPD2    C313703   1.085   4.683  11.152  0.6958 -0.2468  0.3095
  937MPD2    C413704   1.026   4.570  11.165  0.5909  0.2928 -0.1326
  937MPD2    C513705   0.964   4.528  11.283 -0.1558  0.7931 -0.1431
  937MPD2     H13706   1.149   0.143  11.265  1.1724 -0.9283  1.8163
  937MPD2    H113707   1.026   4.509  11.075 -1.1996 -1.3617  1.0053
  937MPD2    H213708   0.909   4.587  11.481  0.2506  0.9131  1.5130
  937MPD2    H313709   0.919   4.430  11.289 -0.3854  0.9891  1.4969
  937MPD2     N13710   1.146   0.017  11.038  0.0505 -0.2560  0.2391
  937MPD2    H513711   1.192   0.107  11.045  0.9467 -0.7083  0.2152
  937MPD2    N113712   1.051   0.106  11.488  0.5166 -0.8947  0.4130
  937MPD2    H713713   1.096   0.196  11.471 -0.5870  0.1617  3.1564
  938MPD2     C13714   2.824   0.575   0.509 -0.3135 -0.0509  0.7313
  938MPD2    C113715   2.874   0.659   0.611  0.2705 -1.0769 -0.1275
  938MPD2    C213716   2.921   0.599   0.727  0.3128  0.3061  0.6623
  938MPD2    C313717   2.919   0.463   0.741 -0.3545  0.6665  0.0008
  938MPD2    C413718   2.852   0.389   0.645  0.4540 -0.3410 -0.5731
  938MPD2    C513719   2.813   0.442   0.532 -0.4027  0.4028  0.2239
  938MPD2     H13720   2.963   0.663   0.804  0.3207 -0.5785  1.3894
  938MPD2    H113721   2.849   0.280   0.645  2.2473 -0.3845  0.9270
  938MPD2    H213722   2.806   0.611   0.409  2.1082 -0.8017  0.0176
  938MPD2    H313723   2.782   0.377   0.451  1.3655  0.9185 -0.8730
  938MPD2     N13724   2.968   0.391   0.855  0.3203 -0.0738 -0.4543
  938MPD2    H513725   2.963   0.290   0.850  1.3894 -0.0521 -2.2840
  938MPD2    N113726   2.872   0.797   0.597 -0.7802 -0.1986 -0.6474
  938MPD2    H713727   2.915   0.848   0.674 -1.3073 -0.9211  0.1135
  939MPD2     C13728   4.315   2.205   1.543 -0.0683  0.1948 -0.4358
  939MPD2    C113729   4.305   2.313   1.458 -0.0672  0.9981 -0.1105
  939MPD2    C213730   4.320   2.296   1.315  0.2637  0.0531 -0.3642
  939MPD2    C313731   4.340   2.167   1.271  0.2684 -0.4182 -0.0799
  939MPD2    C413732   4.352   2.062   1.359 -0.3533 -0.1083  0.0303
  939MPD2    C513733   4.345   2.082   1.492  0.4647  0.9930 -0.2707
  939MPD2     H13734   4.299   2.380   1.249  0.3047 -0.2152 -0.7172
  939MPD2    H113735   4.358   1.959   1.326  0.5385  0.3628 -1.2573
  939MPD2    H213736   4.321   2.210   1.651  1.0012  0.5117 -0.5052
  939MPD2    H313737   4.367   1.996   1.554 -0.7855  0.5445 -0.4508
  939MPD2     N13738   4.339   2.149   1.126  0.3868  0.1139 -0.0107
  939MPD2    H513739   4.345   2.237   1.075  2.5603 -0.7825 -1.2559
  939MPD2    N113740   4.289   2.433   1.524 -0.7281 -0.2220 -0.4332
  939MPD2    H713741   4.253   2.421   1.619 -1.8279 -0.0429 -0.8335
  940MPD2     C13742   3.632   2.794  12.824  0.4558 -0.2801  0.0547
  940MPD2    C113743   3.531   2.870  12.879 -0.4174 -0.1151  0.1222
  940MPD2    C213744   3.431   2.924  12.804  0.1685 -0.0141  0.0380
  940MPD2    C313745   3.427   2.906  12.667 -0.9989 -0.1805 -0.3923
  940MPD2    C413746   3.534   2.840  12.609  0.2168 -0.3165 -0.1434
  940MPD2    C513747   3.642   2.796  12.688  0.6168  0.5669 -0.1859
  940MPD2     H13748   3.357   2.982  12.857  2.4859  1.0871  2.0612
  940MPD2    H113749   3.536   2.813  12.504 -1.8098 -0.0256 -0.2550
  940MPD2    H213750   3.710   2.745  12.881  1.4297  1.0306 -0.1694
  940MPD2    H313751   3.723   2.755  12.630  1.0318 -0.4233  1.0983
  940MPD2     N13752   3.316   2.948  12.584 -0.3433 -0.4133  0.3032
  940MPD2    H513753   3.325   2.928  12.485  0.8136  0.0980  0.3067
  940MPD2    N113754   3.522   2.869  13.021  0.4977  0.1614  0.1326
  940MPD2    H713755   3.611   2.851  13.066  1.1050  1.8988 -0.3713
  941MPD2     C13756   3.027   2.460   9.181  0.2840  0.2207  0.4113
  941MPD2    C113757   3.100   2.359   9.236 -0.2847 -0.6078 -0.4792
  941MPD2    C213758   3.054   2.225   9.233 -0.6008 -0.2700 -0.2177
  941MPD2    C313759   2.931   2.192   9.179  0.7488 -0.4441 -0.3595
  941MPD2    C413760   2.863   2.293   9.115 -0.4415  0.0670  0.2183
  941MPD2    C513761   2.908   2.426   9.123  0.0262  0.3353  0.1449
  941MPD2     H13762   3.125   2.147   9.260 -0.7875  0.1663  1.4773
  941MPD2    H113763   2.774   2.263   9.062  0.0983 -1.0059 -0.0940
  941MPD2    H213764   3.051   2.566   9.177  1.9437 -0.2253 -1.1434
  941MPD2    H313765   2.846   2.509   9.091 -0.0772  0.0668 -0.3599
  941MPD2     N13766   2.883   2.066   9.160 -0.0723 -0.4122 -0.0884
  941MPD2    H513767   2.795   2.056   9.110  0.0729 -3.6958  0.2677
  941MPD2    N113768   3.225   2.384   9.299  0.1477 -0.4174 -0.5451
  941MPD2    H713769   3.277   2.307   9.337  0.0364 -0.9829 -1.5313
  942MPD2     C13770   2.439   4.419   9.299  0.0928  0.2196  0.8434
  942MPD2    C113771   2.530   4.508   9.343  0.4643 -0.1936  0.3901
  942MPD2    C213772   2.661   4.477   9.322 -0.5579 -0.6154  0.4058
  942MPD2    C313773   2.701   4.374   9.247  0.3305  0.2433  0.4850
  942MPD2    C413774   2.602   4.283   9.199  0.3004 -0.3482 -0.0823
  942MPD2    C513775   2.472   4.302   9.239  0.2012 -0.0858  0.2946
  942MPD2     H13776   2.738   4.545   9.356 -1.4341  0.4989  0.1763
  942MPD2    H113777   2.637   4.203   9.135  1.2278 -0.6937  0.8382
  942MPD2    H213778   2.331   4.429   9.306  0.1320 -0.1739  2.1385
  942MPD2    H313779   2.405   4.230   9.194 -0.1481  0.5680 -0.2211
  942MPD2     N13780   2.835   4.343   9.203 -0.5129 -0.6243  0.1300
  942MPD2    H513781   2.843   4.264   9.140 -0.6496 -0.6104  0.0933
  942MPD2    N113782   2.501   4.629   9.405  0.1355 -0.4817 -0.4408
  942MPD2    H713783   2.579   4.666   9.458 -0.4069 -0.4466  0.3370
  943MPD2     C13784   2.449   1.669   9.640 -0.2776  0.3014 -0.3221
  943MPD2    C113785   2.329   1.744   9.658  0.0111  0.1121 -0.4235
  943MPD2    C213786   2.331   1.858   9.739  0.1574  0.0936 -0.4666
  943MPD2    C313787   2.448   1.904   9.791 -0.6435  0.2792  0.5587
  943MPD2    C413788   2.561   1.833   9.774 -0.2549 -0.7241  0.2994
  943MPD2    C513789   2.560   1.716   9.702 -0.1588 -0.3482 -0.4521
  943MPD2     H13790   2.236   1.901   9.769 -0.2883 -0.5676 -0.9423
  943MPD2    H113791   2.654   1.855   9.827  0.6167 -0.4822 -1.3388
  943MPD2    H213792   2.446   1.577   9.585 -1.0581 -0.2770  0.6859
  943MPD2    H313793   2.655   1.665   9.690  0.5082  0.4703  1.3905
  943MPD2     N13794   2.447   2.012   9.888  0.4251  0.7923  0.3340
  943MPD2    H513795   2.529   2.021   9.947 -0.6143  0.7674  1.7911
  943MPD2    N113796   2.215   1.695   9.594 -0.4965  0.7295 -0.0232
  943MPD2    H713797   2.217   1.601   9.555  1.1723  1.5215 -1.8892
  944MPD2     C13798   1.717   1.257  10.810 -0.2766 -0.3463  0.2875
  944MPD2    C113799   1.812   1.330  10.873  0.0147 -0.3398  1.1464
  944MPD2    C213800   1.788   1.401  10.985  0.1206 -0.2766 -0.5636
  944MPD2    C313801   1.663   1.390  11.038  0.0115 -0.0917 -0.0898
  944MPD2    C413802   1.566   1.305  10.983 -0.0535  0.9709 -0.5203
  944MPD2    C513803   1.592   1.241  10.863 -0.1612  0.0800  0.3674
  944MPD2     H13804   1.863   1.468  11.026  1.7953 -2.9192  0.6636
  944MPD2    H113805   1.463   1.287  11.010  0.0053 -1.3937 -1.9415
  944MPD2    H213806   1.732   1.211  10.713  2.3951 -0.4961  0.7718
  944MPD2    H313807   1.514   1.184  10.815 -0.6528 -0.3192  1.6478
  944MPD2     N13808   1.629   1.464  11.153 -0.4129 -0.0137  0.6305
  944MPD2    H513809   1.707   1.519  11.189  0.5985 -1.3532  0.4653
  944MPD2    N113810   1.932   1.346  10.800  0.1403  0.1065 -0.7416
  944MPD2    H713811   1.937   1.300  10.710 -2.7905  1.6890 -1.7128
    1TCq1    O113812   3.908   1.350  13.875  0.1402  0.6232 -0.2783
    1TCq1    C113813   3.915   1.424  13.992 -0.6762 -0.6972  0.6449
    1TCq1    O213814   3.930   1.370  14.100 -0.3638  0.3845  0.1085
    1TCq1    C213815   3.914   1.566  13.961  0.0607 -0.0329  0.1506
    1TCq1    C313816   3.839   1.630  13.865  0.5202  0.0577 -0.2038
    1TCq1    C413817   3.825   1.770  13.860 -0.0922 -0.4222  0.9142
    1TCq1    C513818   3.898   1.845  13.950 -0.2518 -0.0066 -0.4345
    1TCq1    C613819   3.964   1.780  14.052 -0.5089  0.1609  0.0471
    1TCq1    C713820   3.961   1.642  14.062 -0.2226 -0.3716 -0.3439
    1TCq1    C813821   3.994   1.854  14.176 -0.0057 -0.5719  0.9539
    1TCq1    O413822   3.991   1.801  14.287  0.1161  0.2298 -0.3403
    1TCq1    C913823   3.745   1.839  13.771 -0.0937  0.5029  0.5917
    1TCq1    O513824   3.681   1.766  13.693 -1.0209 -0.3221 -0.3327
    1TCq1    O613825   3.729   1.959  13.800  0.3333 -0.0481  0.0603
    1TCq1    H113826   3.902   1.401  13.791  2.8051  1.4996  0.0904
    1TCq1    H213827   3.794   1.577  13.781 -0.0298 -0.4726  0.4311
    1TCq1    H313828   3.893   1.954  13.944 -1.9929  0.0400  2.1563
    1TCq1    H413829   4.003   1.593  14.149 -2.9087  0.8157  1.6124
    2MPD2     C13830   4.180   2.281  14.388 -0.2945  0.5241 -0.2582
    2MPD2    C113831   4.149   2.307  14.257  0.3206 -0.0822  0.5619
    2MPD2    C213832   4.104   2.207  14.166 -0.6884 -0.8896  0.4201
    2MPD2    C313833   4.092   2.077  14.220  0.5156 -0.5215  0.9732
    2MPD2    C413834   4.123   2.057  14.352 -0.4466  0.1139  0.1958
    2MPD2    C513835   4.175   2.153  14.436  0.0067  0.8241  0.8837
    2MPD2     H13836   4.095   2.216  14.058 -1.2234 -0.5248  0.4948
    2MPD2    H113837   4.136   1.952  14.376  1.2423 -0.0105 -1.3378
    2MPD2    H213838   4.228   2.355  14.450 -0.7807 -0.1844  0.9619
    2MPD2    H313839   4.211   2.126  14.535 -0.4566 -2.1464  0.2426
    2MPD2     N13840   4.043   1.976  14.135 -0.3958 -0.1923  0.3759
    2MPD2    H513841   4.042   1.984  14.034  0.0639 -0.5286  0.3470
    2MPD2    N113842   4.195   2.439  14.217  0.0849 -0.1993  0.0853
    2MPD2    H713843   4.251   2.490  14.285  2.9578 -2.3363 -0.6870
    3TMC2    C113844   4.237   2.638  14.097  0.3333 -0.1725  0.5055
    3TMC2    C213845   4.267   2.692  14.222 -0.7733  0.1400 -0.1100
    3TMC2    C313846   4.319   2.818  14.230 -0.1177 -0.9124  0.6958
    3TMC2    C413847   4.262   2.700  13.982  0.4970  0.2242  0.4771
    3TMC2    C513848   4.311   2.824  13.994  0.4074  0.5280  0.8899
    3TMC2    C613849   4.340   2.885  14.115 -0.3022 -0.0949  0.6495
    3TMC2     C13850   4.199   2.498  14.096  0.4139 -0.3013  0.1640
    3TMC2     O13851   4.164   2.444  13.990  0.3965 -0.2104  0.4069
    3TMC2     H13852   4.222   2.655  14.313 -0.2618 -0.8273 -0.2461
    3TMC2    H113853   4.241   2.660  13.884  0.6006  0.5135  0.3362
    3TMC2    H213854   4.400   2.974  14.128 -1.5695  0.8733 -0.1115
    3TMC2    C713855   4.319   2.908  13.871  0.5941 -0.0978 -0.3704
    3TMC2    C813856   4.365   2.865  14.358 -0.6007 -0.1672  0.3138
    3TMC2    O113857   4.334   2.846  13.769 -0.3883 -0.2116  0.6799
    3TMC2    O213858   4.402   2.980  14.375 -0.9343  0.1626  0.0926
    3TMC2    O513859   4.425   2.760  14.426  0.3572  0.5708  0.6454
    3TMC2    H513860   4.413   2.672  14.384  1.9843  0.4772  0.3828
    4MPD2     C13861   3.091   3.537  13.812 -0.5686 -0.6215  0.3524
    4MPD2    C113862   3.143   3.569  13.691  0.4178  0.4496  0.0152
    4MPD2    C213863   3.278   3.569  13.677 -0.4010 -0.6143 -0.7183
    4MPD2    C313864   3.369   3.557  13.781 -0.2243 -0.7199 -0.0406
    4MPD2    C413865   3.322   3.526  13.907  0.4171  0.2721  0.1812
    4MPD2    C513866   3.182   3.528  13.918 -0.9084 -0.0872  0.0968
    4MPD2     H13867   3.324   3.604  13.585  0.4939  0.4347  0.1267
    4MPD2    H113868   3.392   3.515  13.989 -2.3933 -2.7967  2.1757
    4MPD2    H213869   2.986   3.518  13.830 -0.8765  0.7447 -0.0179
    4MPD2    H313870   3.144   3.510  14.018  0.6911 -0.9028  0.5548
    4MPD2     N13871   3.501   3.587  13.756 -0.1537  0.5822  0.3755
    4MPD2    H513872   3.521   3.602  13.658  1.0959 -0.0628  0.5294
    4MPD2    N113873   3.054   3.590  13.576  0.1609  0.1734 -0.0379
    4MPD2    H713874   2.960   3.554  13.589  0.0135 -0.1727 -1.9958
    5TCq2    C113875   3.602   3.593  13.849 -0.2846 -0.6920  0.1821
    5TCq2    O213876   3.605   3.587  13.974 -0.0274  0.1287  1.2813
    5TCq2    C213877   3.725   3.645  13.793 -0.0172 -0.0269  0.4513
    5TCq2    C313878   3.730   3.703  13.673 -0.0218 -0.2393 -0.4881
    5TCq2    C413879   3.853   3.719  13.611 -0.0517  0.4190  0.7009
    5TCq2    C513880   3.966   3.669  13.674 -0.0163 -0.0254  0.8928
    5TCq2    C613881   3.953   3.605  13.793  0.4740 -0.0260 -0.0699
    5TCq2    C713882   3.832   3.593  13.852  0.0444  0.5517  1.0274
    5TCq2    C813883   4.048   3.505  13.836 -0.2900  0.1462 -0.4032
    5TCq2    O413884   4.035   3.458  13.949 -0.9187  0.4776 -0.0428
    5TCq2    C913885   3.867   3.775  13.476  0.1241  0.2187  0.0090
    5TCq2    O513886   3.979   3.760  13.419  0.6336  0.0805 -0.6351
    5TCq2    O613887   3.765   3.821  13.419 -0.1787 -0.6188  0.0863
    5TCq2    H213888   3.640   3.749  13.632  0.4417  0.2860 -0.9254
    5TCq2    H313889   4.059   3.679  13.618 -1.2598 -3.6677 -1.7442
    5TCq2    H413890   3.818   3.536  13.943  0.7736 -1.3984 -0.0655
    6MPD1     C13891   2.492   0.244  12.394  0.3211  1.2234  0.0492
    6MPD1    C113892   2.608   0.190  12.341 -0.0794 -0.3886  0.2253
    6MPD1    C213893   2.655   0.071  12.386 -0.6431  0.2246 -0.1996
    6MPD1    C313894   2.587   0.005  12.487  0.6297 -0.0865 -0.7903
    6MPD1    C413895   2.462   0.054  12.538 -1.0976  0.2714  0.1811
    6MPD1    C513896   2.420   0.176  12.490  0.6151  0.3418 -0.0729
    6MPD1     H13897   2.730   0.027  12.322 -0.4695  0.3267 -0.0653
    6MPD1    H113898   2.407   4.719  12.612 -0.1844 -0.8062  0.0331
    6MPD1    H213899   2.454   0.339  12.359 -0.5284  0.7479 -0.3091
    6MPD1    H313900   2.328   0.220  12.526 -0.5851 -1.9780 -0.2901
    6MPD1     N13901   2.627   4.597  12.544  0.3473 -0.1866 -0.0207
    6MPD1    H513902   2.562   4.538  12.595  0.5595 -1.9626 -1.7807
    6MPD1    N113903   2.656   0.250  12.220 -0.7559 -0.5164  0.3819
    6MPD1    H613904   2.751   0.225  12.194 -1.0466 -2.1960  0.9131
    6MPD1    H713905   2.647   0.350  12.207  0.3789 -0.3664  0.7728
    7MPD2     C13906   2.385   3.921  12.878  0.9811 -0.2973 -0.3695
    7MPD2    C113907   2.510   3.965  12.925 -0.2935 -0.2868 -0.0989
    7MPD2    C213908   2.582   3.883  13.007 -0.5823 -0.2934 -0.3298
    7MPD2    C313909   2.526   3.766  13.055  0.4044 -0.0572  0.4610
    7MPD2    C413910   2.403   3.734  13.014  0.0998  0.0839  0.8851
    7MPD2    C513911   2.334   3.814  12.929  0.4896 -0.1957 -0.2431
    7MPD2     H13912   2.672   3.925  13.050 -0.0441 -2.7928  0.9249
    7MPD2    H113913   2.352   3.642  13.041  0.3231 -0.8303 -1.8103
    7MPD2    H213914   2.324   3.976  12.807  1.1957  1.2257  0.6270
    7MPD2    H313915   2.232   3.786  12.902  0.3201  1.0489 -0.8732
    7MPD2     N13916   2.594   3.674  13.136 -0.3517  0.5869  0.5865
    7MPD2    H513917   2.567   3.577  13.127  1.2598  0.0181  1.8382
    7MPD2    N113918   2.578   4.081  12.874  0.5706  0.2394 -0.2081
    7MPD2    H713919   2.668   4.101  12.917  0.0629  1.7341  0.1633
    8TMC3    C113920   2.790   3.609  13.249  0.1977  0.2899 -0.4106
    8TMC3    C213921   2.872   3.642  13.359  0.5486  0.2847  0.0028
    8TMC3    C313922   3.003   3.609  13.338  0.2768  1.3525 -0.1157
    8TMC3    C413923   2.833   3.540  13.141 -0.0670 -0.0631  0.1895
    8TMC3    C513924   2.966   3.545  13.121  0.4603 -0.2004  0.7479
    8TMC3    C613925   3.056   3.574  13.221  0.1938  0.0350  0.6087
    8TMC3     C13926   2.694   3.711  13.225 -0.3428  0.1720  0.1118
    8TMC3     O13927   2.731   3.824  13.252  0.2344 -0.2455 -0.4897
    8TMC3     H13928   2.828   3.665  13.455 -0.5524  1.5429 -0.7988
    8TMC3    H113929   2.767   3.528  13.055 -0.6727  0.9387  0.5243
    8TMC3    H213930   3.165   3.580  13.222  0.2202 -0.4382  0.8270
    8TMC3    C713931   2.995   3.629  13.002  0.1819  0.1791 -0.2342
    8TMC3    C813932   3.099   3.632  13.450  1.3469 -0.1121 -0.0958
    8TMC3    O113933   2.903   3.652  12.924  0.2515 -0.1909  0.1480
    8TMC3    O213934   3.211   3.672  13.424 -0.1807  0.4367 -0.7140
    9TMC3    C113935   2.746   4.406  12.591 -0.0890  0.1279 -0.1939
    9TMC3    C213936   2.865   4.339  12.590  0.0170 -0.0733 -0.1046
    9TMC3    C313937   2.880   4.218  12.656 -0.0775  0.6582 -0.6271
    9TMC3    C413938   2.630   4.348  12.645  0.2386 -0.2870 -0.4094
    9TMC3    C513939   2.648   4.229  12.714  0.1676 -0.0725  0.2765
    9TMC3    C613940   2.774   4.164  12.723 -0.0389 -0.2369  0.0038
    9TMC3     C13941   2.747   4.531  12.521 -0.1897  0.5387  0.0735
    9TMC3     O13942   2.850   4.560  12.458  0.0997  0.1031 -0.1330
    9TMC3     H13943   2.952   4.375  12.535 -0.5941  0.9571 -0.3810
    9TMC3    H113944   2.525   4.373  12.630  1.1222  4.0008  0.6146
    9TMC3    H213945   2.782   4.061  12.755 -0.3646 -0.4047 -0.4577
    9TMC3    C713946   2.539   4.161  12.777 -0.1343  0.6630 -0.6863
    9TMC3    C813947   3.015   4.163  12.670 -0.2947  0.2273 -0.1865
    9TMC3    O113948   2.431   4.184  12.723  0.6933 -0.6568 -0.1252
    9TMC3    O213949   3.108   4.217  12.611 -0.3514  0.5749  0.4737
   10MPD2     C13950   3.307   3.790  12.899  0.0395  0.0322  0.7041
   10MPD2    C113951   3.172   3.775  12.924 -0.2824  0.0551 -0.6915
   10MPD2    C213952   3.088   3.868  12.874  0.6908 -0.7108  0.1391
   10MPD2    C313953   3.123   3.976  12.794  0.0173  0.0118  0.3257
   10MPD2    C413954   3.256   3.986  12.762 -0.3883 -0.0468 -0.5133
   10MPD2    C513955   3.348   3.899  12.815 -0.2300  0.1458  0.0152
   10MPD2     H13956   2.984   3.858  12.901  0.5142 -0.6966 -0.5267
   10MPD2    H113957   3.289   4.067  12.698  1.9594 -1.8181 -1.5401
   10MPD2    H213958   3.381   3.718  12.933  0.8575  0.6525  0.2681
   10MPD2    H313959   3.452   3.915  12.789 -0.5017  0.8548 -0.6277
   10MPD2     N13960   3.017   4.065  12.763 -0.1764 -0.5250  0.0613
   10MPD2    H513961   2.926   4.043  12.803  0.0260  0.5754  1.1088
   10MPD2    N113962   3.125   3.670  13.003  0.5144  0.2935 -0.0452
   10MPD2    H713963   3.191   3.612  13.055 -1.1164  2.0217  3.9955
   11MPD2     C13964   4.337   3.123  13.672  0.2996 -1.0340  0.4047
   11MPD2    C113965   4.279   3.140  13.797 -0.1747  0.3887  0.4028
   11MPD2    C213966   4.208   3.257  13.823 -0.5923 -0.0292  0.4555
   11MPD2    C313967   4.190   3.343  13.716 -0.2208 -0.4357 -0.1836
   11MPD2    C413968   4.249   3.326  13.593 -0.1367  0.0815  0.2177
   11MPD2    C513969   4.318   3.211  13.573 -0.3311 -0.3554 -0.2000
   11MPD2     H13970   4.171   3.273  13.923  1.2561  1.0102  0.9828
   11MPD2    H113971   4.236   3.396  13.511  3.9401  1.4354  0.7227
   11MPD2    H213972   4.401   3.042  13.641  0.4568 -0.7559 -0.0023
   11MPD2    H313973   4.365   3.188  13.478 -0.9090  0.4410 -0.6796
   11MPD2     N13974   4.121   3.463  13.730 -0.0159 -0.1975 -0.2663
   11MPD2    H513975   4.118   3.526  13.651 -0.7453  0.0532 -0.0320
   11MPD2    N113976   4.286   3.041  13.899 -0.0311 -0.5117 -0.6793
   11MPD2    H713977   4.264   3.064  13.995 -2.4996 -0.4071 -1.2610
    1MPD1     C13978   2.205   4.214  15.817  0.0447 -0.0957  0.1125
    1MPD1    C113979   2.191   4.331  15.887  0.3433 -0.0942 -0.1998
    1MPD1    C213980   2.294   4.377  15.974 -0.0189 -0.1522 -0.0574
    1MPD1    C313981   2.396   4.289  16.003 -0.1700  0.5087 -0.0835
    1MPD1    C413982   2.405   4.165  15.941 -0.0281 -0.6690  0.5200
    1MPD1    C513983   2.318   4.133  15.841 -0.3767 -0.5718  0.4523
    1MPD1     H13984   2.289   4.477  16.016 -1.4204 -0.6222  0.8793
    1MPD1    H113985   2.498   4.111  15.950 -0.2191 -0.5079  3.4680
    1MPD1    H213986   2.135   4.175  15.744 -0.9237 -1.6152  1.8482
    1MPD1    H313987   2.353   4.045  15.789 -2.1122  0.3361 -2.2155
    1MPD1     N13988   2.489   4.310  16.103 -0.0619 -0.3190 -0.2614
    1MPD1    H513989   2.553   4.233  16.124  0.7332  0.7074  1.0677
    1MPD1    N113990   2.069   4.403  15.862  0.8492  0.0806 -0.5836
    1MPD1    H613991   2.047   4.463  15.941 -2.1320  1.4138 -2.4148
    1MPD1    H713992   1.988   4.342  15.849  1.4894 -0.9454  0.1874
    2MPD1     C13993   2.390   4.573  16.979 -0.0201 -0.7992  0.1285
    2MPD1    C113994   2.318   4.525  16.877 -0.5260 -0.5581 -0.3291
    2MPD1    C213995   2.389   4.506  16.756 -0.2905  0.0145 -0.5908
    2MPD1    C313996   2.520   4.527  16.743  0.0658 -0.8983  0.0080
    2MPD1    C413997   2.590   4.577  16.847 -0.3526 -0.0506 -0.6226
    2MPD1    C513998   2.521   4.602  16.962 -0.7568  0.3955  0.2297
    2MPD1     H13999   2.323   4.506  16.670  0.3438  3.4224 -1.0763
    2MPD1    H114000   2.690   4.616  16.833 -0.0129 -1.0952 -1.1022
    2MPD1    H214001   2.339   4.605  17.069 -0.5791  2.4461 -1.3514
    2MPD1    H314002   2.569   4.645  17.049  2.0897  0.4789 -1.3855
    2MPD1     N14003   2.571   4.500  16.620  0.5926 -0.4731  0.7828
    2MPD1    H514004   2.510   4.464  16.547  0.5047 -1.2758  1.2595
    2MPD1    N114005   2.176   4.510  16.877  0.0722 -0.4663  1.0151
    2MPD1    H614006   2.132   4.457  16.803 -0.9242 -0.1908  1.4157
    2MPD1    H714007   2.135   4.482  16.966 -0.1455 -3.3199 -0.0124
    3TMC3    C114008   2.736   4.462  16.458  0.0411  0.4480 -0.4782
    3TMC3    C214009   2.841   4.381  16.431  0.1113 -0.0607 -0.1014
    3TMC3    C314010   2.843   4.316  16.310  0.1430 -0.2628 -0.9267
    3TMC3    C414011   2.635   4.488  16.365  0.2860 -0.1654  0.3576
    3TMC3    C514012   2.641   4.422  16.245  0.2129 -0.0731  0.6096
    3TMC3    C614013   2.743   4.333  16.213  0.0915  0.7819  0.4560
    3TMC3     C14014   2.715   4.504  16.595 -0.7846  0.3191 -0.3641
    3TMC3     O14015   2.805   4.499  16.676 -0.4543  0.5204 -0.9554
    3TMC3     H14016   2.913   4.372  16.511 -0.9254 -0.1069  0.8392
    3TMC3    H114017   2.548   4.550  16.384  0.7597  0.4186  0.5865
    3TMC3    H214018   2.746   4.273  16.123 -1.2649  1.0777  0.2290
    3TMC3    C714019   2.514   4.426  16.172 -0.8386  0.3834  0.0852
    3TMC3    C814020   2.969   4.255  16.257  0.7070  0.6058 -0.5320
    3TMC3    O114021   2.448   4.529  16.176  0.2297 -0.2523  0.4602
    3TMC3    O214022   2.971   4.225  16.138  0.5227  0.1779 -0.5049
    4MPD1     C14023   3.473   4.157  16.299  0.6726  0.1403 -0.0671
    4MPD1    C114024   3.419   4.140  16.416  0.2400  0.7857  0.2774
    4MPD1    C214025   3.289   4.181  16.428  0.2608 -0.0084 -0.1286
    4MPD1    C314026   3.208   4.211  16.322  0.2542  0.1030  0.6249
    4MPD1    C414027   3.265   4.213  16.201 -0.1363 -0.0404  0.1324
    4MPD1    C514028   3.399   4.184  16.184 -0.2894 -0.5276  0.6770
    4MPD1     H14029   3.251   4.180  16.529 -1.9037 -1.0040 -0.9593
    4MPD1    H114030   3.217   4.240  16.108 -1.5055 -0.6320  0.6683
    4MPD1    H214031   3.580   4.146  16.293  0.4310 -1.6687 -1.2268
    4MPD1    H314032   3.442   4.195  16.085 -0.9487  0.7561  0.5263
    4MPD1     N14033   3.072   4.246  16.348 -0.1060  0.7299 -0.6609
    4MPD1    H514034   3.046   4.242  16.447  0.0380 -0.3328 -0.6627
    4MPD1    N114035   3.495   4.119  16.530  0.4744  0.1382  0.5362
    4MPD1    H614036   3.452   4.053  16.594  0.5292 -0.1005  0.3265
    4MPD1    H714037   3.572   4.062  16.495  0.5514  1.0053 -0.6793
    1TCq1    O114038   2.960   0.069  12.204 -0.7167  0.0987  0.8473
    1TCq1    C114039   2.945   0.055  12.070  0.7066  0.2026  0.8507
    1TCq1    O214040   2.886   0.131  11.994 -0.0719 -0.5197  0.7636
    1TCq1    C214041   3.052   4.688  12.023 -0.1740  0.1829  0.7029
    1TCq1    C314042   3.099   4.711  11.897  0.3185 -0.0729 -0.3767
    1TCq1    C414043   3.175   4.616  11.833  0.0792  0.3947  0.0738
    1TCq1    C514044   3.241   4.524  11.913  0.4288  0.1457  0.0813
    1TCq1    C614045   3.204   4.514  12.047 -0.1991  0.1307  0.6479
    1TCq1    C714046   3.108   4.591  12.104  0.0234 -0.5054 -0.5885
    1TCq1    C814047   3.276   4.423  12.135  0.2885 -0.3966 -0.3262
    1TCq1    O414048   3.226   4.397  12.243 -0.4269  0.1222  0.0858
    1TCq1    C914049   3.221   4.644  11.696  0.0635  0.0861  0.4540
    1TCq1    O514050   3.164   0.013  11.629  0.1245  0.0174 -0.1777
    1TCq1    O614051   3.305   4.562  11.645  0.0798 -0.8366  0.4276
    1TCq1    H114052   3.037   0.020  12.241 -0.1113 -0.0230 -0.5465
    1TCq1    H214053   3.043   0.051  11.826 -0.1312  0.2432  0.2442
    1TCq1    H314054   3.308   4.448  11.875 -0.1883  0.8683 -2.5240
    1TCq1    H414055   3.079   4.579  12.208 -0.9091  2.5204 -0.4881
    2MPD1     C14056   3.730   4.189  12.222 -0.0781  0.1398 -0.3774
    2MPD1    C114057   3.750   4.305  12.145  0.6524 -0.2658 -0.0141
    2MPD1    C214058   3.638   4.367  12.092  0.7453  0.1543  0.1525
    2MPD1    C314059   3.514   4.333  12.145  0.3171  0.4577 -0.0730
    2MPD1    C414060   3.505   4.249  12.250 -0.1695 -0.0958  0.4374
    2MPD1    C514061   3.611   4.167  12.282 -0.0167 -0.0305 -0.4898
    2MPD1     H14062   3.645   4.437  12.010  1.2994 -0.0617  0.0189
    2MPD1    H114063   3.407   4.235  12.294 -0.6544  1.3806 -0.1510
    2MPD1    H214064   3.814   4.126  12.248  0.0535  0.1822 -0.6915
    2MPD1    H314065   3.604   4.087  12.354 -1.0000 -0.0917 -0.6517
    2MPD1     N14066   3.406   4.407  12.089  0.2858  0.4956  0.5340
    2MPD1    H514067   3.434   4.458  12.006 -0.2095 -0.2190 -0.0757
    2MPD1    N114068   3.877   4.324  12.078 -0.7529  0.4000  0.0577
    2MPD1    H614069   3.903   4.418  12.048 -2.4221  0.6886 -0.5102
    2MPD1    H714070   3.951   4.306  12.146  1.6542 -0.6583 -2.8410
    1TCq1    O114071   1.335   2.785   9.151  0.1373 -0.1288  0.1706
    1TCq1    C114072   1.403   2.899   9.185 -1.3112 -0.1868  0.3601
    1TCq1    O214073   1.352   3.011   9.179 -0.3886  0.3021  0.2699
    1TCq1    C214074   1.510   2.871   9.282 -0.8268  0.4791 -0.2658
    1TCq1    C314075   1.533   2.736   9.309 -0.0534 -0.2822 -1.0038
    1TCq1    C414076   1.647   2.711   9.380  0.2854  0.8671  0.6459
    1TCq1    C514077   1.745   2.804   9.369  0.8330  0.0152  0.1209
    1TCq1    C614078   1.726   2.931   9.333 -0.0238 -1.3147  0.6718
    1TCq1    C714079   1.595   2.973   9.308 -0.1179  0.3388 -0.4901
    1TCq1    C814080   1.824   3.035   9.336 -0.2055  0.6570  0.4031
    1TCq1    O414081   1.774   3.139   9.306 -0.0090 -0.1023 -0.2312
    1TCq1    C914082   1.681   2.576   9.411 -1.0385  0.4910  0.1129
    1TCq1    O514083   1.578   2.507   9.433  0.4722 -0.3159  0.3211
    1TCq1    O614084   1.801   2.542   9.398  0.5078  0.7071  0.2129
    1TCq1    H114085   1.391   2.705   9.144 -0.4474 -0.4476 -0.7828
    1TCq1    H214086   1.446   2.674   9.331  0.3175  0.1028  1.6334
    1TCq1    H314087   1.843   2.760   9.383  0.7503 -0.1274  0.2524
    1TCq1    H414088   1.563   3.066   9.262  0.0067  0.0617 -1.1458
    2MPD1     C14089   2.276   3.240   9.451  0.2941  0.5314  0.5613
    2MPD1    C114090   2.279   3.110   9.493  0.3852  0.3968  0.4067
    2MPD1    C214091   2.160   3.034   9.482  0.0766 -0.1399 -0.0406
    2MPD1    C314092   2.056   3.081   9.406 -0.2079  0.0117  0.5917
    2MPD1    C414093   2.058   3.210   9.367 -0.3163  0.0852 -0.4587
    2MPD1    C514094   2.172   3.286   9.386 -0.0215 -0.6834 -0.4709
    2MPD1     H14095   2.157   2.933   9.520 -1.1224  0.2383  0.8537
    2MPD1    H114096   1.976   3.252   9.309 -1.3027 -0.5349  0.4935
    2MPD1    H214097   2.356   3.308   9.478 -2.6794  3.1471  2.6892
    2MPD1    H314098   2.168   3.388   9.349  3.8029 -1.3381 -2.6070
    2MPD1     N14099   1.949   2.996   9.372  0.5117 -0.2268 -0.0859
    2MPD1    H514100   1.968   2.900   9.400  1.0258 -0.1839 -0.2880
    2MPD1    N114101   2.386   3.058   9.573 -0.4455  0.1686 -0.0647
    2MPD1    H614102   2.411   2.964   9.546 -2.1717 -0.2162 -0.3494
    2MPD1    H714103   2.470   3.115   9.568 -0.5401  0.0067 -3.0333
    1MPD1     C14104   4.711   3.815  11.567 -0.1741 -0.1488  0.0395
    1MPD1    C114105   0.004   3.950  11.547  0.6383  0.0557 -0.2211
    1MPD1    C214106   0.006   4.018  11.666 -0.5867  0.0969 -0.5405
    1MPD1    C314107   4.708   3.960  11.789 -1.1060  0.1222  0.3505
    1MPD1    C414108   4.684   3.822  11.800 -0.0646  0.3830 -0.6835
    1MPD1    C514109   4.694   3.745  11.683  0.3845 -0.1759 -0.3840
    1MPD1     H14110   0.014   4.126  11.652  1.3533  0.0515  0.3491
    1MPD1    H114111   4.684   3.773  11.896  3.5188  0.5696 -0.5664
    1MPD1    H214112   0.022   3.743  11.492  0.7628  1.5487 -1.1907
    1MPD1    H314113   4.689   3.637  11.693 -1.6860 -0.1444 -1.0750
    1MPD1     N14114   4.711   4.039  11.910 -0.2614  0.2476 -0.4023
    1MPD1    H514115   0.023   4.134  11.901 -3.0156  1.0947 -1.3600
    1MPD1    N114116   0.040   4.003  11.419  0.4032  0.1708 -0.2988
    1MPD1    H614117   4.709   3.965  11.340 -0.0157 -0.1349  0.1280
    1MPD1    H714118   0.013   4.101  11.408  0.2522  0.1741  0.1170
    2MPD1     C14119   3.769   0.501  11.197 -0.3890 -0.2050 -0.1059
    2MPD1    C114120   3.787   0.392  11.123 -0.1949 -0.5646  0.3389
    2MPD1    C214121   3.914   0.373  11.068 -0.1272 -0.1937  0.1142
    2MPD1    C314122   4.017   0.466  11.097 -0.0884 -0.5005 -0.2171
    2MPD1    C414123   3.992   0.561  11.193  0.0568  0.0886 -0.5325
    2MPD1    C514124   3.868   0.580  11.243 -0.1699  0.3291 -1.5430
    2MPD1     H14125   3.932   0.288  11.003  2.3773  1.1399 -0.9533
    2MPD1    H114126   4.065   0.632  11.231  0.7612 -1.6872  1.5123
    2MPD1    H214127   3.666   0.522  11.223 -0.0081  0.7005  0.6457
    2MPD1    H314128   3.846   0.665  11.306  2.4734 -0.6883  0.7144
    2MPD1     N14129   4.145   0.462  11.039 -0.3852 -0.0118 -0.2260
    2MPD1    H514130   4.217   0.523  11.075  1.1782 -2.0249  0.0332
    2MPD1    N114131   3.677   0.311  11.102  0.3051 -0.2189 -0.0025
    2MPD1    H614132   3.625   0.311  11.189  0.1180  0.7957 -0.1117
    2MPD1    H714133   3.713   0.216  11.090 -1.2108 -0.8367  0.3316
    3MPD1     C14134   4.506   4.578  10.303 -0.2040  0.9339  0.2918
    3MPD1    C114135   4.390   4.589  10.380 -0.6514 -0.5512 -0.2506
    3MPD1    C214136   4.385   4.687  10.477  0.4707 -0.4644  0.6426
    3MPD1    C314137   4.489   0.051  10.500 -0.0135 -0.5757 -0.1859
    3MPD1    C414138   4.608   0.027  10.435 -0.3794  0.6831  0.6059
    3MPD1    C514139   4.616   4.660  10.333 -0.1703  0.4580  0.1477
    3MPD1     H14140   4.296   4.701  10.537  0.1622  1.6339 -0.2978
    3MPD1    H114141   4.687   0.101  10.433  0.9463 -0.7701 -1.1653
    3MPD1    H214142   4.519   4.506  10.223 -2.7266  2.2964 -1.3491
    3MPD1    H314143   4.710   4.637  10.283  0.2180  2.1096  0.1344
    3MPD1     N14144   4.477   0.141  10.612  0.5677  0.4451  0.1157
    3MPD1    H514145   4.392   0.133  10.667  1.0123 -0.9843  0.5996
    3MPD1    N114146   4.279   4.510  10.360  0.0994  0.7304  0.3750
    3MPD1    H614147   4.207   4.516  10.432 -0.4208  1.6941 -0.2318
    3MPD1    H714148   4.302   4.411  10.351 -0.3992  0.7231 -0.7830
    4MPD2     C14149   4.343   4.587  12.127  0.1063  0.6064 -0.0462
    4MPD2    C114150   4.480   4.563  12.135 -0.3790 -0.0282  0.0949
    4MPD2    C214151   4.571   4.653  12.080  0.1309 -0.2665  0.8982
    4MPD2    C314152   4.526   0.047  12.014  0.1560  0.3815 -0.5810
    4MPD2    C414153   4.389   0.063  12.001  0.1356  0.2812 -0.1612
    4MPD2    C514154   4.305   4.698  12.056  0.0040 -0.1350  0.3967
    4MPD2     H14155   4.678   4.638  12.072  0.0111 -0.8075  0.4011
    4MPD2    H114156   4.343   0.142  11.943 -0.0384  1.0406  1.0002
    4MPD2    H214157   4.275   4.523  12.182 -0.9796  2.4493  0.7556
    4MPD2    H314158   4.200   0.004  12.052  0.3478  1.3462  1.1865
    4MPD2     N14159   4.615   0.154  11.968  0.7403  0.1646 -0.0011
    4MPD2    H514160   4.579   0.232  11.915  2.6888  0.3343 -1.1054
    4MPD2    N114161   4.537   4.451  12.200  0.1976  0.3640  0.4368
    4MPD2    H714162   4.638   4.440  12.195  0.4491  3.0541 -0.4427
    5TMC3    C114163   4.581   4.243  12.292 -0.7139  0.2064  0.6612
    5TMC3    C214164   4.574   4.140  12.212  0.4008 -0.3765  0.4926
    5TMC3    C314165   4.677   4.100  12.136  0.2683 -0.1327  0.5079
    5TMC3    C414166   4.701   4.300  12.321 -0.7134  0.1682 -0.8325
    5TMC3    C514167   0.082   4.265  12.236  0.2561 -0.6809  0.2877
    5TMC3    C614168   0.071   4.164  12.139 -0.7388  0.1685 -0.0560
    5TMC3     C14169   4.482   4.339  12.250  0.3324  0.1843 -0.1607
    5TMC3     O14170   4.368   4.296  12.248 -0.0142 -0.0335  0.0987
    5TMC3     H14171   4.474   4.100  12.198  0.9378 -0.5088 -2.9784
    5TMC3    H114172   4.710   4.382  12.392 -3.3606 -0.2816  0.0037
    5TMC3    H214173   0.153   4.126  12.079 -2.3006 -2.4663 -0.5596
    5TMC3    C714174   0.174   4.371  12.215 -0.5162 -0.0141 -0.3092
    5TMC3    C814175   4.666   3.996  12.031 -0.0973 -0.2548 -0.6985
    5TMC3    O114176   0.142   4.482  12.252  0.0899 -0.4619  0.0404
    5TMC3    O214177   4.584   3.910  12.051 -0.3643 -0.3313 -0.6996
    6TMC3    C114178   4.324   0.382  10.898 -0.1718  0.5384  0.0471
    6TMC3    C214179   4.379   0.323  10.785 -0.0199 -0.4491  0.2369
    6TMC3    C314180   4.514   0.323  10.762  0.0128 -0.2834 -0.0044
    6TMC3    C414181   4.404   0.423  10.996 -0.5474 -0.0853 -0.4268
    6TMC3    C514182   4.541   0.413  10.978 -0.1767  0.5004  0.0101
    6TMC3    C614183   4.597   0.366  10.858 -0.0244  0.1959  0.0305
    6TMC3     C14184   4.186   0.371  10.942  0.5669  0.1567 -0.3935
    6TMC3     O14185   4.126   0.291  10.873  0.5446  0.8016  0.4554
    6TMC3     H14186   4.305   0.307  10.708  0.6095  1.1422 -0.6908
    6TMC3    H114187   4.376   0.465  11.093 -0.4108  1.5493 -1.0902
    6TMC3    H214188   4.702   0.341  10.850  0.2036  1.4124 -0.8634
    6TMC3    C714189   4.622   0.436  11.090 -0.2718  0.8613  0.4875
    6TMC3    C814190   4.567   0.231  10.663  0.3496 -0.2456 -0.6012
    6TMC3    O114191   4.580   0.387  11.190  0.3495 -0.4071 -0.2136
    6TMC3    O214192   4.688   0.228  10.644  1.0858  0.3304 -0.0881
    7MPD2     C14193   0.538   4.594  11.915 -0.1510 -0.6275 -0.4259
    7MPD2    C114194   0.431   4.641  11.986 -0.3817  0.0123  0.2552
    7MPD2    C214195   0.345   4.557  12.054 -0.3782 -0.5553  0.6518
    7MPD2    C314196   0.368   4.418  12.069  0.0229  0.1330 -0.0786
    7MPD2    C414197   0.483   4.369  12.003 -0.2227  0.3573  0.7316
    7MPD2    C514198   0.559   4.460  11.932  1.0469  0.4552  0.2247
    7MPD2     H14199   0.257   4.597  12.101  0.9665  0.3117  2.4321
    7MPD2    H114200   0.513   4.269  12.030  2.1169  1.2049  1.2855
    7MPD2    H214201   0.615   4.651  11.864 -1.2082  1.3321  0.1663
    7MPD2    H314202   0.651   4.422  11.890 -0.5508 -3.8111  0.5731
    7MPD2     N14203   0.279   4.328  12.139 -0.7299  0.3271  0.1041
    7MPD2    H514204   0.302   4.230  12.152 -1.8562  0.1056  0.3907
    7MPD2    N114205   0.379   0.047  11.972 -0.3217 -0.2677 -0.2121
    7MPD2    H714206   0.310   0.075  12.041  1.5770  1.5624  0.9391
    8TMC3    C114207   0.333   0.254  11.872  0.6307 -0.5379 -0.2974
    8TMC3    C214208   0.309   0.277  11.743  0.0924  0.2513 -0.8792
    8TMC3    C314209   0.175   0.306  11.708 -0.0863 -0.1663  0.2870
    8TMC3    C414210   0.235   0.263  11.968  0.5783 -0.6757 -0.0051
    8TMC3    C514211   0.099   0.271  11.924  0.1319 -0.1094 -0.1087
    8TMC3    C614212   0.069   0.297  11.795 -0.1733 -0.2546  0.7174
    8TMC3     C14213   0.426   0.145  11.890  0.2468 -0.4578  0.7343
    8TMC3     O14214   0.514   0.135  11.809 -0.5057  0.0695 -0.0732
    8TMC3     H14215   0.384   0.260  11.667 -1.4271 -1.7567 -1.9465
    8TMC3    H114216   0.261   0.252  12.072  0.1869 -1.6702 -0.0184
    8TMC3    H214217   4.689   0.308  11.757  1.2282  0.3188 -2.7575
    8TMC3    C714218   0.027   0.161  11.991  0.1012  1.0288  0.2752
    8TMC3    C814219   0.142   0.318  11.565 -1.1171 -0.0404 -0.0320
    8TMC3    O114220   0.100   0.082  12.048 -0.6586  0.4274  0.1957
    8TMC3    O214221   0.029   0.286  11.529  0.0808 -0.4790 -0.2961
    9MPD2     C14222   0.350   0.498  11.314 -0.0116  0.0657 -0.5332
    9MPD2    C114223   0.237   0.438  11.361 -0.0512 -0.9857 -0.6977
    9MPD2    C214224   0.134   0.413  11.268  0.1792 -0.1795 -0.0167
    9MPD2    C314225   0.133   0.478  11.144  0.3683 -0.1067 -0.4692
    9MPD2    C414226   0.248   0.551  11.108 -0.0626  0.8608 -0.3592
    9MPD2    C514227   0.358   0.549  11.189  0.3157  0.1539  0.2247
    9MPD2     H14228   0.044   0.366  11.306 -0.5807  0.2638 -1.2709
    9MPD2    H114229   0.240   0.622  11.026 -0.0612  0.8369 -0.3802
    9MPD2    H214230   0.444   0.511  11.368  0.8045  1.7245 -2.3572
    9MPD2    H314231   0.443   0.608  11.153 -0.3581  1.9951  1.6291
    9MPD2     N14232   0.027   0.477  11.056  0.5367 -0.1129 -0.3989
    9MPD2    H514233   0.040   0.513  10.962 -0.1908 -0.3183 -0.5802
    9MPD2    N114234   0.239   0.386  11.498 -0.2742 -0.1509 -0.1362
    9MPD2    H714235   0.315   0.424  11.552 -0.9171  0.8370  0.0763
    1MPD1     C14236   4.112   3.392  15.681 -0.7495 -0.0539  0.2650
    1MPD1    C114237   4.031   3.447  15.777 -0.2346  0.7533  0.6546
    1MPD1    C214238   4.018   3.385  15.901 -0.4005  0.2115  0.1290
    1MPD1    C314239   4.098   3.281  15.944  0.0330 -0.1021 -0.1497
    1MPD1    C414240   4.183   3.238  15.849  0.1282  0.0955  0.1265
    1MPD1    C514241   4.187   3.286  15.715 -0.0752  0.1353  0.2387
    1MPD1     H14242   3.949   3.420  15.978 -1.1693  0.1878 -0.5504
    1MPD1    H114243   4.232   3.145  15.873  0.0451  0.7244  2.7444
    1MPD1    H214244   4.118   3.433  15.580 -0.7503 -2.1524 -0.5777
    1MPD1    H314245   4.250   3.226  15.650  2.1918  0.2305  2.3319
    1MPD1     N14246   4.080   3.213  16.066  0.0366  0.5242  0.1159
    1MPD1    H514247   4.151   3.144  16.088 -2.9291 -1.5799  3.0182
    1MPD1    N114248   3.935   3.535  15.735 -0.1330 -0.1812 -0.4117
    1MPD1    H614249   3.971   3.598  15.664  1.6159  0.6081  1.1967
    1MPD1    H714250   3.902   3.580  15.820  1.0602  0.0597 -0.0744
    2MPD1     C14251   4.563   2.613  16.678 -0.8704  0.0147  0.8522
    2MPD1    C114252   4.440   2.605  16.741  0.6642 -0.1149  0.6741
    2MPD1    C214253   4.346   2.688  16.686  0.2335  0.3184  0.2412
    2MPD1    C314254   4.349   2.774  16.585 -0.1896 -0.4312 -0.3168
    2MPD1    C414255   4.465   2.769  16.521  0.5868  0.7445  0.2296
    2MPD1    C514256   4.571   2.694  16.569 -0.2437  0.0386 -0.1064
    2MPD1     H14257   4.250   2.673  16.734  0.2712  2.7031  1.0686
    2MPD1    H114258   4.482   2.821  16.427 -0.0173  0.8082  0.1519
    2MPD1    H214259   4.641   2.547  16.715 -0.1802  0.6855  0.5768
    2MPD1    H314260   4.661   2.694  16.508 -0.8685 -2.0788 -1.0175
    2MPD1     N14261   4.235   2.848  16.553  0.0934 -0.3971  0.0500
    2MPD1    H514262   4.154   2.852  16.614 -0.6938 -0.6506 -0.9798
    2MPD1    N114263   4.403   2.483  16.804  0.3013  0.0284  0.0140
    2MPD1    H614264   4.479   2.438  16.854 -0.1091  1.7106  2.1694
    2MPD1    H714265   4.334   2.495  16.879  2.5195  2.4849  1.6839
    3TCq2    C114266   4.225   2.926  16.436  0.8170  0.4803  0.9871
    3TCq2    O214267   4.311   2.944  16.353 -0.2339 -0.1018 -0.6034
    3TCq2    C214268   4.107   3.003  16.419  0.1173  0.3766 -0.3391
    3TCq2    C314269   3.990   2.945  16.466  0.4346  0.2461 -0.7103
    3TCq2    C414270   3.875   2.999  16.426 -0.1287 -0.0864  0.6059
    3TCq2    C514271   3.864   3.087  16.319 -0.0067 -0.9145 -0.4748
    3TCq2    C614272   3.985   3.129  16.265 -0.3126  0.0816  0.3757
    3TCq2    C714273   4.110   3.093  16.316  0.1163 -0.3287 -0.0484
    3TCq2    C814274   3.967   3.217  16.148  0.6205  0.0266  0.0392
    3TCq2    O414275   3.860   3.270  16.128  0.4087 -0.5452  0.1597
    3TCq2    C914276   3.755   2.959  16.492  0.4855  0.3431  0.0146
    3TCq2    O514277   3.747   2.841  16.537  0.5966  0.1244 -0.0362
    3TCq2    O614278   3.659   3.040  16.493  0.0357  0.0759  0.1419
    3TCq2    H214279   3.999   2.866  16.539  0.6743  0.9210 -0.0115
    3TCq2    H314280   3.769   3.131  16.291  0.4026 -0.8322 -1.7070
    3TCq2    H414281   4.204   3.135  16.281 -0.1543  0.1208 -0.2330
    1TCq1    O114282   2.325   2.946  12.968  0.0125 -0.3661 -0.0314
    1TCq1    C114283   2.419   3.042  12.960 -0.2969  0.1777 -0.3847
    1TCq1    O214284   2.415   3.136  12.883 -0.0189  0.4819 -0.0461
    1TCq1    C214285   2.525   3.032  13.056 -0.2236  0.1121  0.7844
    1TCq1    C314286   2.645   3.057  12.997  0.4327 -0.5059  0.3572
    1TCq1    C414287   2.752   3.020  13.071  0.6706 -0.4374  0.4399
    1TCq1    C514288   2.742   2.947  13.184 -0.3584 -0.0864  1.0142
    1TCq1    C614289   2.618   2.909  13.226  0.5548  0.1200 -0.4459
    1TCq1    C714290   2.506   2.941  13.153 -0.2365  0.0706  0.5919
    1TCq1    C814291   2.595   2.839  13.347 -0.3506  0.4009  0.2215
    1TCq1    O414292   2.479   2.833  13.382  0.4047  0.8218 -0.5672
    1TCq1    C914293   2.883   3.042  13.004 -0.7525  0.0642 -0.0026
    1TCq1    O514294   2.985   3.041  13.077  0.2427  0.2043 -0.1360
    1TCq1    O614295   2.884   3.010  12.886 -0.1656 -0.1717  0.0393
    1TCq1    H114296   2.367   2.867  13.008  0.1950 -1.0026 -1.4879
    1TCq1    H214297   2.648   3.104  12.899 -2.2402  2.2018  1.5895
    1TCq1    H314298   2.837   2.935  13.234  0.4636 -1.1585 -0.8409
    1TCq1    H414299   2.405   2.916  13.184 -0.9506  1.7610 -0.3818
    2MPD2     C14300   2.626   2.711  13.605  0.4212 -0.4070 -0.6182
    2MPD2    C114301   2.717   2.701  13.508  0.4196  0.1482 -0.3325
    2MPD2    C214302   2.831   2.623  13.523 -0.4842  0.4768  0.1554
    2MPD2    C314303   2.851   2.551  13.641  0.1304  0.1265 -0.7280
    2MPD2    C414304   2.755   2.567  13.746 -0.3329  0.1867 -0.3273
    2MPD2    C514305   2.644   2.645  13.722  0.5447  0.3514  0.1478
    2MPD2     H14306   2.902   2.616  13.442  0.1768 -0.3530  0.7953
    2MPD2    H114307   2.755   2.522  13.845 -0.4235  1.7606  0.3881
    2MPD2    H214308   2.546   2.784  13.601 -0.1105 -0.9129  0.7206
    2MPD2    H314309   2.574   2.640  13.805  0.0476 -0.9652 -0.3454
    2MPD2     N14310   2.956   2.457  13.641 -0.0911  0.4718  0.1052
    2MPD2    H514311   3.003   2.439  13.553  0.7126  0.3336  0.5664
    2MPD2    N114312   2.713   2.783  13.392 -0.0284  0.5518  0.2465
    2MPD2    H714313   2.790   2.781  13.326 -1.1245 -3.3852 -0.9644
    3TCq1    O114314   3.422   2.130  13.431 -0.1088  0.3903  0.1156
    3TCq1    C114315   3.290   2.174  13.435 -0.3533 -0.0408  0.1839
    3TCq1    O214316   3.223   2.200  13.335  0.1763  0.0034  0.4917
    3TCq1    C214317   3.242   2.191  13.571 -0.4869 -0.0504 -0.6033
    3TCq1    C314318   3.279   2.095  13.660  0.1329  0.1541 -0.1055
    3TCq1    C414319   3.224   2.105  13.786  0.7889 -0.0942 -0.5291
    3TCq1    C514320   3.136   2.201  13.810 -0.1230  0.3680  0.5871
    3TCq1    C614321   3.104   2.290  13.713 -0.5356  0.1026  0.0892
    3TCq1    C714322   3.150   2.290  13.587 -0.6158 -0.4760  0.3131
    3TCq1    C814323   3.011   2.394  13.750  0.1782 -0.3730  0.6158
    3TCq1    O414324   2.963   2.394  13.862  0.3346  0.2844 -0.2557
    3TCq1    C914325   3.273   2.033  13.896  0.0787 -0.0595 -0.2475
    3TCq1    O514326   3.215   2.023  14.006 -0.0774  0.3560  0.2286
    3TCq1    O614327   3.386   1.989  13.873 -0.3203  0.1342  0.8633
    3TCq1    H114328   3.468   2.125  13.518 -2.1034  1.0750  1.2252
    3TCq1    H214329   3.345   2.013  13.634 -0.5267 -0.7984  1.2003
    3TCq1    H314330   3.105   2.216  13.913  1.2922 -2.4136  1.4059
    3TCq1    H414331   3.126   2.351  13.501 -1.5946 -1.1003  0.1369
    1MPD2     C14332   2.751   3.463  14.397 -0.1771  0.1084  0.5571
    1MPD2    C114333   2.666   3.413  14.487 -0.4323 -0.1607 -0.1500
    1MPD2    C214334   2.716   3.401  14.615  0.0738  0.5231 -0.0056
    1MPD2    C314335   2.840   3.439  14.651 -0.5769  0.4520  0.2934
    1MPD2    C414336   2.925   3.497  14.553 -0.0686  1.0655 -0.3353
    1MPD2    C514337   2.878   3.504  14.427  0.3902 -0.0294 -0.6278
    1MPD2     H14338   2.649   3.347  14.680  0.6211 -0.1941 -0.0366
    1MPD2    H114339   3.026   3.530  14.574 -0.4562  1.3021  1.1983
    1MPD2    H214340   2.713   3.486  14.299 -1.5065  1.8862  1.4882
    1MPD2    H314341   2.947   3.545  14.353 -0.6495  0.8531 -1.1098
    1MPD2     N14342   2.883   3.438  14.783  0.6864  0.1167 -0.7489
    1MPD2    H514343   2.973   3.483  14.795  0.6896 -0.4562  1.3539
    1MPD2    N114344   2.535   3.380  14.446 -0.3102 -0.9205 -0.7710
    1MPD2    H714345   2.511   3.407  14.351 -0.1166  0.6034 -0.3927
    2TMC3    C114346   2.314   3.295  14.458 -0.1726 -0.4198 -0.0149
    2TMC3    C214347   2.245   3.209  14.544 -0.2185 -0.3701  0.5555
    2TMC3    C314348   2.116   3.243  14.586  0.4533 -0.4583 -0.2153
    2TMC3    C414349   2.244   3.391  14.392  0.9824  0.0835 -0.3986
    2TMC3    C514350   2.109   3.399  14.422 -0.6493  1.1072 -0.0866
    2TMC3    C614351   2.042   3.329  14.515 -0.3324 -0.5555 -0.6546
    2TMC3     C14352   2.439   3.326  14.524 -0.5358 -0.8498 -0.3231
    2TMC3     O14353   2.448   3.286  14.641 -0.3332 -0.1613  0.1260
    2TMC3     H14354   2.301   3.131  14.594  0.1948  0.0446  0.7314
    2TMC3    H114355   2.286   3.455  14.315  0.5430  1.5714  0.5755
    2TMC3    H214356   1.940   3.346  14.546  0.2975  1.8440  0.1186
    2TMC3    C714357   2.018   3.486  14.354  0.2456  0.3405 -0.0241
    2TMC3    C814358   2.101   3.251  14.735  0.7543  1.1141 -0.0536
    2TMC3    O114359   1.904   3.446  14.345 -0.0992  0.5339  0.3320
    2TMC3    O214360   1.988   3.280  14.779  0.0656  0.2421 -0.0445
    3TCq1    O114361   1.650   4.578  14.047  0.1709 -0.0639 -0.0737
    3TCq1    C114362   1.740   4.635  14.134 -0.0919 -0.3758 -0.1946
    3TCq1    O214363   1.745   0.031  14.161 -0.1438 -0.3772  0.3465
    3TCq1    C214364   1.806   4.529  14.208  0.6780  0.3835 -0.3366
    3TCq1    C314365   1.865   4.554  14.332  0.1426  0.3318 -0.8907
    3TCq1    C414366   1.928   4.457  14.397  0.0174  0.5941  0.0406
    3TCq1    C514367   1.963   4.338  14.336 -0.3598  0.2332  0.3116
    3TCq1    C614368   1.916   4.315  14.207 -0.3119  0.5096  0.2519
    3TCq1    C714369   1.840   4.410  14.147  0.2532 -0.6970  0.2957
    3TCq1    C814370   1.896   4.178  14.155 -1.1106 -0.3969 -0.6029
    3TCq1    O414371   1.814   4.170  14.066 -0.4652 -0.3089 -0.0713
    3TCq1    C914372   1.965   4.481  14.536  0.1103  0.2251 -0.5054
    3TCq1    O514373   1.965   4.600  14.563  0.0044 -0.0428 -0.5042
    3TCq1    O614374   2.017   4.385  14.600  0.4288  0.0845  0.3855
    3TCq1    H114375   1.655   4.480  14.038 -1.6978 -0.0981 -0.7865
    3TCq1    H214376   1.821   4.641  14.380 -2.1612 -1.2334 -0.1296
    3TCq1    H314377   2.013   4.261  14.394 -0.1722 -0.3830 -0.6637
    3TCq1    H414378   1.817   4.396  14.042  3.1446  0.1870 -0.4550
    4MPD2     C14379   1.880   3.886  14.076  0.3514  0.0807  0.6419
    4MPD2    C114380   1.966   3.935  14.177 -0.9766  0.3885 -0.4099
    4MPD2    C214381   2.031   3.850  14.259  0.5296 -0.5289  1.0769
    4MPD2    C314382   2.007   3.711  14.251  0.1063  0.0024 -0.0937
    4MPD2    C414383   1.934   3.664  14.140 -0.1271  0.0429 -0.4337
    4MPD2    C514384   1.881   3.750  14.050 -0.6755 -0.5357 -1.0959
    4MPD2     H14385   2.089   3.895  14.340  0.6058  1.4584 -0.0980
    4MPD2    H114386   1.920   3.559  14.116 -0.6475 -0.5450  2.4388
    4MPD2    H214387   1.844   3.949  13.995 -0.7733 -0.6016  0.5997
    4MPD2    H314388   1.832   3.705  13.964 -1.5324  0.4108 -1.0880
    4MPD2     N14389   2.071   3.612  14.329 -1.0789 -0.3487 -0.4472
    4MPD2    H514390   2.140   3.642  14.398 -1.5444 -0.2347 -0.0296
    4MPD2    N114391   1.969   4.077  14.213  0.1267 -0.5908  0.5885
    4MPD2    H714392   2.042   4.101  14.279  0.5748 -0.4317  0.0359
    5TMC2    C114393   2.738   3.400  15.219  0.2057 -0.1661 -0.6410
    5TMC2    C214394   2.717   3.534  15.227 -0.5289 -0.2437  0.3718
    5TMC2    C314395   2.772   3.621  15.134 -0.5743  0.1767 -0.4210
    5TMC2    C414396   2.817   3.351  15.120  0.2277  1.4929  0.3779
    5TMC2    C514397   2.860   3.441  15.019  1.2578 -0.1038 -0.0472
    5TMC2    C614398   2.841   3.575  15.029 -0.4089 -0.9176 -0.0586
    5TMC2     C14399   2.608   3.345  15.239 -0.1903  0.3996 -0.5431
    5TMC2     O14400   2.559   3.362  15.349  0.3351 -0.4975  0.1684
    5TMC2     H14401   2.660   3.582  15.305 -0.6240 -1.5654  1.1202
    5TMC2    H114402   2.801   3.244  15.113  1.8257  1.3767 -1.5185
    5TMC2    H214403   2.858   3.640  14.944 -0.7162 -2.6567 -1.4640
    5TMC2    C714404   2.823   3.386  14.888  0.7451  0.2050  0.0613
    5TMC2    C814405   2.674   3.712  15.077  0.1820 -0.3334 -0.2851
    5TMC2    O114406   2.722   3.314  14.891  0.1530 -0.8728 -0.1627
    5TMC2    O214407   2.633   3.727  14.963 -0.1906  0.4738 -0.1743
    5TMC2    O514408   2.655   3.798  15.181 -0.7245  0.1026 -0.3228
    5TMC2    H514409   2.722   3.785  15.251 -1.1048 -0.0636  0.0098
    6MPD2     C14410   2.142   3.260  15.024 -0.0950  0.3969  0.4471
    6MPD2    C114411   2.239   3.234  14.931  0.6616 -0.4951  0.1381
    6MPD2    C214412   2.371   3.242  14.970  0.0018  0.2371 -0.7545
    6MPD2    C314413   2.409   3.272  15.100 -0.2788 -0.3011 -0.1008
    6MPD2    C414414   2.309   3.284  15.195  0.3731  0.2316 -0.2466
    6MPD2    C514415   2.184   3.281  15.156 -0.0217 -0.4973 -0.0185
    6MPD2     H14416   2.436   3.231  14.884  2.0779  0.6456  0.7550
    6MPD2    H114417   2.334   3.305  15.298  0.6307  1.2626 -0.5199
    6MPD2    H214418   2.034   3.251  15.015 -0.3048  1.7519  1.5070
    6MPD2    H314419   2.111   3.309  15.231 -0.4405 -1.0652 -0.2101
    6MPD2     N14420   2.551   3.297  15.124  0.7670 -0.1840  0.4481
    6MPD2    H514421   2.605   3.306  15.038  0.4425 -1.1286  0.1499
    6MPD2    N114422   2.219   3.233  14.793  0.1459  0.2845  0.7050
    6MPD2    H714423   2.305   3.225  14.740 -0.8189 -0.0764 -0.8042
  945NH3     N114424   1.420   2.074  10.722  0.2395 -0.0935  0.2937
  945NH3     H214425   1.450   2.170  10.734 -0.8183  0.1250  1.1364
  945NH3     H314426   1.371   2.059  10.634  1.8782 -0.5673 -0.5337
  945NH3     H414427   1.504   2.018  10.727  0.8097  0.7703  0.2945
  946SOD     NA14428   1.663   3.413  15.031 -0.1603  0.5956  0.3740
  947SOD     NA14429   3.678   0.224  14.513 -0.0103 -0.3958  0.2502
  948SOD     NA14430   2.084   2.825  11.382  0.1189  0.1071  0.0780
  949SOD     NA14431   0.139   1.467   9.194  0.0637 -0.3669 -0.7303
  950SOD     NA14432   0.318   1.886  12.658 -0.2949  0.1489  0.0552
  951SOD     NA14433   4.198   3.476  15.060 -0.1274 -0.3203  0.0940
  952SOD     NA14434   0.016   2.235  10.410  0.2508  0.0978 -0.3557
  953SOD     NA14435   0.811   1.772   2.142  0.2644  0.0947 -0.1870
  954SOD     NA14436   2.173   3.260  13.892  0.2091  0.3335 -0.4272
  955SOD     NA14437   1.812   2.281  12.368 -0.5417 -0.2689 -0.3461
  956SOD     NA14438   3.566   3.632   0.835  0.2306 -0.2258 -0.3054
  957SOD     NA14439   1.657   3.466  10.798 -0.4820  0.1781  0.2091
  958SOD     NA14440   0.926   0.048   9.401  0.1351  0.1729 -0.1972
  959SOD     NA14441   3.540   2.481  14.865  0.4631 -0.7643 -0.3325
  960SOD     NA14442   3.272   4.471  11.082 -0.2440  0.2445 -0.0132
  961SOD     NA14443   3.565   3.489  11.528  0.5720  0.2988 -0.3170
  962SOD     NA14444   4.532   1.754   0.054  0.2374 -0.2682 -0.5073
  963SOD     NA14445   1.221   4.143   1.371  0.0369 -0.2176  0.1903
  964SOD     NA14446   1.830   1.362  10.280 -0.2102  0.3702 -0.1029
  965SOD     NA14447   3.067   3.392  11.582  0.5653  0.0689  0.2337
  966SOD     NA14448   1.226   3.132  14.761  0.3458 -0.0694  0.2407
  967SOD     NA14449   2.368   3.083  16.865  0.8140  0.1113 -0.0631
  968SOD     NA14450   3.466   0.350  16.733  0.2404  0.1540 -0.1911
  969SOD     NA14451   3.463   1.265  16.557 -0.3785  0.4929 -0.2322
  970SOD     NA14452   2.726   1.928  10.274  0.1671  0.3992  0.0333
  971SOD     NA14453   4.152   1.252  14.737  0.0623  0.0638  0.1099
  972SOD     NA14454   3.269   4.672  11.440 -0.1503 -0.0827  0.6348
  973SOD     NA14455   4.442   2.866   7.796  0.2429 -0.3282 -0.2466
  974SOD     NA14456   3.264   4.350  11.538  0.1891 -0.0309 -0.6875
  975SOD     NA14457   1.233   0.067   9.467  0.1984  0.1542 -0.3193
  976SOD     NA14458   4.548   3.052  12.683 -0.0110 -0.5426 -0.2403
  977SOD     NA14459   3.801   4.014  13.312 -0.2397  0.0977  0.6704
  978SOD     NA14460   1.162   4.225   1.687 -0.1885  0.2058  0.1431
  979SOD     NA14461   2.689   1.987  12.069  0.1621 -0.0560  0.2012
  980SOD     NA14462   3.604   3.731  13.294  0.0935 -0.0518 -0.0047
  981SOD     NA14463   2.983   4.326   1.438  0.0973 -0.1643 -0.1133
  982SOD     NA14464   2.791   1.405   0.028  0.4478 -0.3168  0.0551
  983SOD     NA14465   0.319   4.653  16.537 -0.0918 -0.4284 -0.4817
  984SOD     NA14466   3.482   2.580   2.186  0.0319  0.1678 -0.0801
  985SOD     NA14467   3.885   1.210  12.399  0.0531  0.1721  0.2930
  986SOD     NA14468   2.751   2.902   9.672  0.7158 -0.1353 -0.2954
  987SOD     NA14469   0.318   0.570   2.211  0.7294  0.4247  0.0855
  988SOD     NA14470   3.408   2.270  14.573 -0.6300 -0.1426 -0.1436
  989SOD     NA14471   0.195   1.218  13.470  0.0151  0.4484 -0.7478
  990SOD     NA14472   3.851   1.481   5.579 -0.1792  0.0372 -0.4013
  991SOD     NA14473   0.427   3.659   6.676 -0.3327 -0.1353 -0.5297
  992SOD     NA14474   2.199   0.072  14.865 -0.6264  0.5320  0.0520
  993SOD     NA14475   0.353   3.941   9.103 -0.0517 -0.0582 -0.0941
  994SOD     NA14476   2.537   2.316  11.977  0.3176  0.5185 -0.1723
  995SOD     NA14477   3.582   2.092  13.881  0.4533 -0.0129 -0.2640
  996SOD     NA14478   0.895   1.286   4.228  0.1100  0.1942 -0.2197
  997SOD     NA14479   1.919   0.822  11.781  0.2582 -0.1936  0.4565
  998SOD     NA14480   1.232   0.843   8.209 -0.0190 -0.1662 -0.0804
  999SOD     NA14481   4.434   2.870  14.821 -0.1420 -0.0771  0.7041
 1000SOD     NA14482   2.120   4.370   9.993 -0.3131  0.1681 -0.7967
 1001SOD     NA14483   2.275   0.393  13.286 -0.1921 -0.3345 -0.6131
 1002SOD     NA14484   3.098   2.942  12.940 -0.0598  0.0009  0.0080
 1003SOD     NA14485   1.873   1.076   2.428 -0.4021  0.6392 -0.4443
 1004SOD     NA14486   1.265   3.581  10.114 -0.1203  0.5988  0.1187
 1005SOD     NA14487   1.554   1.392  14.326  0.1875 -0.0825 -0.3423
 1006SOD     NA14488   1.245   0.225   9.010 -0.4614 -0.1076  0.1688
 1007SOD     NA14489   0.045   1.520   0.981  0.0319 -0.1230  0.1030
 1008SOD     NA14490   3.691   2.299  14.362 -0.5236 -0.2761  0.1036
 1009SOD     NA14491   3.739   0.080   6.023  0.1045  0.2756 -0.2118
 1010SOD     NA14492   2.236   1.405   9.217  0.4398  0.4070  0.1043
 1011SOD     NA14493   1.956   1.204   9.150 -0.0546 -0.2071 -0.0133
 1012SOL     OW14494   3.478   2.786   6.077 -0.0593 -0.3776 -0.0828
 1012SOL    HW114495   3.539   2.712   6.077 -0.0736 -0.3850  2.8303
 1012SOL    HW214496   3.444   2.775   5.988 -0.5585  0.2477  0.0268
 1013SOL     OW14497   0.617   0.937   2.234 -0.8620  0.2994 -0.2987
 1013SOL    HW114498   0.542   0.968   2.183  1.6857  1.9968 -3.0331
 1013SOL    HW214499   0.673   1.014   2.221 -1.0876  0.3657 -0.8788
 1014SOL     OW14500   0.591   3.263   2.976  0.2207 -0.5533  0.3218
 1014SOL    HW114501   0.539   3.342   2.959 -1.1881 -0.9826  2.6365
 1014SOL    HW214502   0.530   3.193   2.952 -1.8403  1.5211 -0.4581
 1015SOL     OW14503   4.620   0.936   6.600  0.3586  0.5753  0.1960
 1015SOL    HW114504   4.698   0.880   6.596  1.1142  1.6964 -0.8161
 1015SOL    HW214505   4.555   0.867   6.606 -0.8521  1.6340 -0.8082
 1016SOL     OW14506   0.115   0.241   7.093  0.1238 -0.0328  0.2350
 1016SOL    HW114507   0.063   0.204   7.022  1.5266 -1.3391 -0.1082
 1016SOL    HW214508   0.052   0.219   7.162  1.8375  1.1583  2.1900
 1017SOL     OW14509   2.165   4.545   0.690  0.3001 -0.3366  0.4739
 1017SOL    HW114510   2.171   4.640   0.687  1.0271 -0.4328 -0.9372
 1017SOL    HW214511   2.098   4.531   0.623  0.2611 -1.2031  0.6925
 1018SOL     OW14512   1.355   3.205   3.096  0.6464  0.1747 -0.5639
 1018SOL    HW114513   1.424   3.214   3.029  1.3882 -3.6354 -0.2819
 1018SOL    HW214514   1.373   3.118   3.131 -1.3650 -0.2710 -0.6437
 1019SOL     OW14515   0.190   2.830  13.299  0.0281  0.3577 -0.6121
 1019SOL    HW114516   0.264   2.770  13.287  0.6867  1.5030 -2.2237
 1019SOL    HW214517   0.241   2.887  13.356 -0.8802  0.2279  0.3292
 1020SOL     OW14518   4.229   1.110  11.517 -0.9155  0.0580  0.7165
 1020SOL    HW114519   4.207   1.201  11.499 -1.9730 -0.3071  0.1770
 1020SOL    HW214520   4.176   1.055  11.459  1.9775 -1.5405 -0.4324
 1021SOL     OW14521   3.865   1.899   4.955  0.8157  0.0097 -0.7805
 1021SOL    HW114522   3.788   1.895   4.898 -0.1155  1.8220  0.3473
 1021SOL    HW214523   3.931   1.904   4.886  1.1357 -0.2191 -0.4864
 1022SOL     OW14524   1.214   2.299   1.628  0.6348  0.1483  0.3715
 1022SOL    HW114525   1.172   2.280   1.545  1.3247 -0.1777  0.0975
 1022SOL    HW214526   1.267   2.375   1.605  0.9443 -0.2905 -0.3591
 1023SOL     OW14527   2.678   2.595   4.206 -0.0091  0.0239  0.0742
 1023SOL    HW114528   2.627   2.525   4.168  1.9274 -0.7541 -1.0916
 1023SOL    HW214529   2.624   2.672   4.190  2.2869  1.3160 -1.5281
 1024SOL     OW14530   2.731   0.218   2.003 -0.1173  0.1253 -0.4547
 1024SOL    HW114531   2.809   0.273   1.993  0.1143  0.0282  0.8060
 1024SOL    HW214532   2.743   0.158   2.076  2.6480  0.4202 -0.6502
 1025SOL     OW14533   1.808   4.384   2.086  0.2796 -0.0380  0.1253
 1025SOL    HW114534   1.739   4.360   2.024 -0.3994 -0.0845  0.9000
 1025SOL    HW214535   1.837   4.467   2.048 -0.5861 -0.3098 -1.1323
 1026SOL     OW14536   3.661   1.159   4.340 -0.2164  0.2325 -0.1913
 1026SOL    HW114537   3.566   1.163   4.353 -0.1528 -1.0209  0.6896
 1026SOL    HW214538   3.687   1.242   4.301 -0.5300  1.0203  1.3108
 1027SOL     OW14539   0.627   3.927   5.449  0.0472 -0.0170  0.3349
 1027SOL    HW114540   0.538   3.960   5.447 -0.0621 -0.0746  3.0964
 1027SOL    HW214541   0.624   3.859   5.382 -0.9161  0.2525  0.1096
 1028SOL     OW14542   4.058   0.202  10.592 -0.4699 -0.3813 -0.1648
 1028SOL    HW114543   3.983   0.259  10.579 -1.8830 -1.8980  1.2835
 1028SOL    HW214544   4.031   0.130  10.534 -0.6724 -0.2271 -0.2614
 1029SOL     OW14545   1.458   0.644   2.078 -1.1087 -0.1982 -0.3651
 1029SOL    HW114546   1.527   0.708   2.094 -1.5672 -0.4723  2.6136
 1029SOL    HW214547   1.440   0.657   1.985  0.3348 -1.4817 -0.8263
 1030SOL     OW14548   1.389   0.260   5.979  0.1623  0.4434  0.2585
 1030SOL    HW114549   1.395   0.320   6.053 -0.2871 -0.2276  0.8297
 1030SOL    HW214550   1.439   0.188   6.018  3.0723  1.9008 -0.7905
 1031SOL     OW14551   3.380   4.266  17.174  0.3901  0.5739 -0.1628
 1031SOL    HW114552   3.328   4.228  17.104  1.0595 -1.6997  0.5563
 1031SOL    HW214553   3.424   4.335  17.124 -1.2779  2.3821  0.8730
 1032SOL     OW14554   2.600   3.094  12.218  0.2418  0.7641 -0.4091
 1032SOL    HW114555   2.625   3.103  12.126  1.2096  0.8242 -0.1401
 1032SOL    HW214556   2.505   3.097  12.206  0.1714  2.8396  0.6660
 1033SOL     OW14557   2.148   2.726  15.358  0.3245 -0.6375  0.1959
 1033SOL    HW114558   2.172   2.633  15.354  1.6602 -0.2462 -1.3695
 1033SOL    HW214559   2.056   2.719  15.383  0.1955  0.5224  0.0148
 1034SOL     OW14560   4.401   1.638   8.185 -0.0254 -0.1570  0.7752
 1034SOL    HW114561   4.317   1.650   8.141 -0.0138  0.2341  0.8580
 1034SOL    HW214562   4.440   1.724   8.171 -1.1740 -0.2506 -2.8855
 1035SOL     OW14563   1.931   3.062  15.883 -0.2512 -0.3082  0.3459
 1035SOL    HW114564   1.917   3.086  15.791 -0.8947 -2.5232 -0.1229
 1035SOL    HW214565   1.844   3.088  15.914 -0.0183 -0.2856  0.9773
 1036SOL     OW14566   4.048   1.310   3.232 -0.2041 -0.1190  0.1507
 1036SOL    HW114567   4.072   1.319   3.325  1.4176 -3.2898  0.0450
 1036SOL    HW214568   3.992   1.384   3.213  3.0991  1.6925 -2.4755
 1037SOL     OW14569   0.821   4.439  14.814 -0.0405 -0.2026  0.4312
 1037SOL    HW114570   0.742   4.493  14.819  0.6402  0.7532  0.9195
 1037SOL    HW214571   0.889   4.491  14.858 -0.3768  0.0405  0.6617
 1038SOL     OW14572   0.728   1.025   8.538  0.0863  0.8424  0.1136
 1038SOL    HW114573   0.733   0.952   8.476 -0.5551  0.3548  0.6413
 1038SOL    HW214574   0.775   1.082   8.477  2.1861 -2.8410 -1.6738
 1039SOL     OW14575   0.400   4.612  13.730 -0.1546 -0.1041 -0.4376
 1039SOL    HW114576   0.435   4.691  13.772 -0.8989 -0.4317  0.7757
 1039SOL    HW214577   0.369   4.644  13.645 -1.6926  1.2073  0.6318
 1040SOL     OW14578   3.355   4.508   0.570 -0.3921  0.0664 -0.8877
 1040SOL    HW114579   3.388   4.473   0.652 -0.6447 -1.9624 -1.6567
 1040SOL    HW214580   3.276   4.558   0.591  0.6430  0.4008  2.1339
 1041SOL     OW14581   4.207   1.509   7.445 -0.3176 -0.1945  0.5632
 1041SOL    HW114582   4.284   1.511   7.502  0.4466 -1.2697 -0.4286
 1041SOL    HW214583   4.144   1.478   7.510 -0.7234 -0.2194  0.1540
 1042SOL     OW14584   1.312   1.132  15.894 -0.4923  0.3938 -0.3625
 1042SOL    HW114585   1.285   1.166  15.809 -0.5266  0.5159 -0.3029
 1042SOL    HW214586   1.241   1.165  15.950 -1.4971 -2.7442  0.2374
 1043SOL     OW14587   1.802   4.490  16.575 -0.1774 -0.4567 -0.1031
 1043SOL    HW114588   1.790   4.514  16.667  0.0728  1.7880 -0.6675
 1043SOL    HW214589   1.866   4.556  16.547 -0.7487 -0.1974 -0.7829
 1044SOL     OW14590   2.985   4.504   1.299 -0.1046 -0.3731 -0.1379
 1044SOL    HW114591   2.957   4.594   1.282  0.3872 -0.2835 -0.4719
 1044SOL    HW214592   3.042   4.483   1.225 -0.7668 -0.3368 -0.6606
 1045SOL     OW14593   3.556   1.004   6.616 -0.0726  0.0804  0.2657
 1045SOL    HW114594   3.469   0.964   6.619  0.0092 -0.1592 -0.4910
 1045SOL    HW214595   3.527   1.094   6.629  0.2827  0.0134  1.5261
 1046SOL     OW14596   0.978   1.443  17.063  0.4531  0.0151  0.2072
 1046SOL    HW114597   1.036   1.508  17.022 -0.7453  1.0162  0.0896
 1046SOL    HW214598   0.983   1.371  17.000 -1.6135  0.6237 -0.6500
 1047SOL     OW14599   3.223   3.381  11.736  0.2241  0.3818  0.4071
 1047SOL    HW114600   3.268   3.460  11.706  0.3546 -0.8184 -2.5383
 1047SOL    HW214601   3.273   3.364  11.815  0.7233 -0.5653 -0.1113
 1048SOL     OW14602   2.715   2.228  12.119  0.9474  0.4673  0.4813
 1048SOL    HW114603   2.771   2.283  12.064  2.1443 -0.5097  0.7341
 1048SOL    HW214604   2.753   2.245  12.206 -1.6783  1.1306  1.5096
 1049SOL     OW14605   0.727   3.750   7.585  0.0528  0.1059  0.4751
 1049SOL    HW114606   0.820   3.729   7.588 -0.2067 -1.0875  0.0224
 1049SOL    HW214607   0.688   3.678   7.635 -1.3592  0.8625  0.4845
 1050SOL     OW14608   2.232   2.492   9.229 -0.4307  0.0528  0.4878
 1050SOL    HW114609   2.158   2.550   9.248  0.7729  1.6881  0.1047
 1050SOL    HW214610   2.222   2.427   9.299  0.8967  0.3628  0.9579
 1051SOL     OW14611   0.279   2.889  14.483 -0.7446  0.6086  0.3243
 1051SOL    HW114612   0.229   2.811  14.506 -1.0431  0.3261 -1.3313
 1051SOL    HW214613   0.337   2.871  14.410 -0.9716  1.8399 -0.1670
 1052SOL     OW14614   1.088   4.080   3.716 -0.1336 -0.1394 -0.2792
 1052SOL    HW114615   1.022   4.040   3.773  0.8773 -0.9232  0.3423
 1052SOL    HW214616   1.166   4.076   3.772 -0.2531  0.1637 -0.0956
 1053SOL     OW14617   4.713   1.551   2.319 -0.0390 -0.0965  0.2300
 1053SOL    HW114618   0.024   1.488   2.253 -0.0608  0.2810 -0.1409
 1053SOL    HW214619   4.637   1.591   2.277 -0.7817 -0.8328  0.8656
 1054SOL     OW14620   1.868   4.312   3.874  0.2030 -0.0733  0.1490
 1054SOL    HW114621   1.937   4.264   3.828  0.6587  0.8646 -0.1447
 1054SOL    HW214622   1.829   4.249   3.934  0.5966  0.5355  1.0554
 1055SOL     OW14623   0.384   3.626  12.546  0.3790  0.7580 -0.4955
 1055SOL    HW114624   0.464   3.670  12.517  1.5995 -0.7188  0.6068
 1055SOL    HW214625   0.413   3.564  12.612 -0.2977  0.1579 -0.7628
 1056SOL     OW14626   0.940   2.164   7.916 -0.2449 -0.5482  0.1278
 1056SOL    HW114627   0.983   2.098   7.970 -0.7601 -0.9938 -0.0184
 1056SOL    HW214628   1.014   2.191   7.860 -1.2934  2.7196  0.3025
 1057SOL     OW14629   1.731   0.878   4.815 -0.3511  0.1344 -0.2442
 1057SOL    HW114630   1.674   0.820   4.866 -2.1533  2.0189 -0.1009
 1057SOL    HW214631   1.684   0.901   4.735 -2.0481 -0.1505  0.6682
 1058SOL     OW14632   1.928   0.330  11.247 -0.1936  0.5268  0.0681
 1058SOL    HW114633   1.952   0.417  11.214 -1.7453  1.2280  0.7840
 1058SOL    HW214634   1.991   0.327  11.319 -0.7527  0.6008  0.5636
 1059SOL     OW14635   2.455   0.928   6.980  0.0475  0.1507 -0.2917
 1059SOL    HW114636   2.471   0.909   6.887 -0.6522  2.2419 -0.8322
 1059SOL    HW214637   2.531   0.884   7.019  0.1808  1.4407  0.9071
 1060SOL     OW14638   3.877   2.506   6.943 -0.4815 -0.0913  0.3136
 1060SOL    HW114639   3.884   2.574   7.010  3.2244  1.1564 -1.3397
 1060SOL    HW214640   3.900   2.558   6.866 -1.8102  0.3174  0.1820
 1061SOL     OW14641   2.955   2.488   4.174 -0.3430  0.8401 -0.1199
 1061SOL    HW114642   3.026   2.552   4.182 -0.2171  0.7970 -0.9104
 1061SOL    HW214643   2.879   2.541   4.200  0.6239  1.8414  0.6837
 1062SOL     OW14644   2.779   4.284   5.132  0.0018  0.4789 -0.4846
 1062SOL    HW114645   2.701   4.333   5.105 -0.5203 -1.5209 -2.6928
 1062SOL    HW214646   2.756   4.244   5.216  0.6367 -0.0897 -0.5850
 1063SOL     OW14647   2.215   4.501  16.287  0.1300  0.0995  0.6695
 1063SOL    HW114648   2.255   4.442  16.351  3.5560 -0.9929 -2.4022
 1063SOL    HW214649   2.294   4.509  16.232 -0.1684 -3.9396 -0.3612
 1064SOL     OW14650   2.704   3.389   0.400  0.1125 -0.0354  0.4550
 1064SOL    HW114651   2.709   3.464   0.341 -2.9462  1.3966  2.0658
 1064SOL    HW214652   2.670   3.317   0.347 -1.0972  1.9843 -1.5261
 1065SOL     OW14653   4.348   1.398   4.801  1.0010 -0.3416  0.7119
 1065SOL    HW114654   4.442   1.384   4.811  1.1685  0.3799  0.1799
 1065SOL    HW214655   4.347   1.398   4.705  4.2241 -1.9650  0.6827
 1066SOL     OW14656   4.346   1.212   6.128 -0.0454 -0.1202  0.4525
 1066SOL    HW114657   4.283   1.283   6.116  0.0646 -0.1567 -0.3195
 1066SOL    HW214658   4.298   1.146   6.077 -0.8100  1.2255 -0.5630
 1067SOL     OW14659   4.288   4.618   4.688 -0.5519  0.3537 -0.2725
 1067SOL    HW114660   4.250   4.670   4.759  0.2090  1.1665 -0.4571
 1067SOL    HW214661   4.297   4.686   4.621 -0.1922 -0.6015 -1.1917
 1068SOL     OW14662   0.702   0.035   7.349  0.2143 -0.0738  0.3958
 1068SOL    HW114663   0.703   0.107   7.411  1.5282 -0.8820  1.3174
 1068SOL    HW214664   0.752   4.680   7.381  0.0887 -0.1295  0.4596
 1069SOL     OW14665   0.872   1.183   5.855  0.1563  0.0602  0.4411
 1069SOL    HW114666   0.870   1.270   5.815  1.1365  0.0013  0.2481
 1069SOL    HW214667   0.906   1.192   5.944  0.1039  2.0820  0.2525
 1070SOL     OW14668   0.014   2.388   9.181 -0.6241  0.3463  0.9298
 1070SOL    HW114669   4.691   2.304   9.196  0.3094 -0.9089 -3.2078
 1070SOL    HW214670   4.659   2.442   9.157 -1.3369 -0.2968  1.7298
 1071SOL     OW14671   2.093   0.942   0.408 -0.3928 -0.1879  0.1649
 1071SOL    HW114672   2.106   0.901   0.493  1.7289 -0.9698 -0.5362
 1071SOL    HW214673   2.146   0.887   0.351  0.8070 -0.3759  1.4692
 1072SOL     OW14674   1.949   1.169  10.270  0.2065  0.0257 -0.2859
 1072SOL    HW114675   2.044   1.178  10.274  0.0976  0.8444  0.7724
 1072SOL    HW214676   1.927   1.088  10.315  2.1435 -0.1340  0.3748
 1073SOL     OW14677   3.043   3.472   4.832  0.2282  0.1401 -0.5295
 1073SOL    HW114678   2.989   3.397   4.811  0.5902 -0.0924 -0.6372
 1073SOL    HW214679   2.982   3.531   4.876  1.1901  1.1000 -0.4872
 1074SOL     OW14680   1.142   3.741   9.680  0.3372 -0.3046  0.2348
 1074SOL    HW114681   1.115   3.828   9.648 -2.3807 -0.2697  2.6204
 1074SOL    HW214682   1.068   3.688   9.650 -0.8985  1.2502  0.5091
 1075SOL     OW14683   1.716   2.202   7.131  0.0497  0.4339 -0.0743
 1075SOL    HW114684   1.643   2.196   7.069  0.0465  2.4424 -0.2794
 1075SOL    HW214685   1.727   2.111   7.156  1.3648  0.2989 -1.1864
 1076SOL     OW14686   0.160   0.252   1.106  0.0350  0.1091 -0.2563
 1076SOL    HW114687   0.220   0.315   1.146 -0.0420  0.2425 -0.3502
 1076SOL    HW214688   0.215   0.177   1.083  0.1231  0.8031 -2.3314
 1077SOL     OW14689   4.689   2.418   6.827  0.6474 -0.1400 -0.3393
 1077SOL    HW114690   4.674   2.458   6.742 -1.0501 -1.2173 -0.5439
 1077SOL    HW214691   0.045   2.364   6.809 -0.6478 -1.6816 -1.2120
 1078SOL     OW14692   4.032   2.841  16.776 -0.0887 -0.1613  0.0367
 1078SOL    HW114693   4.024   2.838  16.871  0.7236 -0.6397  0.0836
 1078SOL    HW214694   3.944   2.879  16.767  0.2761  0.6235 -0.1667
 1079SOL     OW14695   1.908   4.627   7.675  0.4980  0.4710 -0.5410
 1079SOL    HW114696   1.994   4.591   7.693  0.2734 -0.7482 -1.9185
 1079SOL    HW214697   1.885   4.668   7.758 -0.6747 -0.6720 -0.2886
 1080SOL     OW14698   1.672   1.390   1.736  0.2118 -0.0693 -0.1893
 1080SOL    HW114699   1.760   1.374   1.701  0.9987  0.2962  1.6519
 1080SOL    HW214700   1.655   1.471   1.688  3.5195  1.9688  2.1159
 1081SOL     OW14701   3.768   2.477  12.947 -0.2256 -0.3329  0.0509
 1081SOL    HW114702   3.829   2.404  12.957  0.4353  0.1973 -0.1113
 1081SOL    HW214703   3.802   2.526  13.021  0.1690  1.7515 -1.4889
 1082SOL     OW14704   0.253   1.710   6.308  0.6439 -0.0592  0.1131
 1082SOL    HW114705   0.323   1.745   6.254  0.6742  0.7948  0.7025
 1082SOL    HW214706   0.254   1.624   6.266  0.4675  0.3746 -0.7595
 1083SOL     OW14707   0.667   2.425   1.177  0.3148  0.2403 -0.0319
 1083SOL    HW114708   0.722   2.378   1.240  0.1501 -0.2452 -0.2516
 1083SOL    HW214709   0.697   2.514   1.194 -1.2872  0.5697  0.9370
 1084SOL     OW14710   4.379   3.116   6.574  0.1503 -0.0458  0.3395
 1084SOL    HW114711   4.421   3.182   6.630 -0.1125 -1.3710  2.0935
 1084SOL    HW214712   4.291   3.128   6.610 -0.3205  0.2117 -0.9017
 1085SOL     OW14713   1.963   1.560   5.194 -0.0320  0.1626 -0.5299
 1085SOL    HW114714   2.034   1.518   5.242 -1.2163 -0.8306  0.3472
 1085SOL    HW214715   1.890   1.547   5.253 -0.1532  0.2107 -0.6687
 1086SOL     OW14716   2.694   2.882   1.510 -0.0910 -0.3750  0.2661
 1086SOL    HW114717   2.613   2.869   1.559  0.7312 -0.1310  1.7116
 1086SOL    HW214718   2.672   2.916   1.423 -1.2085 -0.6988  0.4250
 1087SOL     OW14719   1.757   4.383   5.066  0.2239 -0.4482 -0.4615
 1087SOL    HW114720   1.827   4.321   5.087 -0.1430 -1.0155 -0.9336
 1087SOL    HW214721   1.758   4.380   4.971  2.9924 -1.5497 -0.4000
 1088SOL     OW14722   0.442   0.448   8.304  0.2031 -0.5520 -0.3156
 1088SOL    HW114723   0.404   0.455   8.216  0.6262 -0.2819 -0.4764
 1088SOL    HW214724   0.404   0.367   8.339 -0.7180  0.1273  0.2737
 1089SOL     OW14725   3.542   0.655   0.597 -0.4620  0.2611  0.9371
 1089SOL    HW114726   3.574   0.658   0.507 -1.5842  1.1036  0.5628
 1089SOL    HW214727   3.499   0.738   0.616 -3.5594 -0.6834 -1.8334
 1090SOL     OW14728   3.876   2.703   7.109 -0.0482  0.4044  0.0411
 1090SOL    HW114729   3.927   2.771   7.151  1.4449 -0.1069 -0.9502
 1090SOL    HW214730   3.838   2.652   7.180  1.4023 -0.6804  0.0294
 1091SOL     OW14731   3.293   0.391  13.084 -0.6414 -0.5586  0.3732
 1091SOL    HW114732   3.338   0.473  13.102  1.9062 -1.5092 -1.6188
 1091SOL    HW214733   3.344   0.326  13.133 -0.9541 -0.7388  0.4625
 1092SOL     OW14734   0.115   0.848   6.979 -0.0470  0.0990  0.2011
 1092SOL    HW114735   0.102   0.865   7.072  2.0074 -0.6712  0.6401
 1092SOL    HW214736   0.122   0.934   6.937 -0.5341  0.9277  1.8482
 1093SOL     OW14737   0.511   3.630   9.489  0.0202  0.0427  0.3801
 1093SOL    HW114738   0.487   3.616   9.581  1.4308 -0.6332  0.6538
 1093SOL    HW214739   0.604   3.609   9.500 -0.3824 -2.0904 -0.3690
 1094SOL     OW14740   1.956   1.745  13.517  0.3827  0.0852  0.2863
 1094SOL    HW114741   1.984   1.766  13.428 -0.5411 -0.3137 -0.1025
 1094SOL    HW214742   1.889   1.678  13.501  0.2128  0.1000  0.9497
 1095SOL     OW14743   0.809   2.303  11.973 -1.0922 -0.0372  0.5454
 1095SOL    HW114744   0.732   2.354  11.945 -0.1759  1.3628  0.6006
 1095SOL    HW214745   0.881   2.362  11.953 -1.5258  0.4984  0.5566
 1096SOL     OW14746   1.858   2.991   2.118 -0.3365 -0.6814  0.1296
 1096SOL    HW114747   1.809   3.068   2.145  0.6953  0.6344 -1.7919
 1096SOL    HW214748   1.821   2.949   2.039 -0.6800  0.8278 -0.5023
 1097SOL     OW14749   3.648   0.688  16.736  0.9234 -0.0998  0.2761
 1097SOL    HW114750   3.665   0.747  16.809  3.2314 -0.6389  0.1467
 1097SOL    HW214751   3.728   0.636  16.741  0.2168 -1.3692 -1.6798
 1098SOL     OW14752   1.364   3.565   4.837 -0.1401  0.0878 -0.3005
 1098SOL    HW114753   1.278   3.582   4.800  0.1482  1.5478 -0.2842
 1098SOL    HW214754   1.373   3.477   4.801 -0.3857  0.4522 -1.2499
 1099SOL     OW14755   2.139   3.336   5.326  0.2609  0.3233 -0.0059
 1099SOL    HW114756   2.179   3.318   5.411 -0.4982 -2.0088 -0.1218
 1099SOL    HW214757   2.155   3.427   5.303  1.6118  0.0311 -0.2379
 1100SOL     OW14758   2.699   2.096   9.610  0.4404 -0.2252  0.3314
 1100SOL    HW114759   2.773   2.149   9.582 -2.0082  2.5241 -1.0221
 1100SOL    HW214760   2.706   2.089   9.706  1.9340 -1.8030  0.0953
 1101SOL     OW14761   2.047   2.917   8.052 -0.1407 -0.3820  0.1339
 1101SOL    HW114762   2.045   2.834   8.100 -1.8556 -0.3713  0.0729
 1101SOL    HW214763   1.991   2.896   7.978 -0.3521 -1.3478  0.5744
 1102SOL     OW14764   0.872   2.992  14.531  0.2606 -0.0157 -0.0803
 1102SOL    HW114765   0.808   3.010  14.462  0.2255 -0.2918 -0.1179
 1102SOL    HW214766   0.825   2.928  14.584  1.8211 -0.2120  1.0613
 1103SOL     OW14767   0.521   2.470  17.360 -0.1419  0.3484  0.3582
 1103SOL    HW114768   0.527   2.421  17.277  2.6978 -0.2281  0.8813
 1103SOL    HW214769   0.582   2.540  17.335  0.6975 -0.2448  0.7444
 1104SOL     OW14770   0.332   0.498   8.721 -0.9147 -0.1710  0.2433
 1104SOL    HW114771   0.421   0.465   8.735  0.0584  2.6787  0.7483
 1104SOL    HW214772   0.326   0.571   8.783 -0.8679 -0.0484  0.1009
 1105SOL     OW14773   4.389   2.517   0.638 -0.5651 -0.4122 -1.1101
 1105SOL    HW114774   4.329   2.493   0.567 -0.5494 -3.1482 -0.2022
 1105SOL    HW214775   4.401   2.439   0.692  0.7656  0.4435 -0.2082
 1106SOL     OW14776   0.126   1.491   3.488 -0.2123 -0.0705 -0.2117
 1106SOL    HW114777   0.051   1.509   3.431 -1.0619  0.1100  0.9516
 1106SOL    HW214778   0.109   1.405   3.528 -1.9683 -0.3964 -1.6540
 1107SOL     OW14779   4.485   1.457   7.504  0.2925 -0.2604 -0.7350
 1107SOL    HW114780   4.533   1.472   7.423  0.4011 -0.0045 -0.6249
 1107SOL    HW214781   4.469   1.363   7.498 -0.1367 -0.1067 -1.9805
 1108SOL     OW14782   3.097   2.812   0.201 -0.4727 -0.2950 -0.4027
 1108SOL    HW114783   3.099   2.725   0.163  2.5381 -0.6023  0.4601
 1108SOL    HW214784   3.016   2.842   0.160  0.2839 -0.9226 -2.3285
 1109SOL     OW14785   3.660   0.886   5.276  0.2006 -0.3076 -0.1246
 1109SOL    HW114786   3.580   0.925   5.242  0.2636  0.4710  0.6269
 1109SOL    HW214787   3.633   0.795   5.291  0.5625 -0.5321 -0.7914
 1110SOL     OW14788   4.394   0.249  13.026 -0.5423 -0.4371  0.4332
 1110SOL    HW114789   4.481   0.242  13.066  0.6114  2.2813 -1.5810
 1110SOL    HW214790   4.415   0.248  12.933 -2.0055  1.5409  0.0966
 1111SOL     OW14791   2.619   1.481   4.233 -0.3909 -0.0569  0.1358
 1111SOL    HW114792   2.665   1.545   4.288 -1.4933 -1.3955  2.6219
 1111SOL    HW214793   2.533   1.475   4.273 -0.3345  1.4629  0.5087
 1112SOL     OW14794   0.353   0.521   4.377 -0.6431  0.3471 -0.3510
 1112SOL    HW114795   0.259   0.510   4.390 -0.5805  1.2300  0.8367
 1112SOL    HW214796   0.385   0.456   4.440  0.9824  1.3427 -0.1619
 1113SOL     OW14797   1.963   2.209  12.765  0.6504 -0.2004 -0.0997
 1113SOL    HW114798   1.981   2.126  12.810  2.8381 -0.1111 -0.8323
 1113SOL    HW214799   1.898   2.246  12.824  0.0246 -2.4763  0.6582
 1114SOL     OW14800   4.084   3.965   3.661  0.5687  0.3639 -0.0729
 1114SOL    HW114801   4.101   3.873   3.641  1.5085  0.2055  1.3855
 1114SOL    HW214802   4.168   4.005   3.637  0.5765  0.0830 -0.5127
 1115SOL     OW14803   0.066   4.009   5.911 -0.2627 -0.0962 -0.3027
 1115SOL    HW114804   0.137   4.073   5.924  0.3959 -0.6197 -1.3839
 1115SOL    HW214805   0.079   3.977   5.822 -0.1388  1.8170 -0.9857
 1116SOL     OW14806   0.312   4.261   7.442 -0.2487 -0.4281  0.1454
 1116SOL    HW114807   0.368   4.328   7.402 -1.8503  0.4026 -0.7012
 1116SOL    HW214808   0.380   4.217   7.494  0.4109  1.9201  1.3306
 1117SOL     OW14809   4.096   4.443   5.815 -0.0324 -0.1468  0.0444
 1117SOL    HW114810   4.185   4.462   5.848  0.2667  0.3770 -1.0683
 1117SOL    HW214811   4.067   4.363   5.858 -1.3925  1.1836  1.6097
 1118SOL     OW14812   4.435   0.550  16.986  0.5484  0.0207  0.1633
 1118SOL    HW114813   4.530   0.544  16.998  0.5091  0.2035  0.5448
 1118SOL    HW214814   4.412   0.544  17.078  0.9266 -2.1101  0.1101
 1119SOL     OW14815   1.791   0.913   8.152 -0.6543  0.0712  0.0633
 1119SOL    HW114816   1.737   0.962   8.213 -0.0436 -0.8729  1.3791
 1119SOL    HW214817   1.879   0.935   8.183 -0.4942 -1.6059  0.7838
 1120SOL     OW14818   3.091   3.785   5.052 -0.8001 -0.5719  0.5241
 1120SOL    HW114819   3.034   3.847   5.097 -0.8705 -1.9888  2.3628
 1120SOL    HW214820   3.025   3.733   5.006  1.7811 -3.0973 -0.3036
 1121SOL     OW14821   0.472   0.126   6.145 -0.7079  0.3280 -0.0565
 1121SOL    HW114822   0.504   0.212   6.116  0.7478 -0.5298 -1.0182
 1121SOL    HW214823   0.548   0.074   6.170  0.7307  2.2482 -0.3754
 1122SOL     OW14824   1.129   1.477   9.544 -0.1335 -0.1729  0.3347
 1122SOL    HW114825   1.147   1.472   9.637  0.9958  0.2540  0.1422
 1122SOL    HW214826   1.191   1.545   9.517  0.1879 -1.1766 -1.4664
 1123SOL     OW14827   4.307   4.011   7.022  0.0805  0.1737 -0.2037
 1123SOL    HW114828   4.268   3.988   7.106  0.1750 -1.0546 -0.4900
 1123SOL    HW214829   4.289   4.105   7.020 -1.1061 -0.0301  0.5108
 1124SOL     OW14830   0.132   0.997   1.586  0.1397 -0.4046  0.0445
 1124SOL    HW114831   0.060   1.059   1.572 -0.6399 -1.4700 -0.6289
 1124SOL    HW214832   0.133   0.952   1.502  0.2479 -1.3302  0.5469
 1125SOL     OW14833   2.344   2.839   8.832 -0.3145 -0.3981  0.4562
 1125SOL    HW114834   2.280   2.812   8.898 -2.4381  0.5696 -1.2177
 1125SOL    HW214835   2.334   2.935   8.834  0.6464 -0.2363 -2.1128
 1126SOL     OW14836   0.261   1.520   6.116  0.3499 -0.4160 -0.3187
 1126SOL    HW114837   0.318   1.459   6.069  0.4582 -0.8187  0.3327
 1126SOL    HW214838   0.200   1.547   6.047 -0.8302  0.3877  1.0379
 1127SOL     OW14839   1.915   2.394   6.635  0.7170 -0.2225 -0.2414
 1127SOL    HW114840   1.980   2.442   6.685 -0.2996  0.9313 -0.0154
 1127SOL    HW214841   1.934   2.303   6.658 -0.0105  0.3942  2.8046
 1128SOL     OW14842   3.833   1.031   2.635  0.2701  0.2405 -0.1050
 1128SOL    HW114843   3.883   1.112   2.636 -0.5883  0.7690 -0.2640
 1128SOL    HW214844   3.861   0.996   2.550 -1.3405 -2.3473  0.4297
 1129SOL     OW14845   3.568   2.590   4.800  0.1762  0.9442 -0.0185
 1129SOL    HW114846   3.626   2.582   4.724 -0.9456 -2.0244 -0.5973
 1129SOL    HW214847   3.582   2.504   4.840  1.5396  1.2833  0.2295
 1130SOL     OW14848   4.537   4.581   7.074  0.4019  0.0283  0.1398
 1130SOL    HW114849   4.519   4.570   7.168  0.2928  0.0125  0.1178
 1130SOL    HW214850   4.613   4.526   7.060 -1.1458 -2.3678  1.0888
 1131SOL     OW14851   2.260   3.385   5.808  0.2026  0.0988  0.0223
 1131SOL    HW114852   2.213   3.445   5.866  0.8464  1.3945 -0.7822
 1131SOL    HW214853   2.347   3.386   5.849  0.5943  0.8615 -0.8392
 1132SOL     OW14854   0.344   0.253   2.874  0.2030 -0.7390  0.2736
 1132SOL    HW114855   0.358   0.343   2.846 -0.5339 -1.5741 -2.7746
 1132SOL    HW214856   0.250   0.236   2.868 -0.1301  1.3966 -0.4917
 1133SOL     OW14857   1.684   3.223  13.376 -0.5620  0.0170 -0.7264
 1133SOL    HW114858   1.722   3.136  13.385  0.0927  0.2333 -1.3468
 1133SOL    HW214859   1.647   3.239  13.463 -1.6462  0.2954 -1.2400
 1134SOL     OW14860   0.167   0.526   3.503  0.2536  0.2770 -0.2974
 1134SOL    HW114861   0.087   0.473   3.506  0.2442  0.2938 -0.2491
 1134SOL    HW214862   0.227   0.482   3.563 -2.3426 -0.1609  2.0045
 1135SOL     OW14863   2.045   3.192   3.896 -0.5805 -0.0639 -0.6394
 1135SOL    HW114864   2.075   3.204   3.986  0.0577  0.3920 -0.9096
 1135SOL    HW214865   1.980   3.123   3.907 -0.8398  0.1854 -0.6133
 1136SOL     OW14866   4.513   2.937   4.908 -0.4186 -0.2722 -0.4772
 1136SOL    HW114867   4.521   2.893   4.823  0.7051 -2.8651  0.9788
 1136SOL    HW214868   4.605   2.949   4.931 -0.6692 -1.1758  1.0228
 1137SOL     OW14869   1.535   4.548   5.950  0.0646 -0.2416  0.2484
 1137SOL    HW114870   1.604   4.488   5.923 -0.2846 -0.7420  0.4598
 1137SOL    HW214871   1.554   4.611   5.880 -0.7950 -1.0130 -0.6924
 1138SOL     OW14872   0.494   3.945   3.701 -0.2988  0.3857 -0.0107
 1138SOL    HW114873   0.468   3.869   3.753  2.3545 -1.5142 -1.4806
 1138SOL    HW214874   0.562   3.907   3.645 -2.1169  0.0722 -1.9957
 1139SOL     OW14875   1.809   4.448   8.202 -0.1602 -0.2281  0.1696
 1139SOL    HW114876   1.770   4.458   8.288 -3.0508 -2.1801 -0.8861
 1139SOL    HW214877   1.890   4.403   8.225 -0.5487 -0.1204  1.7273
 1140SOL     OW14878   4.218   1.556   5.776  0.5353  0.4715 -0.3184
 1140SOL    HW114879   4.148   1.535   5.715 -0.6067 -1.8413  1.8141
 1140SOL    HW214880   4.173   1.613   5.839 -0.9559 -1.6148  0.5159
 1141SOL     OW14881   2.211   1.567  13.836 -0.3579 -0.3701  0.1668
 1141SOL    HW114882   2.193   1.660  13.827 -0.5304 -0.4174 -0.0006
 1141SOL    HW214883   2.179   1.528  13.754  0.1512 -1.4800  0.4897
 1142SOL     OW14884   0.475   3.766   5.840 -0.5222  0.1451 -0.2943
 1142SOL    HW114885   0.441   3.758   5.929 -2.4197  1.0049 -0.9333
 1142SOL    HW214886   0.527   3.686   5.835  0.9159  1.0672 -0.0989
 1143SOL     OW14887   3.831   0.850   2.852  0.7026  0.1315 -0.1497
 1143SOL    HW114888   3.750   0.893   2.877 -0.8610 -1.8434 -1.7977
 1143SOL    HW214889   3.858   0.909   2.782  2.2717  1.3817  1.5121
 1144SOL     OW14890   2.145   0.159  16.447 -0.0923  0.0435 -0.4061
 1144SOL    HW114891   2.057   0.186  16.472  0.0397 -1.9420  2.1920
 1144SOL    HW214892   2.189   0.227  16.395 -0.9683  2.4324  1.9963
 1145SOL     OW14893   4.110   2.761   0.608  0.6242  0.0853  0.1318
 1145SOL    HW114894   4.175   2.768   0.677 -0.4470  1.0816  1.0473
 1145SOL    HW214895   4.115   2.665   0.609  1.1344  0.1150  0.0338
 1146SOL     OW14896   2.699   3.455   6.931 -0.4506  0.3559 -0.7052
 1146SOL    HW114897   2.702   3.360   6.946 -1.0059  0.5301  0.4485
 1146SOL    HW214898   2.628   3.463   6.867 -1.0477 -2.9662 -0.4816
 1147SOL     OW14899   3.121   2.224   0.187 -0.0798 -0.1157  0.2142
 1147SOL    HW114900   3.162   2.266   0.263 -0.6898  1.2151 -0.1957
 1147SOL    HW214901   3.171   2.144   0.172  1.6892  1.0324  0.0585
 1148SOL     OW14902   0.742   1.139   1.846  0.0664 -0.2009 -0.2928
 1148SOL    HW114903   0.678   1.114   1.779 -0.6066  0.8926 -0.0610
 1148SOL    HW214904   0.722   1.070   1.909  0.8991 -2.0369 -2.0196
 1149SOL     OW14905   1.088   2.798   7.106 -0.0077 -0.2573 -0.1915
 1149SOL    HW114906   1.048   2.757   7.029  0.3788 -0.3786 -0.3285
 1149SOL    HW214907   1.174   2.757   7.112  0.2091  0.4199  1.2178
 1150SOL     OW14908   4.372   0.507  15.581 -0.1230 -0.1699 -0.1207
 1150SOL    HW114909   4.393   0.428  15.532  1.0194  0.0198  0.0634
 1150SOL    HW214910   4.331   0.561  15.513 -0.5618 -0.1266  0.1768
 1151SOL     OW14911   0.267   4.190   3.279  0.3049  0.0518 -0.7135
 1151SOL    HW114912   0.285   4.099   3.254 -1.3387 -0.8665  1.4715
 1151SOL    HW214913   0.198   4.182   3.345  0.8196 -0.3962 -0.2272
 1152SOL     OW14914   3.473   0.281   5.336 -0.5766 -0.0284  0.3571
 1152SOL    HW114915   3.474   0.334   5.416  0.6608  0.3113  0.1180
 1152SOL    HW214916   3.392   0.238   5.361  0.5800 -2.2327  0.3442
 1153SOL     OW14917   4.614   1.846  15.761  0.1739  0.1185 -0.0442
 1153SOL    HW114918   4.532   1.888  15.786  0.7859  0.3881  1.4901
 1153SOL    HW214919   4.676   1.858  15.832  2.3011  1.7370 -2.1631
 1154SOL     OW14920   2.378   1.174  15.289  0.1681  0.1775 -0.5417
 1154SOL    HW114921   2.296   1.223  15.285  1.3028  2.1060 -0.3181
 1154SOL    HW214922   2.415   1.236  15.353  1.1259 -0.3458 -0.5892
 1155SOL     OW14923   0.446   2.537  17.654 -0.1655 -0.3498 -0.9127
 1155SOL    HW114924   0.516   2.514  17.593  1.8162 -0.3061  1.3171
 1155SOL    HW214925   0.446   2.473   0.040  1.1541  1.3578  0.6615
 1156SOL     OW14926   2.529   2.675   0.290  0.0631  0.3968  0.0283
 1156SOL    HW114927   2.510   2.618   0.216 -1.4370 -1.1419  1.5684
 1156SOL    HW214928   2.575   2.608   0.342  0.0754  0.9270  0.7110
 1157SOL     OW14929   4.406   0.559   2.013  0.3012  0.2134 -0.5646
 1157SOL    HW114930   4.336   0.495   2.022  0.6315 -0.3056 -1.7843
 1157SOL    HW214931   4.466   0.518   1.951  0.2627 -1.2482  0.3743
 1158SOL     OW14932   3.745   2.755   4.915  0.6850  0.1506 -0.1906
 1158SOL    HW114933   3.687   2.693   4.871 -1.6236  1.3455  1.1681
 1158SOL    HW214934   3.820   2.706   4.947 -0.1350 -0.1053  1.3513
 1159SOL     OW14935   0.853   0.355  10.338  0.4578 -0.1974  0.4496
 1159SOL    HW114936   0.796   0.361  10.414  2.3251  0.4046  1.8231
 1159SOL    HW214937   0.915   0.284  10.354  0.3554 -0.7371 -1.5443
 1160SOL     OW14938   1.296   3.283  13.512 -0.0538  1.1037 -0.5728
 1160SOL    HW114939   1.376   3.263  13.560 -0.7759 -1.3518 -0.3822
 1160SOL    HW214940   1.331   3.260  13.426 -1.9496  0.9017 -1.3033
 1161SOL     OW14941   2.815   2.660   7.902  0.0286  0.0386 -0.0190
 1161SOL    HW114942   2.838   2.727   7.967  0.2273  0.8359 -0.9113
 1161SOL    HW214943   2.789   2.722   7.834 -0.3325  0.5445  0.5694
 1162SOL     OW14944   1.410   1.063   5.400  0.2828 -0.1528 -0.5759
 1162SOL    HW114945   1.368   1.001   5.460 -1.9027  2.5922  0.7217
 1162SOL    HW214946   1.417   1.139   5.458 -2.4521 -1.1781  1.1121
 1163SOL     OW14947   2.925   3.977   4.758  0.3634 -0.0563 -0.1707
 1163SOL    HW114948   3.009   3.934   4.743  0.3082  0.1566 -1.1046
 1163SOL    HW214949   2.883   3.973   4.672  0.9308  3.3270 -0.6025
 1164SOL     OW14950   2.304   1.891   6.148 -0.3154  0.1062 -0.0255
 1164SOL    HW114951   2.318   1.936   6.232 -0.0150  0.2583 -0.1596
 1164SOL    HW214952   2.372   1.930   6.094  2.3223 -2.0847  1.7038
 1165SOL     OW14953   1.840   3.535   6.254  0.3877 -0.1192 -0.1183
 1165SOL    HW114954   1.765   3.531   6.313 -0.6145 -0.6165 -1.4068
 1165SOL    HW214955   1.843   3.629   6.238 -0.1262  0.5188  3.5993
 1166SOL     OW14956   2.110   3.699   1.909 -0.1312 -0.1484  0.2330
 1166SOL    HW114957   2.177   3.633   1.928  0.7918  0.5521 -0.5983
 1166SOL    HW214958   2.121   3.703   1.814 -3.1043  0.2818 -0.0929
 1167SOL     OW14959   3.958   0.939  13.591 -0.2438  0.0319 -0.1029
 1167SOL    HW114960   3.871   0.915  13.561 -0.9703  0.0868  1.9918
 1167SOL    HW214961   3.945   1.017  13.645 -0.4993  1.3812 -2.1005
 1168SOL     OW14962   2.572   1.401   1.859 -0.4551  0.6744 -0.1057
 1168SOL    HW114963   2.550   1.308   1.853 -1.7045  0.8734  1.6045
 1168SOL    HW214964   2.664   1.391   1.835 -0.3942 -0.4237  0.6110
 1169SOL     OW14965   0.610   1.023   2.704 -0.1155 -0.1921 -0.4669
 1169SOL    HW114966   0.544   1.040   2.637  0.1641  2.3509 -0.0822
 1169SOL    HW214967   0.679   0.983   2.652  1.6525 -0.4677  2.1159
 1170SOL     OW14968   2.127   1.743   1.972 -0.2509 -0.1272  0.0368
 1170SOL    HW114969   2.076   1.824   1.973  2.1292  1.3720  0.1217
 1170SOL    HW214970   2.173   1.745   1.888 -1.2592 -1.5003 -0.5279
 1171SOL     OW14971   4.389   4.342   0.242 -0.4156  0.3139 -0.3345
 1171SOL    HW114972   4.328   4.407   0.208  0.4733  0.6262 -1.3340
 1171SOL    HW214973   4.387   4.375   0.332  2.7337  0.2877 -0.2564
 1172SOL     OW14974   3.168   1.511   5.374 -0.0766 -0.2234 -0.2798
 1172SOL    HW114975   3.218   1.541   5.449  1.4338  2.1972 -2.2390
 1172SOL    HW214976   3.235   1.511   5.305  0.5006 -0.1133  0.2780
 1173SOL     OW14977   0.682   1.774   1.132  0.5147  0.8358 -0.1864
 1173SOL    HW114978   0.612   1.716   1.102  3.4544 -2.9421  0.1888
 1173SOL    HW214979   0.666   1.851   1.078 -1.1187 -0.6586 -1.8332
 1174SOL     OW14980   1.804   2.429  15.558 -0.9364 -0.3471  0.2531
 1174SOL    HW114981   1.802   2.450  15.651  0.1187 -1.7082  0.5836
 1174SOL    HW214982   1.730   2.476  15.518  0.2546 -0.4982 -2.1590
 1175SOL     OW14983   0.441   1.220   3.082 -0.0722 -0.4015 -0.4863
 1175SOL    HW114984   0.356   1.217   3.038 -0.6687  2.0532  0.4859
 1175SOL    HW214985   0.455   1.129   3.109  2.4510  0.7936  2.1983
 1176SOL     OW14986   0.093   0.102   5.590  0.8133 -0.3997 -0.0917
 1176SOL    HW114987   0.136   0.183   5.563 -0.3209  0.6721  1.3130
 1176SOL    HW214988   0.161   0.060   5.642  1.5586  0.0078 -0.7356
 1177SOL     OW14989   4.382   4.043   8.563  0.1429  0.1567 -0.2755
 1177SOL    HW114990   4.465   4.086   8.581 -0.2448  0.5917  0.4994
 1177SOL    HW214991   4.342   4.124   8.532 -2.1466 -0.2178  1.6417
 1178SOL     OW14992   0.164   3.936   8.658  0.0554  0.6086 -0.6301
 1178SOL    HW114993   0.128   3.866   8.603 -2.2927  0.6444  0.8779
 1178SOL    HW214994   0.143   4.008   8.598 -0.5653  1.2393  0.3583
 1179SOL     OW14995   2.974   3.256  11.024  0.2406 -0.1061  0.0337
 1179SOL    HW114996   3.012   3.300  10.948 -2.0151  1.6363 -0.0814
 1179SOL    HW214997   2.958   3.166  10.996  2.9781 -0.5305 -0.0879
 1180SOL     OW14998   3.840   3.411  13.351 -0.2579  0.1092  0.0736
 1180SOL    HW114999   3.822   3.341  13.289  1.7814 -0.5216  0.2069
 1180SOL    HW215000   3.783   3.375  13.419  0.2342 -2.2368 -0.7747
 1181SOL     OW15001   1.924   3.911   6.896 -0.1411 -0.2822 -0.3819
 1181SOL    HW115002   1.966   3.889   6.979 -2.8529 -2.2855  0.4609
 1181SOL    HW215003   1.839   3.954   6.909 -0.8893 -1.9588  0.2473
 1182SOL     OW15004   2.630   3.393  12.025 -0.1428  0.4665  0.1291
 1182SOL    HW115005   2.540   3.402  12.056  0.3436  1.5062  1.2343
 1182SOL    HW215006   2.615   3.413  11.933 -2.6560 -2.0957  0.0010
 1183SOL     OW15007   1.081   2.861   4.570  0.0447  0.6646 -0.1873
 1183SOL    HW115008   1.086   2.881   4.663  2.4193  0.1450 -0.2041
 1183SOL    HW215009   1.171   2.872   4.538 -0.3906  1.2995 -1.1967
 1184SOL     OW15010   1.852   1.017   2.862 -0.5603 -0.5199 -0.9223
 1184SOL    HW115011   1.845   1.110   2.839 -0.8937 -0.5304 -0.8660
 1184SOL    HW215012   1.768   1.002   2.906 -0.7295 -1.4779 -1.5639
 1185SOL     OW15013   2.259   3.614   1.653 -0.3754 -0.4926  0.3979
 1185SOL    HW115014   2.340   3.665   1.656  0.0534 -1.0313 -1.9557
 1185SOL    HW215015   2.290   3.524   1.643 -1.6027 -0.6810 -1.6817
 1186SOL     OW15016   0.455   1.256   3.832 -0.2510 -0.4392 -0.2860
 1186SOL    HW115017   0.528   1.238   3.890 -0.0011  0.4898 -0.2987
 1186SOL    HW215018   0.488   1.334   3.787 -1.9915 -0.1019 -0.9787
 1187SOL     OW15019   4.156   3.694   5.525  0.6105 -0.6725 -0.2353
 1187SOL    HW115020   4.173   3.653   5.610  2.2638 -1.1967 -0.8296
 1187SOL    HW215021   4.171   3.785   5.552  0.7409 -0.6953 -0.2281
 1188SOL     OW15022   4.114   4.400   0.063  0.2538 -0.2758 -0.4536
 1188SOL    HW115023   4.154   4.471   0.114 -0.7887 -1.9625  2.7589
 1188SOL    HW215024   4.021   4.422   0.064  1.0204  2.8968  3.9107
 1189SOL     OW15025   3.743   3.113  13.395 -0.3819 -0.9781 -0.9276
 1189SOL    HW115026   3.781   3.029  13.419  1.1570 -0.0723 -0.2020
 1189SOL    HW215027   3.763   3.110  13.302  0.2518  2.6117 -0.9360
 1190SOL     OW15028   0.655   0.773   8.281 -0.2931  0.3202  0.0990
 1190SOL    HW115029   0.584   0.767   8.216 -0.8114  2.4471  0.4697
 1190SOL    HW215030   0.651   0.867   8.297  0.3706  0.6527 -1.6684
 1191SOL     OW15031   2.209   4.053   4.827  0.0093  0.5720 -0.6047
 1191SOL    HW115032   2.143   4.053   4.757  0.9697 -0.8034 -1.5013
 1191SOL    HW215033   2.149   4.080   4.897  0.8149  0.5666  0.0815
 1192SOL     OW15034   1.204   3.412   6.807 -0.1885  0.1623  0.9410
 1192SOL    HW115035   1.259   3.341   6.773 -2.4409  0.7214 -3.7687
 1192SOL    HW215036   1.232   3.423   6.898  0.7060 -0.0815  0.6975
 1193SOL     OW15037   0.783   1.998  10.746  0.3080  0.4066 -0.7849
 1193SOL    HW115038   0.741   2.061  10.804  0.2242 -2.1227  1.9100
 1193SOL    HW215039   0.810   1.923  10.798 -2.1620  0.7000  0.9227
 1194SOL     OW15040   1.890   4.551   1.833  0.6375  0.5067  0.3506
 1194SOL    HW115041   1.831   4.615   1.794 -1.0275 -0.1456  1.7750
 1194SOL    HW215042   1.908   4.503   1.753  0.6083 -0.4472  0.9135
 1195SOL     OW15043   2.930   4.063  14.164  0.7903 -0.2910 -0.1501
 1195SOL    HW115044   2.884   4.075  14.081 -1.6657 -0.6009  1.1624
 1195SOL    HW215045   2.875   4.088  14.238 -0.0784 -0.6921 -0.6503
 1196SOL     OW15046   1.664   1.174   8.211 -0.0756  0.1402 -0.1823
 1196SOL    HW115047   1.596   1.218   8.262 -0.0890 -0.0245 -0.0574
 1196SOL    HW215048   1.616   1.158   8.130  1.4463  1.6888 -1.4105
 1197SOL     OW15049   2.498   0.182   2.213  0.1887 -0.1659  0.1213
 1197SOL    HW115050   2.431   0.115   2.200  2.9309 -3.2503  2.0382
 1197SOL    HW215051   2.544   0.154   2.291 -1.1481 -0.8322  0.6746
 1198SOL     OW15052   2.273   1.635  17.014  0.3702  0.3850 -0.3479
 1198SOL    HW115053   2.205   1.573  16.990  1.9732 -1.4754 -0.0457
 1198SOL    HW215054   2.349   1.576  17.014  0.8337  0.9716  1.1584
 1199SOL     OW15055   2.722   1.867  10.932  0.2212 -0.2674  0.3600
 1199SOL    HW115056   2.776   1.798  10.894 -1.3829 -1.2087 -0.2363
 1199SOL    HW215057   2.664   1.864  10.855  0.5151  1.3050  0.0832
 1200SOL     OW15058   0.250   4.446  16.565 -0.0432  0.0912  0.4412
 1200SOL    HW115059   0.183   4.399  16.614  0.5683 -0.0766  1.1218
 1200SOL    HW215060   0.302   4.374  16.529 -1.2446 -0.9417  0.7719
 1201SOL     OW15061   1.637   1.653   7.003 -0.4261  0.2642 -0.1434
 1201SOL    HW115062   1.638   1.583   6.938 -0.0570 -0.3832  0.5620
 1201SOL    HW215063   1.647   1.601   7.083  0.0533 -1.2864 -1.1976
 1202SOL     OW15064   0.471   0.471   4.702 -0.4354  0.8431  0.2313
 1202SOL    HW115065   0.425   0.425   4.631  0.2378 -0.4338  0.6342
 1202SOL    HW215066   0.436   0.420   4.775  0.1296 -1.4304 -1.0934
 1203SOL     OW15067   1.976   4.311   3.431 -0.0082 -0.2265 -0.1130
 1203SOL    HW115068   1.974   4.236   3.371 -2.4535  1.3086 -1.9232
 1203SOL    HW215069   2.039   4.365   3.384 -2.4216  1.6943 -1.1355
 1204SOL     OW15070   2.071   3.671   1.200 -0.1881 -0.2430  0.5017
 1204SOL    HW115071   2.097   3.644   1.112 -1.1735 -0.5867  0.3137
 1204SOL    HW215072   1.981   3.640   1.216 -0.6457 -0.3644 -2.3911
 1205SOL     OW15073   0.842   2.826   5.682  0.3994 -0.2023 -0.2135
 1205SOL    HW115074   0.749   2.810   5.697  0.4904 -1.1017 -0.6156
 1205SOL    HW215075   0.863   2.869   5.764  0.2602  0.4489 -0.5194
 1206SOL     OW15076   2.431   3.408   7.902  0.1092 -0.0560 -0.3158
 1206SOL    HW115077   2.417   3.333   7.844  2.1424  0.5028 -1.5231
 1206SOL    HW215078   2.390   3.478   7.853 -1.2976  0.2003  1.2272
 1207SOL     OW15079   0.460   2.363   5.450 -0.0371 -0.3821  0.3052
 1207SOL    HW115080   0.409   2.322   5.520  0.1723 -1.1678 -0.0017
 1207SOL    HW215081   0.544   2.318   5.461 -0.2221 -0.7280  0.2718
 1208SOL     OW15082   2.085   0.441   3.189  0.1534  0.1276  0.0992
 1208SOL    HW115083   2.014   0.497   3.221  0.9352  3.0475 -3.2058
 1208SOL    HW215084   2.076   0.372   3.254 -0.7143 -0.9255 -1.1486
 1209SOL     OW15085   2.875   1.768  16.933 -0.1609 -0.0540 -0.4801
 1209SOL    HW115086   2.941   1.759  17.002 -0.8065  1.3968  0.3371
 1209SOL    HW215087   2.805   1.706  16.954  2.0040 -1.1664  3.4509
 1210SOL     OW15088   4.691   3.959   9.358 -0.1164 -0.4540 -0.2443
 1210SOL    HW115089   4.655   3.877   9.325  0.3056 -0.5561 -0.4598
 1210SOL    HW215090   4.649   4.021   9.300 -0.3649 -0.3308  0.0686
 1211SOL     OW15091   4.489   1.872   8.091 -0.1846 -0.0623 -0.0212
 1211SOL    HW115092   4.546   1.948   8.096  1.0250 -0.9081 -0.8685
 1211SOL    HW215093   4.544   1.817   8.034  0.9991  2.1575 -1.0027
 1212SOL     OW15094   1.044   4.341   8.134 -0.8006 -0.2778  0.2101
 1212SOL    HW115095   0.996   4.397   8.073  1.0781 -0.8886 -1.8375
 1212SOL    HW215096   1.014   4.255   8.104  2.1895 -1.2476 -0.0366
 1213SOL     OW15097   1.719   2.155  11.999 -0.0997 -0.8293  1.0010
 1213SOL    HW115098   1.686   2.187  12.083  0.7480  1.4056  0.4857
 1213SOL    HW215099   1.649   2.186  11.941  1.8236  1.5441 -0.0269
 1214SOL     OW15100   4.156   1.809   8.847 -0.0959  0.6286  0.5303
 1214SOL    HW115101   4.162   1.857   8.765 -1.2612 -0.8313 -0.4068
 1214SOL    HW215102   4.061   1.809   8.864 -0.5390  1.9297 -2.0130
 1215SOL     OW15103   0.393   4.173   2.396 -0.1261 -0.0224  0.0317
 1215SOL    HW115104   0.340   4.096   2.419 -1.1981  0.3045 -1.3133
 1215SOL    HW215105   0.363   4.200   2.309  0.4451  0.3010 -0.0628
 1216SOL     OW15106   2.527   2.502   9.593 -0.6069 -0.3817  0.6901
 1216SOL    HW115107   2.551   2.474   9.681  0.2061  2.7642  1.4466
 1216SOL    HW215108   2.438   2.467   9.598 -0.6814 -0.0005  1.9742
 1217SOL     OW15109   4.489   3.378   2.653  0.0826 -0.5328  0.2845
 1217SOL    HW115110   4.527   3.462   2.628  0.0473  0.0197  2.0769
 1217SOL    HW215111   4.427   3.368   2.581  1.0143  0.0912 -0.6087
 1218SOL     OW15112   2.073   0.616  12.109 -0.9468  0.2903  0.7836
 1218SOL    HW115113   1.995   0.572  12.075 -0.8735  1.0426 -0.3484
 1218SOL    HW215114   2.134   0.546  12.134  0.8001  1.3914 -0.4175
 1219SOL     OW15115   4.258   0.290   5.120 -0.0122 -0.4291 -0.0718
 1219SOL    HW115116   4.297   0.365   5.074 -0.9382  0.4569  0.6002
 1219SOL    HW215117   4.165   0.309   5.131  0.0124  0.0178 -0.6466
 1220SOL     OW15118   4.268   4.701   4.287 -0.4590 -0.2567 -0.0531
 1220SOL    HW115119   4.223   0.037   4.224  0.1770  1.1186  0.7349
 1220SOL    HW215120   4.283   4.618   4.241  1.0539 -0.2319  0.4058
 1221SOL     OW15121   3.858   0.979   5.528 -0.8518 -0.4550  0.1952
 1221SOL    HW115122   3.915   1.028   5.469 -3.1176 -0.3780 -1.9125
 1221SOL    HW215123   3.775   1.024   5.515 -1.3122 -1.7504 -1.2672
 1222SOL     OW15124   0.245   2.720   2.874  0.0740 -0.2642  0.4874
 1222SOL    HW115125   0.155   2.697   2.851  0.6345 -1.1758 -0.8267
 1222SOL    HW215126   0.278   2.639   2.912  1.1522  1.2137  2.6998
 1223SOL     OW15127   3.340   1.033  15.234 -0.4310 -0.5434 -0.5745
 1223SOL    HW115128   3.423   1.078  15.249 -1.5216  0.2962  3.0784
 1223SOL    HW215129   3.304   1.093  15.168  2.1221  1.8743  0.2244
 1224SOL     OW15130   0.287   2.979  16.007  0.1201  0.2183 -0.3803
 1224SOL    HW115131   0.289   3.060  16.057  0.0653  0.3504 -0.5928
 1224SOL    HW215132   0.210   3.000  15.956  0.6520 -0.8532 -1.6399
 1225SOL     OW15133   1.211   4.016  13.262 -0.0274  0.1627  0.6809
 1225SOL    HW115134   1.147   4.018  13.333  0.3790  3.7867  0.9242
 1225SOL    HW215135   1.170   3.961  13.194  0.5612  4.4369 -3.1096
 1226SOL     OW15136   0.311   3.170   6.429 -0.2783 -0.3548 -0.2748
 1226SOL    HW115137   0.304   3.147   6.521  2.3489  0.6716  0.1894
 1226SOL    HW215138   0.299   3.085   6.386  2.1491 -0.6466 -0.3548
 1227SOL     OW15139   1.452   2.113   7.152  0.1251  0.1415 -0.1746
 1227SOL    HW115140   1.454   2.074   7.239  0.5782 -0.8974 -0.6396
 1227SOL    HW215141   1.424   2.203   7.166 -0.4913  0.3139 -2.4981
 1228SOL     OW15142   2.240   3.498   3.815  0.3023 -0.1205 -0.4432
 1228SOL    HW115143   2.186   3.455   3.882  0.0806  0.1175 -0.4682
 1228SOL    HW215144   2.283   3.574   3.856 -0.6622  0.2841 -0.1787
 1229SOL     OW15145   1.230   4.635  13.677  0.3577 -0.3032 -0.0829
 1229SOL    HW115146   1.300   4.603  13.734  0.0416  2.3709  1.7854
 1229SOL    HW215147   1.221   0.003  13.711  0.0177 -1.7216  3.4758
 1230SOL     OW15148   4.633   2.530  14.935  0.0760 -0.2814  0.2516
 1230SOL    HW115149   4.708   2.545  14.877 -0.8262  1.3142 -0.5031
 1230SOL    HW215150   4.560   2.578  14.897  2.4659  0.8657 -2.8704
 1231SOL     OW15151   1.360   2.474   2.409  0.8620 -0.1298  0.0736
 1231SOL    HW115152   1.284   2.416   2.419  0.2355  0.6298 -0.2863
 1231SOL    HW215153   1.427   2.425   2.361  1.7620  0.4012  0.7888
 1232SOL     OW15154   4.405   2.557  10.162 -0.4363  0.1508 -0.0197
 1232SOL    HW115155   4.366   2.569  10.249 -1.4699  0.2809 -0.4923
 1232SOL    HW215156   4.329   2.575  10.105 -0.8598 -0.1061  0.4611
 1233SOL     OW15157   3.263   2.126  17.303 -0.5010 -1.0791 -0.7366
 1233SOL    HW115158   3.223   2.053  17.351 -3.3066  0.4944 -0.6605
 1233SOL    HW215159   3.202   2.197  17.326 -0.0436 -0.6413 -0.8919
 1234SOL     OW15160   1.406   1.632  10.761  0.0093  0.7084 -0.3132
 1234SOL    HW115161   1.428   1.619  10.853  0.8904 -2.5611 -0.9853
 1234SOL    HW215162   1.316   1.661  10.753 -0.6314 -1.4201 -0.9612
 1235SOL     OW15163   1.595   2.631   7.615  0.4428  0.3336 -0.4092
 1235SOL    HW115164   1.639   2.673   7.540  0.4910 -2.2443 -1.8215
 1235SOL    HW215165   1.591   2.544   7.576 -3.1010 -0.2058  1.2153
 1236SOL     OW15166   1.274   2.792   2.086 -0.1180  0.2372 -0.3010
 1236SOL    HW115167   1.332   2.790   2.162  0.9203 -0.2892 -1.1028
 1236SOL    HW215168   1.239   2.880   2.102 -0.1986 -0.4177  3.0942
 1237SOL     OW15169   3.377   0.687  10.288 -0.3157  0.0047 -0.2987
 1237SOL    HW115170   3.457   0.636  10.278 -1.9964 -3.2069  2.8203
 1237SOL    HW215171   3.308   0.623  10.303 -0.8340  0.4941 -0.6300
 1238SOL     OW15172   3.604   1.968   4.770 -0.4652  0.0488 -0.0551
 1238SOL    HW115173   3.543   1.991   4.700 -2.9977 -0.7790  1.9024
 1238SOL    HW215174   3.680   1.972   4.711 -2.3972  1.2525 -2.4661
 1239SOL     OW15175   1.958   1.476   8.396 -0.1004 -0.0218  0.8679
 1239SOL    HW115176   1.933   1.445   8.309 -1.3790  2.2064  0.4522
 1239SOL    HW215177   1.961   1.570   8.379 -1.4897 -0.1399 -0.0180
 1240SOL     OW15178   1.951   1.654   2.648  0.0719 -0.1615  0.4087
 1240SOL    HW115179   1.871   1.619   2.607  1.6227  0.3562 -3.0802
 1240SOL    HW215180   1.922   1.745   2.649 -3.0641 -1.1510 -0.4135
 1241SOL     OW15181   4.021   0.874   0.268 -0.0725 -0.1522 -0.4810
 1241SOL    HW115182   4.109   0.864   0.231 -0.2646 -0.0608 -0.9624
 1241SOL    HW215183   3.993   0.787   0.296  0.7871  0.0741  1.1078
 1242SOL     OW15184   1.335   0.335   2.265  0.2631  0.0762 -0.4161
 1242SOL    HW115185   1.317   0.422   2.301  0.7703 -0.0383  0.1166
 1242SOL    HW215186   1.430   0.336   2.256  0.1337 -0.8402 -1.8407
 1243SOL     OW15187   1.434   2.677   3.221 -0.0362  0.1712 -0.3387
 1243SOL    HW115188   1.382   2.708   3.147  0.1900 -1.2571 -1.0909
 1243SOL    HW215189   1.460   2.601   3.170 -0.1744 -0.9623  1.2850
 1244SOL     OW15190   4.404   2.533   8.319 -0.5065  0.1629  0.3033
 1244SOL    HW115191   4.405   2.465   8.387 -0.3751 -0.8508 -0.7027
 1244SOL    HW215192   4.414   2.610   8.374  0.8384  0.2056 -0.0154
 1245SOL     OW15193   4.386   4.480   0.468  0.2436  0.1461  0.3415
 1245SOL    HW115194   4.355   4.540   0.536 -0.1417 -0.7123  0.9373
 1245SOL    HW215195   4.441   4.538   0.416 -0.2918 -0.9425 -1.4626
 1246SOL     OW15196   3.248   1.889   3.419  0.4642  0.1348 -0.1967
 1246SOL    HW115197   3.273   1.948   3.490 -0.3200  0.5415 -0.2599
 1246SOL    HW215198   3.158   1.861   3.437  0.6235 -0.4798 -0.3386
 1247SOL     OW15199   2.461   1.589   3.987 -0.1913 -0.3264 -0.0606
 1247SOL    HW115200   2.457   1.515   4.048 -0.3704 -0.7882 -0.6292
 1247SOL    HW215201   2.406   1.657   4.027  1.1441  0.2876  0.7221
 1248SOL     OW15202   2.249   1.591   2.166 -0.2456  0.5923  0.3155
 1248SOL    HW115203   2.193   1.649   2.116  0.0850  0.9596  0.3743
 1248SOL    HW215204   2.231   1.508   2.121  1.2672  0.7696 -0.6330
 1249SOL     OW15205   4.659   4.572  16.796 -0.7285 -0.1941  0.3263
 1249SOL    HW115206   0.016   4.604  16.750  0.9554 -1.7258  2.1163
 1249SOL    HW215207   4.694   4.497  16.844 -2.7033 -2.0008 -1.0663
 1250SOL     OW15208   3.975   4.000   2.469  0.5647  0.4499  0.0391
 1250SOL    HW115209   4.057   3.991   2.519 -0.0055  0.6490  1.0118
 1250SOL    HW215210   3.922   3.965   2.540  0.6481 -0.0725 -0.1556
 1251SOL     OW15211   3.599   1.502   6.816  0.8802  0.2252  0.7016
 1251SOL    HW115212   3.601   1.522   6.910  0.8483 -2.1525  1.2131
 1251SOL    HW215213   3.655   1.569   6.777  1.7121  0.0359  1.5788
 1252SOL     OW15214   0.890   4.308  16.967  0.2219 -0.9894 -0.4481
 1252SOL    HW115215   0.802   4.302  16.930  0.3070  1.9612 -1.1837
 1252SOL    HW215216   0.875   4.256  17.046 -1.2335  0.6759  0.3730
 1253SOL     OW15217   4.543   2.199   5.730 -0.5785 -0.0644 -0.2844
 1253SOL    HW115218   4.529   2.151   5.648 -0.5882  1.1159 -0.9711
 1253SOL    HW215219   4.636   2.180   5.746 -0.1711 -0.3679 -3.0214
 1254SOL     OW15220   3.952   1.402   2.130 -0.1076  0.2566 -0.0508
 1254SOL    HW115221   4.037   1.441   2.152  0.9309 -1.8507 -0.3063
 1254SOL    HW215222   3.967   1.324   2.184 -1.5074 -0.5547 -0.8548
 1255SOL     OW15223   0.473   3.666   3.785  0.2235 -0.2386  0.2797
 1255SOL    HW115224   0.468   3.619   3.702 -0.2231  0.0115  0.1639
 1255SOL    HW215225   0.413   3.620   3.843  0.4317  0.4281  1.0206
 1256SOL     OW15226   3.846   2.508   2.042  0.3259 -0.3989  0.3713
 1256SOL    HW115227   3.872   2.600   2.035 -2.6943  0.4747  0.8386
 1256SOL    HW215228   3.823   2.482   1.952  0.6134 -0.1310  0.2229
 1257SOL     OW15229   4.206   2.877   8.667 -0.0087 -0.1202  0.6560
 1257SOL    HW115230   4.136   2.941   8.681 -1.4584 -1.5579  0.0148
 1257SOL    HW215231   4.213   2.849   8.758  0.8265 -1.6369  0.1116
 1258SOL     OW15232   2.803   1.553   7.065 -0.2449  0.5006  0.1923
 1258SOL    HW115233   2.750   1.618   7.110 -0.4118  0.3298  0.2443
 1258SOL    HW215234   2.833   1.495   7.135 -1.3161  1.3084  1.3256
 1259SOL     OW15235   2.724   1.898  16.531 -0.0338 -0.1595  0.0128
 1259SOL    HW115236   2.680   1.982  16.546  1.3322  0.1236  2.4426
 1259SOL    HW215237   2.675   1.872  16.453  0.6988  0.7772 -0.7457
 1260SOL     OW15238   2.986   2.134   5.655 -0.1927  0.2285  0.2071
 1260SOL    HW115239   2.994   2.182   5.572 -1.6566 -2.4745 -1.4999
 1260SOL    HW215240   3.025   2.050   5.630 -0.4505 -0.0556  0.7566
 1261SOL     OW15241   2.745   4.085  15.178 -0.1256 -0.6302  0.6846
 1261SOL    HW115242   2.661   4.130  15.182  0.6440  0.4398  4.6785
 1261SOL    HW215243   2.718   3.994  15.166 -1.1309 -0.4422  1.5662
 1262SOL     OW15244   0.886   0.248   0.501  0.6070  0.3802 -0.0737
 1262SOL    HW115245   0.815   0.201   0.458  0.5594 -1.1359  1.6734
 1262SOL    HW215246   0.959   0.212   0.451 -0.7650 -2.6423  0.0836
 1263SOL     OW15247   0.009   3.410   7.146 -0.9905 -0.1615  0.3715
 1263SOL    HW115248   0.028   3.451   7.230 -1.3212 -2.3080  1.4729
 1263SOL    HW215249   4.664   3.343   7.165  0.0832 -1.0775  0.8292
 1264SOL     OW15250   0.755   2.118   5.194 -0.3627  0.5566  0.4397
 1264SOL    HW115251   0.808   2.039   5.200  1.7368  1.8218 -1.2638
 1264SOL    HW215252   0.794   2.160   5.117 -2.6861 -0.7480 -1.4613
 1265SOL     OW15253   1.699   4.044  10.617  0.2864  0.6333  0.6956
 1265SOL    HW115254   1.604   4.045  10.630  0.4045 -1.5702  1.6515
 1265SOL    HW215255   1.716   4.137  10.600  0.3239  0.6349  0.7401
 1266SOL     OW15256   1.348   4.454   3.830  0.6692  0.0506  0.0602
 1266SOL    HW115257   1.273   4.433   3.775  1.7674 -1.1720 -0.9659
 1266SOL    HW215258   1.409   4.386   3.802  0.0374 -0.7518  0.6047
 1267SOL     OW15259   2.175   2.488   8.708 -0.2208 -0.0092 -0.2287
 1267SOL    HW115260   2.111   2.553   8.679  0.3792  0.1124 -1.2558
 1267SOL    HW215261   2.131   2.455   8.786  1.2748  1.3832  1.1881
 1268SOL     OW15262   0.394   4.010   5.769 -0.2832 -0.7168 -0.0303
 1268SOL    HW115263   0.315   3.976   5.726  1.6556 -1.5415 -2.8830
 1268SOL    HW215264   0.447   3.931   5.781 -0.2391 -0.4668  1.3956
 1269SOL     OW15265   0.993   4.409   6.385  0.2776  0.3836 -0.2584
 1269SOL    HW115266   1.013   4.372   6.471  0.2104  0.8389 -0.0517
 1269SOL    HW215267   0.898   4.409   6.380  0.2546  2.0968  0.1440
 1270SOL     OW15268   1.216   1.621   3.189  0.5912 -0.0482  0.6017
 1270SOL    HW115269   1.216   1.534   3.148  0.5208  0.2092  0.0475
 1270SOL    HW215270   1.303   1.621   3.229  0.1667  1.0544  1.5105
 1271SOL     OW15271   2.108   3.599   2.273 -0.6843  0.1241 -0.3992
 1271SOL    HW115272   2.171   3.536   2.239  1.4428  2.4470 -0.7225
 1271SOL    HW215273   2.086   3.552   2.353 -0.0856  2.3380  1.0752
 1272SOL     OW15274   2.647   1.372  12.847 -0.2569  0.1246  0.1471
 1272SOL    HW115275   2.694   1.446  12.886  0.1315 -0.2013  0.2934
 1272SOL    HW215276   2.601   1.425  12.782 -4.1220 -1.7681  1.3320
 1273SOL     OW15277   2.570   2.135   9.099  0.0940  0.8105  0.3780
 1273SOL    HW115278   2.555   2.110   9.190 -1.6349 -0.4070 -0.2263
 1273SOL    HW215279   2.487   2.175   9.071 -1.1070 -0.3575  2.2544
 1274SOL     OW15280   2.126   4.476   7.923  0.1542 -0.6664  0.7175
 1274SOL    HW115281   2.161   4.398   7.880  0.5512 -1.4074  2.3603
 1274SOL    HW215282   2.212   4.510   7.950  1.3329 -2.0373 -1.3036
 1275SOL     OW15283   0.838   2.267   8.737 -0.0235  0.1243  0.1576
 1275SOL    HW115284   0.818   2.205   8.807  0.1205 -1.6927 -1.4117
 1275SOL    HW215285   0.933   2.272   8.752  0.0254 -0.8532  0.1713
 1276SOL     OW15286   1.243   1.788   1.996  0.1125 -0.5888  0.1178
 1276SOL    HW115287   1.242   1.730   1.920  1.7747 -1.7058  0.9586
 1276SOL    HW215288   1.298   1.859   1.963  2.1091 -0.5670  3.5370
 1277SOL     OW15289   0.141   1.822  12.796 -0.1423 -0.5405 -0.1735
 1277SOL    HW115290   0.074   1.754  12.797  0.8629 -1.5169 -0.4569
 1277SOL    HW215291   0.113   1.879  12.868 -0.0577  1.2789 -1.5941
 1278SOL     OW15292   2.582   3.841   3.541 -0.3714 -0.3068 -0.1673
 1278SOL    HW115293   2.638   3.893   3.599  0.3603  1.1947 -2.2368
 1278SOL    HW215294   2.523   3.908   3.507  1.0219 -0.2356 -2.4182
 1279SOL     OW15295   0.809   0.922   3.166  0.4958 -0.1786  0.0538
 1279SOL    HW115296   0.777   0.987   3.227  1.8422  0.6863 -0.1581
 1279SOL    HW215297   0.890   0.953   3.126  0.2229 -0.8000 -0.9908
 1280SOL     OW15298   4.433   0.345  12.343  0.1981  1.3197  0.0898
 1280SOL    HW115299   4.489   0.279  12.385  1.2913  0.0052 -3.4009
 1280SOL    HW215300   4.373   0.286  12.296  2.5049  0.4729 -1.7941
 1281SOL     OW15301   3.740   2.904  10.406 -0.5189  0.7240 -0.0096
 1281SOL    HW115302   3.697   2.973  10.456 -1.5841 -0.2186  0.3567
 1281SOL    HW215303   3.750   2.946  10.321  0.1692  0.4854 -0.0485
 1282SOL     OW15304   2.172   3.756   2.719  0.7626 -0.0466 -0.5300
 1282SOL    HW115305   2.112   3.683   2.732  1.5145 -0.6831 -0.5845
 1282SOL    HW215306   2.113   3.830   2.709  3.4462  2.3373  1.3069
 1283SOL     OW15307   1.905   2.325  11.868  0.0990  0.2583 -0.2199
 1283SOL    HW115308   1.860   2.243  11.889  1.8827 -1.3678 -2.7339
 1283SOL    HW215309   1.990   2.303  11.906  1.6020  0.7405 -3.2910
 1284SOL     OW15310   2.642   2.751   2.191 -0.3530  0.1029  0.0550
 1284SOL    HW115311   2.582   2.733   2.118  0.8865  0.7052 -1.1051
 1284SOL    HW215312   2.696   2.816   2.145 -1.6777  0.5139 -0.9245
 1285SOL     OW15313   2.672   2.978   4.471 -0.6114  0.2679  0.7618
 1285SOL    HW115314   2.691   3.045   4.537  1.7470  0.6456 -0.2903
 1285SOL    HW215315   2.602   3.019   4.421 -2.3520 -3.3697  0.2248
 1286SOL     OW15316   2.893   0.229   3.165 -0.9156  0.0278  0.1372
 1286SOL    HW115317   2.984   0.233   3.137 -0.5238 -1.7107  1.2267
 1286SOL    HW215318   2.876   0.135   3.161  0.6727 -0.2272 -0.3691
 1287SOL     OW15319   3.766   1.714   2.443  0.0995 -0.2945  0.2697
 1287SOL    HW115320   3.695   1.734   2.503  0.1353  0.1583  0.1619
 1287SOL    HW215321   3.818   1.795   2.439 -0.6613  0.2332  1.1411
 1288SOL     OW15322   0.401   3.354   5.346 -0.0462  0.0221 -0.1143
 1288SOL    HW115323   0.458   3.379   5.273  1.4268 -1.6890  0.4541
 1288SOL    HW215324   0.330   3.417   5.346 -0.5543 -0.5511 -2.2957
 1289SOL     OW15325   0.295   4.069   1.948 -0.1180  0.0687  0.3639
 1289SOL    HW115326   0.313   4.161   1.930  0.9167  0.0658  1.3772
 1289SOL    HW215327   0.236   4.037   1.880 -0.6853 -2.0468  1.8302
 1290SOL     OW15328   3.463   3.445  10.287 -0.0836 -0.1743 -0.3153
 1290SOL    HW115329   3.483   3.515  10.225  0.8992 -0.5003 -0.3700
 1290SOL    HW215330   3.384   3.407  10.247  0.0057  2.3716 -2.9085
 1291SOL     OW15331   2.185   1.070   0.958  0.3326  0.2692  0.0737
 1291SOL    HW115332   2.264   1.033   0.997  0.8007  0.3899 -0.7462
 1291SOL    HW215333   2.230   1.103   0.880 -1.5968  1.0032 -0.7352
 1292SOL     OW15334   0.816   4.046   7.499  0.0253  0.2008  0.4178
 1292SOL    HW115335   0.845   3.958   7.474 -0.0570  0.2361  0.2056
 1292SOL    HW215336   0.899   4.091   7.516 -0.0006  1.2894 -2.4096
 1293SOL     OW15337   4.181   3.507  14.744 -0.5112  0.0154  0.2390
 1293SOL    HW115338   4.101   3.475  14.702  0.0917 -3.2553  1.6003
 1293SOL    HW215339   4.243   3.436  14.729  0.9103  1.4384 -0.7147
 1294SOL     OW15340   1.723   3.970   2.721  0.4864  0.0288 -0.0467
 1294SOL    HW115341   1.687   3.937   2.639  0.7161 -0.2226 -0.0460
 1294SOL    HW215342   1.701   3.898   2.780 -0.4889  0.2271 -0.1623
 1295SOL     OW15343   4.163   3.641   2.149 -0.3961  0.3594 -0.1023
 1295SOL    HW115344   4.117   3.725   2.147 -1.2783 -0.0965  1.2556
 1295SOL    HW215345   4.182   3.649   2.242  0.5815 -0.4578 -0.2338
 1296SOL     OW15346   1.386   3.383   4.307 -0.3416  0.3666 -0.0920
 1296SOL    HW115347   1.362   3.442   4.236  0.1955  0.5692 -0.1069
 1296SOL    HW215348   1.295   3.372   4.336  0.3713 -0.2326  1.9402
 1297SOL     OW15349   0.231   2.080   9.178  0.2502 -0.5330  0.1204
 1297SOL    HW115350   0.143   2.117   9.185  0.8552  0.5510  1.9918
 1297SOL    HW215351   0.288   2.135   9.232  0.4143 -0.5221 -0.0634
 1298SOL     OW15352   3.294   1.857  13.308 -0.0715  0.0885  0.1966
 1298SOL    HW115353   3.325   1.775  13.270 -2.7507 -0.1611 -1.4151
 1298SOL    HW215354   3.324   1.845  13.398 -0.0690 -0.6207  0.0968
 1299SOL     OW15355   1.222   1.014   5.137  0.1146 -0.3633 -0.9366
 1299SOL    HW115356   1.313   1.033   5.160  0.7133 -1.8582 -2.0491
 1299SOL    HW215357   1.189   1.103   5.148 -0.1807 -0.6288  0.3196
 1300SOL     OW15358   0.098   4.319   1.583 -0.2057 -0.5111 -0.3451
 1300SOL    HW115359   0.004   4.335   1.595 -0.3655 -1.4496 -0.3966
 1300SOL    HW215360   0.126   4.306   1.674 -0.9672  0.2875  0.0065
 1301SOL     OW15361   4.431   2.771   4.343  0.0925 -0.1185  1.1728
 1301SOL    HW115362   4.395   2.711   4.408 -0.8828  1.1125  1.7558
 1301SOL    HW215363   4.349   2.812   4.317 -0.6982 -1.3263  1.7933
 1302SOL     OW15364   2.794   2.217   8.535  0.2482  0.0975  0.6338
 1302SOL    HW115365   2.777   2.130   8.499 -0.0821 -0.3163  1.7945
 1302SOL    HW215366   2.714   2.231   8.586  0.5547  3.0310  0.2994
 1303SOL     OW15367   1.104   1.883   3.197 -0.0542  0.1981  0.3097
 1303SOL    HW115368   1.146   1.797   3.203 -0.8571 -0.2788 -1.0047
 1303SOL    HW215369   1.027   1.862   3.143 -0.2782 -0.1288  0.7543
 1304SOL     OW15370   2.921   0.779   2.527 -0.5155  0.1661 -0.2374
 1304SOL    HW115371   2.975   0.801   2.602  1.4777 -0.4929 -1.4763
 1304SOL    HW215372   2.923   0.684   2.538  1.7902  0.0233 -1.9941
 1305SOL     OW15373   1.657   0.498   1.844 -0.3626  0.6299  0.6449
 1305SOL    HW115374   1.592   0.431   1.862  2.7084 -3.0645 -2.0230
 1305SOL    HW215375   1.694   0.512   1.931 -0.6061 -0.9342  1.0047
 1306SOL     OW15376   4.128   0.506   7.134 -0.5514 -0.1727 -0.3477
 1306SOL    HW115377   4.165   0.428   7.093 -2.0543 -0.3891 -1.3169
 1306SOL    HW215378   4.104   0.557   7.057 -0.0008 -3.5182 -2.6828
 1307SOL     OW15379   0.409   0.136   5.041  0.7855 -0.2160 -0.1671
 1307SOL    HW115380   0.494   0.108   5.007  0.3653 -0.7331 -0.7999
 1307SOL    HW215381   0.389   0.061   5.097 -1.1351  0.4283  0.0091
 1308SOL     OW15382   0.174   0.837   3.306  0.2501 -0.3002 -0.0683
 1308SOL    HW115383   0.163   0.930   3.328  0.0354 -0.9588  2.5758
 1308SOL    HW215384   0.148   0.793   3.387 -2.5774  0.4635 -0.5545
 1309SOL     OW15385   0.842   3.369   0.547 -0.0684  0.4777 -0.3253
 1309SOL    HW115386   0.848   3.274   0.533 -2.2888  0.2251  0.3598
 1309SOL    HW215387   0.774   3.398   0.486 -1.7200 -0.2759  1.1614
 1310SOL     OW15388   0.372   0.689   6.933 -0.2598 -0.5061  0.4065
 1310SOL    HW115389   0.324   0.772   6.936  0.4274 -0.0378 -2.1158
 1310SOL    HW215390   0.393   0.675   7.026  0.7937 -0.2836  0.2002
 1311SOL     OW15391   4.470   3.488   9.016 -0.6412  0.3302 -0.4082
 1311SOL    HW115392   4.557   3.449   9.025 -1.6891 -1.9303 -0.0477
 1311SOL    HW215393   4.441   3.421   8.954 -1.7308  0.7740 -0.3689
 1312SOL     OW15394   2.683   1.112   3.375 -0.5363  0.8213  0.2092
 1312SOL    HW115395   2.634   1.161   3.442 -0.9149  0.4453  0.2040
 1312SOL    HW215396   2.665   1.019   3.391 -0.3552  0.8852  0.7977
 1313SOL     OW15397   0.443   3.673   1.025 -0.6289  0.4939  0.4787
 1313SOL    HW115398   0.427   3.631   1.110  0.0372 -3.0408 -1.1296
 1313SOL    HW215399   0.502   3.742   1.053  1.4013  0.1146 -2.8787
 1314SOL     OW15400   0.244   0.085  12.540  0.0890  0.3030  0.3652
 1314SOL    HW115401   0.332   0.106  12.571  0.4066 -0.1667 -0.1949
 1314SOL    HW215402   0.205   0.172  12.544  0.8021  0.5916  1.1277
 1315SOL     OW15403   2.417   3.935  11.636  0.3554  0.2330 -0.0006
 1315SOL    HW115404   2.485   3.972  11.580  0.8594  0.7300  0.9310
 1315SOL    HW215405   2.370   4.012  11.667 -0.7406 -0.6105  0.4363
 1316SOL     OW15406   1.712   2.704   2.437 -0.3047  0.1418 -0.4417
 1316SOL    HW115407   1.696   2.675   2.526 -1.6494  1.2220 -0.3345
 1316SOL    HW215408   1.807   2.704   2.429 -0.2238 -0.1051  0.5165
 1317SOL     OW15409   4.003   2.678   6.067 -0.1957  0.0717  0.0557
 1317SOL    HW115410   4.095   2.688   6.088 -0.5174  1.8498  0.6445
 1317SOL    HW215411   3.970   2.761   6.101  0.2435  0.7741 -1.2255
 1318SOL     OW15412   2.890   3.354   5.130 -0.0243 -0.4860 -0.3366
 1318SOL    HW115413   2.907   3.447   5.141 -0.3147 -0.7181  2.0606
 1318SOL    HW215414   2.897   3.346   5.035 -0.1786  1.1206 -0.4771
 1319SOL     OW15415   0.581   0.640   7.463  0.3143  1.0575 -0.0508
 1319SOL    HW115416   0.529   0.700   7.410 -1.5748  0.5363  1.2150
 1319SOL    HW215417   0.513   0.603   7.519  0.4603  0.5392 -0.2183
 1320SOL     OW15418   0.739   3.232   4.238  0.3265 -0.3393 -0.7969
 1320SOL    HW115419   0.824   3.267   4.264 -0.0039  0.5263 -0.8942
 1320SOL    HW215420   0.735   3.279   4.155  2.5534  2.4110  0.6620
 1321SOL     OW15421   2.509   1.532  12.682  0.1557 -0.4345  0.2915
 1321SOL    HW115422   2.450   1.509  12.610  0.7757  3.2215 -1.3560
 1321SOL    HW215423   2.537   1.623  12.670  2.2171 -1.2523 -1.0628
 1322SOL     OW15424   0.378   2.896   4.483 -0.1948 -0.6661  0.0604
 1322SOL    HW115425   0.376   2.921   4.390  1.4721 -2.9494 -0.6108
 1322SOL    HW215426   0.471   2.875   4.495 -0.3120 -0.4673  1.2264
 1323SOL     OW15427   2.886   1.229  11.180 -0.1395 -0.0291 -0.3064
 1323SOL    HW115428   2.822   1.200  11.115 -2.2985  1.5320  1.1593
 1323SOL    HW215429   2.901   1.323  11.179 -0.5972  0.0407 -0.3079
 1324SOL     OW15430   3.556   1.587   0.726 -0.1620  0.3287  0.3406
 1324SOL    HW115431   3.460   1.579   0.721 -0.2490  2.6299 -1.5713
 1324SOL    HW215432   3.593   1.594   0.639 -0.6259  0.4319  0.1501
 1325SOL     OW15433   0.649   2.542  11.884 -0.1904  0.0750 -0.0131
 1325SOL    HW115434   0.572   2.581  11.843  0.6568  1.9073  0.1495
 1325SOL    HW215435   0.693   2.624  11.908 -0.6266  0.3871 -0.2631
 1326SOL     OW15436   3.299   2.432  16.936  0.4669  0.3210  0.0137
 1326SOL    HW115437   3.368   2.412  16.872 -0.0396  1.0394 -0.7476
 1326SOL    HW215438   3.309   2.526  16.950 -1.3808  0.5912 -0.5470
 1327SOL     OW15439   2.715   0.089   9.128  0.2580  0.2102 -0.4698
 1327SOL    HW115440   2.733   0.062   9.218  0.2167  1.8666  0.0287
 1327SOL    HW215441   2.637   0.142   9.143 -1.1086 -1.1394 -2.8900
 1328SOL     OW15442   2.511   1.596   3.217  0.7652  0.4773 -0.1204
 1328SOL    HW115443   2.587   1.558   3.173  2.6368  2.4936  1.4045
 1328SOL    HW215444   2.504   1.533   3.289  1.5650 -0.9333 -1.2784
 1329SOL     OW15445   1.618   4.407   9.631 -0.4169 -0.1027  0.0475
 1329SOL    HW115446   1.608   4.323   9.675  0.6666  0.6797  1.7937
 1329SOL    HW215447   1.610   4.468   9.705  0.3005 -0.0620  0.0947
 1330SOL     OW15448   4.284   3.501   9.244  0.1338 -0.3262  0.5235
 1330SOL    HW115449   4.231   3.450   9.182  0.4306 -1.4463  1.1909
 1330SOL    HW215450   4.370   3.488   9.202  0.4644 -0.5454  1.2651
 1331SOL     OW15451   1.196   3.286   0.980  0.1393 -0.4083 -0.4596
 1331SOL    HW115452   1.139   3.336   0.921 -0.6855 -1.3453 -0.4492
 1331SOL    HW215453   1.260   3.349   1.012  0.5833 -0.4657 -1.2385
 1332SOL     OW15454   3.313   0.443   5.178  0.2835 -0.3384 -0.3378
 1332SOL    HW115455   3.364   0.374   5.220 -3.2081 -0.2880  3.9851
 1332SOL    HW215456   3.365   0.456   5.099  1.7884 -0.8466  0.5638
 1333SOL     OW15457   1.640   3.847   2.147 -0.1904 -0.0734  0.0883
 1333SOL    HW115458   1.660   3.800   2.066  2.6308 -0.3374  0.9438
 1333SOL    HW215459   1.699   3.922   2.139  1.5948 -1.3306  1.5012
 1334SOL     OW15460   0.531   0.936   6.408 -0.5358  0.4351  0.2122
 1334SOL    HW115461   0.599   0.996   6.436  0.4119 -1.8665  2.8223
 1334SOL    HW215462   0.510   0.917   6.499 -0.8121 -0.5810 -0.0652
 1335SOL     OW15463   1.408   1.278   6.998 -0.0215 -0.3286 -0.6153
 1335SOL    HW115464   1.316   1.301   7.010 -0.3838 -0.7974 -2.4201
 1335SOL    HW215465   1.410   1.190   7.036  2.3457  0.3096  0.7019
 1336SOL     OW15466   0.799   2.578   2.162 -0.3065  0.4642 -0.2696
 1336SOL    HW115467   0.769   2.649   2.218 -1.7314  1.2324 -2.0218
 1336SOL    HW215468   0.878   2.547   2.206 -0.6844 -1.5845 -1.0387
 1337SOL     OW15469   3.054   1.608   8.793  0.0138 -0.0321 -0.6630
 1337SOL    HW115470   3.081   1.657   8.871 -0.5088  0.1241 -0.5799
 1337SOL    HW215471   3.076   1.517   8.811 -0.4757 -0.0541 -0.1984
 1338SOL     OW15472   0.894   1.117   8.307  0.4222  0.0265 -0.3435
 1338SOL    HW115473   0.891   1.129   8.212  0.3175 -0.0633 -0.3506
 1338SOL    HW215474   0.981   1.083   8.327 -0.1480 -0.6018  1.0641
 1339SOL     OW15475   3.929   0.998   8.374 -0.2561 -0.2415 -0.0361
 1339SOL    HW115476   3.843   1.000   8.416  0.7061 -1.0251  1.9706
 1339SOL    HW215477   3.984   1.045   8.436  0.0847 -0.8930  0.1554
 1340SOL     OW15478   3.656   3.317  14.077  0.2506 -0.6286  0.6963
 1340SOL    HW115479   3.617   3.272  14.002 -0.2048 -1.4290  1.4224
 1340SOL    HW215480   3.635   3.408  14.057  1.0356 -0.5018  0.4279
 1341SOL     OW15481   4.583   3.566   6.648 -0.7133 -0.1325 -0.3641
 1341SOL    HW115482   4.640   3.634   6.611  1.1959 -0.2782  2.3519
 1341SOL    HW215483   4.627   3.563   6.733  0.9047  1.1214 -1.1497
 1342SOL     OW15484   4.476   3.613   8.098 -0.2204 -0.0778 -0.2903
 1342SOL    HW115485   4.452   3.641   8.187  1.6360 -0.2930  0.2784
 1342SOL    HW215486   4.521   3.689   8.062  0.9095 -0.1525  0.9681
 1343SOL     OW15487   4.191   2.833  10.349 -0.0563  0.5727 -0.3868
 1343SOL    HW115488   4.144   2.835  10.432  1.1787 -0.8574  0.3403
 1343SOL    HW215489   4.220   2.742  10.349 -1.3501  0.1645  0.6882
 1344SOL     OW15490   4.005   4.089   1.451 -0.3689  0.5179 -0.5765
 1344SOL    HW115491   3.952   4.169   1.459  0.3249  0.8686  0.3889
 1344SOL    HW215492   3.944   4.034   1.401  0.5896 -1.7763  0.7824
 1345SOL     OW15493   4.027   1.030   7.458  0.6083  0.3318  0.0345
 1345SOL    HW115494   4.063   0.941   7.454  1.6078  0.8115 -1.9384
 1345SOL    HW215495   4.056   1.069   7.375  0.9683 -0.5607 -0.2573
 1346SOL     OW15496   2.819   1.356   1.726  0.2818 -0.4528 -0.3047
 1346SOL    HW115497   2.838   1.268   1.759 -1.8101 -0.0239  2.0662
 1346SOL    HW215498   2.900   1.404   1.743  0.5949 -1.0429 -0.1601
 1347SOL     OW15499   3.177   3.963   2.378  0.7069 -0.1329 -0.3277
 1347SOL    HW115500   3.270   3.965   2.358  0.5389 -1.0969 -1.1588
 1347SOL    HW215501   3.148   4.034   2.320 -1.7348 -0.1992  0.7896
 1348SOL     OW15502   2.743   1.834   4.415  0.6725  0.5152 -0.6804
 1348SOL    HW115503   2.769   1.744   4.435 -0.3869 -0.3533 -3.1927
 1348SOL    HW215504   2.810   1.865   4.353  1.2801  1.5601  0.4955
 1349SOL     OW15505   1.168   3.381   4.468 -0.7755 -0.1993  0.0413
 1349SOL    HW115506   1.197   3.466   4.503 -1.1716  0.6555 -1.6816
 1349SOL    HW215507   1.194   3.325   4.541 -1.4328 -0.3147  0.1846
 1350SOL     OW15508   1.869   2.335   5.153  0.1342  0.6419 -0.7719
 1350SOL    HW115509   1.948   2.357   5.103  0.4602  1.3430  0.0513
 1350SOL    HW215510   1.870   2.405   5.217  1.8620 -0.4453  0.3916
 1351SOL     OW15511   1.600   3.954  10.134 -0.2511 -0.1267  0.3566
 1351SOL    HW115512   1.650   4.030  10.104 -2.4324  1.9035  1.9395
 1351SOL    HW215513   1.669   3.897  10.170  2.3315  2.6368 -0.2068
 1352SOL     OW15514   3.511   3.916   1.623 -0.3813 -0.2608  0.6166
 1352SOL    HW115515   3.440   3.980   1.628  0.2681  0.4524  0.6852
 1352SOL    HW215516   3.453   3.841   1.638 -0.0654 -0.9365 -1.4911
 1353SOL     OW15517   1.952   2.395   8.887 -0.2838  0.5732 -0.0460
 1353SOL    HW115518   1.981   2.331   8.952  0.5064  0.5150 -0.4576
 1353SOL    HW215519   1.890   2.448   8.937  0.5102  1.6622 -0.2316
 1354SOL     OW15520   4.213   0.366   4.394 -0.1181 -0.0689  0.3421
 1354SOL    HW115521   4.184   0.457   4.386 -1.5740 -0.5644 -0.0015
 1354SOL    HW215522   4.205   0.350   4.488  1.1428 -1.7415  0.1714
 1355SOL     OW15523   2.165   2.572   1.066  0.0959 -0.1009  0.0954
 1355SOL    HW115524   2.217   2.653   1.067  1.2009 -0.8172  0.4803
 1355SOL    HW215525   2.159   2.560   1.161 -2.0657  0.1772 -0.0014
 1356SOL     OW15526   0.942   4.093   8.070  0.0214 -0.3433  0.7414
 1356SOL    HW115527   1.026   4.056   8.098 -0.8722 -1.9896  1.1953
 1356SOL    HW215528   0.933   4.056   7.982  1.5277 -2.4237  1.4599
 1357SOL     OW15529   1.360   2.288   2.844  0.0421  0.0412 -0.5120
 1357SOL    HW115530   1.268   2.283   2.817  0.1129 -1.9690 -0.3496
 1357SOL    HW215531   1.386   2.202   2.810  0.6073  0.4200 -1.0505
 1358SOL     OW15532   1.775   1.251  13.583 -0.2152 -0.2225  0.3036
 1358SOL    HW115533   1.702   1.258  13.643  0.7475 -2.2799  1.7040
 1358SOL    HW215534   1.768   1.325  13.522  1.9061 -0.4845 -0.2938
 1359SOL     OW15535   1.461   0.226   8.980 -0.4522 -0.9219  0.4396
 1359SOL    HW115536   1.530   0.170   9.017 -1.3153 -3.2947 -1.5357
 1359SOL    HW215537   1.524   0.286   8.941 -2.0983  0.5218  0.0116
 1360SOL     OW15538   0.631   0.385   3.643  0.1426 -0.0376 -0.0059
 1360SOL    HW115539   0.683   0.314   3.680  2.3902  2.0127  0.7160
 1360SOL    HW215540   0.696   0.440   3.600 -0.6813  0.1091 -1.0716
 1361SOL     OW15541   3.406   4.702   3.927  0.9000 -0.7606  0.1557
 1361SOL    HW115542   3.438   4.672   3.843 -0.0762 -1.0664 -0.1056
 1361SOL    HW215543   3.432   4.627   3.980 -0.6863 -2.0541 -0.8910
 1362SOL     OW15544   1.665   0.519   9.971 -0.2711  0.3275 -0.1727
 1362SOL    HW115545   1.691   0.605   9.939 -2.0306  1.0604  0.3596
 1362SOL    HW215546   1.731   0.486  10.032 -2.0302 -0.8605  1.1013
 1363SOL     OW15547   1.307   4.650  13.053  0.0462  0.0309  0.0274
 1363SOL    HW115548   1.266   4.709  13.117  0.3856  1.8924 -1.4539
 1363SOL    HW215549   1.391   4.695  13.043 -1.0118  2.0457  0.2035
 1364SOL     OW15550   2.068   3.085  12.911 -0.0724 -0.3516 -0.3756
 1364SOL    HW115551   2.155   3.081  12.951 -0.6847 -0.2338  0.9699
 1364SOL    HW215552   2.051   2.991  12.911 -1.4463 -0.1013 -0.6417
 1365SOL     OW15553   2.521   1.114  12.104  0.1881  0.3417 -0.4474
 1365SOL    HW115554   2.571   1.193  12.125  0.9388 -0.1354 -0.4407
 1365SOL    HW215555   2.432   1.132  12.133 -0.6761 -2.9302 -1.1375
 1366SOL     OW15556   2.099   4.513   5.820  0.0534  0.1454  0.6460
 1366SOL    HW115557   2.136   4.451   5.757  1.2886 -1.7758  3.2257
 1366SOL    HW215558   2.165   4.506   5.889  0.2062  0.6017  0.5495
 1367SOL     OW15559   2.994   3.606  17.243 -0.0121  0.3461  0.1242
 1367SOL    HW115560   3.023   3.647  17.324  1.6010  1.8319 -1.2091
 1367SOL    HW215561   2.899   3.618  17.252  0.5387  3.2485  1.9335
 1368SOL     OW15562   2.917   4.280   8.528 -0.0114  0.1404  0.2770
 1368SOL    HW115563   2.846   4.343   8.515  1.7162  2.2505  1.0880
 1368SOL    HW215564   2.978   4.327   8.584  0.3459  1.9266 -1.6169
 1369SOL     OW15565   0.091   2.115   5.723  0.3885  0.0090 -0.2703
 1369SOL    HW115566   0.110   2.095   5.814 -0.8831 -2.1663 -0.4886
 1369SOL    HW215567   0.095   2.027   5.687 -1.3240  0.3167 -1.2355
 1370SOL     OW15568   2.917   4.400   7.316 -0.1696  0.0944  0.0816
 1370SOL    HW115569   2.835   4.416   7.362 -0.5882 -0.1087 -0.6025
 1370SOL    HW215570   2.887   4.355   7.237  3.0147  0.9115 -1.6230
 1371SOL     OW15571   3.099   1.122   7.727 -0.3165 -0.4276  0.0486
 1371SOL    HW115572   3.158   1.116   7.802 -0.2531 -1.9281 -0.1200
 1371SOL    HW215573   3.153   1.069   7.667 -0.7658  0.2991 -0.9987
 1372SOL     OW15574   2.280   4.436   2.831  0.5085 -0.6210  0.0052
 1372SOL    HW115575   2.244   4.373   2.768 -1.7750  0.7830 -0.1010
 1372SOL    HW215576   2.312   4.505   2.772  1.5427 -0.7727  0.3926
 1373SOL     OW15577   4.419   4.474   8.548 -0.1847  0.3180  0.6360
 1373SOL    HW115578   4.479   4.413   8.591 -1.2577  0.7326  2.7019
 1373SOL    HW215579   4.478   4.518   8.485 -0.2779 -0.1818  0.2020
 1374SOL     OW15580   0.074   3.835   3.811  0.1496 -0.4610  0.0381
 1374SOL    HW115581   0.003   3.821   3.748  0.8681  2.8463 -1.4682
 1374SOL    HW215582   0.129   3.884   3.750  1.4755  0.8222  2.2611
 1375SOL     OW15583   2.763   4.542   3.856 -0.5984  0.0807  0.0449
 1375SOL    HW115584   2.833   4.541   3.921 -0.5181 -0.9103 -0.0509
 1375SOL    HW215585   2.694   4.488   3.894 -1.4902  1.2230  0.0643
 1376SOL     OW15586   0.313   2.342   7.188 -0.0138  0.2700 -0.3651
 1376SOL    HW115587   0.357   2.423   7.212 -0.3517 -0.1390  1.6444
 1376SOL    HW215588   0.260   2.328   7.267  0.7601  1.9332  0.4389
 1377SOL     OW15589   1.665   2.438  12.416  0.4509 -0.1414 -0.1348
 1377SOL    HW115590   1.596   2.486  12.371  0.1740  0.2483  0.7181
 1377SOL    HW215591   1.645   2.465  12.506  1.3465  0.2643 -0.0607
 1378SOL     OW15592   4.340   2.439   7.066 -0.3091  1.5413 -0.3179
 1378SOL    HW115593   4.408   2.449   7.131  0.7987 -0.5684 -1.1242
 1378SOL    HW215594   4.357   2.503   6.997 -1.8181  0.7557 -1.4427
 1379SOL     OW15595   3.414   2.926   7.773 -0.0335 -0.2558  0.0426
 1379SOL    HW115596   3.429   3.006   7.824 -0.2661 -0.0969 -0.1405
 1379SOL    HW215597   3.379   2.960   7.690 -0.6427 -1.2814 -0.1086
 1380SOL     OW15598   2.290   3.567   9.001  0.4021  0.3258  0.1979
 1380SOL    HW115599   2.256   3.656   8.993  0.6832  0.1760 -2.7056
 1380SOL    HW215600   2.320   3.572   9.091 -2.7009  0.3517  1.2096
 1381SOL     OW15601   0.417   2.863   9.368  0.0153  0.1202  0.2435
 1381SOL    HW115602   0.494   2.811   9.344  3.2402  3.8954  2.3845
 1381SOL    HW215603   0.380   2.805   9.435  0.7558 -0.1446  0.4262
 1382SOL     OW15604   4.059   4.018   8.812 -0.2761  0.2253  0.1560
 1382SOL    HW115605   3.982   3.970   8.842 -0.9296 -1.1623 -3.7986
 1382SOL    HW215606   4.128   3.956   8.834  0.8310  1.9619  1.6131
 1383SOL     OW15607   3.034   4.074   0.620  0.5885 -0.6263 -0.1820
 1383SOL    HW115608   2.961   4.021   0.652 -1.1220  0.7440 -1.8019
 1383SOL    HW215609   2.985   4.131   0.560  1.6246  1.4353  0.9281
 1384SOL     OW15610   1.652   2.242   7.878 -0.3158 -0.2374  0.0128
 1384SOL    HW115611   1.585   2.297   7.836  2.2411  2.3824 -0.6866
 1384SOL    HW215612   1.617   2.236   7.967 -1.7260 -0.6746 -0.5576
 1385SOL     OW15613   2.375   0.175  15.219  0.4908 -0.2212  0.0326
 1385SOL    HW115614   2.354   0.151  15.309 -0.0629  0.9674  0.2193
 1385SOL    HW215615   2.409   0.264  15.228  1.9882 -0.6904 -0.8952
 1386SOL     OW15616   3.479   2.556   6.432 -0.6355  0.2410 -0.5774
 1386SOL    HW115617   3.395   2.510   6.428 -0.7526  0.5861 -2.4777
 1386SOL    HW215618   3.457   2.637   6.479 -2.5514 -0.3439 -0.4395
 1387SOL     OW15619   4.563   3.187   8.503 -0.0392 -0.1911 -0.1912
 1387SOL    HW115620   4.469   3.186   8.483  0.2288  1.8027 -1.6537
 1387SOL    HW215621   4.559   3.251   8.574 -1.1053 -0.1630 -0.2658
 1388SOL     OW15622   1.763   4.637  11.988  0.2324  0.0293 -0.0880
 1388SOL    HW115623   1.851   4.673  12.000 -0.0132  1.0349 -1.2957
 1388SOL    HW215624   1.768   4.600  11.900 -2.0112  0.0536 -0.2302
 1389SOL     OW15625   4.280   2.036  10.398  0.2617 -0.2466  0.0976
 1389SOL    HW115626   4.276   2.105  10.332  1.9868  0.2670  0.5259
 1389SOL    HW215627   4.215   2.071  10.459  0.9404  2.7777 -0.9028
 1390SOL     OW15628   1.600   4.176   8.681  0.5403 -0.1732  0.6552
 1390SOL    HW115629   1.601   4.080   8.683 -1.6692 -0.1789  1.7458
 1390SOL    HW215630   1.598   4.191   8.776  1.0372  1.7021  0.3698
 1391SOL     OW15631   2.313   2.202   3.036  0.2916  0.0087 -0.2047
 1391SOL    HW115632   2.408   2.200   3.039  0.2067 -2.4504  0.3285
 1391SOL    HW215633   2.299   2.172   2.946 -0.9961 -0.1056  0.0274
 1392SOL     OW15634   1.231   0.635  10.042 -0.3025 -0.3985  0.2876
 1392SOL    HW115635   1.214   0.681   9.960  1.0675  2.9677  1.8845
 1392SOL    HW215636   1.153   0.580  10.055 -0.7312 -0.1888 -1.4461
 1393SOL     OW15637   0.302   2.679   9.535  0.5499  0.3855  0.3282
 1393SOL    HW115638   0.261   2.680   9.622 -0.8098 -0.2309 -0.3146
 1393SOL    HW215639   0.232   2.639   9.484  0.7412 -1.1523  1.2767
 1394SOL     OW15640   0.683   0.145   5.266  0.4211  0.5203 -0.2449
 1394SOL    HW115641   0.702   0.148   5.172 -1.2540  1.7144 -0.5485
 1394SOL    HW215642   0.733   0.069   5.296 -1.7730 -0.6045  0.4859
 1395SOL     OW15643   2.719   3.625   7.902 -0.6527  0.1430 -0.2000
 1395SOL    HW115644   2.658   3.691   7.869 -0.8179 -0.3687 -0.9158
 1395SOL    HW215645   2.679   3.555   7.850  1.4531 -1.0111 -0.2489
 1396SOL     OW15646   0.438   1.009   2.453 -0.4829  0.1110 -0.2972
 1396SOL    HW115647   0.504   0.957   2.406 -0.4218 -1.5830  1.6433
 1396SOL    HW215648   0.418   1.074   2.386 -1.7978  0.2782  0.2626
 1397SOL     OW15649   1.102   3.063   3.724 -0.3239 -0.4577 -0.6248
 1397SOL    HW115650   1.044   3.035   3.794 -0.2565  1.2664  0.1332
 1397SOL    HW215651   1.071   3.010   3.651 -1.7702  0.7447 -0.8816
 1398SOL     OW15652   0.092   0.427  14.845 -0.5203  0.4707  0.1495
 1398SOL    HW115653   0.181   0.394  14.854 -0.0998  1.9000  1.1900
 1398SOL    HW215654   0.091   0.490  14.772  1.0731  0.5349  0.1889
 1399SOL     OW15655   0.370   4.611   5.994 -0.7342 -0.0199  1.0823
 1399SOL    HW115656   0.286   4.646   5.966  1.1324  2.5993 -1.2208
 1399SOL    HW215657   0.422   4.690   6.008  0.0573 -0.8840  3.0938
 1400SOL     OW15658   2.826   3.572  12.376 -0.1540  0.0280  0.4456
 1400SOL    HW115659   2.895   3.510  12.354 -0.7951 -0.3888 -0.4372
 1400SOL    HW215660   2.746   3.518  12.374 -0.0916 -0.1024  1.4038
 1401SOL     OW15661   1.400   4.234  10.230 -0.0800  0.3920  0.1220
 1401SOL    HW115662   1.468   4.297  10.204  2.0885 -1.4277  1.4057
 1401SOL    HW215663   1.437   4.171  10.292 -0.4502 -0.4127 -0.4761
 1402SOL     OW15664   0.877   1.710  10.568  0.1779  0.2901 -0.0691
 1402SOL    HW115665   0.846   1.639  10.512  1.8049  0.0026 -0.6152
 1402SOL    HW215666   0.865   1.792  10.521  2.1178  2.1817  2.7230
 1403SOL     OW15667   1.598   2.924  12.848 -0.5278 -0.2816  0.3607
 1403SOL    HW115668   1.652   2.853  12.882  0.7360  0.7416  0.4739
 1403SOL    HW215669   1.614   2.985  12.919 -1.6191 -0.4838  0.7893
 1404SOL     OW15670   1.946   3.230   5.570  0.1832 -0.5734 -0.3124
 1404SOL    HW115671   1.961   3.142   5.535  0.4824 -0.1037 -1.3890
 1404SOL    HW215672   2.036   3.261   5.579  0.3017 -0.6523 -1.1500
 1405SOL     OW15673   2.246   2.411   2.063  0.4740 -0.5833  0.1815
 1405SOL    HW115674   2.187   2.486   2.058  1.6304  0.2752 -0.4281
 1405SOL    HW215675   2.201   2.362   1.994  0.2661  1.1589 -0.9194
 1406SOL     OW15676   2.832   0.735  12.094  0.2655  0.0127  0.0657
 1406SOL    HW115677   2.831   0.785  12.013  1.3909  2.2902  1.4278
 1406SOL    HW215678   2.741   0.728  12.124  0.0779 -2.4995 -1.1065
 1407SOL     OW15679   2.752   1.346   8.672  0.1898  0.1129  0.4694
 1407SOL    HW115680   2.663   1.312   8.672  0.0427  0.4964 -0.6435
 1407SOL    HW215681   2.742   1.440   8.685  0.9867  0.1672  0.6911
 1408SOL     OW15682   2.738   3.965   8.952  0.2675 -0.3812 -0.8032
 1408SOL    HW115683   2.806   3.942   8.888 -0.7963 -3.0510 -0.9674
 1408SOL    HW215684   2.785   3.991   9.031 -1.5417 -0.0315  0.1443
 1409SOL     OW15685   4.281   2.365   4.709  0.4207  0.4431  0.2274
 1409SOL    HW115686   4.292   2.275   4.679  0.1546  0.1889  0.8824
 1409SOL    HW215687   4.293   2.354   4.804 -1.2543  1.6774  0.5832
 1410SOL     OW15688   3.553   2.017   5.117  0.2911  0.0803 -0.0259
 1410SOL    HW115689   3.475   2.072   5.115 -1.4627 -2.3593  1.1427
 1410SOL    HW215690   3.595   2.046   5.036  0.7790 -0.6433 -0.0386
 1411SOL     OW15691   3.305   2.933   4.499 -0.2148  1.0532 -0.0538
 1411SOL    HW115692   3.299   2.962   4.590  0.2726  0.4170  0.1751
 1411SOL    HW215693   3.255   2.999   4.450  0.4487  0.4594 -1.5301
 1412SOL     OW15694   2.063   4.602  16.484  0.3869  0.5951 -0.0558
 1412SOL    HW115695   2.044   4.696  16.479  2.4065  1.0622  1.2467
 1412SOL    HW215696   2.129   4.587  16.417 -1.3113 -1.1684 -1.3162
 1413SOL     OW15697   2.931   2.119   7.618 -0.3625 -0.3885  0.0010
 1413SOL    HW115698   2.968   2.035   7.592  0.1615 -0.1973  0.1366
 1413SOL    HW215699   2.847   2.085   7.649 -0.3756 -0.2631  0.1047
 1414SOL     OW15700   4.268   2.158   9.239 -0.3888  0.2902  0.4559
 1414SOL    HW115701   4.327   2.220   9.281 -2.1120  3.5427 -1.9483
 1414SOL    HW215702   4.297   2.071   9.269 -0.2227 -0.1214 -0.8918
 1415SOL     OW15703   2.517   1.256  15.062  0.0234  0.4439 -0.0442
 1415SOL    HW115704   2.489   1.206  15.140  0.0422  3.1606  1.6992
 1415SOL    HW215705   2.507   1.347  15.091  3.4246  1.0785 -0.9564
 1416SOL     OW15706   0.805   1.869   8.728  0.3848  0.7707  0.5735
 1416SOL    HW115707   0.735   1.838   8.672  2.2562  0.2882 -1.4849
 1416SOL    HW215708   0.836   1.790   8.773  1.3039  0.1991 -1.0904
 1417SOL     OW15709   1.756   1.307   7.785 -0.2004  0.8070  0.6415
 1417SOL    HW115710   1.681   1.357   7.819 -1.0796  0.0894 -0.2531
 1417SOL    HW215711   1.784   1.240   7.847  0.8747  0.9335  0.2869
 1418SOL     OW15712   2.578   1.366  17.639  0.0988  0.2061  0.6250
 1418SOL    HW115713   2.595   1.410  17.555 -0.5422  0.1664  0.4803
 1418SOL    HW215714   2.502   1.313  17.618  1.5048  0.3822 -4.9221
 1419SOL     OW15715   3.334   4.257   4.510  0.3115  0.1677  0.0213
 1419SOL    HW115716   3.412   4.207   4.534  0.0327  0.3416  1.2813
 1419SOL    HW215717   3.270   4.186   4.523 -0.2652  0.1781 -2.8668
 1420SOL     OW15718   4.643   3.850   8.220 -0.1035  0.4484 -0.0271
 1420SOL    HW115719   4.592   3.828   8.299 -0.6533  2.2583  0.1156
 1420SOL    HW215720   4.613   3.940   8.212  0.8145  0.7730  0.2385
 1421SOL     OW15721   1.477   4.240  12.196 -0.1531 -0.5512  0.0518
 1421SOL    HW115722   1.557   4.249  12.249 -2.5629 -0.4224  3.6945
 1421SOL    HW215723   1.477   4.320  12.143  0.8119  0.3413  1.3692
 1422SOL     OW15724   1.391   4.315  10.618 -0.0917 -0.2118 -0.3589
 1422SOL    HW115725   1.419   4.238  10.569  0.4526  0.5428 -1.2351
 1422SOL    HW215726   1.399   4.280  10.707  0.3325 -1.1835 -0.7801
 1423SOL     OW15727   2.223   2.476   7.557  0.1681 -0.1291  0.4546
 1423SOL    HW115728   2.281   2.481   7.481 -0.4066 -2.3708 -0.1386
 1423SOL    HW215729   2.266   2.514   7.633  0.1902  0.4925  0.1291
 1424SOL     OW15730   1.254   4.691   8.675 -0.1329 -0.6558 -0.1399
 1424SOL    HW115731   1.175   4.637   8.681 -0.9982  0.4723 -1.3504
 1424SOL    HW215732   1.226   0.004   8.590 -1.4546 -0.7349  0.2606
 1425SOL     OW15733   3.500   4.617   5.026 -0.2621 -0.8561  0.3205
 1425SOL    HW115734   3.512   4.590   4.934  0.4687 -1.0431  0.4733
 1425SOL    HW215735   3.570   4.576   5.077 -0.6481 -0.3840  1.2202
 1426SOL     OW15736   1.374   1.169   8.617  0.5648  0.2176 -0.2897
 1426SOL    HW115737   1.348   1.100   8.679  1.3762  1.4264  1.3734
 1426SOL    HW215738   1.292   1.218   8.617 -0.0494 -0.7965 -1.1941
 1427SOL     OW15739   1.029   4.474   6.982 -0.5408  0.2407 -0.2376
 1427SOL    HW115740   1.005   4.562   6.956 -1.2319  0.3653  0.7931
 1427SOL    HW215741   1.052   4.477   7.075 -1.4916 -1.0454  0.0420
 1428SOL     OW15742   0.574   0.950   9.308  0.2239 -0.2366 -0.0558
 1428SOL    HW115743   0.532   1.032   9.335 -0.9837 -0.3352 -1.6221
 1428SOL    HW215744   0.638   0.932   9.376  2.1255  1.7526 -1.3255
 1429SOL     OW15745   2.165   4.665  13.621 -0.0665 -0.1662 -0.5696
 1429SOL    HW115746   2.125   4.720  13.553  1.4501  1.0075 -0.5099
 1429SOL    HW215747   2.097   4.602  13.646 -0.4199  0.5619  0.2834
 1430SOL     OW15748   1.663   0.331  11.207 -0.4925  0.1135 -0.4440
 1430SOL    HW115749   1.755   0.311  11.224 -1.4292 -0.8567  3.3559
 1430SOL    HW215750   1.673   0.424  11.186 -2.3937  0.0873 -1.4642
 1431SOL     OW15751   3.265   1.807  12.882 -0.5292  0.3584  0.3651
 1431SOL    HW115752   3.177   1.779  12.857 -0.8934  1.1161  0.7989
 1431SOL    HW215753   3.238   1.898  12.886  0.1951  0.6778 -1.6402
 1432SOL     OW15754   1.303   0.362   7.002  0.1838 -0.1124 -1.0436
 1432SOL    HW115755   1.261   0.433   6.954  1.1791  0.4119 -1.1517
 1432SOL    HW215756   1.236   0.295   6.994  0.1166 -0.0345 -1.1398
 1433SOL     OW15757   1.148   0.684   9.405  0.1445  0.1674 -0.1035
 1433SOL    HW115758   1.155   0.596   9.444  0.6629 -1.0106 -2.8911
 1433SOL    HW215759   1.076   0.678   9.343 -1.4522 -1.9900  1.9617
 1434SOL     OW15760   4.412   1.821   4.909 -0.1615  0.1433 -0.3961
 1434SOL    HW115761   4.490   1.860   4.870  1.5307 -2.4343  0.4153
 1434SOL    HW215762   4.381   1.903   4.947  0.4100  1.4750 -2.7674
 1435SOL     OW15763   3.069   0.785   1.966 -0.4426 -0.0959 -0.1675
 1435SOL    HW115764   3.080   0.698   2.005 -0.0876 -0.2430 -0.5947
 1435SOL    HW215765   2.975   0.800   1.978  0.0658  2.1890  0.7966
 1436SOL     OW15766   3.049   3.899   8.347  0.4496  0.1071  0.4349
 1436SOL    HW115767   2.954   3.908   8.345  0.5690  1.0857 -0.7005
 1436SOL    HW215768   3.076   3.964   8.411 -1.0344  3.0244 -1.9139
 1437SOL     OW15769   4.104   2.539   7.777  0.0798 -0.5114 -0.9389
 1437SOL    HW115770   4.016   2.526   7.743 -0.4561  1.3283 -0.2576
 1437SOL    HW215771   4.091   2.594   7.854 -0.1440  1.6309 -2.4952
 1438SOL     OW15772   4.427   4.246   2.479 -0.7246  0.1471 -0.0581
 1438SOL    HW115773   4.411   4.218   2.569  1.3153  1.3949  0.6919
 1438SOL    HW215774   4.345   4.278   2.444  0.1612  2.3260 -0.1077
 1439SOL     OW15775   1.710   3.391  15.246  0.2615 -0.0642 -0.0014
 1439SOL    HW115776   1.761   3.317  15.280 -1.9290 -0.8285  1.6108
 1439SOL    HW215777   1.708   3.448  15.323  2.1777  2.1725 -1.5950
 1440SOL     OW15778   2.047   2.994  16.111  0.1625 -0.0279 -0.6530
 1440SOL    HW115779   2.036   2.899  16.118  0.9656 -0.1766 -1.4849
 1440SOL    HW215780   1.982   3.017  16.044 -1.6846  1.4349  1.6228
 1441SOL     OW15781   2.570   1.857   4.974  0.3779 -0.0489 -0.3642
 1441SOL    HW115782   2.495   1.800   4.958  0.6593 -0.8958  1.2929
 1441SOL    HW215783   2.534   1.927   4.920 -0.9191  0.1835  0.8012
 1442SOL     OW15784   3.543   3.942   2.669  0.2866 -0.0274  0.0492
 1442SOL    HW115785   3.454   3.966   2.696  0.3609 -0.0411  0.3106
 1442SOL    HW215786   3.543   3.856   2.710 -2.1253  0.6069  1.3998
 1443SOL     OW15787   3.381   0.350   3.687 -0.1945  0.7985 -0.2955
 1443SOL    HW115788   3.315   0.330   3.754  0.3457  0.0257  0.0080
 1443SOL    HW215789   3.401   0.440   3.713 -0.8595  0.6956  0.5633
 1444SOL     OW15790   4.170   2.516   6.383 -0.3022  0.1764 -0.0052
 1444SOL    HW115791   4.141   2.601   6.350  1.1973  0.1436 -1.3747
 1444SOL    HW215792   4.144   2.527   6.475  1.5022  1.6656  0.3192
 1445SOL     OW15793   0.056   3.505   2.374 -0.0500  0.1469  0.7433
 1445SOL    HW115794   4.686   3.514   2.347  0.9063 -0.1690 -2.5111
 1445SOL    HW215795   0.093   3.474   2.292 -2.4622 -0.0660 -0.2545
 1446SOL     OW15796   0.339   2.786   2.602 -0.0137  0.5504 -0.1346
 1446SOL    HW115797   0.335   2.737   2.685  2.0826 -0.4943 -0.6331
 1446SOL    HW215798   0.312   2.875   2.623  2.3972  1.1861  0.2900
 1447SOL     OW15799   3.352   4.268   5.911  0.4864 -0.5003  0.0642
 1447SOL    HW115800   3.367   4.203   5.980  1.3407 -0.3423  0.0224
 1447SOL    HW215801   3.355   4.350   5.960 -1.5280  0.3746 -1.2693
 1448SOL     OW15802   3.331   0.119   6.275 -0.0203  0.2166  0.2872
 1448SOL    HW115803   3.236   0.116   6.291 -0.5517 -0.1606 -3.0548
 1448SOL    HW215804   3.364   0.130   6.364 -2.3003 -0.6441  1.2482
 1449SOL     OW15805   3.072   1.670   1.751  0.1466 -0.5170 -0.2821
 1449SOL    HW115806   3.106   1.581   1.753 -2.5967 -1.5588  1.2447
 1449SOL    HW215807   3.151   1.706   1.712 -0.0237  0.6715  0.4714
 1450SOL     OW15808   2.818   2.197   2.473  0.5265  0.3777 -0.3058
 1450SOL    HW115809   2.851   2.197   2.383  0.9389 -0.5946 -0.1562
 1450SOL    HW215810   2.846   2.113   2.509 -0.6147 -0.1081 -0.5443
 1451SOL     OW15811   2.842   4.080   5.417  0.1564  0.2817 -0.1608
 1451SOL    HW115812   2.929   4.116   5.429  0.2675 -0.1449  0.2953
 1451SOL    HW215813   2.853   4.015   5.347 -1.6938 -0.0802 -0.1301
 1452SOL     OW15814   3.195   3.214  16.487 -0.6023  0.1881  0.3695
 1452SOL    HW115815   3.252   3.139  16.473 -0.0558  0.6382  0.1899
 1452SOL    HW215816   3.214   3.253  16.573 -0.4543 -0.0857  0.4628
 1453SOL     OW15817   0.776   4.079  15.311 -0.4052  0.7256 -0.0586
 1453SOL    HW115818   0.841   4.087  15.241 -0.4908  3.6805  0.2261
 1453SOL    HW215819   0.775   4.168  15.347  0.7478  0.5196  0.4789
 1454SOL     OW15820   1.889   3.648   0.450 -0.0674  0.3770 -0.1617
 1454SOL    HW115821   1.841   3.717   0.404  0.0020  1.1859  0.9782
 1454SOL    HW215822   1.926   3.601   0.375 -1.8798  0.1532 -0.9175
 1455SOL     OW15823   1.870   0.002   7.094  0.0981  0.4956 -0.2031
 1455SOL    HW115824   1.818   4.664   7.039 -0.8572 -0.3013  1.5395
 1455SOL    HW215825   1.877   4.684   7.182 -0.1944 -0.1032 -0.4412
 1456SOL     OW15826   2.525   4.116   4.313  0.6666  0.2183 -0.6510
 1456SOL    HW115827   2.564   4.053   4.252  0.8163  0.6107 -0.9555
 1456SOL    HW215828   2.434   4.105   4.286  0.3785 -1.2085  0.8874
 1457SOL     OW15829   3.500   1.067   8.946 -0.4604  0.3047 -0.5287
 1457SOL    HW115830   3.474   1.130   8.879  0.9015  1.3339 -0.1023
 1457SOL    HW215831   3.462   1.105   9.026  0.2416  0.2973 -0.1888
 1458SOL     OW15832   3.665   0.330   4.610  0.4018  0.4211 -0.3712
 1458SOL    HW115833   3.648   0.352   4.518 -1.5315  2.3569  0.4289
 1458SOL    HW215834   3.750   0.287   4.610 -0.4911 -1.3405 -0.4087
 1459SOL     OW15835   4.523   0.274   6.394  0.5659  0.2859 -0.1786
 1459SOL    HW115836   4.588   0.223   6.442 -0.6722 -0.1575  1.0369
 1459SOL    HW215837   4.439   0.261   6.438  0.0130 -1.2536 -1.6938
 1460SOL     OW15838   0.433   0.951   7.140 -0.6154 -0.7569  0.4526
 1460SOL    HW115839   0.503   0.915   7.085 -0.0371  1.7535 -0.4331
 1460SOL    HW215840   0.428   1.043   7.117  0.2414 -0.2275  2.3882
 1461SOL     OW15841   0.600   3.421   9.244  0.1701  0.3961  0.0191
 1461SOL    HW115842   0.525   3.480   9.252  0.0391  0.1901  0.2849
 1461SOL    HW215843   0.573   3.341   9.198  0.4347  0.8653 -0.9671
 1462SOL     OW15844   3.467   2.571  10.575  0.5916 -0.3642  0.4703
 1462SOL    HW115845   3.430   2.654  10.543 -1.3888 -0.8300  1.5253
 1462SOL    HW215846   3.391   2.513  10.572  0.4366 -0.1598  0.4046
 1463SOL     OW15847   3.228   1.836  16.129 -0.2369 -0.4235 -1.1540
 1463SOL    HW115848   3.165   1.812  16.197  2.7808 -1.9135  1.1096
 1463SOL    HW215849   3.277   1.905  16.175 -1.0188 -1.2498  0.8972
 1464SOL     OW15850   4.073   3.593   7.471  0.1412 -0.5238  0.3392
 1464SOL    HW115851   4.073   3.560   7.561 -3.3425 -1.6262 -0.0849
 1464SOL    HW215852   3.991   3.551   7.444 -0.6015  0.3506  1.2102
 1465SOL     OW15853   2.621   3.111  11.943  0.2308  0.6969  0.0953
 1465SOL    HW115854   2.570   3.030  11.940  0.8961  0.2854 -0.1476
 1465SOL    HW215855   2.554   3.176  11.922  0.1231  1.0857  1.6540
 1466SOL     OW15856   2.358   3.036   1.879 -0.0407  0.2191  0.4878
 1466SOL    HW115857   2.402   3.117   1.905 -0.3085  0.2880  0.7271
 1466SOL    HW215858   2.360   2.982   1.957 -1.4023 -0.1454  0.2765
 1467SOL     OW15859   4.395   0.323   9.142 -0.1981 -0.0382 -0.1047
 1467SOL    HW115860   4.315   0.374   9.138  0.7102  1.2161 -2.0061
 1467SOL    HW215861   4.446   0.394   9.180 -1.9820  0.5808  1.0929
 1468SOL     OW15862   2.384   1.224   3.235  0.4905  0.4766  0.4526
 1468SOL    HW115863   2.397   1.145   3.289  0.0805  1.5795  2.1583
 1468SOL    HW215864   2.428   1.286   3.293 -1.3418  2.0452  0.1655
 1469SOL     OW15865   0.933   4.050  16.048  0.9699  0.3665 -0.3239
 1469SOL    HW115866   1.006   4.109  16.065  1.9852 -0.4248 -1.9337
 1469SOL    HW215867   0.959   3.981  16.110 -2.5390 -0.1728  0.5784
 1470SOL     OW15868   1.418   4.148   1.274  0.2187  0.2840 -0.4297
 1470SOL    HW115869   1.451   4.216   1.216  1.6035  1.2032  1.4383
 1470SOL    HW215870   1.502   4.127   1.315 -0.6330 -3.1417 -0.4303
 1471SOL     OW15871   0.888   3.082   0.479 -0.0875 -0.0094 -0.0573
 1471SOL    HW115872   0.946   3.034   0.420 -1.6143 -2.6950  0.6077
 1471SOL    HW215873   0.891   3.034   0.562  0.5631  0.2980  0.0979
 1472SOL     OW15874   1.262   2.131  16.001  0.1039 -0.5591 -0.3353
 1472SOL    HW115875   1.244   2.205  16.059  0.7231 -1.9168  1.5793
 1472SOL    HW215876   1.292   2.066  16.064 -1.3112 -0.7286  0.1426
 1473SOL     OW15877   4.075   2.459   3.317 -0.7993  0.0764 -1.1354
 1473SOL    HW115878   4.021   2.528   3.357  3.4349  2.7663 -0.0613
 1473SOL    HW215879   4.094   2.492   3.229  2.1944 -4.0719 -2.0456
 1474SOL     OW15880   2.767   3.366   9.567 -0.1589  0.1912 -0.0486
 1474SOL    HW115881   2.729   3.439   9.616 -0.9538  0.5449 -1.1997
 1474SOL    HW215882   2.853   3.404   9.548  0.2605 -0.0235  1.4150
 1475SOL     OW15883   1.933   2.035   8.098  0.0102 -0.1022  0.8381
 1475SOL    HW115884   1.855   1.992   8.065  0.5699 -0.6171  0.1814
 1475SOL    HW215885   1.987   1.964   8.132  0.4868  0.1337  0.5717
 1476SOL     OW15886   0.558   3.613   7.156 -0.4166  0.1092 -0.3526
 1476SOL    HW115887   0.489   3.659   7.108  0.2098  2.3550  0.8610
 1476SOL    HW215888   0.600   3.682   7.208  0.0513 -0.9064  0.6060
 1477SOL     OW15889   2.511   2.437   9.857  0.3389  0.8228 -0.3602
 1477SOL    HW115890   2.558   2.398   9.931 -0.4819  0.7547  0.1183
 1477SOL    HW215891   2.430   2.455   9.904  0.3694  0.8874 -0.3324
 1478SOL     OW15892   1.229   0.699   0.105 -0.0830 -0.3308  0.2621
 1478SOL    HW115893   1.141   0.729   0.128 -0.1991 -0.6720  0.2564
 1478SOL    HW215894   1.294   0.769   0.115 -1.4247  1.0442 -0.7988
 1479SOL     OW15895   4.651   0.608   9.524  0.2389  0.3486  0.5752
 1479SOL    HW115896   4.559   0.617   9.502 -0.5416  0.1857  3.8092
 1479SOL    HW215897   4.697   0.607   9.440 -1.4338  0.7807 -0.3403
 1480SOL     OW15898   4.533   0.180   8.178 -0.1468 -0.0268  0.5111
 1480SOL    HW115899   4.473   0.122   8.131  1.0743 -0.3992 -0.5696
 1480SOL    HW215900   4.561   0.126   8.252 -1.8822 -0.9169  0.5149
 1481SOL     OW15901   3.277   1.992  15.182  0.3743  0.2595  0.2889
 1481SOL    HW115902   3.211   1.928  15.208  0.9025 -0.6625 -0.5875
 1481SOL    HW215903   3.242   2.018  15.096 -0.1881 -0.5578  0.2764
 1482SOL     OW15904   4.350   2.407  16.520  0.2698  0.0641  0.0252
 1482SOL    HW115905   4.443   2.409  16.497  0.3615 -1.1373  0.2769
 1482SOL    HW215906   4.343   2.425  16.614  1.8987 -0.4126  0.2507
 1483SOL     OW15907   1.362   1.007   3.648  0.0045  0.3419 -0.3270
 1483SOL    HW115908   1.402   1.003   3.561  1.9255  0.2454  0.5664
 1483SOL    HW215909   1.383   1.092   3.684 -1.1218  1.7053 -2.8604
 1484SOL     OW15910   2.563   1.749   6.590  0.1254  0.3000 -0.3033
 1484SOL    HW115911   2.562   1.706   6.505  1.7058  0.1164 -0.2226
 1484SOL    HW215912   2.579   1.682   6.657  0.4029  0.4953 -0.1776
 1485SOL     OW15913   3.867   2.689   3.923  0.1783 -0.0866 -0.5779
 1485SOL    HW115914   3.845   2.673   3.831 -1.3104 -3.7930  0.4081
 1485SOL    HW215915   3.812   2.763   3.946  1.1233  0.2571  0.5933
 1486SOL     OW15916   4.273   0.057   2.789  0.8146  0.3043  0.0671
 1486SOL    HW115917   4.216   4.718   2.838 -0.9576  2.9484  1.2437
 1486SOL    HW215918   4.269   0.018   2.702  0.6415 -0.7133  0.5355
 1487SOL     OW15919   1.361   4.623   6.147 -0.3513  0.3703 -0.2428
 1487SOL    HW115920   1.414   4.702   6.143 -0.0467  0.2027  0.4973
 1487SOL    HW215921   1.390   4.573   6.070 -1.5041 -0.3140 -0.2420
 1488SOL     OW15922   2.956   4.204   3.812 -0.1719  0.0131  0.1724
 1488SOL    HW115923   3.033   4.161   3.774 -1.5489 -0.3610 -2.2224
 1488SOL    HW215924   2.964   4.289   3.770 -1.5728  1.4906  2.9170
 1489SOL     OW15925   0.615   3.019   7.215  0.2663  0.0260  0.3093
 1489SOL    HW115926   0.561   3.097   7.204 -0.9622 -0.8770 -0.0988
 1489SOL    HW215927   0.670   3.051   7.287  2.4933  1.2940 -1.9815
 1490SOL     OW15928   2.297   2.247   9.087 -0.4060 -0.3709 -0.1594
 1490SOL    HW115929   2.278   2.337   9.062  0.8932  0.4374  1.7612
 1490SOL    HW215930   2.304   2.261   9.182 -2.0595 -1.2747  0.0895
 1491SOL     OW15931   3.499   0.480   6.426 -0.0476  0.3627  0.0640
 1491SOL    HW115932   3.480   0.407   6.485  2.4457  1.0454  1.7223
 1491SOL    HW215933   3.591   0.493   6.448 -0.6842  0.7566  2.4935
 1492SOL     OW15934   2.688   4.162   6.803 -0.3299 -0.3351 -0.3397
 1492SOL    HW115935   2.748   4.126   6.868 -1.2052  1.4934  1.4855
 1492SOL    HW215936   2.725   4.248   6.783 -0.0295 -0.3735  0.0569
 1493SOL     OW15937   4.005   3.037   0.816  0.4349 -0.3137 -0.0097
 1493SOL    HW115938   3.988   3.102   0.884 -0.8008 -0.6734  0.0314
 1493SOL    HW215939   4.090   3.003   0.842  1.1190 -0.0667 -1.9573
 1494SOL     OW15940   3.172   4.307  13.681 -0.5142  0.0664  0.7604
 1494SOL    HW115941   3.127   4.247  13.741 -2.6419 -0.4202 -1.3320
 1494SOL    HW215942   3.149   4.390  13.723  1.7138  1.9071 -1.6716
 1495SOL     OW15943   0.408   0.563   3.037  0.4775  0.2245  0.2649
 1495SOL    HW115944   0.317   0.594   3.036  0.3597 -0.0885  0.8701
 1495SOL    HW215945   0.452   0.624   3.095 -0.4209  1.4262 -0.3226
 1496SOL     OW15946   4.021   2.824  10.583 -0.5525 -0.1896 -0.4270
 1496SOL    HW115947   3.991   2.775  10.660 -0.4313  0.6071  0.1294
 1496SOL    HW215948   3.963   2.900  10.586  1.2060  1.1004  0.9967
 1497SOL     OW15949   3.151   3.472   2.866  0.1034 -0.0269  0.3394
 1497SOL    HW115950   3.116   3.542   2.922 -0.8682  0.3445 -0.7341
 1497SOL    HW215951   3.163   3.514   2.782 -0.1482  2.1308  1.3892
 1498SOL     OW15952   0.435   0.293   4.511 -0.2877 -0.2839 -0.6496
 1498SOL    HW115953   0.419   0.211   4.557 -1.7364  0.2525 -0.2011
 1498SOL    HW215954   0.513   0.275   4.458  2.1829 -1.2047  3.3589
 1499SOL     OW15955   2.439   1.599   1.503  0.1741 -0.0945  0.0429
 1499SOL    HW115956   2.500   1.528   1.482 -1.2658 -1.5075  0.5819
 1499SOL    HW215957   2.391   1.573   1.582  0.0794 -1.4739 -0.4702
 1500SOL     OW15958   3.745   2.042   3.980 -0.2327 -0.2962 -0.9355
 1500SOL    HW115959   3.650   2.049   3.969 -0.3153  0.6976  0.3458
 1500SOL    HW215960   3.771   2.000   3.899 -0.7053 -3.4152  0.5376
 1501SOL     OW15961   3.632   0.939   3.668 -0.2017  0.5268  0.1811
 1501SOL    HW115962   3.594   0.984   3.744 -0.4734 -0.7454  0.7973
 1501SOL    HW215963   3.703   0.996   3.639  0.9202 -1.0582 -0.1733
 1502SOL     OW15964   1.075   0.566   1.752  0.2140 -0.0489 -0.1225
 1502SOL    HW115965   1.051   0.558   1.659  2.5849  0.3514 -0.7672
 1502SOL    HW215966   1.028   0.647   1.769 -0.2807  0.2231 -2.7901
 1503SOL     OW15967   0.049   2.514   9.915  0.1578  0.2291  0.3971
 1503SOL    HW115968   4.708   2.463   9.967 -2.3627  2.6878 -0.1332
 1503SOL    HW215969   0.087   2.474   9.836  1.4534  2.2121 -0.0004
 1504SOL     OW15970   3.860   3.417   5.139 -0.1224  0.1826  0.4057
 1504SOL    HW115971   3.813   3.340   5.171 -1.3198 -0.0597 -1.9653
 1504SOL    HW215972   3.830   3.488   5.195 -0.1623  0.2463  0.3037
 1505SOL     OW15973   1.026   0.169   0.810  0.1945  0.4868 -0.3014
 1505SOL    HW115974   0.950   0.204   0.763  0.4033 -0.0197 -1.0153
 1505SOL    HW215975   1.038   0.082   0.772  0.9258  0.2826  0.3973
 1506SOL     OW15976   4.105   0.019  13.018  0.3360  0.4553 -0.2872
 1506SOL    HW115977   4.143   4.662  12.977  0.9458  1.1658 -1.0577
 1506SOL    HW215978   4.010   0.014  13.003  0.6884 -1.1320 -2.0017
 1507SOL     OW15979   4.701   0.722   2.476 -0.2440 -0.1170 -0.4677
 1507SOL    HW115980   4.612   0.752   2.492 -0.5636 -1.2603 -0.0601
 1507SOL    HW215981   0.009   0.784   2.409  0.9612  1.3750  1.4320
 1508SOL     OW15982   4.521   3.773   4.460 -0.2483 -0.3302 -0.5095
 1508SOL    HW115983   4.578   3.828   4.514 -0.9482  0.0627 -0.1691
 1508SOL    HW215984   4.574   3.761   4.381  0.7537 -0.1935  0.1279
 1509SOL     OW15985   1.094   0.327  13.957  0.1463 -0.5674  0.0191
 1509SOL    HW115986   1.078   0.399  14.019  3.6881  1.5136 -1.4616
 1509SOL    HW215987   1.008   0.287  13.956 -1.0472  2.0158 -1.1191
 1510SOL     OW15988   4.497   2.882   1.892 -0.3205  0.2241  0.8389
 1510SOL    HW115989   4.482   2.798   1.935  2.0608 -1.5262 -1.6877
 1510SOL    HW215990   4.515   2.937   1.968 -0.2619  2.0658 -0.4951
 1511SOL     OW15991   4.538   2.069   2.557 -0.0257  0.2402 -0.5449
 1511SOL    HW115992   4.468   2.006   2.538 -0.1828  0.6708 -1.4118
 1511SOL    HW215993   4.517   2.083   2.649  0.3865 -0.7935 -0.2956
 1512SOL     OW15994   0.842   1.392   7.452  0.0264  0.4303 -0.1072
 1512SOL    HW115995   0.755   1.396   7.490  1.4853  2.1019  2.9917
 1512SOL    HW215996   0.896   1.432   7.520  0.5982  1.8574 -1.4012
 1513SOL     OW15997   2.305   0.904   8.176  0.1237  0.5725 -0.0603
 1513SOL    HW115998   2.304   0.987   8.128 -0.8491  1.1531  0.9504
 1513SOL    HW215999   2.398   0.897   8.198  0.0838  2.0275  0.5577
 1514SOL     OW16000   1.738   3.183   5.744  0.2213 -0.2093 -0.2586
 1514SOL    HW116001   1.753   3.154   5.835 -0.8569  2.4357  0.7527
 1514SOL    HW216002   1.821   3.177   5.697  0.8630 -1.3520  1.0033
 1515SOL     OW16003   1.922   1.874   5.357  0.3187 -0.0451  0.5686
 1515SOL    HW116004   1.874   1.856   5.276  1.8641 -0.2567 -0.3075
 1515SOL    HW216005   1.943   1.967   5.356  1.6242 -0.3306  0.6671
 1516SOL     OW16006   0.314   4.184   0.380  0.1623 -0.1370  0.0470
 1516SOL    HW116007   0.374   4.213   0.311  0.9082 -1.9797 -0.0867
 1516SOL    HW216008   0.338   4.092   0.389  1.9233  0.3393  0.2601
 1517SOL     OW16009   3.234   3.502   9.192 -0.0616  0.4572  0.5428
 1517SOL    HW116010   3.295   3.574   9.176 -1.5099  1.5588 -0.0174
 1517SOL    HW216011   3.190   3.504   9.107  0.0537 -2.4470  0.4235
 1518SOL     OW16012   0.631   1.131   7.866 -0.5366 -0.2143  0.2240
 1518SOL    HW116013   0.552   1.186   7.863 -0.2884  0.1284 -0.0458
 1518SOL    HW216014   0.598   1.066   7.928 -0.2426 -0.1241  0.4754
 1519SOL     OW16015   3.611   2.574  12.055 -0.3199  0.1179 -0.3453
 1519SOL    HW116016   3.523   2.606  12.074 -0.4879 -0.6033  0.0867
 1519SOL    HW216017   3.669   2.635  12.101 -2.0393 -0.0030  1.9892
 1520SOL     OW16018   0.994   3.136  11.568  0.1355 -0.0313 -0.7241
 1520SOL    HW116019   1.052   3.112  11.495 -0.0754 -3.9318  0.3523
 1520SOL    HW216020   1.049   3.205  11.605  0.2878 -0.8379  0.5541
 1521SOL     OW16021   3.508   2.325  12.164 -0.3591 -0.7207 -0.1250
 1521SOL    HW116022   3.571   2.260  12.131  1.3290  1.4977 -1.2623
 1521SOL    HW216023   3.560   2.404  12.149  1.1948 -2.0466 -1.9220
 1522SOL     OW16024   1.016   3.507   2.519  0.1126 -0.2655 -0.0853
 1522SOL    HW116025   0.952   3.573   2.542 -0.5360 -1.3257  1.1761
 1522SOL    HW216026   1.091   3.558   2.551  0.6169 -1.1476  0.1473
 1523SOL     OW16027   2.758   2.217  15.631  0.2274 -0.3422  0.6115
 1523SOL    HW116028   2.726   2.219  15.721  1.4197 -0.0523  1.0244
 1523SOL    HW216029   2.820   2.145  15.638  0.5307 -0.0884  0.5255
 1524SOL     OW16030   0.223   4.014   4.366  0.0141  0.6023 -0.0977
 1524SOL    HW116031   0.135   3.984   4.342  0.3646 -0.0080 -0.6311
 1524SOL    HW216032   0.226   3.971   4.451 -0.2130  1.7814  0.5007
 1525SOL     OW16033   2.784   0.112  17.454 -0.5178 -0.1085 -0.1182
 1525SOL    HW116034   2.769   0.034  17.401  1.5072 -0.3164 -0.4135
 1525SOL    HW216035   2.699   0.118  17.498  0.7936  1.2203  2.2547
 1526SOL     OW16036   3.270   3.469   5.450  0.0005  0.0920 -0.3367
 1526SOL    HW116037   3.315   3.553   5.460 -0.8255 -0.0398  4.5093
 1526SOL    HW216038   3.288   3.441   5.360  0.3455 -1.9456  0.3687
 1527SOL     OW16039   3.612   0.981   2.963  0.1872 -0.3572  0.2134
 1527SOL    HW116040   3.518   0.986   2.977 -0.2380  0.3158 -2.8796
 1527SOL    HW216041   3.656   1.005   3.045 -2.9036 -2.2679  2.4412
 1528SOL     OW16042   0.625   4.051   7.242 -0.4376  0.8947 -0.1391
 1528SOL    HW116043   0.558   3.984   7.228  0.9292 -0.4772 -0.1926
 1528SOL    HW216044   0.676   4.013   7.314  0.0942  0.1118 -0.9236
 1529SOL     OW16045   4.417   4.400   6.625  0.2008 -0.1798  0.1725
 1529SOL    HW116046   4.453   4.383   6.538  1.7129  0.3434  0.6968
 1529SOL    HW216047   4.329   4.422   6.596 -0.7100 -2.7363  1.0160
 1530SOL     OW16048   1.987   1.782   7.173 -0.0959 -0.3077 -0.2519
 1530SOL    HW116049   1.958   1.692   7.179 -1.1758  0.1259  0.9555
 1530SOL    HW216050   2.033   1.789   7.257 -1.0223  3.1088 -0.0073
 1531SOL     OW16051   4.592   2.595   3.178  0.5583  0.1751  0.4365
 1531SOL    HW116052   4.682   2.562   3.171 -0.4562 -2.7745  1.4120
 1531SOL    HW216053   4.535   2.520   3.166 -1.9803  2.1994 -0.0426
 1532SOL     OW16054   1.358   2.321   6.597  0.0384 -0.4524 -0.2608
 1532SOL    HW116055   1.353   2.408   6.635 -0.0711 -0.4944 -0.1780
 1532SOL    HW216056   1.444   2.290   6.625 -1.9032 -2.0093  3.9463
 1533SOL     OW16057   3.399   2.504   5.061 -0.1134  0.3306 -0.2379
 1533SOL    HW116058   3.325   2.484   5.119  0.6503 -0.5545  0.4266
 1533SOL    HW216059   3.352   2.524   4.980 -0.3774  1.2847  0.1542
 1534SOL     OW16060   2.624   1.089   0.836  0.9065 -0.2416 -0.1892
 1534SOL    HW116061   2.531   1.066   0.832 -0.0291  3.1964  1.7599
 1534SOL    HW216062   2.640   1.117   0.746  1.0583 -0.5621 -0.2607
 1535SOL     OW16063   2.211   1.798   1.653 -0.0208 -0.2365  0.6770
 1535SOL    HW116064   2.271   1.872   1.651 -0.8171  0.3493 -0.9189
 1535SOL    HW216065   2.278   1.736   1.685  0.0029 -0.2326  0.6347
 1536SOL     OW16066   2.942   1.265  13.961 -0.3160  0.1875 -0.5254
 1536SOL    HW116067   2.989   1.312  14.031  0.4900 -1.4675  0.0322
 1536SOL    HW216068   2.937   1.338  13.899  2.0746 -0.9045 -2.0340
 1537SOL     OW16069   0.504   1.755   4.600 -0.4085  0.5007 -0.2996
 1537SOL    HW116070   0.513   1.686   4.666 -0.6327  0.1579 -0.6253
 1537SOL    HW216071   0.437   1.801   4.650 -1.2330  0.0573 -0.9875
 1538SOL     OW16072   4.660   4.015   2.393  0.2061  0.0243 -0.4067
 1538SOL    HW116073   4.609   4.093   2.369 -0.6496 -0.3162  0.3336
 1538SOL    HW216074   0.004   4.019   2.322 -0.4050  1.8381 -0.8659
 1539SOL     OW16075   2.066   4.358  12.866 -0.3790  0.1268  0.3593
 1539SOL    HW116076   2.005   4.334  12.797 -1.2514  2.2152  0.4016
 1539SOL    HW216077   2.141   4.371  12.807  1.7634 -2.7932  2.4670
 1540SOL     OW16078   3.137   1.556  14.242  0.1158 -0.9168  0.0803
 1540SOL    HW116079   3.207   1.567  14.178 -0.2909 -0.7087 -0.3291
 1540SOL    HW216080   3.064   1.537  14.182  0.4519  1.1550 -0.9849
 1541SOL     OW16081   3.290   0.899  17.120  0.1906 -0.1605  0.1670
 1541SOL    HW116082   3.256   0.905  17.210 -1.6020 -0.3811 -0.5022
 1541SOL    HW216083   3.296   0.804  17.130 -0.0707 -0.0315  1.5710
 1542SOL     OW16084   2.556   3.873  13.451 -0.4017  0.0569 -0.0894
 1542SOL    HW116085   2.507   3.944  13.410 -0.2191 -0.1059 -0.5844
 1542SOL    HW216086   2.613   3.849  13.379 -0.3414 -0.2097  0.0467
 1543SOL     OW16087   1.085   0.990   1.562  0.6339  0.4247  0.0051
 1543SOL    HW116088   1.143   0.929   1.516 -1.3543 -0.6956 -0.9917
 1543SOL    HW216089   1.116   1.070   1.521  0.5683 -1.0560 -2.9483
 1544SOL     OW16090   0.011   3.524   8.784 -0.2134 -0.0543  0.2037
 1544SOL    HW116091   0.001   3.619   8.791 -2.0252 -0.2199 -0.1648
 1544SOL    HW216092   0.066   3.501   8.859  1.1615  1.1673 -0.4128
 1545SOL     OW16093   1.320   3.134   8.177  0.0288 -0.2453  0.2982
 1545SOL    HW116094   1.247   3.185   8.211  0.2228 -0.7587  1.4757
 1545SOL    HW216095   1.384   3.140   8.248 -0.7829  1.0839  0.9081
 1546SOL     OW16096   3.546   0.758   1.011  0.6119 -0.3409  0.0109
 1546SOL    HW116097   3.621   0.818   1.013  1.5128 -1.4312 -1.0807
 1546SOL    HW216098   3.580   0.672   1.038  0.4966 -0.6207 -0.7448
 1547SOL     OW16099   2.802   3.993  11.121 -0.2854  0.3348  0.1024
 1547SOL    HW116100   2.718   4.039  11.110 -0.3979 -0.0322 -0.5989
 1547SOL    HW216101   2.845   4.063  11.072 -0.9604  0.6779  0.0031
 1548SOL     OW16102   4.042   2.017   8.680  0.1397  0.4654  0.2614
 1548SOL    HW116103   4.077   1.970   8.604  3.1064  1.5467  0.9798
 1548SOL    HW216104   3.967   2.067   8.647 -0.6774 -1.8100 -1.3706
 1549SOL     OW16105   4.253   3.563   8.545 -0.1579 -0.1245  0.1565
 1549SOL    HW116106   4.337   3.521   8.527 -0.2445  0.1065 -0.7721
 1549SOL    HW216107   4.265   3.589   8.637  0.5174 -1.2703  0.3949
 1550SOL     OW16108   2.874   0.802   1.724 -0.1730  0.1049 -0.4739
 1550SOL    HW116109   2.823   0.836   1.797 -0.8371 -0.4210 -0.6913
 1550SOL    HW216110   2.959   0.840   1.745  0.0866 -1.2598  0.9173
 1551SOL     OW16111   4.712   2.498   0.377  0.2442  0.7776 -0.2336
 1551SOL    HW116112   4.659   2.544   0.311  3.5253 -0.7853 -3.9208
 1551SOL    HW216113   0.015   2.419   0.329  0.2956  0.0683  0.9778
 1552SOL     OW16114   2.162   2.679  11.215 -0.5697 -0.4469 -0.2278
 1552SOL    HW116115   2.141   2.745  11.149 -0.3030 -1.1476 -1.0121
 1552SOL    HW216116   2.132   2.602  11.166 -4.1788  1.2811 -0.7535
 1553SOL     OW16117   3.139   0.240   5.100  0.3232 -0.4320  0.6056
 1553SOL    HW116118   3.212   0.294   5.130  2.1501 -1.4626 -2.0314
 1553SOL    HW216119   3.096   0.282   5.025  1.2656 -0.3238  0.1349
 1554SOL     OW16120   2.576   0.692   3.661  0.0158 -0.1095  0.1441
 1554SOL    HW116121   2.574   0.664   3.752  0.0680 -0.3613  0.0690
 1554SOL    HW216122   2.499   0.653   3.619 -1.7469  2.1502  1.3154
 1555SOL     OW16123   0.478   0.095   6.621 -0.0861 -0.7432  0.1088
 1555SOL    HW116124   0.481   0.036   6.545 -0.1615 -0.1704 -0.3396
 1555SOL    HW216125   0.470   0.182   6.581  0.0666 -0.6618  0.2552
 1556SOL     OW16126   4.525   0.042   3.604  0.1795 -0.2245  0.1801
 1556SOL    HW116127   4.568   0.019   3.686 -2.3412 -1.4441  1.1452
 1556SOL    HW216128   4.441   0.080   3.632  1.5526  1.6712  1.7658
 1557SOL     OW16129   3.911   1.688   5.121  0.1826  0.4386 -0.3301
 1557SOL    HW116130   4.003   1.712   5.123  0.3692 -0.4414  1.4662
 1557SOL    HW216131   3.880   1.767   5.077  0.4039  0.2952 -0.7415
 1558SOL     OW16132   3.410   3.575  10.533 -0.5592 -0.0510  0.0312
 1558SOL    HW116133   3.424   3.543  10.443 -1.1602 -0.4442  0.0720
 1558SOL    HW216134   3.498   3.567  10.570 -0.1856  0.5643 -0.7254
 1559SOL     OW16135   4.190   2.164   1.918  0.3407 -0.0934  0.3740
 1559SOL    HW116136   4.253   2.225   1.880 -0.2908  1.2569  1.4779
 1559SOL    HW216137   4.139   2.223   1.975  0.8279  1.0468 -0.3778
 1560SOL     OW16138   2.435   3.084   0.515 -0.0650  0.1455 -0.7403
 1560SOL    HW116139   2.420   3.004   0.466 -2.2792 -1.0049  1.8353
 1560SOL    HW216140   2.497   3.127   0.456 -0.0811  1.9673  0.5591
 1561SOL     OW16141   2.657   2.680  17.534  0.0251 -0.1601 -0.4196
 1561SOL    HW116142   2.624   2.770  17.531  1.6547  0.4157 -0.7586
 1561SOL    HW216143   2.593   2.626  17.581  1.3747 -1.1353  0.3070
 1562SOL     OW16144   1.097   0.915   2.973  0.0755 -0.3627 -0.4382
 1562SOL    HW116145   1.066   0.865   3.048  1.0257 -2.2878 -1.3410
 1562SOL    HW216146   1.189   0.898   2.991  0.1669  1.6144  0.9656
 1563SOL     OW16147   2.583   1.335   1.540  0.0474  0.0815  0.4405
 1563SOL    HW116148   2.594   1.241   1.528 -0.5576  0.1641 -0.7804
 1563SOL    HW216149   2.663   1.358   1.588  0.0190 -1.8821  1.4172
 1564SOL     OW16150   1.454   2.861  11.276  0.1091  0.1781 -0.0026
 1564SOL    HW116151   1.503   2.778  11.279 -0.6629 -0.2456  0.9070
 1564SOL    HW216152   1.442   2.883  11.368  1.8775  1.6559 -0.1258
 1565SOL     OW16153   3.739   3.576   0.698  0.2540  0.1594  0.2109
 1565SOL    HW116154   3.773   3.564   0.609  0.7859  1.5529  0.2266
 1565SOL    HW216155   3.793   3.520   0.753 -0.1208 -0.2459  0.1664
 1566SOL     OW16156   0.922   0.417  13.254 -0.1308 -0.2206 -0.6969
 1566SOL    HW116157   0.878   0.389  13.174 -1.1205 -0.8046  0.0445
 1566SOL    HW216158   1.016   0.412  13.233 -0.0117 -2.4895  0.3690
 1567SOL     OW16159   1.294   3.559  10.343  0.3324  0.0159 -0.1861
 1567SOL    HW116160   1.236   3.526  10.412  1.5249 -0.1160  0.7455
 1567SOL    HW216161   1.372   3.562  10.398  0.3048 -2.0745 -0.0121
 1568SOL     OW16162   2.002   2.166   3.434 -0.5051  0.5509 -0.1944
 1568SOL    HW116163   2.075   2.220   3.401  0.2536 -0.5925 -0.3762
 1568SOL    HW216164   2.001   2.090   3.376  0.7318 -0.0734  0.6086
 1569SOL     OW16165   1.605   2.179   6.289 -0.0016 -0.0922 -0.0005
 1569SOL    HW116166   1.635   2.105   6.342 -0.1336 -1.2828 -1.5544
 1569SOL    HW216167   1.628   2.143   6.203 -1.9488  0.9765 -0.9697
 1570SOL     OW16168   2.641   3.912   0.423 -0.3029 -0.1418 -0.1261
 1570SOL    HW116169   2.563   3.886   0.472  0.6328  0.0727  1.4934
 1570SOL    HW216170   2.602   3.953   0.346  2.9042  0.4066 -1.4628
 1571SOL     OW16171   2.814   0.692   5.864  0.9173  0.6286  0.8423
 1571SOL    HW116172   2.836   0.654   5.779 -1.2144  0.6828  0.2548
 1571SOL    HW216173   2.855   0.778   5.853 -2.8610  2.3784  0.3988
 1572SOL     OW16174   1.759   1.035   8.407 -0.0939  0.2890 -0.1941
 1572SOL    HW116175   1.718   1.061   8.489 -0.7574 -0.7092 -0.2125
 1572SOL    HW216176   1.740   1.114   8.356  1.6137  2.2068  2.1283
 1573SOL     OW16177   0.345   1.110   8.640 -0.6570  0.0279 -0.1515
 1573SOL    HW116178   0.271   1.163   8.670 -0.7846 -0.1973 -0.0659
 1573SOL    HW216179   0.387   1.079   8.720  1.0811  1.5432 -0.4942
 1574SOL     OW16180   3.507   3.874  16.914 -0.4272  0.3669  0.8933
 1574SOL    HW116181   3.527   3.784  16.886 -0.2087  0.2901  1.3003
 1574SOL    HW216182   3.584   3.905  16.962 -1.0307 -0.2310  2.2244
 1575SOL     OW16183   0.453   4.105   8.140  0.6998  0.1018  0.4875
 1575SOL    HW116184   0.454   4.187   8.189 -0.5087 -0.3835  1.3445
 1575SOL    HW216185   0.363   4.075   8.154 -0.3877  2.4087 -1.5317
 1576SOL     OW16186   2.155   0.155   8.768 -0.1758  0.5670  0.0788
 1576SOL    HW116187   2.187   0.097   8.698 -1.6179  0.9999 -0.9537
 1576SOL    HW216188   2.107   0.227   8.726 -0.8973 -0.8090 -1.4829
 1577SOL     OW16189   1.787   2.484   8.068  0.5852 -0.0034 -0.0964
 1577SOL    HW116190   1.715   2.525   8.020  1.1911  0.5484 -0.5316
 1577SOL    HW216191   1.850   2.460   7.999  0.6186  0.6473 -0.2903
 1578SOL     OW16192   3.089   0.352  11.874  0.3099 -0.1500  0.5972
 1578SOL    HW116193   3.150   0.343  11.947  1.3596  0.6505 -0.1775
 1578SOL    HW216194   3.039   0.419  11.921 -1.2790 -0.8907 -0.0423
 1579SOL     OW16195   0.277   3.718   4.956  0.6183 -0.7808  0.2681
 1579SOL    HW116196   0.355   3.761   4.992 -1.1532  3.3536 -0.9134
 1579SOL    HW216197   0.324   3.684   4.880 -0.1653 -2.8449  0.6948
 1580SOL     OW16198   3.957   0.371   1.899  0.3224  0.0424 -0.0405
 1580SOL    HW116199   3.934   0.345   1.810 -0.4429  0.8967 -0.0952
 1580SOL    HW216200   3.884   0.432   1.910  0.3778  0.0325  0.3882
 1581SOL     OW16201   2.762   1.313   4.091  0.5703 -0.1116  0.4714
 1581SOL    HW116202   2.727   1.243   4.147  0.0156  1.0342  1.5652
 1581SOL    HW216203   2.712   1.387   4.127  2.7608  1.9382 -0.7436
 1582SOL     OW16204   2.727   1.322  10.876  0.1566 -0.5898  0.1223
 1582SOL    HW116205   2.660   1.389  10.861  0.2680 -0.4492  0.2416
 1582SOL    HW216206   2.761   1.361  10.957 -0.9255 -3.0753  1.7815
 1583SOL     OW16207   0.358   4.657   3.912 -0.0476 -0.8322 -0.5181
 1583SOL    HW116208   0.317   4.601   3.979 -1.4989  1.5363  0.5807
 1583SOL    HW216209   0.427   4.688   3.970  1.0632  0.1974 -2.4116
 1584SOL     OW16210   4.558   2.597   0.154  0.4737  0.4070  0.6194
 1584SOL    HW116211   4.472   2.638   0.166  0.8706  1.4304 -0.0469
 1584SOL    HW216212   4.534   2.528   0.092  0.6079  1.3914 -0.5212
 1585SOL     OW16213   3.658   1.419   4.879 -0.1619 -0.0231 -0.1757
 1585SOL    HW116214   3.741   1.440   4.837 -1.0241  1.7416 -0.9754
 1585SOL    HW216215   3.630   1.504   4.912  2.1001  1.3217 -1.7777
 1586SOL     OW16216   2.433   1.378  17.116 -0.3187  0.2768 -0.2297
 1586SOL    HW116217   2.383   1.369  17.034  1.0917 -0.0892 -1.0532
 1586SOL    HW216218   2.363   1.391  17.180 -1.1936 -0.8225 -0.9541
 1587SOL     OW16219   1.279   4.599   6.589  0.3481 -0.3507  0.3447
 1587SOL    HW116220   1.222   4.533   6.629  0.6565 -1.0767 -0.4118
 1587SOL    HW216221   1.261   4.584   6.496 -0.7647 -2.2864  0.8652
 1588SOL     OW16222   1.970   0.699   8.764  0.0338  0.0192 -0.5131
 1588SOL    HW116223   2.063   0.683   8.781 -0.1050 -0.2518  0.0017
 1588SOL    HW216224   1.971   0.777   8.708  5.0599  0.3202 -0.0145
 1589SOL     OW16225   1.478   3.965   3.667  0.1565 -0.2181 -0.3414
 1589SOL    HW116226   1.488   3.909   3.590 -0.2159  0.6216 -1.0048
 1589SOL    HW216227   1.419   4.031   3.630  0.0965  0.1456  0.3933
 1590SOL     OW16228   2.529   3.242  17.484 -0.2483 -0.7641  0.1291
 1590SOL    HW116229   2.560   3.315  17.538  0.0704 -0.5316 -0.3717
 1590SOL    HW216230   2.603   3.181  17.495  0.8998  0.3816 -1.2821
 1591SOL     OW16231   0.259   3.326   1.252 -0.2275 -0.2253 -0.3677
 1591SOL    HW116232   0.305   3.284   1.179 -1.6270 -1.7502 -0.3664
 1591SOL    HW216233   0.223   3.249   1.294 -1.5395 -0.6662 -2.2961
 1592SOL     OW16234   2.226   0.814   2.081 -0.2030 -0.4697  0.4509
 1592SOL    HW116235   2.247   0.828   1.989  0.3700  2.5883  1.0367
 1592SOL    HW216236   2.304   0.766   2.110  0.2517 -0.3918 -0.6486
 1593SOL     OW16237   4.025   0.723   2.564  0.3675 -0.2088 -0.7669
 1593SOL    HW116238   3.930   0.737   2.556 -0.3633 -4.0003  1.2569
 1593SOL    HW216239   4.051   0.732   2.473 -1.0080  0.3269 -1.1084
 1594SOL     OW16240   2.179   2.227   5.125 -0.3141  0.3976 -0.3604
 1594SOL    HW116241   2.130   2.200   5.203  1.3633 -2.5413 -0.3077
 1594SOL    HW216242   2.264   2.201   5.161 -1.1757 -0.6505  0.9127
 1595SOL     OW16243   4.282   0.733   7.753 -0.0070 -0.2014  0.0474
 1595SOL    HW116244   4.298   0.758   7.662  2.3720 -2.8071 -0.2341
 1595SOL    HW216245   4.200   0.684   7.751  0.2581 -0.6013 -1.4590
 1596SOL     OW16246   0.782   0.939   2.533 -0.3382 -0.9759  0.0711
 1596SOL    HW116247   0.839   0.966   2.461  0.5036  0.1868  1.1640
 1596SOL    HW216248   0.764   0.852   2.497 -1.1541 -0.5417 -0.5648
 1597SOL     OW16249   0.807   2.051   8.918  0.0397 -0.4161  0.5263
 1597SOL    HW116250   0.751   1.987   8.962 -0.9708 -0.1800 -0.4431
 1597SOL    HW216251   0.822   2.000   8.839 -2.0751  0.4752 -0.4251
 1598SOL     OW16252   0.872   0.370   6.985  0.3947 -0.3770  0.1675
 1598SOL    HW116253   0.953   0.320   6.977 -0.6884 -2.1592  0.3518
 1598SOL    HW216254   0.828   0.321   7.055  2.8267  1.5437  3.0637
 1599SOL     OW16255   4.303   3.961   1.674  0.2596 -0.2741 -0.3448
 1599SOL    HW116256   4.342   3.920   1.751 -0.5453 -0.1796  0.1026
 1599SOL    HW216257   4.212   3.966   1.701  0.1590  2.9232 -1.2047
 1600SOL     OW16258   1.326   4.093   8.275  0.4276 -0.0754 -0.2783
 1600SOL    HW116259   1.384   4.145   8.331  0.6624  0.7817 -1.3368
 1600SOL    HW216260   1.271   4.047   8.339 -1.7886  1.3857 -1.1387
 1601SOL     OW16261   3.601   3.998   3.826 -0.1495 -0.3397 -0.0494
 1601SOL    HW116262   3.661   4.071   3.811 -0.2819 -0.0431  0.8411
 1601SOL    HW216263   3.638   3.936   3.763  0.8130 -0.1162  0.3003
 1602SOL     OW16264   0.141   2.505   3.972  0.2028 -0.3907 -0.1111
 1602SOL    HW116265   0.079   2.542   4.036 -0.4772 -1.4366 -0.1617
 1602SOL    HW216266   0.080   2.441   3.935  1.8435 -0.3959 -2.8142
 1603SOL     OW16267   0.316   2.945   0.153  0.0362  0.1768 -0.0671
 1603SOL    HW116268   0.289   3.036   0.147  0.0204  0.0382 -2.0475
 1603SOL    HW216269   0.238   2.896   0.180  0.6367 -0.2573  0.8889
 1604SOL     OW16270   3.827   1.138  14.192  0.3166  0.3914 -0.0284
 1604SOL    HW116271   3.843   1.228  14.163  0.8328  1.3176  3.1450
 1604SOL    HW216272   3.782   1.112  14.111 -2.1019 -1.4094  1.9029
 1605SOL     OW16273   0.506   1.269   4.760  0.1121  0.1584  0.0205
 1605SOL    HW116274   0.438   1.326   4.725 -0.3876  0.0470  0.7981
 1605SOL    HW216275   0.458   1.187   4.769  0.7292 -0.3800 -1.5130
 1606SOL     OW16276   0.049   4.704   4.985  0.0135  1.1944  0.4602
 1606SOL    HW116277   0.126   4.651   4.963  0.7416  1.9664  1.1440
 1606SOL    HW216278   0.006   4.646   5.048  1.5662 -0.0715  0.3644
 1607SOL     OW16279   4.661   0.473   5.043  0.2113 -0.1245 -0.0590
 1607SOL    HW116280   4.651   0.379   5.054  2.0267 -0.2406  0.6327
 1607SOL    HW216281   4.718   0.503   5.114 -0.6228 -0.4373  0.7391
 1608SOL     OW16282   3.474   4.234   3.931  0.1311 -1.0277 -0.1214
 1608SOL    HW116283   3.452   4.193   4.015 -0.7544  0.3622  0.3121
 1608SOL    HW216284   3.528   4.163   3.897 -1.2206 -1.2277 -1.8368
 1609SOL     OW16285   3.930   2.921   4.454  0.4675 -0.3358  0.0066
 1609SOL    HW116286   3.915   2.990   4.518  0.1346 -0.0631 -0.3647
 1609SOL    HW216287   3.903   2.969   4.376 -0.7092 -1.2963 -0.1901
 1610SOL     OW16288   3.518   2.640   3.604  0.4216  0.0170 -0.4012
 1610SOL    HW116289   3.462   2.673   3.533  0.6206 -0.1009 -0.6120
 1610SOL    HW216290   3.490   2.691   3.680  2.5816 -0.3280  0.6115
 1611SOL     OW16291   0.224   1.414  14.843 -0.5854 -0.5545  0.1094
 1611SOL    HW116292   0.162   1.344  14.861 -0.5744 -0.6655 -0.2875
 1611SOL    HW216293   0.303   1.381  14.886  0.2894 -1.4719 -2.2217
 1612SOL     OW16294   4.354   0.279  13.455  0.2215 -0.8038 -0.1105
 1612SOL    HW116295   4.297   0.250  13.384  1.6533  0.8908 -1.9405
 1612SOL    HW216296   4.417   0.326  13.400  0.7996  0.9907  2.0835
 1613SOL     OW16297   1.061   0.203   5.276 -0.2142  0.0271 -0.2776
 1613SOL    HW116298   1.009   0.281   5.258 -0.5569  0.0238  0.6632
 1613SOL    HW216299   1.111   0.227   5.354 -2.9483  1.1764  1.0944
 1614SOL     OW16300   1.664   1.246  10.186  0.0103  0.7254 -0.2685
 1614SOL    HW116301   1.589   1.215  10.236  1.2065 -0.2500  0.9235
 1614SOL    HW216302   1.626   1.247  10.098  1.1223  0.5727 -0.7609
 1615SOL     OW16303   3.581   0.839   5.883 -0.2238 -0.2061  0.0113
 1615SOL    HW116304   3.497   0.827   5.837  0.7349  0.3510 -1.8755
 1615SOL    HW216305   3.641   0.795   5.823  0.3246 -0.6985  0.9238
 1616SOL     OW16306   2.059   4.717   9.241  0.5379 -0.6074  0.2262
 1616SOL    HW116307   2.126   0.000   9.309  0.9327  0.7451 -0.2247
 1616SOL    HW216308   2.066   4.622   9.238  0.1248 -0.7149  3.0927
 1617SOL     OW16309   3.762   2.286   9.348 -0.3380  0.0443 -0.3192
 1617SOL    HW116310   3.724   2.318   9.266 -0.1118  1.6668  0.2285
 1617SOL    HW216311   3.850   2.264   9.319  0.5483  3.4775 -0.1848
 1618SOL     OW16312   3.452   2.389   2.341  0.0086 -0.0280  0.5657
 1618SOL    HW116313   3.506   2.312   2.324  1.0279  0.1750  2.9845
 1618SOL    HW216314   3.434   2.381   2.434  1.7816  0.8979  0.9882
 1619SOL     OW16315   0.784   4.099   2.059 -0.2175  0.3984  0.1713
 1619SOL    HW116316   0.706   4.053   2.028  0.0407  0.6987 -0.8951
 1619SOL    HW216317   0.790   4.073   2.151  1.7609 -0.9197 -0.3481
 1620SOL     OW16318   2.979   1.838   6.518 -0.5692  0.3892 -0.4942
 1620SOL    HW116319   2.992   1.783   6.595  0.5992  1.8530  0.3693
 1620SOL    HW216320   3.042   1.908   6.537  2.0533 -2.1663  0.0871
 1621SOL     OW16321   4.482   2.788   3.421  0.6202  0.2407  0.4109
 1621SOL    HW116322   4.396   2.766   3.386  0.5110  1.6119 -0.1457
 1621SOL    HW216323   4.517   2.834   3.345 -0.6998 -0.9762 -0.9526
 1622SOL     OW16324   3.406   1.853   5.613 -0.2387 -0.1424  0.6653
 1622SOL    HW116325   3.401   1.906   5.692 -1.6906 -2.7194  2.2979
 1622SOL    HW216326   3.446   1.916   5.553 -0.5593  2.0096  2.7249
 1623SOL     OW16327   1.211   3.634   8.869 -0.2399 -0.3250  0.3807
 1623SOL    HW116328   1.153   3.559   8.881 -1.4211  0.5090 -0.1021
 1623SOL    HW216329   1.287   3.586   8.835  0.4460 -0.0476  1.4961
 1624SOL     OW16330   3.472   0.145  10.996 -0.3123  0.1031 -0.7936
 1624SOL    HW116331   3.539   0.101  11.048  0.0394  0.9198 -0.5568
 1624SOL    HW216332   3.510   0.233  10.995  0.0934 -0.1191 -3.7127
 1625SOL     OW16333   0.769   2.041   4.852  0.1035 -0.8944 -0.5643
 1625SOL    HW116334   0.738   2.103   4.786 -0.6511  1.5905  2.1662
 1625SOL    HW216335   0.784   1.966   4.794 -0.4143 -0.4699 -1.2547
 1626SOL     OW16336   3.599   0.750   7.174 -0.2445  0.0398 -0.0917
 1626SOL    HW116337   3.511   0.789   7.173 -0.0620  0.4418 -0.3140
 1626SOL    HW216338   3.620   0.752   7.081  0.6463 -0.9152  0.0865
 1627SOL     OW16339   2.363   3.728   3.862  0.5482 -0.1871  0.5649
 1627SOL    HW116340   2.325   3.758   3.779  1.2023 -0.4468  0.1656
 1627SOL    HW216341   2.446   3.776   3.864  0.3235  0.1870  0.7870
 1628SOL     OW16342   2.110   1.202   3.216  0.0347 -0.6901  0.1600
 1628SOL    HW116343   2.064   1.265   3.161  0.6944 -0.2307  0.1341
 1628SOL    HW216344   2.198   1.239   3.215  0.2200 -1.3148 -4.3959
 1629SOL     OW16345   1.360   2.229  14.424  0.4214 -0.0874  0.4764
 1629SOL    HW116346   1.404   2.170  14.363  0.2374 -0.5371  0.7787
 1629SOL    HW216347   1.387   2.196  14.510  0.7031 -2.3473 -0.4772
 1630SOL     OW16348   2.342   2.895  16.452  0.1315 -0.5921 -0.3824
 1630SOL    HW116349   2.415   2.854  16.406  1.4720  2.0076 -0.5506
 1630SOL    HW216350   2.373   2.985  16.453 -2.1724  0.1828  0.9828
 1631SOL     OW16351   1.210   2.845   4.966 -0.4924 -0.1212 -0.5035
 1631SOL    HW116352   1.272   2.876   5.032 -0.5773 -0.6054 -0.1934
 1631SOL    HW216353   1.263   2.847   4.886 -2.7295 -1.5623 -2.0173
 1632SOL     OW16354   0.160   3.507   2.800  0.8162  0.6951 -0.2621
 1632SOL    HW116355   0.078   3.539   2.837  0.8734  0.0322  0.4345
 1632SOL    HW216356   0.178   3.429   2.852 -0.0807  1.2503  0.8781
 1633SOL     OW16357   3.861   2.526   9.460 -0.4611 -0.0359  0.0172
 1633SOL    HW116358   3.802   2.472   9.513  1.0902 -1.7044  0.0361
 1633SOL    HW216359   3.878   2.475   9.381  1.1304 -0.1568  0.4452
 1634SOL     OW16360   2.630   0.097  11.459 -0.4034 -0.5623  0.2615
 1634SOL    HW116361   2.719   0.125  11.481 -0.4510  0.9561 -1.4006
 1634SOL    HW216362   2.605   0.077  11.549 -1.7605  2.2492  0.5100
 1635SOL     OW16363   2.876   2.615   2.274  0.0620 -0.4580  0.2349
 1635SOL    HW116364   2.787   2.635   2.245 -0.2982 -1.7725  0.4190
 1635SOL    HW216365   2.922   2.695   2.248  1.6818 -1.4892 -0.0763
 1636SOL     OW16366   3.067   4.258   3.496 -0.2315  0.7032  0.0625
 1636SOL    HW116367   3.061   4.334   3.555  1.3284 -0.4149  1.6630
 1636SOL    HW216368   2.980   4.262   3.455  1.5137 -0.2113 -3.6905
 1637SOL     OW16369   3.950   4.695  17.504 -0.5546  0.2898  0.2021
 1637SOL    HW116370   3.944   4.642  17.425  0.2159  1.4513 -0.6365
 1637SOL    HW216371   3.865   4.671  17.541 -0.1382 -0.2344  0.8347
 1638SOL     OW16372   3.442   0.466  16.913 -0.7464  0.2286  0.2420
 1638SOL    HW116373   3.476   0.465  17.003  0.2744 -3.3748 -0.2035
 1638SOL    HW216374   3.398   0.550  16.926 -0.2105  0.3049  1.5555
 1639SOL     OW16375   1.174   0.543   3.291  0.2786  0.1078 -0.1320
 1639SOL    HW116376   1.133   0.479   3.349  2.4820 -1.0545  0.1389
 1639SOL    HW216377   1.128   0.518   3.211 -1.5421  0.0909  0.9057
 1640SOL     OW16378   2.476   2.846   7.676 -0.1446  0.2162  0.1415
 1640SOL    HW116379   2.484   2.811   7.765 -0.4590  0.4952  0.2771
 1640SOL    HW216380   2.401   2.793   7.648 -0.3516  0.6769 -0.1694
 1641SOL     OW16381   1.821   2.757   8.257  0.0707 -0.0715 -0.0422
 1641SOL    HW116382   1.913   2.746   8.234  0.2689 -0.0817  0.7290
 1641SOL    HW216383   1.836   2.764   8.352 -0.6518  0.3422  0.0373
 1642SOL     OW16384   3.523   0.598   3.987 -0.2604 -0.1177  0.1394
 1642SOL    HW116385   3.545   0.505   3.991 -0.0558 -0.2056 -2.9530
 1642SOL    HW216386   3.487   0.598   3.898  2.0381  1.9584 -0.7822
 1643SOL     OW16387   4.626   3.839   3.610  0.2899 -0.0580  0.4154
 1643SOL    HW116388   4.582   3.890   3.542  2.3486  1.2779  0.0594
 1643SOL    HW216389   4.566   3.764   3.610 -0.2128  0.3393 -1.7548
 1644SOL     OW16390   0.456   0.426  16.118 -0.1532  0.4808  0.2395
 1644SOL    HW116391   0.492   0.405  16.032  1.4546 -0.5648  1.1501
 1644SOL    HW216392   0.498   0.510  16.137  1.3990  0.5533 -3.6097
 1645SOL     OW16393   2.242   1.921   7.114  0.5874  0.1352 -0.1891
 1645SOL    HW116394   2.157   1.882   7.136  0.8541 -0.2995  0.0673
 1645SOL    HW216395   2.254   1.976   7.191  1.3111 -2.3612  1.4586
 1646SOL     OW16396   2.509   0.123  13.533 -0.2850  0.1866 -0.3016
 1646SOL    HW116397   2.552   0.059  13.477  2.1516  2.2866 -0.8067
 1646SOL    HW216398   2.487   0.073  13.612  2.5792  0.3014  0.5793
 1647SOL     OW16399   4.314   2.928   7.609 -0.3622  0.2181 -0.1370
 1647SOL    HW116400   4.254   3.002   7.603 -0.4193  0.1433 -0.5214
 1647SOL    HW216401   4.325   2.920   7.514 -1.9926  1.5275 -0.4331
 1648SOL     OW16402   4.140   3.807  10.065 -0.3035 -0.1019 -0.5374
 1648SOL    HW116403   4.125   3.724  10.021 -3.0732  0.3923 -0.4900
 1648SOL    HW216404   4.118   3.870   9.997 -2.5733  1.9485  2.0671
 1649SOL     OW16405   2.808   0.791   3.705  0.0993 -0.0789  0.1019
 1649SOL    HW116406   2.858   0.723   3.661 -0.1909 -1.2868  1.6232
 1649SOL    HW216407   2.723   0.756   3.678 -0.1811  0.5711  0.1287
 1650SOL     OW16408   0.376   4.563   3.652  0.1730 -0.2569 -0.1711
 1650SOL    HW116409   0.377   4.600   3.740 -0.4491  1.0590 -0.7196
 1650SOL    HW216410   0.357   4.470   3.662  0.3383 -0.2311  0.3806
 1651SOL     OW16411   0.693   0.407   9.884 -0.2586  0.2321  0.0691
 1651SOL    HW116412   0.756   0.475   9.859  0.4135 -1.0298 -1.6396
 1651SOL    HW216413   0.681   0.434   9.976 -1.7164  0.7375 -0.2707
 1652SOL     OW16414   3.093   4.160   4.914 -0.1003  0.2002  0.2144
 1652SOL    HW116415   3.123   4.076   4.880 -0.9828  0.7550 -1.9256
 1652SOL    HW216416   3.023   4.187   4.854 -0.7659 -2.7785 -0.3402
 1653SOL     OW16417   3.891   1.366  16.726  0.2329  0.4505  0.5304
 1653SOL    HW116418   3.865   1.432  16.790 -2.1681  0.2025 -0.1789
 1653SOL    HW216419   3.919   1.297  16.786  1.4258  0.3757 -0.1235
 1654SOL     OW16420   3.223   2.255   7.120  0.1934 -0.0924 -0.4656
 1654SOL    HW116421   3.317   2.266   7.106  0.3243 -0.6620 -0.0130
 1654SOL    HW216422   3.206   2.302   7.202 -1.1974 -1.3177 -0.0578
 1655SOL     OW16423   2.785   2.578   6.812  0.2355  0.0142  0.2870
 1655SOL    HW116424   2.764   2.486   6.829 -0.8124  0.3766  0.9462
 1655SOL    HW216425   2.806   2.593   6.904 -1.3033 -2.4388  1.0326
 1656SOL     OW16426   0.948   4.698   2.595  0.1356 -0.0695  0.1355
 1656SOL    HW116427   0.915   4.618   2.554  1.1844 -0.1881 -0.4749
 1656SOL    HW216428   0.971   0.014   2.510 -0.7624 -1.3539 -0.6569
 1657SOL     OW16429   4.264   2.567   3.525 -0.5509 -0.4202 -0.0835
 1657SOL    HW116430   4.344   2.520   3.504 -0.3612  0.1000 -0.5183
 1657SOL    HW216431   4.208   2.541   3.452 -1.0050 -0.2539  0.1999
 1658SOL     OW16432   0.997   4.156   5.927 -0.5570  0.1193  0.2401
 1658SOL    HW116433   1.074   4.136   5.874  1.0956  0.4941  2.4949
 1658SOL    HW216434   1.020   4.224   5.990  1.0183  1.1706 -1.4511
 1659SOL     OW16435   1.657   2.844   4.687 -0.4719 -0.0135 -0.5372
 1659SOL    HW116436   1.724   2.800   4.635 -2.3687 -0.6332 -2.4415
 1659SOL    HW216437   1.715   2.892   4.746 -1.7173  0.3241  0.4246
 1660SOL     OW16438   2.078   1.427   5.555 -0.1411 -0.1906  0.3012
 1660SOL    HW116439   2.121   1.411   5.471 -0.5421  0.0463  0.0535
 1660SOL    HW216440   2.006   1.364   5.552 -1.0946  0.9377 -0.3853
 1661SOL     OW16441   0.535   2.586   3.186  0.4636 -0.3307  0.6276
 1661SOL    HW116442   0.622   2.558   3.157  1.0466  2.8081 -0.6563
 1661SOL    HW216443   0.564   2.670   3.220 -2.1763  0.1587  1.6486
 1662SOL     OW16444   3.611   3.418   1.198  0.2096  0.1701  0.4883
 1662SOL    HW116445   3.669   3.351   1.161 -0.7309 -0.2941 -0.1110
 1662SOL    HW216446   3.535   3.365   1.221  0.4553 -0.0185  0.8793
 1663SOL     OW16447   3.239   4.272   3.260 -0.0167 -0.3459 -0.1133
 1663SOL    HW116448   3.199   4.215   3.195 -0.6769  0.1350 -0.1248
 1663SOL    HW216449   3.181   4.271   3.336  2.5361  2.7274  1.9107
 1664SOL     OW16450   0.639   2.378   9.339 -0.3742  0.0203 -0.8113
 1664SOL    HW116451   0.681   2.292   9.336  2.6521  1.5489 -2.7596
 1664SOL    HW216452   0.681   2.421   9.413 -1.9219  0.0859  0.0228
 1665SOL     OW16453   1.984   3.460  11.306 -0.0828 -0.3670  0.2828
 1665SOL    HW116454   1.970   3.368  11.332 -3.8691 -0.6889 -2.8277
 1665SOL    HW216455   2.062   3.451  11.252  0.7431  0.5028  1.3342
 1666SOL     OW16456   0.953   0.513  16.678  0.0192 -0.5864  0.4021
 1666SOL    HW116457   0.956   0.430  16.726 -2.6935  0.3496  2.1557
 1666SOL    HW216458   0.970   0.573  16.751  0.2384  0.3338 -0.4095
 1667SOL     OW16459   4.033   0.746   7.470  0.0352  0.1148 -0.4605
 1667SOL    HW116460   4.016   0.690   7.547  0.6087  0.7181  0.1029
 1667SOL    HW216461   3.951   0.727   7.424 -0.5033 -2.2592  1.4296
 1668SOL     OW16462   1.476   2.433   2.026 -0.2031 -0.0352 -0.2350
 1668SOL    HW116463   1.413   2.379   1.978 -1.0488  0.9281 -0.2077
 1668SOL    HW216464   1.553   2.432   1.970 -1.4079  0.1653 -1.8952
 1669SOL     OW16465   4.402   1.798   5.587  0.3099 -0.4555 -0.1680
 1669SOL    HW116466   4.398   1.814   5.681 -0.8885 -3.1963  0.2621
 1669SOL    HW216467   4.439   1.710   5.583  0.5501 -0.3527 -0.1994
 1670SOL     OW16468   0.304   1.638   3.862  0.4302 -0.1095 -0.4613
 1670SOL    HW116469   0.357   1.665   3.787  0.8974 -1.2655 -0.5600
 1670SOL    HW216470   0.343   1.690   3.932 -1.1004  1.2931 -0.6700
 1671SOL     OW16471   2.959   0.099   0.822  0.0783  0.7102  0.1491
 1671SOL    HW116472   2.902   0.052   0.762 -0.4281  2.9814 -1.1461
 1671SOL    HW216473   3.046   0.072   0.791 -0.0600 -1.2346  1.5372
 1672SOL     OW16474   0.249   3.162   4.325  0.2009 -0.1231  0.2645
 1672SOL    HW116475   0.161   3.187   4.299  0.5556  1.2098  0.3650
 1672SOL    HW216476   0.302   3.214   4.266  1.6787 -0.3267  1.3991
 1673SOL     OW16477   4.276   0.926   8.376  0.0026  0.2699 -0.1174
 1673SOL    HW116478   4.218   0.976   8.434  0.8644  1.3538 -0.1932
 1673SOL    HW216479   4.331   1.002   8.355  1.2545 -1.0108 -1.4161
 1674SOL     OW16480   2.107   2.473   6.831 -0.0255 -0.2412  0.5295
 1674SOL    HW116481   2.136   2.492   6.920  2.5539 -0.7110 -0.2254
 1674SOL    HW216482   2.024   2.520   6.842  0.0312 -0.3764  1.5128
 1675SOL     OW16483   3.608   3.647   1.069 -0.6215  0.1288  0.5529
 1675SOL    HW116484   3.643   3.702   1.139 -0.8001  0.2528  0.5445
 1675SOL    HW216485   3.594   3.565   1.115 -1.9582  0.1507  0.1982
 1676SOL     OW16486   2.614   2.886   7.073  0.3512  0.2788  1.0753
 1676SOL    HW116487   2.707   2.877   7.090  0.4876 -0.5464 -0.1082
 1676SOL    HW216488   2.591   2.959   7.131 -0.0794  1.2349 -0.2912
 1677SOL     OW16489   1.008   2.594   3.562 -0.2023 -0.8972  0.3596
 1677SOL    HW116490   0.940   2.527   3.562  0.8916 -2.0219  2.1904
 1677SOL    HW216491   1.075   2.553   3.509  0.8629 -0.1017  1.0955
 1678SOL     OW16492   3.382   4.405   3.723  0.5103 -0.0535  0.1968
 1678SOL    HW116493   3.425   4.354   3.791 -1.3890 -0.2371  1.2812
 1678SOL    HW216494   3.444   4.474   3.700 -0.4507  1.0636  0.8881
 1679SOL     OW16495   1.832   4.164   1.308 -0.8400  0.3516 -0.2050
 1679SOL    HW116496   1.793   4.077   1.317  1.7050 -0.5924  1.4801
 1679SOL    HW216497   1.762   4.211   1.263 -0.6698  1.3101  0.5279
 1680SOL     OW16498   0.668   4.327   4.416  0.1641  0.4737  0.0154
 1680SOL    HW116499   0.597   4.282   4.370  0.8114  0.1637 -0.6676
 1680SOL    HW216500   0.720   4.249   4.435  0.9185  0.5679 -1.7169
 1681SOL     OW16501   4.659   0.012   7.805  1.1154  0.1049  0.0224
 1681SOL    HW116502   4.683   0.090   7.855 -1.0638 -0.4288  1.9323
 1681SOL    HW216503   0.019   4.685   7.822  0.9877 -0.1177  0.0034
 1682SOL     OW16504   3.005   3.261   5.751  0.0315  0.1108 -0.3182
 1682SOL    HW116505   2.932   3.305   5.708 -1.1243 -0.3825  1.1483
 1682SOL    HW216506   3.072   3.246   5.683  0.0766  3.5988 -1.0302
 1683SOL     OW16507   4.711   2.225   9.702 -0.1457  0.4191  0.4008
 1683SOL    HW116508   0.039   2.306   9.686  2.9680 -1.6111 -0.2479
 1683SOL    HW216509   4.706   2.235   9.797 -0.3564  0.4715  0.3847
 1684SOL     OW16510   3.066   3.731   5.414  0.3358 -0.2288 -0.7369
 1684SOL    HW116511   3.007   3.768   5.348  0.0001 -0.6161 -0.6531
 1684SOL    HW216512   3.122   3.805   5.437 -2.2948  0.8985  1.9916
 1685SOL     OW16513   2.113   0.482  16.727 -0.5095 -0.7519 -0.1728
 1685SOL    HW116514   2.042   0.418  16.735 -1.2373  0.0056 -0.5237
 1685SOL    HW216515   2.062   0.560  16.749 -0.0123 -1.0908  2.1670
 1686SOL     OW16516   2.990   2.863   4.004  0.2362  0.3796  0.5642
 1686SOL    HW116517   2.929   2.931   3.974  1.4449 -0.2257 -3.3038
 1686SOL    HW216518   2.928   2.816   4.058  0.1797 -2.1600 -1.7320
 1687SOL     OW16519   2.215   2.313   2.322 -0.8059 -0.4785 -0.5705
 1687SOL    HW116520   2.250   2.225   2.334  0.3284  0.1304  0.5873
 1687SOL    HW216521   2.240   2.335   2.233 -0.6256  1.6640  0.0027
 1688SOL     OW16522   1.910   0.283  15.420  0.6747  0.1258  0.1986
 1688SOL    HW116523   1.830   0.236  15.442  1.7499 -0.1008  3.5577
 1688SOL    HW216524   1.960   0.202  15.406  0.3565 -0.0142 -0.1201
 1689SOL     OW16525   3.593   3.398   2.597 -0.3637  0.0442  0.3160
 1689SOL    HW116526   3.566   3.489   2.611  1.5040  0.1665  3.0399
 1689SOL    HW216527   3.530   3.343   2.642 -0.0682 -0.3511  0.2463
 1690SOL     OW16528   1.770   2.176   9.547 -0.4073 -0.5413 -0.6566
 1690SOL    HW116529   1.838   2.183   9.615 -0.7873  0.5617 -0.3875
 1690SOL    HW216530   1.705   2.231   9.590 -0.7075 -1.1873 -0.2770
 1691SOL     OW16531   4.568   4.405   1.649  0.1285 -1.0974  0.0036
 1691SOL    HW116532   4.502   4.343   1.619  1.1245 -2.3485  0.3609
 1691SOL    HW216533   4.517   4.486   1.651  0.6186 -0.7941  0.2523
 1692SOL     OW16534   1.948   3.556  16.305 -0.9623 -0.5297 -0.1639
 1692SOL    HW116535   2.012   3.592  16.243 -0.5880  0.6618  0.9237
 1692SOL    HW216536   1.980   3.591  16.388  0.5687 -1.0533 -0.5416
 1693SOL     OW16537   4.261   4.107   2.957  0.1716 -0.4315  0.4877
 1693SOL    HW116538   4.196   4.091   2.890  0.5749  0.3330 -0.0806
 1693SOL    HW216539   4.319   4.168   2.912 -0.7793  0.2528  0.2100
 1694SOL     OW16540   4.455   4.124   6.747  0.6316  0.0108 -0.5283
 1694SOL    HW116541   4.362   4.111   6.764  0.4364  2.2732  0.2283
 1694SOL    HW216542   4.471   4.218   6.758 -1.3717  0.1775  1.0592
 1695SOL     OW16543   2.471   3.457   8.800 -0.1732 -0.1502  0.3716
 1695SOL    HW116544   2.396   3.481   8.855 -0.4670 -3.7955  1.5770
 1695SOL    HW216545   2.438   3.501   8.721  1.2749  0.7842  0.2902
 1696SOL     OW16546   2.870   1.800   9.708  0.0219 -0.1610 -0.1039
 1696SOL    HW116547   2.961   1.792   9.679  0.0453  0.2022 -0.1343
 1696SOL    HW216548   2.852   1.872   9.647  1.8869  1.7350  1.5393
 1697SOL     OW16549   3.932   3.106  15.162 -0.9248  0.3569 -0.4781
 1697SOL    HW116550   3.845   3.088  15.199 -1.5505 -0.6441 -2.4330
 1697SOL    HW216551   3.962   3.176  15.220 -0.0910  0.9987 -1.6889
 1698SOL     OW16552   3.338   1.277   5.510  0.4208 -0.0192 -0.6537
 1698SOL    HW116553   3.356   1.357   5.462  2.7259 -2.0737 -3.1804
 1698SOL    HW216554   3.358   1.299   5.601  1.5955 -0.1511 -0.8726
 1699SOL     OW16555   2.848   4.702   6.334  0.6969  0.0706 -0.3407
 1699SOL    HW116556   2.767   0.017   6.297  0.1036 -1.4248 -0.5009
 1699SOL    HW216557   2.816   4.640   6.401 -0.0631  2.0026  1.0847
 1700SOL     OW16558   3.799   1.332   6.156  0.4524  0.6920  0.4008
 1700SOL    HW116559   3.861   1.361   6.089 -0.3326  0.3341 -0.4956
 1700SOL    HW216560   3.823   1.241   6.171 -0.9333  0.7449  2.8500
 1701SOL     OW16561   2.055   3.696  17.171  0.9785  0.0878 -0.6607
 1701SOL    HW116562   1.964   3.665  17.166  0.4855  1.4900 -0.2504
 1701SOL    HW216563   2.091   3.654  17.093  0.3210 -0.7170 -0.5310
 1702SOL     OW16564   2.644   0.981   6.241 -0.7018  0.0892  0.1978
 1702SOL    HW116565   2.695   0.994   6.161 -0.5754  0.4921  0.3449
 1702SOL    HW216566   2.684   0.897   6.263 -0.6412  0.4675  1.5299
 1703SOL     OW16567   1.451   3.288  17.407 -0.1076 -0.2946  0.1536
 1703SOL    HW116568   1.516   3.260  17.472  0.5545 -0.0541 -0.3960
 1703SOL    HW216569   1.457   3.221  17.339 -2.2278  0.0280 -0.3377
 1704SOL     OW16570   2.754   1.730   8.173 -0.0913 -0.3306  0.1145
 1704SOL    HW116571   2.807   1.677   8.114  0.0648 -1.0510  0.9053
 1704SOL    HW216572   2.794   1.698   8.253 -0.5114  1.8136  1.1760
 1705SOL     OW16573   0.418   2.482   4.492  0.0764 -0.3135 -0.1291
 1705SOL    HW116574   0.510   2.503   4.474  0.1692  0.4097  1.1542
 1705SOL    HW216575   0.397   2.548   4.558  0.5333  1.8763 -2.1909
 1706SOL     OW16576   3.673   4.466  14.452 -1.0128 -0.7585  1.0424
 1706SOL    HW116577   3.765   4.457  14.427 -0.9791  0.5750  0.6537
 1706SOL    HW216578   3.623   4.468  14.370 -0.1427  1.8189  0.5455
 1707SOL     OW16579   4.364   2.140   8.243  0.0720  0.1435  0.4964
 1707SOL    HW116580   4.454   2.107   8.247  0.4479  1.1995  0.9580
 1707SOL    HW216581   4.386   2.220   8.195  1.6901 -0.8825 -0.4686
 1708SOL     OW16582   4.320   0.232   6.587  0.2580  0.5254  0.2039
 1708SOL    HW116583   4.227   0.230   6.611  0.3320  1.4890  0.5635
 1708SOL    HW216584   4.335   0.141   6.611 -1.8826 -0.4891 -2.2926
 1709SOL     OW16585   2.725   1.985   4.650  0.5005  0.2316 -0.6464
 1709SOL    HW116586   2.727   1.947   4.563 -0.7412 -0.4388 -0.3779
 1709SOL    HW216587   2.803   2.040   4.643  0.7428 -0.2082 -1.4176
 1710SOL     OW16588   1.343   4.362   7.105 -0.0164 -0.4946  0.2214
 1710SOL    HW116589   1.331   4.303   7.180  2.2770  0.3434  1.2467
 1710SOL    HW216590   1.291   4.434   7.140 -0.2004 -0.1308 -0.8138
 1711SOL     OW16591   1.920   3.494   6.930  0.0641 -0.6733 -0.5610
 1711SOL    HW116592   1.864   3.561   6.970  2.1113  1.5984 -1.4890
 1711SOL    HW216593   1.987   3.544   6.885  0.7022  0.2246  1.3672
 1712SOL     OW16594   3.733   4.251   3.790 -0.3242  0.1407  0.0271
 1712SOL    HW116595   3.806   4.205   3.832 -1.3641 -1.5928 -0.0616
 1712SOL    HW216596   3.729   4.328   3.847 -0.7569 -1.3320  2.0209
 1713SOL     OW16597   4.618   1.067   4.071 -0.2634 -0.1082 -0.6517
 1713SOL    HW116598   4.640   1.092   3.981 -1.6658 -1.4199 -1.3653
 1713SOL    HW216599   4.564   0.990   4.053 -1.6132  0.9884 -1.3415
 1714SOL     OW16600   4.227   3.482  10.508 -0.3207 -0.2868 -0.3307
 1714SOL    HW116601   4.271   3.398  10.496  1.0953  0.5064 -0.7175
 1714SOL    HW216602   4.220   3.514  10.418 -2.4117  2.0680  0.6517
 1715SOL     OW16603   1.479   1.154   5.039 -0.3796 -0.2174 -0.1559
 1715SOL    HW116604   1.570   1.147   5.067 -0.0203  0.5541 -1.1072
 1715SOL    HW216605   1.484   1.234   4.987  0.2298 -0.5706 -0.6464
 1716SOL     OW16606   4.508   0.822   9.031  0.6188  0.0659  0.2614
 1716SOL    HW116607   4.570   0.782   9.091  1.4483  0.2898 -0.4362
 1716SOL    HW216608   4.490   0.753   8.967  1.6500  1.2892 -1.3631
 1717SOL     OW16609   4.007   1.610   8.714 -0.3232 -0.0574  0.5556
 1717SOL    HW116610   3.937   1.664   8.751  0.6408  1.3068  0.4265
 1717SOL    HW216611   4.077   1.668   8.682 -1.3138  0.0021 -1.5345
 1718SOL     OW16612   0.707   0.707  15.872  0.1342 -0.2959  0.3526
 1718SOL    HW116613   0.638   0.725  15.808 -0.0195 -2.4115 -0.1035
 1718SOL    HW216614   0.656   0.711  15.953  0.2091  2.0257  0.2748
 1719SOL     OW16615   2.248   0.727  11.535 -0.4340 -0.2181 -0.0296
 1719SOL    HW116616   2.338   0.722  11.502 -0.1611  5.1909  0.0340
 1719SOL    HW216617   2.198   0.688  11.463  1.9836  0.9733 -2.3947
 1720SOL     OW16618   4.440   0.580  13.074  0.0887 -0.1112  0.0162
 1720SOL    HW116619   4.408   0.670  13.073 -0.3910 -0.3242 -4.5584
 1720SOL    HW216620   4.393   0.538  13.002 -0.7178  0.6691  0.0990
 1721SOL     OW16621   2.716   4.517   2.344  0.4759  0.0206  0.3719
 1721SOL    HW116622   2.699   4.462   2.421 -2.0559 -0.0855 -0.2683
 1721SOL    HW216623   2.626   4.525   2.315  0.5378 -2.2362 -0.4932
 1722SOL     OW16624   0.885   3.050   8.237  0.2562 -0.1401 -0.0414
 1722SOL    HW116625   0.891   3.086   8.148  0.2818 -0.9925 -0.3834
 1722SOL    HW216626   0.817   3.110   8.268 -0.1829 -0.1509 -0.9926
 1723SOL     OW16627   4.593   1.448   0.471  0.7097 -0.2844  0.0595
 1723SOL    HW116628   4.633   1.456   0.385 -0.2139 -0.8265 -0.4158
 1723SOL    HW216629   4.543   1.528   0.489 -0.2792 -0.7418 -0.6560
 1724SOL     OW16630   3.080   0.249   7.294  0.1981  0.4743 -0.2821
 1724SOL    HW116631   3.023   0.172   7.291 -0.3949  0.9210 -0.2879
 1724SOL    HW216632   3.096   0.271   7.203 -1.9359 -1.5736 -1.1688
 1725SOL     OW16633   4.259   0.998   1.788 -0.0973  0.0357 -0.2766
 1725SOL    HW116634   4.292   0.909   1.801  0.4455  0.3814  0.7249
 1725SOL    HW216635   4.171   0.980   1.822 -0.3156  0.5071 -0.5923
 1726SOL     OW16636   4.288   4.401   4.239 -0.2906 -0.6286 -0.2957
 1726SOL    HW116637   4.370   4.379   4.195 -0.1818  1.3588 -1.1157
 1726SOL    HW216638   4.302   4.368   4.327 -0.2672 -0.6448 -0.3054
 1727SOL     OW16639   1.412   4.337  12.705 -0.5799 -0.0151 -0.4048
 1727SOL    HW116640   1.394   4.360  12.796 -0.4261  0.2761 -0.4464
 1727SOL    HW216641   1.468   4.411  12.682 -0.0611 -0.2228  0.1822
 1728SOL     OW16642   4.207   1.141  11.850  0.6858  0.3594  0.4319
 1728SOL    HW116643   4.293   1.099  11.843  1.4398  1.7131  1.4076
 1728SOL    HW216644   4.217   1.180  11.937 -0.8086 -0.5934  1.0240
 1729SOL     OW16645   2.776   0.988   9.058  0.4951 -0.9363 -0.1419
 1729SOL    HW116646   2.805   1.065   9.008 -0.2668  0.4683  1.5656
 1729SOL    HW216647   2.680   0.999   9.056  0.7022  0.9377  0.4191
 1730SOL     OW16648   4.048   0.259  12.869 -0.1796  0.7179 -0.0559
 1730SOL    HW116649   4.100   0.329  12.909  1.3905  0.9342 -2.4460
 1730SOL    HW216650   4.078   0.183  12.918  2.4645  2.3879  0.9013
 1731SOL     OW16651   1.441   0.951   9.394 -0.4559  0.4347 -0.4195
 1731SOL    HW116652   1.535   0.967   9.382 -0.0156 -1.8197  0.0085
 1731SOL    HW216653   1.440   0.875   9.453 -1.4191  0.2946 -0.6077
 1732SOL     OW16654   2.127   1.014   5.676 -0.4281 -0.2149 -0.4283
 1732SOL    HW116655   2.195   1.078   5.653  2.2320 -3.1084 -0.5362
 1732SOL    HW216656   2.171   0.932   5.653  0.4439 -0.0307  0.5406
 1733SOL     OW16657   1.327   4.063  11.095  0.4589  0.0618 -0.9042
 1733SOL    HW116658   1.270   4.132  11.059 -0.4334 -0.2203 -0.0374
 1733SOL    HW216659   1.261   4.012  11.142  1.4698 -1.5671 -1.2614
 1734SOL     OW16660   2.817   1.591  12.563  0.1312 -0.5498 -0.1046
 1734SOL    HW116661   2.876   1.661  12.590  0.1257  0.6955 -3.2832
 1734SOL    HW216662   2.737   1.639  12.584  1.0045 -0.0409  2.1030
 1735SOL     OW16663   2.276   3.513   4.848 -0.3213 -0.1613  0.0267
 1735SOL    HW116664   2.223   3.587   4.877 -0.5207 -0.1832 -0.2814
 1735SOL    HW216665   2.345   3.571   4.814  0.2303 -0.2233  1.0353
 1736SOL     OW16666   0.055   2.798   8.664 -0.3100  0.0303 -0.1522
 1736SOL    HW116667   0.139   2.766   8.697  0.2863  2.4109  0.7127
 1736SOL    HW216668   0.064   2.892   8.680 -0.9835 -0.0125  0.5322
 1737SOL     OW16669   0.459   3.385   8.650  0.0095 -0.3215 -0.2625
 1737SOL    HW116670   0.528   3.446   8.674 -2.3146  1.7413  1.1346
 1737SOL    HW216671   0.505   3.302   8.636  0.2461  0.2540 -2.9436
 1738SOL     OW16672   3.624   3.146   0.511  0.6076  0.4918 -0.5773
 1738SOL    HW116673   3.634   3.052   0.525  4.1749  1.2385  1.9411
 1738SOL    HW216674   3.666   3.173   0.592  1.4570 -2.7515  0.0483
 1739SOL     OW16675   3.347   3.518  13.102  0.3632  0.0256 -0.4484
 1739SOL    HW116676   3.389   3.466  13.034  0.3688 -0.4278 -0.0976
 1739SOL    HW216677   3.359   3.459  13.176 -0.1660 -0.0571 -0.4314
 1740SOL     OW16678   2.246   4.145   2.757 -0.6628  0.5329 -0.0456
 1740SOL    HW116679   2.160   4.102   2.763 -0.0509 -0.5010  1.4867
 1740SOL    HW216680   2.276   4.163   2.846  2.0130 -0.0413 -0.8141
 1741SOL     OW16681   3.541   2.425  11.555  0.0409 -0.4899  0.2876
 1741SOL    HW116682   3.577   2.338  11.536 -0.9747 -0.9761  0.5833
 1741SOL    HW216683   3.591   2.453  11.632  1.0432  1.5604 -1.1004
 1742SOL     OW16684   4.138   3.013   0.575  0.2824  0.2060  0.2200
 1742SOL    HW116685   4.062   3.027   0.632  0.4560 -0.4943  0.6193
 1742SOL    HW216686   4.136   2.918   0.569 -0.1517  0.2547 -0.3438
 1743SOL     OW16687   1.174   1.873   3.573  0.2007  0.0436 -0.4817
 1743SOL    HW116688   1.210   1.788   3.598  1.4586  0.2379 -1.6754
 1743SOL    HW216689   1.252   1.924   3.551  0.0017  0.3495 -0.4907
 1744SOL     OW16690   2.531   0.670   5.617  0.1673  0.0461 -0.5404
 1744SOL    HW116691   2.546   0.763   5.600 -0.0938  0.3916  1.1742
 1744SOL    HW216692   2.475   0.638   5.546 -2.0338  0.8460  0.8560
 1745SOL     OW16693   1.503   4.252   8.417  0.4148 -0.7084 -0.2197
 1745SOL    HW116694   1.502   4.252   8.512 -1.8913 -0.3224 -0.2490
 1745SOL    HW216695   1.593   4.221   8.410  1.5597  2.1129  1.7342
 1746SOL     OW16696   0.100   2.180   5.206  0.4816 -0.4413  0.1524
 1746SOL    HW116697   0.051   2.236   5.267 -0.0441 -1.1349  0.3569
 1746SOL    HW216698   0.055   2.199   5.124 -0.5523  1.1034  1.0573
 1747SOL     OW16699   1.492   1.789   5.253  0.4754 -0.0407  0.2074
 1747SOL    HW116700   1.584   1.766   5.251  0.1748 -1.1224 -1.1415
 1747SOL    HW216701   1.486   1.857   5.186  0.8205 -2.3968 -2.1821
 1748SOL     OW16702   4.089   0.430   0.776  0.2696 -0.0787  0.4355
 1748SOL    HW116703   4.037   0.438   0.695  0.0303  1.6334  0.7441
 1748SOL    HW216704   4.022   0.461   0.838  0.2425 -2.2160  1.4408
 1749SOL     OW16705   1.061   3.089  15.813 -0.3168  0.0231 -0.2545
 1749SOL    HW116706   1.093   3.002  15.790 -0.2332  0.5097 -1.9745
 1749SOL    HW216707   0.999   3.060  15.880 -1.9516 -1.4047 -2.4091
 1750SOL     OW16708   0.726   2.340   7.835 -0.6847  0.6662 -0.0849
 1750SOL    HW116709   0.795   2.274   7.842 -1.2863  0.0218 -0.0835
 1750SOL    HW216710   0.779   2.412   7.803  0.3801 -0.0730  0.0098
 1751SOL     OW16711   4.468   3.140   2.433 -0.1222  0.0249  0.3905
 1751SOL    HW116712   4.550   3.166   2.392 -0.9130 -0.1507 -1.2981
 1751SOL    HW216713   4.408   3.213   2.419 -0.2215 -0.6424 -2.5705
 1752SOL     OW16714   3.648   1.857  12.929  0.2124  0.4330 -0.6625
 1752SOL    HW116715   3.633   1.900  12.845 -0.7356  1.3163 -0.0510
 1752SOL    HW216716   3.557   1.841  12.954  0.2967  2.3922  0.9097
 1753SOL     OW16717   2.011   3.218  11.412  0.3568 -0.3935  0.1957
 1753SOL    HW116718   1.995   3.131  11.447 -1.7056 -0.3017 -0.5330
 1753SOL    HW216719   2.105   3.234  11.424  0.4763 -1.5117  0.7078
 1754SOL     OW16720   0.139   0.772   3.580 -0.1548  0.2136 -0.1699
 1754SOL    HW116721   0.153   0.682   3.553  0.0658  0.9398 -2.4532
 1754SOL    HW216722   0.044   0.764   3.585  0.0003 -2.7659 -2.3357
 1755SOL     OW16723   1.502   2.901  17.539  0.1525  0.4764 -0.1474
 1755SOL    HW116724   1.477   2.886  17.448  2.0846 -1.9916 -0.2565
 1755SOL    HW216725   1.568   2.833  17.533 -0.4125 -0.0415 -0.4711
 1756SOL     OW16726   2.140   1.471   6.954 -0.4319  0.1080  0.1839
 1756SOL    HW116727   2.119   1.424   6.874  0.8651  2.2988 -1.4470
 1756SOL    HW216728   2.235   1.476   6.947 -0.3728 -0.3780  0.5824
 1757SOL     OW16729   3.718   4.133   4.917  0.4214 -0.7740  0.6781
 1757SOL    HW116730   3.769   4.108   4.994  1.9211  0.2213  0.0112
 1757SOL    HW216731   3.664   4.054   4.903  0.9482 -0.9025 -0.5731
 1758SOL     OW16732   4.280   0.982   5.353 -0.8754  0.2282  0.2302
 1758SOL    HW116733   4.373   0.962   5.337 -1.2378 -0.5320 -0.9414
 1758SOL    HW216734   4.243   0.893   5.351 -0.3621 -0.0174  1.6697
 1759SOL     OW16735   0.139   2.034   2.205 -0.8541 -0.4565 -0.0827
 1759SOL    HW116736   0.145   1.988   2.121 -1.5643 -0.3238 -0.2061
 1759SOL    HW216737   0.083   1.979   2.260  0.2690  0.6030  2.1086
 1760SOL     OW16738   3.757   0.435   7.740  0.5396 -0.5204  0.0997
 1760SOL    HW116739   3.782   0.378   7.812 -0.9192  0.5666  1.4620
 1760SOL    HW216740   3.690   0.481   7.791  0.7056 -1.1424  0.8775
 1761SOL     OW16741   4.070   3.779  17.221 -0.4498  0.0956  0.2442
 1761SOL    HW116742   4.126   3.709  17.187 -0.4134 -0.1290  0.7778
 1761SOL    HW216743   4.109   3.851  17.171 -0.8639 -0.1608 -0.4460
 1762SOL     OW16744   2.852   0.920   6.595  0.3993  0.0914  0.6894
 1762SOL    HW116745   2.908   0.929   6.672 -0.3709  2.0121  1.0152
 1762SOL    HW216746   2.827   1.011   6.584 -0.0049  0.0174  0.9996
 1763SOL     OW16747   4.614   3.702   2.082 -0.2574 -0.0815 -0.3163
 1763SOL    HW116748   4.696   3.721   2.126 -1.3609 -1.2197  2.2344
 1763SOL    HW216749   4.622   3.617   2.039 -2.3619  0.2865 -1.4240
 1764SOL     OW16750   0.483   2.996   5.932  0.1443  0.2177 -0.7053
 1764SOL    HW116751   0.393   3.017   5.958 -0.7144 -0.9938 -2.7705
 1764SOL    HW216752   0.525   3.072   5.973 -0.4755 -0.0118  0.3518
 1765SOL     OW16753   1.662   1.089  11.713  0.4195  0.2471 -0.2174
 1765SOL    HW116754   1.673   1.166  11.769  0.9040  0.1534 -0.1833
 1765SOL    HW216755   1.744   1.086  11.665 -0.6690  1.9585 -2.1847
 1766SOL     OW16756   3.749   2.849  16.825 -0.6109 -0.0179 -0.4687
 1766SOL    HW116757   3.690   2.793  16.874 -0.3977  1.0439  1.0016
 1766SOL    HW216758   3.730   2.841  16.731 -1.0358 -3.3506 -0.0671
 1767SOL     OW16759   4.666   0.752   7.709  0.5279 -0.2641  0.2395
 1767SOL    HW116760   4.683   0.807   7.786 -1.0234 -2.3892  2.0971
 1767SOL    HW216761   4.712   0.804   7.643  0.0130  0.7391  0.6745
 1768SOL     OW16762   4.452   2.092  11.070  0.1162 -0.1621 -0.1011
 1768SOL    HW116763   4.389   2.020  11.077  1.7604 -1.6909 -0.9771
 1768SOL    HW216764   4.479   2.122  11.157  2.9616 -2.8605 -0.0524
 1769SOL     OW16765   1.841   3.504   1.581  0.1434  0.6327 -0.4684
 1769SOL    HW116766   1.847   3.509   1.677 -0.3190 -1.6526 -0.3076
 1769SOL    HW216767   1.904   3.438   1.551  0.9314  0.5347  1.3576
 1770SOL     OW16768   3.429   2.335   3.421 -0.4731  0.1967  0.5038
 1770SOL    HW116769   3.451   2.327   3.329 -2.4025 -0.8973  0.1406
 1770SOL    HW216770   3.333   2.333   3.418 -0.4489 -0.1422  0.0653
 1771SOL     OW16771   1.746   4.349   2.384 -0.0453 -0.4607  0.2125
 1771SOL    HW116772   1.766   4.383   2.297  1.1710 -0.2184  0.5938
 1771SOL    HW216773   1.696   4.416   2.430 -0.2756 -0.0192 -0.6926
 1772SOL     OW16774   0.212   2.646   8.261 -0.2489 -0.5359 -0.0727
 1772SOL    HW116775   0.129   2.693   8.268  1.5014  2.3193  1.7130
 1772SOL    HW216776   0.257   2.647   8.346 -0.4451 -3.1832  0.0551
 1773SOL     OW16777   4.307   4.315   7.069 -0.1298 -0.3276 -0.1248
 1773SOL    HW116778   4.344   4.329   7.156 -0.1428  0.7339 -0.2826
 1773SOL    HW216779   4.300   4.407   7.043  0.9701 -1.2059 -3.4895
 1774SOL     OW16780   4.076   2.524  14.973 -0.0164 -0.0576  0.6753
 1774SOL    HW116781   4.009   2.481  14.919 -1.6504  0.7490  2.0770
 1774SOL    HW216782   4.156   2.481  14.942  0.6705 -0.1418  2.5884
 1775SOL     OW16783   2.837   3.590  11.198 -0.2304 -0.0764 -0.9391
 1775SOL    HW116784   2.765   3.556  11.145  1.8215 -2.8253 -1.9637
 1775SOL    HW216785   2.905   3.528  11.171  1.1675 -0.0998  2.6513
 1776SOL     OW16786   4.657   2.903   0.717 -0.5062 -0.1476  0.3467
 1776SOL    HW116787   4.681   2.823   0.670 -0.6646  0.6572 -1.1017
 1776SOL    HW216788   4.576   2.920   0.670 -1.4631 -3.9827  0.6498
 1777SOL     OW16789   2.896   1.568  14.115  0.6019 -0.3860  0.2525
 1777SOL    HW116790   2.914   1.658  14.143 -0.0892 -0.2183  0.1562
 1777SOL    HW216791   2.818   1.579  14.061  1.1189  0.6324 -0.2963
 1778SOL     OW16792   1.837   1.024   3.167 -0.5273 -0.3244  0.2264
 1778SOL    HW116793   1.919   1.001   3.211 -0.1767 -0.9719 -0.7488
 1778SOL    HW216794   1.872   1.105   3.130  1.2073 -1.3721 -0.4362
 1779SOL     OW16795   3.846   1.248   6.844 -0.5811  0.2699 -0.1974
 1779SOL    HW116796   3.932   1.261   6.885 -0.2910  1.2137 -1.1267
 1779SOL    HW216797   3.846   1.327   6.790  0.3390  0.3405 -0.1004
 1780SOL     OW16798   2.734   3.280  13.859 -0.3163 -0.0289 -0.0866
 1780SOL    HW116799   2.759   3.340  13.930 -0.8307 -2.8806  2.4817
 1780SOL    HW216800   2.706   3.201  13.906 -0.5011 -0.0731 -0.2766
 1781SOL     OW16801   1.067   2.691   2.371  0.4659 -0.4023 -0.3841
 1781SOL    HW116802   1.032   2.732   2.450  0.2461 -0.3067 -0.5316
 1781SOL    HW216803   1.160   2.704   2.389 -0.1764  1.4917  1.5843
 1782SOL     OW16804   0.745   2.764  15.290  0.3643 -0.1135  0.0757
 1782SOL    HW116805   0.793   2.811  15.222 -0.5062  0.3578 -0.2249
 1782SOL    HW216806   0.659   2.768  15.247 -0.9909 -1.3293  2.6938
 1783SOL     OW16807   1.453   0.364   0.927  0.3080 -0.1591 -0.1391
 1783SOL    HW116808   1.378   0.359   0.987  0.1764 -0.5160 -0.3285
 1783SOL    HW216809   1.447   0.449   0.884 -1.4049 -1.5623 -2.7522
 1784SOL     OW16810   1.885   1.004  14.317  0.0659  0.5116 -0.3731
 1784SOL    HW116811   1.917   1.093  14.334 -0.4700  0.9502 -1.6347
 1784SOL    HW216812   1.932   0.960  14.388 -0.1608  1.7688  0.5605
 1785SOL     OW16813   0.490   3.151   1.393 -0.4139 -0.1516 -0.0937
 1785SOL    HW116814   0.522   3.214   1.329  0.4117 -2.0035 -1.5054
 1785SOL    HW216815   0.480   3.071   1.342  1.9023 -0.9613  0.6862
 1786SOL     OW16816   2.955   0.603   3.156 -0.4208  0.3283 -0.2176
 1786SOL    HW116817   2.955   0.580   3.063  0.7227  0.1862 -0.1936
 1786SOL    HW216818   3.048   0.599   3.179 -0.4613  0.0279 -0.0929
 1787SOL     OW16819   0.209   2.538  16.699 -0.2059  0.2934 -0.1516
 1787SOL    HW116820   0.237   2.481  16.770 -0.7087  0.6116  0.2958
 1787SOL    HW216821   0.293   2.547  16.653 -1.3074 -1.5482 -2.5917
 1788SOL     OW16822   0.528   0.651   2.148 -0.0741  0.5261  0.4607
 1788SOL    HW116823   0.566   0.738   2.157 -2.2551  1.4223  0.8791
 1788SOL    HW216824   0.609   0.604   2.169 -0.6745 -0.8139 -0.1688
 1789SOL     OW16825   0.457   2.153   6.744  0.3083 -0.6479  0.7244
 1789SOL    HW116826   0.421   2.146   6.833 -2.3058  0.8847 -0.2275
 1789SOL    HW216827   0.549   2.168   6.765 -0.4241  4.9802 -0.1048
 1790SOL     OW16828   2.618   1.596   0.898 -1.1492  0.3061  0.1481
 1790SOL    HW116829   2.584   1.672   0.946 -0.5433 -1.6754  3.7088
 1790SOL    HW216830   2.695   1.637   0.859 -1.5797  1.0856  0.1202
 1791SOL     OW16831   3.106   3.070   1.704 -0.0258  0.4985  1.1233
 1791SOL    HW116832   3.166   3.099   1.773  1.6362 -2.9759  1.1939
 1791SOL    HW216833   3.118   2.975   1.711  0.2862  0.5603  1.5039
 1792SOL     OW16834   0.710   0.771   6.257  0.4537 -0.0394  0.1556
 1792SOL    HW116835   0.727   0.744   6.347 -1.5395  1.4488  0.9687
 1792SOL    HW216836   0.624   0.809   6.275  0.4635 -0.3071  0.7648
 1793SOL     OW16837   4.148   3.153   7.593 -0.2407 -0.4376  0.2281
 1793SOL    HW116838   4.055   3.135   7.612 -1.3108  2.6122 -2.0568
 1793SOL    HW216839   4.165   3.234   7.642 -0.7403 -0.8139  1.0317
 1794SOL     OW16840   1.301   1.991  10.081  0.6399 -0.7833 -0.6039
 1794SOL    HW116841   1.226   1.935  10.058 -0.2372  0.1829 -0.0948
 1794SOL    HW216842   1.264   2.079  10.082  1.0769 -0.5989 -0.7958
 1795SOL     OW16843   0.653   0.925   7.374  0.3964  0.0870  0.7516
 1795SOL    HW116844   0.747   0.910   7.377  0.2206 -1.0501  0.5940
 1795SOL    HW216845   0.639   1.011   7.334  1.8437 -0.5587 -1.1573
 1796SOL     OW16846   3.214   4.434  12.505 -0.3574  0.4811 -0.3402
 1796SOL    HW116847   3.193   4.349  12.544  0.9813 -0.0615 -0.7932
 1796SOL    HW216848   3.226   4.403  12.415  3.8423 -0.1033  0.4383
 1797SOL     OW16849   4.024   1.516  13.075  0.1680 -0.2347  0.2905
 1797SOL    HW116850   4.114   1.542  13.056  0.1757 -0.0917  0.5389
 1797SOL    HW216851   4.019   1.553  13.163  1.3582 -1.7121  0.9665
 1798SOL     OW16852   4.308   2.748   0.784  0.3978 -0.1289 -0.2695
 1798SOL    HW116853   4.351   2.670   0.749 -0.6560 -0.1258 -1.5765
 1798SOL    HW216854   4.345   2.744   0.872 -1.1209  1.4735  0.4282
 1799SOL     OW16855   0.621   2.114   7.597 -0.2501 -0.1095  0.0760
 1799SOL    HW116856   0.712   2.142   7.601  0.4402 -2.6631  1.7077
 1799SOL    HW216857   0.635   2.021   7.579  0.5480 -0.2524  1.4243
 1800SOL     OW16858   1.931   3.269   3.654 -0.3257  0.2343  0.1715
 1800SOL    HW116859   1.972   3.194   3.610  0.8860  0.1020  1.4893
 1800SOL    HW216860   1.964   3.251   3.742  2.7499  0.1780 -1.0021
 1801SOL     OW16861   3.420   3.777   6.096  0.5299 -0.3745  0.1290
 1801SOL    HW116862   3.381   3.691   6.087  0.5190 -0.3782  0.2068
 1801SOL    HW216863   3.421   3.784   6.192 -2.1579  0.4072  0.1029
 1802SOL     OW16864   1.574   1.318   3.961 -0.7890 -0.1635  0.2102
 1802SOL    HW116865   1.575   1.388   4.026  0.6439 -0.5684  0.6406
 1802SOL    HW216866   1.586   1.358   3.875 -0.5082 -1.3839 -0.3233
 1803SOL     OW16867   2.580   2.219   7.431 -0.1232  0.0923  0.2319
 1803SOL    HW116868   2.532   2.241   7.510  1.5326 -0.3243  1.3463
 1803SOL    HW216869   2.507   2.177   7.386  1.7519  0.0490 -2.7700
 1804SOL     OW16870   2.615   2.017   1.875 -0.4962  0.0274  0.4220
 1804SOL    HW116871   2.574   2.094   1.914 -1.6653 -0.5032  0.2299
 1804SOL    HW216872   2.676   1.999   1.946  0.2363 -0.4425 -0.3242
 1805SOL     OW16873   2.050   1.700  15.799  0.3773 -0.1808  0.4156
 1805SOL    HW116874   1.960   1.668  15.802 -0.2723  1.7960  2.3941
 1805SOL    HW216875   2.056   1.713  15.894  1.8191 -0.0804  0.3088
 1806SOL     OW16876   4.127   3.699  15.027  0.3066 -0.2900  0.7545
 1806SOL    HW116877   4.080   3.771  15.070 -0.1580 -0.1250 -0.0333
 1806SOL    HW216878   4.145   3.743  14.944 -0.0797 -0.0953  0.7755
 1807SOL     OW16879   2.528   1.398   2.143 -0.2848  0.1482  0.4801
 1807SOL    HW116880   2.436   1.391   2.170  0.2688 -1.8517  1.8382
 1807SOL    HW216881   2.525   1.397   2.048 -1.4334 -1.7130  0.5480
 1808SOL     OW16882   3.408   3.407  17.231  0.6144  0.5961  0.3332
 1808SOL    HW116883   3.402   3.360  17.314 -0.1039  1.2700  0.6640
 1808SOL    HW216884   3.442   3.339  17.172  0.7027 -0.8568  2.0795
 1809SOL     OW16885   4.407   3.844   1.914 -0.2511  0.3068  0.1089
 1809SOL    HW116886   4.383   3.895   1.992 -3.4365  0.3429 -0.8715
 1809SOL    HW216887   4.487   3.804   1.946 -0.2059  0.7040  0.5079
 1810SOL     OW16888   2.155   3.930   3.572  0.2743 -0.0677  0.4653
 1810SOL    HW116889   2.237   3.881   3.565  0.5198  0.3129  0.6852
 1810SOL    HW216890   2.128   3.893   3.656 -3.8388 -1.0860 -1.3287
 1811SOL     OW16891   0.376   0.901   3.587 -0.1283  0.4410  0.2520
 1811SOL    HW116892   0.338   0.974   3.539  0.7510  0.6314 -0.1587
 1811SOL    HW216893   0.297   0.848   3.601  1.2142 -0.7347  3.5030
 1812SOL     OW16894   2.247   2.978   6.989  0.4416 -0.1542 -0.4566
 1812SOL    HW116895   2.244   2.923   7.068  0.4807 -0.2108 -0.4948
 1812SOL    HW216896   2.334   2.953   6.956  0.7827  1.3131 -0.6452
 1813SOL     OW16897   2.224   0.591   8.813  0.4047 -0.2109 -0.0975
 1813SOL    HW116898   2.260   0.530   8.876  0.9396  1.3957  1.1387
 1813SOL    HW216899   2.299   0.647   8.795  0.3559 -0.0087  0.3294
 1814SOL     OW16900   1.714   4.379   3.548 -0.4752 -0.5010 -0.0211
 1814SOL    HW116901   1.717   4.384   3.453  0.1640 -0.3749  0.0076
 1814SOL    HW216902   1.797   4.332   3.559 -0.0767 -0.3058 -2.1189
 1815SOL     OW16903   3.663   2.681   0.272  1.2455  0.1840 -0.4312
 1815SOL    HW116904   3.644   2.769   0.302 -1.2135  0.2561 -2.1680
 1815SOL    HW216905   3.610   2.634   0.337  2.7876 -1.3252 -0.2551
 1816SOL     OW16906   4.550   2.109  10.466  0.3723 -0.3392  0.2140
 1816SOL    HW116907   4.464   2.068  10.474 -0.5519  1.3508 -1.0747
 1816SOL    HW216908   4.532   2.203  10.467  1.4276 -0.1146 -1.8080
 1817SOL     OW16909   2.944   4.367   5.796 -0.1664  0.5814  0.4693
 1817SOL    HW116910   2.949   4.426   5.871  0.4532  0.1866  0.7332
 1817SOL    HW216911   2.980   4.423   5.728 -0.7497  1.9271  1.2788
 1818SOL     OW16912   3.786   2.111   4.521 -0.4296  0.1470 -0.1250
 1818SOL    HW116913   3.801   2.159   4.440 -2.5299  0.6495 -0.2169
 1818SOL    HW216914   3.714   2.154   4.567  0.5535 -0.0499  1.6220
 1819SOL     OW16915   0.698   3.328  11.292  0.0838  0.4940 -0.9845
 1819SOL    HW116916   0.603   3.333  11.294  0.1009  0.7819 -0.9174
 1819SOL    HW216917   0.722   3.420  11.294 -0.6513  0.6473  1.0574
 1820SOL     OW16918   2.681   3.476  17.570 -0.0695 -0.3717 -0.6270
 1820SOL    HW116919   2.624   3.486  17.646  0.3546  0.4333 -0.4104
 1820SOL    HW216920   2.762   3.453  17.616 -1.3382 -1.7170  0.8779
 1821SOL     OW16921   2.576   4.513   4.802 -0.1065 -0.1999  0.2526
 1821SOL    HW116922   2.558   4.574   4.731  1.6372 -1.9136 -1.6708
 1821SOL    HW216923   2.662   4.549   4.823  0.4584 -1.1465 -0.3890
 1822SOL     OW16924   1.939   1.289  16.116 -0.0531 -0.0459 -0.0007
 1822SOL    HW116925   1.928   1.380  16.145  3.2124 -0.4977  2.6147
 1822SOL    HW216926   1.849   1.271  16.141  0.5042 -2.1285  0.4833
 1823SOL     OW16927   0.733   1.496  14.106 -1.1355 -0.2713 -0.2649
 1823SOL    HW116928   0.800   1.433  14.080 -1.3434  0.1957 -1.9227
 1823SOL    HW216929   0.661   1.437  14.129 -0.1350 -1.5701 -0.4577
 1824SOL     OW16930   2.675   1.075   5.021  0.3940 -0.0871 -0.2751
 1824SOL    HW116931   2.768   1.098   5.010  1.4502 -4.0132  0.7244
 1824SOL    HW216932   2.634   1.139   4.963 -0.2117 -0.2823 -0.0575
 1825SOL     OW16933   4.242   2.660   7.211 -0.2690  0.3225  0.2757
 1825SOL    HW116934   4.195   2.633   7.290 -1.2558  0.6635 -0.1928
 1825SOL    HW216935   4.259   2.575   7.171  0.6916  0.4928  0.3213
 1826SOL     OW16936   1.789   3.924  13.289  0.2022  0.2922  0.0137
 1826SOL    HW116937   1.731   3.925  13.213 -0.5799 -1.4862  0.5914
 1826SOL    HW216938   1.721   3.935  13.355 -1.5872 -2.4570 -1.3706
 1827SOL     OW16939   1.629   3.057   7.957 -0.8981  0.2528 -0.1101
 1827SOL    HW116940   1.604   3.095   8.041 -0.1816 -0.0318  0.2301
 1827SOL    HW216941   1.660   2.974   7.992 -3.3507 -0.1330  1.1561
 1828SOL     OW16942   3.341   4.385   5.582 -0.0585 -0.6513  0.5430
 1828SOL    HW116943   3.335   4.451   5.513 -1.5611  1.6385  2.8440
 1828SOL    HW216944   3.340   4.439   5.661 -1.6888 -0.2441  0.2550
 1829SOL     OW16945   3.945   3.649   3.547  0.0127 -0.4402 -0.2663
 1829SOL    HW116946   4.033   3.632   3.582 -0.9192 -1.6676  1.5166
 1829SOL    HW216947   3.950   3.597   3.467 -5.0994  0.3391 -1.0501
 1830SOL     OW16948   2.775   1.599   1.568  0.1412 -0.3480 -0.4686
 1830SOL    HW116949   2.695   1.651   1.561 -0.6639 -1.6647 -1.0148
 1830SOL    HW216950   2.794   1.601   1.662  1.6087  0.9491 -0.7938
 1831SOL     OW16951   3.649   1.723  16.654 -0.0631  0.0896  0.3111
 1831SOL    HW116952   3.606   1.801  16.619  2.5464  0.9632 -0.8998
 1831SOL    HW216953   3.741   1.741  16.635 -0.6892  1.8885 -0.9954
 1832SOL     OW16954   1.482   0.500   7.664 -0.2324 -0.7724 -0.3156
 1832SOL    HW116955   1.443   0.586   7.683 -0.9022 -1.4770  1.4489
 1832SOL    HW216956   1.458   0.488   7.572 -0.9472 -1.8433  0.0099
 1833SOL     OW16957   2.040   4.563  16.118  0.0089 -0.0567  0.1180
 1833SOL    HW116958   2.093   4.527  16.190  0.6695  0.0454 -0.3229
 1833SOL    HW216959   2.092   4.641  16.100  1.8610 -1.1688  0.6636
 1834SOL     OW16960   4.263   3.592   5.781  0.2084 -0.5738 -0.3173
 1834SOL    HW116961   4.306   3.508   5.799  0.0229 -0.3218  1.3018
 1834SOL    HW216962   4.337   3.651   5.799 -0.4048  0.8407 -2.4311
 1835SOL     OW16963   0.923   0.626   1.228 -0.5574  0.1707 -0.5628
 1835SOL    HW116964   0.866   0.569   1.177 -1.4449 -0.9085  1.6453
 1835SOL    HW216965   0.894   0.703   1.179 -3.0451 -0.9081 -0.7705
 1836SOL     OW16966   4.591   3.695  12.228 -0.1390 -0.0078  0.0163
 1836SOL    HW116967   4.503   3.696  12.263  0.2953 -0.0074  1.1014
 1836SOL    HW216968   4.599   3.776  12.178 -2.3454  1.4927  2.1211
 1837SOL     OW16969   4.643   1.457  12.290  0.3321 -0.6992  0.2441
 1837SOL    HW116970   0.011   1.454  12.329  0.0147 -1.3709  0.9146
 1837SOL    HW216971   4.636   1.552  12.280  0.7180 -0.6273  0.6252
 1838SOL     OW16972   2.487   2.521   0.091  0.5619  0.6381 -0.6851
 1838SOL    HW116973   2.486   2.426   0.074 -2.0424  0.3063  1.4014
 1838SOL    HW216974   2.412   2.546   0.039 -1.4103 -1.9148  0.9047
 1839SOL     OW16975   1.747   0.615  11.177 -0.3712  0.2150 -0.8600
 1839SOL    HW116976   1.839   0.592  11.172 -0.8963 -1.7696 -1.1864
 1839SOL    HW216977   1.748   0.681  11.108  0.7865 -0.6032 -1.6196
 1840SOL     OW16978   3.615   0.406   2.422  0.0186  0.6321  0.0353
 1840SOL    HW116979   3.599   0.317   2.453 -1.5864  1.1605  0.7213
 1840SOL    HW216980   3.661   0.391   2.339 -1.4043  1.9147 -0.9866
 1841SOL     OW16981   0.371   2.483   6.632 -0.1049 -0.4099  0.1185
 1841SOL    HW116982   0.460   2.518   6.634  0.1329 -1.0297  0.4914
 1841SOL    HW216983   0.333   2.544   6.696 -0.1324 -1.5094  1.1421
 1842SOL     OW16984   2.461   3.350   2.720 -0.4002 -0.1420 -0.9024
 1842SOL    HW116985   2.439   3.441   2.702 -1.3083 -0.2079 -0.1311
 1842SOL    HW216986   2.496   3.320   2.636 -3.1884  0.9783 -2.4627
 1843SOL     OW16987   2.772   2.111   5.861  0.5643 -0.4914 -0.3443
 1843SOL    HW116988   2.827   2.165   5.916  1.3431 -1.7720  0.1220
 1843SOL    HW216989   2.821   2.116   5.779  0.6419 -0.5040 -0.2984
 1844SOL     OW16990   2.298   0.297   8.928 -0.5310  0.3357 -0.4161
 1844SOL    HW116991   2.225   0.256   8.975 -0.6837  0.2582 -0.7224
 1844SOL    HW216992   2.267   0.273   8.841 -0.8360  0.5483 -0.3671
 1845SOL     OW16993   1.408   0.122   9.337  0.2840 -0.6544 -0.1442
 1845SOL    HW116994   1.490   0.139   9.291 -0.4318 -2.5022 -2.1433
 1845SOL    HW216995   1.345   0.173   9.286 -0.1386 -1.5812 -0.5517
 1846SOL     OW16996   1.473   4.225   6.165 -0.1656  0.2639 -0.0451
 1846SOL    HW116997   1.389   4.180   6.159  0.7001 -1.4695  0.8750
 1846SOL    HW216998   1.449   4.318   6.161 -1.2390  0.0163  0.7742
 1847SOL     OW16999   1.112   0.324   9.883  0.3591 -0.5632  0.7342
 1847SOL    HW117000   1.108   0.357   9.973 -2.3356 -0.1312  0.4588
 1847SOL    HW217001   1.195   0.365   9.855  0.3647 -0.7968  0.4167
 1848SOL     OW17002   3.101   1.637  15.980  0.1734 -0.2189  0.0662
 1848SOL    HW117003   3.165   1.683  16.034 -0.3460  1.7935 -1.0492
 1848SOL    HW217004   3.120   1.543  15.990 -0.2490 -0.2553  0.5472
 1849SOL     OW17005   1.715   0.824   2.101 -0.4991  0.1194  0.1612
 1849SOL    HW117006   1.775   0.851   2.032 -1.4474  2.0187  0.0955
 1849SOL    HW217007   1.733   0.894   2.163  2.8764 -1.3114  0.8261
 1850SOL     OW17008   4.144   0.943   4.609  0.5339  0.4284  0.2999
 1850SOL    HW117009   4.071   0.883   4.595  0.6496  0.8230 -2.0139
 1850SOL    HW217010   4.110   0.984   4.689  2.1820 -1.3193  1.8919
 1851SOL     OW17011   1.034   2.635  14.842 -0.1081  0.3123  0.3414
 1851SOL    HW117012   1.122   2.640  14.804 -0.6018 -1.0474 -1.0006
 1851SOL    HW217013   1.023   2.544  14.868 -0.2984  0.3639  0.4405
 1852SOL     OW17014   1.301   3.861   6.196 -1.1396  0.2727 -0.2691
 1852SOL    HW117015   1.390   3.827   6.202 -0.6068  1.5823 -0.7659
 1852SOL    HW217016   1.257   3.779   6.221 -1.0242 -0.6320 -3.0377
 1853SOL     OW17017   0.033   1.093  13.382  0.3388  0.9309  0.2035
 1853SOL    HW117018   4.686   1.151  13.349  2.0589  2.4447 -0.6377
 1853SOL    HW217019   4.711   1.009  13.363  1.7000  0.4199 -0.5975
 1854SOL     OW17020   1.071   0.410   7.815  0.2502  0.4940 -0.0069
 1854SOL    HW117021   1.009   0.357   7.865 -0.3547  1.1304 -0.0937
 1854SOL    HW217022   1.147   0.354   7.834 -1.6926 -2.1299  0.0639
 1855SOL     OW17023   3.200   0.727   7.077  0.4045  0.0674 -0.1269
 1855SOL    HW117024   3.141   0.690   7.143  0.4003  1.3895  0.6349
 1855SOL    HW217025   3.186   0.822   7.075  2.2441  0.3588  0.6075
 1856SOL     OW17026   1.204   2.306   4.043  0.1108  0.4658  0.3907
 1856SOL    HW117027   1.218   2.329   3.951 -1.2395 -1.3936 -0.2645
 1856SOL    HW217028   1.203   2.210   4.044 -1.7456  0.4967  0.9083
 1857SOL     OW17029   3.071   3.927  15.783 -0.3842  0.0230  0.2189
 1857SOL    HW117030   3.032   4.011  15.805 -0.2351 -0.0433  0.7400
 1857SOL    HW217031   3.092   3.887  15.868  1.0233  1.6520  0.6244
 1858SOL     OW17032   0.989   0.332   9.036 -0.1904  1.0020  0.5341
 1858SOL    HW117033   1.039   0.402   8.994 -1.3367  0.9702 -0.8690
 1858SOL    HW217034   0.900   0.364   9.020 -1.5495 -1.8930  2.2778
 1859SOL     OW17035   1.742   0.750   6.722  0.4496  0.3336 -0.0817
 1859SOL    HW117036   1.801   0.707   6.783 -2.8277  0.1783  2.9757
 1859SOL    HW217037   1.808   0.766   6.655  0.2422 -0.5121 -0.4942
 1860SOL     OW17038   2.858   1.934   8.747  0.4218  0.4326  0.1108
 1860SOL    HW117039   2.848   1.940   8.652 -1.2591  1.2770  0.3348
 1860SOL    HW217040   2.784   1.878   8.771  0.1608  1.3112  1.3921
 1861SOL     OW17041   4.677   0.308   5.334  0.0527 -0.1021 -0.0122
 1861SOL    HW117042   0.050   0.323   5.349 -0.3212  0.6267  1.5650
 1861SOL    HW217043   4.636   0.343   5.412 -0.7773  1.1553 -1.0089
 1862SOL     OW17044   2.707   2.849  12.257  0.1210 -0.6324 -0.4336
 1862SOL    HW117045   2.710   2.943  12.275 -0.5520 -0.0253 -3.4407
 1862SOL    HW217046   2.742   2.840  12.169  2.9262 -0.9019  0.7324
 1863SOL     OW17047   0.292   2.936  14.003 -0.7278  0.8343 -0.3487
 1863SOL    HW117048   0.267   2.962  13.915 -1.3426  1.0979 -0.0961
 1863SOL    HW217049   0.344   2.856  13.991 -2.1392 -0.1569  0.2239
 1864SOL     OW17050   3.494   2.756   4.027  0.1634  0.3872  0.1491
 1864SOL    HW117051   3.432   2.829   4.034 -0.4188 -0.1851  1.0097
 1864SOL    HW217052   3.578   2.798   4.011  1.3082 -2.3083 -0.8392
 1865SOL     OW17053   1.036   2.939  10.145 -0.3274 -0.0058  0.2619
 1865SOL    HW117054   1.100   2.903  10.207  1.7729 -0.7478 -2.3703
 1865SOL    HW217055   0.997   2.865  10.098 -2.6918  1.4516 -0.0615
 1866SOL     OW17056   0.556   4.160   7.537 -0.3584 -0.1887  0.3978
 1866SOL    HW117057   0.640   4.121   7.513  0.2354  1.0505  0.4729
 1866SOL    HW217058   0.583   4.252   7.532  1.6455 -0.6733  1.9098
 1867SOL     OW17059   0.900   4.601   1.216 -0.5072 -0.2048  0.5020
 1867SOL    HW117060   0.830   4.567   1.160 -2.6521  2.9192  1.2566
 1867SOL    HW217061   0.956   4.649   1.156 -0.3143 -1.9895 -0.7478
 1868SOL     OW17062   2.786   2.522   7.551 -0.2911  0.4082 -0.3917
 1868SOL    HW117063   2.708   2.467   7.564  0.0962  0.1681  0.9627
 1868SOL    HW217064   2.843   2.481   7.616 -0.7532 -1.7826 -1.3655
 1869SOL     OW17065   0.795   4.516   2.854  0.2882 -0.5670  0.0268
 1869SOL    HW117066   0.778   4.602   2.816  0.5963 -0.1001  0.9636
 1869SOL    HW217067   0.881   4.488   2.822  0.1543 -1.9335  0.8368
 1870SOL     OW17068   3.299   2.690   2.142 -0.1466  0.2313 -0.0056
 1870SOL    HW117069   3.223   2.673   2.198  0.7550  0.5718  1.3141
 1870SOL    HW217070   3.260   2.742   2.071 -0.0866  2.5269  1.6689
 1871SOL     OW17071   1.441   0.462   8.391  0.3367  0.8265  0.3094
 1871SOL    HW117072   1.445   0.546   8.345  2.7234  1.1467  1.0821
 1871SOL    HW217073   1.510   0.409   8.351 -1.0164  0.2245 -1.2367
 1872SOL     OW17074   4.628   0.360   3.503  0.4061  0.3916 -0.2328
 1872SOL    HW117075   4.569   0.286   3.518  1.9111 -0.6895  0.3664
 1872SOL    HW217076   4.576   0.408   3.439 -1.5643 -1.7780 -0.2398
 1873SOL     OW17077   0.021   1.658   5.263 -0.6774  0.1196 -0.1392
 1873SOL    HW117078   0.060   1.740   5.233  0.9423 -0.7972 -0.5472
 1873SOL    HW217079   4.720   1.624   5.176 -0.5829  2.6718 -1.1415
 1874SOL     OW17080   4.016   2.172  10.125 -0.1921 -0.1135  0.0716
 1874SOL    HW117081   3.958   2.241  10.157 -0.6232 -0.3634 -0.1716
 1874SOL    HW217082   4.016   2.177  10.029 -0.7154 -0.3079  0.0605
 1875SOL     OW17083   0.473   2.806  16.125  0.2145 -0.2674 -0.3976
 1875SOL    HW117084   0.420   2.735  16.160  1.2341 -0.8189  0.0282
 1875SOL    HW217085   0.407   2.851  16.072  0.9014  0.3912 -0.6839
 1876SOL     OW17086   2.944   4.159  11.465  0.0224  0.7622 -0.4471
 1876SOL    HW117087   2.975   4.229  11.523 -0.5752  0.0212  0.7626
 1876SOL    HW217088   2.861   4.199  11.438 -1.1945 -2.0544 -0.8725
 1877SOL     OW17089   2.492   4.693   8.411  0.2630 -0.4488  0.0299
 1877SOL    HW117090   2.527   0.036   8.473 -0.4792 -0.1587  0.1490
 1877SOL    HW217091   2.416   4.659   8.458  1.3597 -0.5619  1.7328
 1878SOL     OW17092   3.655   0.405  12.262 -0.3918 -0.2916  0.0034
 1878SOL    HW117093   3.591   0.453  12.211 -1.1261  1.8214  2.9233
 1878SOL    HW217094   3.617   0.410  12.350  0.2744 -2.3277  0.4244
 1879SOL     OW17095   0.959   1.790   6.081 -0.8111 -0.3020 -0.1426
 1879SOL    HW117096   0.935   1.728   6.150  0.1709 -0.1481  0.3478
 1879SOL    HW217097   0.902   1.865   6.099 -0.0064  1.3841 -4.5989
 1880SOL     OW17098   1.803   4.033   4.426 -0.2020 -0.1540  0.6273
 1880SOL    HW117099   1.759   4.097   4.481  1.4758  1.6109 -0.0912
 1880SOL    HW217100   1.849   4.085   4.360 -2.1050 -0.1333 -0.6988
 1881SOL     OW17101   0.713   2.856  16.249  0.2758  0.0848 -0.2235
 1881SOL    HW117102   0.647   2.817  16.192 -0.4429  0.8567  0.0808
 1881SOL    HW217103   0.655   2.904  16.308  1.5422 -0.4129  1.4451
 1882SOL     OW17104   2.589   3.586  17.066 -0.3671 -0.1974  0.6360
 1882SOL    HW117105   2.644   3.626  17.133  0.6735  0.6512 -0.7131
 1882SOL    HW217106   2.562   3.508  17.114  0.6554 -0.3132  1.0329
 1883SOL     OW17107   2.939   4.425   4.460  0.5440  0.0492  0.7786
 1883SOL    HW117108   2.910   4.491   4.522 -2.1211 -3.2282  3.0304
 1883SOL    HW217109   3.032   4.425   4.480  0.7713  2.2197 -0.2706
 1884SOL     OW17110   2.751   0.024   4.864 -0.0328 -0.4288 -0.2666
 1884SOL    HW117111   2.685   0.089   4.884  0.4481  0.0105 -0.1090
 1884SOL    HW217112   2.788   0.008   4.951  0.8057  0.2389 -0.4965
 1885SOL     OW17113   4.196   1.434   7.162  0.0997 -0.4896  0.4758
 1885SOL    HW117114   4.164   1.471   7.245 -1.0462  1.7537 -0.9891
 1885SOL    HW217115   4.258   1.501   7.134 -0.1410 -1.4872 -2.3662
 1886SOL     OW17116   3.276   1.184   4.733 -0.1177  0.2077  0.6190
 1886SOL    HW117117   3.234   1.111   4.777 -0.9722 -1.0128 -2.2165
 1886SOL    HW217118   3.196   1.212   4.689  0.2764  0.2037 -0.0941
 1887SOL     OW17119   1.079   4.061   2.099 -0.1688 -0.4014  0.1011
 1887SOL    HW117120   0.985   4.075   2.091 -0.1619  0.0961  0.8893
 1887SOL    HW217121   1.091   4.034   2.008 -0.1776  2.8853 -0.8700
 1888SOL     OW17122   3.421   3.576   8.363 -0.0421 -0.2581  0.1351
 1888SOL    HW117123   3.401   3.483   8.373  0.4309 -0.5397 -1.5612
 1888SOL    HW217124   3.331   3.607   8.372 -0.2892 -1.2400  0.9576
 1889SOL     OW17125   0.089   0.033  16.495  0.2337 -0.5356 -0.2570
 1889SOL    HW117126   0.111   0.105  16.436 -0.6324  0.5931  0.7793
 1889SOL    HW217127   4.719   0.058  16.514 -0.0485  0.3103 -2.7098
 1890SOL     OW17128   0.768   2.470  17.653 -0.1232 -0.0199  0.2602
 1890SOL    HW117129   0.772   2.546   0.027  0.9782 -0.2386  0.4554
 1890SOL    HW217130   0.830   2.414   0.015 -2.1774 -1.2781  1.4782
 1891SOL     OW17131   3.676   3.448  16.037 -0.0809  0.1190  0.2480
 1891SOL    HW117132   3.602   3.442  16.098  1.1018  0.6632  1.7440
 1891SOL    HW217133   3.737   3.392  16.086 -0.5521 -0.8847 -0.3055
 1892SOL     OW17134   3.774   2.480   8.648 -0.4843  0.3660  0.3418
 1892SOL    HW117135   3.774   2.562   8.698  0.1450  1.4428 -1.4197
 1892SOL    HW217136   3.694   2.442   8.686  0.2470  0.1368  1.6486
 1893SOL     OW17137   4.631   2.864   7.643 -0.0906 -0.4926 -0.5386
 1893SOL    HW117138   0.003   2.859   7.619 -0.2059 -1.4410 -0.7825
 1893SOL    HW217139   4.592   2.927   7.582  1.9608 -1.2255 -2.6043
 1894SOL     OW17140   1.918   3.568   0.698  0.7178  0.0461 -0.1025
 1894SOL    HW117141   1.972   3.492   0.678  1.4125  0.5396 -0.0777
 1894SOL    HW217142   1.898   3.604   0.612  3.0141  1.7784  0.0972
 1895SOL     OW17143   0.117   4.595   1.955 -0.2654  0.0342 -0.3933
 1895SOL    HW117144   0.122   4.682   1.918  1.7577  0.5038  1.0040
 1895SOL    HW217145   0.050   4.616   2.021 -0.0855 -0.4007 -0.0668
 1896SOL     OW17146   2.583   2.322   5.969 -0.0552 -0.7152  0.0336
 1896SOL    HW117147   2.634   2.246   5.941  0.8183 -0.3525  0.6237
 1896SOL    HW217148   2.636   2.391   5.929 -0.7289 -1.3658 -1.9863
 1897SOL     OW17149   0.845   0.089   3.194 -0.5515 -0.6039 -0.4227
 1897SOL    HW117150   0.767   0.133   3.228  0.7509  1.1699  0.3062
 1897SOL    HW217151   0.857   0.135   3.111 -0.4292  0.5106  0.2088
 1898SOL     OW17152   4.632   0.021   3.856  0.4553  0.5553 -0.0197
 1898SOL    HW117153   4.707   0.069   3.821 -0.0518  3.7737  3.2980
 1898SOL    HW217154   4.593   0.098   3.897 -1.8002 -1.1142  0.9832
 1899SOL     OW17155   2.912   1.915   7.864 -0.1938 -0.3901 -0.6076
 1899SOL    HW117156   2.938   2.007   7.864 -1.2444 -0.0866  0.0907
 1899SOL    HW217157   2.856   1.900   7.787 -1.0665  0.4279 -0.1320
 1900SOL     OW17158   3.926   3.434   3.864 -0.6916  0.0809 -0.0737
 1900SOL    HW117159   3.953   3.357   3.813  0.3682  0.6837 -0.4383
 1900SOL    HW217160   3.847   3.455   3.813 -0.5070 -0.0340 -0.4089
 1901SOL     OW17161   2.245   3.117   9.082 -0.1556  0.0095 -0.2063
 1901SOL    HW117162   2.335   3.134   9.052 -0.0353 -0.7315 -0.2691
 1901SOL    HW217163   2.271   3.093   9.171 -0.1016  1.4911  0.1762
 1902SOL     OW17164   3.898   1.921   2.303  0.2382  0.0023  0.2236
 1902SOL    HW117165   3.826   1.937   2.241  0.4693 -2.5992 -0.6973
 1902SOL    HW217166   3.958   1.991   2.276 -0.2589  0.3402 -0.0130
 1903SOL     OW17167   1.800   4.694   9.207 -0.1228  0.2421 -0.5564
 1903SOL    HW117168   1.799   4.641   9.287 -1.4779  0.2745 -0.5514
 1903SOL    HW217169   1.892   0.001   9.210  0.2380 -1.0778  0.6789
 1904SOL     OW17170   1.893   4.144   5.239  0.4027 -0.4982 -0.9012
 1904SOL    HW117171   1.848   4.212   5.289 -0.7162 -2.5659  0.9028
 1904SOL    HW217172   1.879   4.062   5.286  0.3707  0.6200  1.0460
 1905SOL     OW17173   3.857   4.439   6.721  0.1248 -0.0893  0.0374
 1905SOL    HW117174   3.845   4.473   6.810 -2.6247 -0.2265 -0.2585
 1905SOL    HW217175   3.879   4.347   6.731  0.1006 -0.0321  0.6091
 1906SOL     OW17176   1.006   0.087   2.340  0.1473 -0.3611  0.0411
 1906SOL    HW117177   1.101   0.089   2.329  0.3093 -2.7724  1.1474
 1906SOL    HW217178   0.981   0.025   2.271 -2.3786  0.0919  0.5408
 1907SOL     OW17179   1.928   0.093   3.096  0.1458  0.4218  0.1690
 1907SOL    HW117180   1.866   0.156   3.133 -1.0785 -0.0892 -1.0019
 1907SOL    HW217181   1.923   0.029   3.167  0.7774 -0.7169 -0.8193
 1908SOL     OW17182   1.189   3.946  10.530 -0.0741  0.2656  0.0046
 1908SOL    HW117183   1.096   3.926  10.539  0.1271 -1.2213 -1.2383
 1908SOL    HW217184   1.190   4.042  10.532 -0.6000  0.2763 -0.2184
 1909SOL     OW17185   1.891   4.174   4.207  0.2971 -0.7990 -0.1274
 1909SOL    HW117186   1.881   4.268   4.219 -0.2842 -0.7913 -0.6737
 1909SOL    HW217187   1.826   4.173   4.136 -0.8396  0.0395  0.8874
 1910SOL     OW17188   0.583   3.450  11.906  0.3292  0.0744 -0.0478
 1910SOL    HW117189   0.658   3.497  11.941 -0.6633  0.9586  0.8884
 1910SOL    HW217190   0.538   3.514  11.851 -0.1591 -1.4882 -1.4784
 1911SOL     OW17191   1.412   0.868   2.443 -0.1279  0.0618 -0.1567
 1911SOL    HW117192   1.394   0.868   2.536  3.7276 -0.9037  0.5972
 1911SOL    HW217193   1.457   0.784   2.430  0.6465  0.7097 -1.7407
 1912SOL     OW17194   1.257   0.061   2.287 -0.4232 -0.4290  0.2382
 1912SOL    HW117195   1.291   4.702   2.329  1.8614  0.2022 -0.4034
 1912SOL    HW217196   1.314   0.135   2.309 -0.3108  0.1382 -1.9436
 1913SOL     OW17197   2.180   1.217   9.067 -0.3395 -0.3603  0.0350
 1913SOL    HW117198   2.215   1.243   8.982  2.2880 -0.2508  1.1471
 1913SOL    HW217199   2.197   1.123   9.060  0.6828 -0.0608 -1.7324
 1914SOL     OW17200   0.782   3.355   7.378  0.0948  0.1495 -0.3710
 1914SOL    HW117201   0.784   3.364   7.473  0.2656  2.1052 -0.5606
 1914SOL    HW217202   0.687   3.350   7.370  0.0567 -0.9671  0.7728
 1915SOL     OW17203   3.501   2.708  10.814  0.0282  0.1305 -0.1912
 1915SOL    HW117204   3.495   2.648  10.888  0.7467 -1.2501 -1.2499
 1915SOL    HW217205   3.497   2.647  10.740 -0.0294 -0.1834  0.0716
 1916SOL     OW17206   1.023   0.863  10.843  0.5508 -0.1987  0.2276
 1916SOL    HW117207   1.059   0.930  10.785  0.0168  0.7260  0.9551
 1916SOL    HW217208   0.977   0.804  10.784  1.1060  1.5491 -1.9310
 1917SOL     OW17209   1.973   4.377   9.561  0.1503  0.1020  0.0553
 1917SOL    HW117210   1.885   4.408   9.542  0.5946  2.0323  1.1510
 1917SOL    HW217211   2.000   4.346   9.475 -2.1190  2.3369 -1.4235
 1918SOL     OW17212   0.329   0.732   8.903 -0.0063 -0.0793  0.0569
 1918SOL    HW117213   0.420   0.758   8.888  0.1454 -0.5536  0.1544
 1918SOL    HW217214   0.287   0.809   8.942  1.2262  0.1659  0.9067
 1919SOL     OW17215   3.126   1.238   3.220 -0.9951  0.1013 -0.0232
 1919SOL    HW117216   3.057   1.248   3.286 -1.3228  1.1970 -0.5196
 1919SOL    HW217217   3.180   1.179   3.272  0.1850 -0.3506 -1.7683
 1920SOL     OW17218   2.200   2.894   8.498 -0.0455  0.0770  0.6406
 1920SOL    HW117219   2.203   2.925   8.408  0.1271 -1.2608  0.1804
 1920SOL    HW217220   2.253   2.965   8.534  1.1083 -0.8097  0.6799
 1921SOL     OW17221   4.647   2.302   4.068 -0.2737 -0.0028 -0.5159
 1921SOL    HW117222   4.583   2.350   4.121  0.0402 -0.4473  0.2659
 1921SOL    HW217223   4.649   2.216   4.109  1.6822  0.8044  1.1200
 1922SOL     OW17224   3.516   1.432   2.622 -0.1509  0.1795  0.0171
 1922SOL    HW117225   3.524   1.409   2.530  1.9192  1.2682 -0.0704
 1922SOL    HW217226   3.537   1.525   2.621  1.1594 -0.1112  1.0781
 1923SOL     OW17227   0.565   0.054   4.039  0.4506 -0.3990  0.1560
 1923SOL    HW117228   0.644   0.108   4.047 -0.5058  0.9473  0.4147
 1923SOL    HW217229   0.505   0.124   4.014 -1.0277 -1.3339  1.0947
 1924SOL     OW17230   0.649   0.652   6.017 -0.2041 -0.7475 -0.2604
 1924SOL    HW117231   0.743   0.648   6.000 -0.2502  1.3975 -1.0856
 1924SOL    HW217232   0.652   0.687   6.106  1.2007  1.7741 -1.2906
 1925SOL     OW17233   3.748   1.777   3.139  0.0407  0.1704 -0.3954
 1925SOL    HW117234   3.707   1.842   3.195  1.0364  2.4936 -2.3927
 1925SOL    HW217235   3.759   1.695   3.188  0.2019  1.1988  1.2777
 1926SOL     OW17236   1.833   2.276   7.404  0.1024  0.3856 -0.1885
 1926SOL    HW117237   1.852   2.201   7.347 -0.3338  0.7894 -0.8615
 1926SOL    HW217238   1.893   2.267   7.478  2.5519  0.5391 -2.1465
 1927SOL     OW17239   3.133   0.148   7.903  0.9333 -0.0626  0.2269
 1927SOL    HW117240   3.080   0.217   7.863 -0.8159 -0.8896  1.1433
 1927SOL    HW217241   3.138   0.184   7.992 -0.6932 -1.2085  0.7743
 1928SOL     OW17242   3.729   0.990  14.403 -0.1263  0.4297 -0.4586
 1928SOL    HW117243   3.712   0.909  14.356 -0.6582 -0.2855  1.0044
 1928SOL    HW217244   3.771   1.050  14.340 -2.1854  2.5779  0.1970
 1929SOL     OW17245   4.537   0.119   5.635  0.4534 -0.7720 -0.0187
 1929SOL    HW117246   4.522   0.025   5.644  2.7918 -1.0054  1.4200
 1929SOL    HW217247   4.626   0.119   5.600  2.2976  1.3006  4.6424
 1930SOL     OW17248   2.349   2.047  14.391 -0.5594  0.4742  0.1620
 1930SOL    HW117249   2.419   2.023  14.331 -1.8271 -0.3305 -0.9868
 1930SOL    HW217250   2.326   1.963  14.430  1.2524  0.4587  1.1868
 1931SOL     OW17251   0.866   2.977  16.033  0.6025  0.3116 -0.2799
 1931SOL    HW117252   0.898   2.898  16.077  1.2634 -0.3604 -1.9816
 1931SOL    HW217253   0.797   2.941  15.977 -0.3859  0.8873  0.5510
 1932SOL     OW17254   1.251   1.344  14.743 -0.1333 -0.2288 -0.0443
 1932SOL    HW117255   1.314   1.410  14.715 -1.6229  1.5612  0.7783
 1932SOL    HW217256   1.197   1.344  14.664  1.1517 -2.1627 -0.9049
 1933SOL     OW17257   4.388   2.405   0.961 -0.7329 -0.6454 -0.1961
 1933SOL    HW117258   4.294   2.423   0.958 -0.7106 -0.3900  0.5224
 1933SOL    HW217259   4.429   2.448   1.037 -0.2233 -2.1306  0.3749
 1934SOL     OW17260   0.619   3.623   8.949 -0.1193 -0.1924 -0.4198
 1934SOL    HW117261   0.556   3.560   8.986 -2.6008  1.7162 -1.3840
 1934SOL    HW217262   0.691   3.604   9.009  1.1991  3.8673 -0.7831
 1935SOL     OW17263   0.618   3.683   5.261  0.5039  0.0037  0.1773
 1935SOL    HW117264   0.588   3.592   5.259 -1.8417  0.7756  0.6574
 1935SOL    HW217265   0.700   3.675   5.309 -0.8444 -2.8875  1.9619
 1936SOL     OW17266   2.122   3.583   4.371  0.7821 -0.1445 -0.1581
 1936SOL    HW117267   2.048   3.539   4.414  0.6229  0.4833  0.2095
 1936SOL    HW217268   2.140   3.655   4.431 -0.9530  0.0028  0.1802
 1937SOL     OW17269   4.052   1.476   5.466 -0.5018  0.2698  0.3160
 1937SOL    HW117270   4.044   1.395   5.415 -0.2476  0.5866 -0.2349
 1937SOL    HW217271   4.108   1.536   5.417 -1.1308  1.5434  1.1474
 1938SOL     OW17272   1.989   2.569   7.795 -0.6313 -0.3615 -0.0474
 1938SOL    HW117273   1.967   2.489   7.747 -0.0458  0.1605 -1.1834
 1938SOL    HW217274   1.956   2.640   7.740 -0.4419  0.9556  1.5284
 1939SOL     OW17275   4.160   0.760  14.675 -0.0390  0.1129  0.2140
 1939SOL    HW117276   4.238   0.727  14.632  0.0699  2.5954 -1.4533
 1939SOL    HW217277   4.088   0.724  14.624  0.2623  1.0826 -0.8795
 1940SOL     OW17278   0.602   0.782  13.759 -0.1211 -0.4497 -0.2452
 1940SOL    HW117279   0.677   0.798  13.701 -0.6997 -1.9415 -1.4095
 1940SOL    HW217280   0.637   0.781  13.848 -2.0303  1.3830  0.5225
 1941SOL     OW17281   0.399   1.905   3.285  0.5572  0.1235  0.0506
 1941SOL    HW117282   0.350   1.823   3.279  0.6919  0.0210  0.3382
 1941SOL    HW217283   0.450   1.911   3.205  1.3424  1.4018  0.6428
 1942SOL     OW17284   0.522   2.124   8.111 -0.1397 -0.1161 -0.1661
 1942SOL    HW117285   0.615   2.147   8.119 -0.2265 -0.6222  2.6035
 1942SOL    HW217286   0.474   2.168   8.181  0.8057 -0.8059  0.9295
 1943SOL     OW17287   0.569   2.135   1.899 -0.1330 -0.0643  0.1139
 1943SOL    HW117288   0.540   2.048   1.870 -1.2052 -0.4004  2.2465
 1943SOL    HW217289   0.506   2.177   1.957  2.3942  1.6782  1.6060
 1944SOL     OW17290   3.612   2.253   4.687  0.3632 -0.1574  0.6441
 1944SOL    HW117291   3.600   2.263   4.782 -0.0106  0.4146  0.5383
 1944SOL    HW217292   3.648   2.342   4.680 -1.2670  0.4124 -0.3934
 1945SOL     OW17293   0.366   1.746   6.762  0.0566  0.4817  0.3691
 1945SOL    HW117294   0.442   1.754   6.704 -1.3006  0.7714 -1.3762
 1945SOL    HW217295   0.300   1.775   6.698  0.2131  1.9408  0.8705
 1946SOL     OW17296   1.884   0.913   2.602  0.0181  1.0122  0.1561
 1946SOL    HW117297   1.878   0.949   2.691 -0.4961  2.4215 -0.4514
 1946SOL    HW217298   1.962   0.859   2.616 -2.0775 -2.0883 -0.3175
 1947SOL     OW17299   4.193   2.402  15.833 -0.0265  0.2574  0.1871
 1947SOL    HW117300   4.111   2.442  15.803 -0.3614  1.1740  2.2998
 1947SOL    HW217301   4.240   2.476  15.872  0.5251  0.4811 -0.9083
 1948SOL     OW17302   2.194   0.003   8.540  0.2824  0.2278  0.2039
 1948SOL    HW117303   2.181   4.635   8.575 -1.2828 -0.6087 -2.5327
 1948SOL    HW217304   2.156   0.001   8.453 -0.9420  0.7042  0.7318
 1949SOL     OW17305   1.350   2.157   5.616 -0.8048  0.0607 -0.2752
 1949SOL    HW117306   1.387   2.113   5.539  2.0197  1.1942  0.4527
 1949SOL    HW217307   1.257   2.151   5.594 -0.5125 -2.4079 -0.7771
 1950SOL     OW17308   3.934   2.698   6.755  0.2457  0.4694  0.5279
 1950SOL    HW117309   3.983   2.780   6.754  1.3717 -0.2079 -0.6280
 1950SOL    HW217310   3.879   2.713   6.678 -0.0342  0.0831  0.6488
 1951SOL     OW17311   0.778   1.624   2.690 -0.3005  0.4000 -0.3094
 1951SOL    HW117312   0.759   1.575   2.610  0.4719 -0.8752  0.2982
 1951SOL    HW217313   0.871   1.619   2.710 -0.9076 -2.6718  1.7406
 1952SOL     OW17314   4.345   1.549  15.435 -0.3017  0.4983  0.6834
 1952SOL    HW117315   4.408   1.586  15.496 -0.5228  3.1252 -0.6531
 1952SOL    HW217316   4.301   1.480  15.483 -1.0944  0.1797 -0.4851
 1953SOL     OW17317   1.647   0.276   8.274  0.2614 -0.1013 -0.6273
 1953SOL    HW117318   1.700   0.197   8.263  0.9892  0.2448  0.4375
 1953SOL    HW217319   1.708   0.347   8.260 -1.0519  0.8127 -1.6802
 1954SOL     OW17320   4.674   2.371  11.297  0.0278  0.0834 -0.1975
 1954SOL    HW117321   0.012   2.318  11.245  2.5795  1.5995  1.1275
 1954SOL    HW217322   4.612   2.298  11.303 -0.5291  0.4628 -1.3076
 1955SOL     OW17323   3.446   0.412   6.160 -0.1645  0.4571  0.0557
 1955SOL    HW117324   3.449   0.462   6.242  1.8875 -0.4390  0.5292
 1955SOL    HW217325   3.362   0.367   6.170 -1.4208  2.8497  0.2381
 1956SOL     OW17326   2.243   0.314   5.508 -0.1884  0.0764 -0.2950
 1956SOL    HW117327   2.234   0.332   5.415 -0.8227 -1.1076 -0.4567
 1956SOL    HW217328   2.174   0.252   5.531  0.0277 -0.2158 -0.4486
 1957SOL     OW17329   3.880   0.266   1.444 -0.1348  0.1689 -0.3886
 1957SOL    HW117330   3.828   0.301   1.516 -0.0199  0.2099 -0.3264
 1957SOL    HW217331   3.948   0.214   1.486 -0.5334 -0.5189 -0.5887
 1958SOL     OW17332   2.697   0.927   2.475  0.4473  0.1642  0.8748
 1958SOL    HW117333   2.788   0.950   2.494  0.5167 -0.6398  1.5002
 1958SOL    HW217334   2.671   0.883   2.556  1.5293 -0.1695  1.0430
 1959SOL     OW17335   3.605   1.365   2.362 -0.3801  0.7127 -0.0672
 1959SOL    HW117336   3.552   1.307   2.308  1.8633 -0.6644 -0.7643
 1959SOL    HW217337   3.627   1.428   2.294  0.0648  1.0737  0.4167
 1960SOL     OW17338   2.945   2.444   0.320 -0.1368  0.1184  0.5347
 1960SOL    HW117339   2.906   2.452   0.233 -0.1808 -2.9327  0.2747
 1960SOL    HW217340   3.013   2.380   0.296 -0.1006  1.0981 -1.9839
 1961SOL     OW17341   4.673   2.990   8.382  0.2624 -0.1286 -0.0699
 1961SOL    HW117342   0.039   2.988   8.422  0.1924  0.3820  0.1053
 1961SOL    HW217343   4.631   3.056   8.437 -2.1089 -1.5117 -0.2165
 1962SOL     OW17344   3.858   0.100  11.929 -0.3354 -0.6682  0.3613
 1962SOL    HW117345   3.859   0.143  12.014  0.7486  2.3318 -1.1713
 1962SOL    HW217346   3.943   0.122  11.892 -1.0877 -1.2078 -1.7008
 1963SOL     OW17347   3.234   0.615  13.589  0.1465  0.3332 -0.7412
 1963SOL    HW117348   3.250   0.687  13.528  1.6850  1.3914  0.9121
 1963SOL    HW217349   3.298   0.553  13.552 -1.1237 -1.3110 -0.2044
 1964SOL     OW17350   4.209   1.148   7.275 -0.0502 -0.7278 -0.7902
 1964SOL    HW117351   4.290   1.141   7.326  1.1328 -0.2008 -2.5875
 1964SOL    HW217352   4.213   1.225   7.218  0.2335  1.1995  1.8624
 1965SOL     OW17353   2.773   2.189  11.296  0.1918  0.0997  0.1729
 1965SOL    HW117354   2.776   2.257  11.228 -2.2959  0.3710  0.3361
 1965SOL    HW217355   2.833   2.117  11.279 -1.3294 -1.0336 -0.2967
 1966SOL     OW17356   3.148   2.356   5.052 -0.6433  0.0669 -0.3952
 1966SOL    HW117357   3.103   2.413   5.114 -0.5644  0.6861 -0.9027
 1966SOL    HW217358   3.100   2.363   4.970 -1.9620 -0.1184  0.3613
 1967SOL     OW17359   3.657   3.318  15.805 -0.2883  0.5518  0.7377
 1967SOL    HW117360   3.659   3.368  15.886  0.6126 -1.7238  2.1372
 1967SOL    HW217361   3.694   3.235  15.834 -0.2560  0.1922 -0.3107
 1968SOL     OW17362   4.398   0.311   2.731 -0.0836  1.1017  0.4351
 1968SOL    HW117363   4.346   0.240   2.769 -0.6349  0.5304 -1.3938
 1968SOL    HW217364   4.473   0.261   2.696  0.7946  2.1401  0.8422
 1969SOL     OW17365   1.337   3.735  10.613 -0.3093 -0.3412 -0.2438
 1969SOL    HW117366   1.410   3.770  10.563 -0.6761 -0.5846 -0.9450
 1969SOL    HW217367   1.276   3.809  10.605  2.6805  2.3023  1.4669
 1970SOL     OW17368   0.018   1.309   6.221 -0.8698 -0.2607 -0.7798
 1970SOL    HW117369   0.003   1.287   6.129 -0.4570 -3.7764 -0.0114
 1970SOL    HW217370   0.038   1.401   6.206  0.5707 -0.6277 -1.0531
 1971SOL     OW17371   1.985   4.506  10.118 -0.0881  0.0697  0.0400
 1971SOL    HW117372   1.890   4.514  10.119  0.0392  1.5606 -0.6943
 1971SOL    HW217373   2.012   4.598  10.123 -1.8652  0.6522 -1.1907
 1972SOL     OW17374   4.499   3.430   8.383 -0.7305 -0.4143  0.1496
 1972SOL    HW117375   4.502   3.340   8.351 -1.4530 -0.0156 -1.0156
 1972SOL    HW217376   4.439   3.469   8.319  0.3029  0.5236 -0.2385
 1973SOL     OW17377   4.409   2.994  11.608 -0.2119 -0.3788 -0.4923
 1973SOL    HW117378   4.395   3.011  11.515  0.2227  1.7603 -0.1658
 1973SOL    HW217379   4.504   2.987  11.602 -0.3056 -2.6698  0.7285
 1974SOL     OW17380   1.662   0.292  12.498 -0.9024  0.5371 -0.0780
 1974SOL    HW117381   1.732   0.303  12.563 -1.2072 -0.3425  0.3933
 1974SOL    HW217382   1.673   0.198  12.487 -2.2242  0.2496  1.1653
 1975SOL     OW17383   2.488   2.306   4.396 -0.4039  0.0363 -0.4125
 1975SOL    HW117384   2.411   2.280   4.447  1.1990 -2.1451  0.8784
 1975SOL    HW217385   2.475   2.401   4.397  1.1200  0.2409  0.3925
 1976SOL     OW17386   1.774   4.188   2.878 -0.0888  0.2845 -0.2498
 1976SOL    HW117387   1.744   4.114   2.826 -1.5056 -0.1288  1.1572
 1976SOL    HW217388   1.833   4.233   2.817  1.0035  0.0845  0.6609
 1977SOL     OW17389   3.484   4.332   5.003 -0.9808  0.0242  0.1937
 1977SOL    HW117390   3.522   4.299   5.085  0.3528 -0.1929 -0.5222
 1977SOL    HW217391   3.558   4.372   4.958 -0.1699  0.3448  1.8185
 1978SOL     OW17392   3.767   2.020   7.983  0.3421  0.0181  0.4148
 1978SOL    HW117393   3.824   2.097   7.980 -1.7560  1.4784 -1.5827
 1978SOL    HW217394   3.816   1.970   7.918  0.3441  2.2321 -1.2779
 1979SOL     OW17395   2.736   1.864   1.341  0.0566  0.1411 -0.1167
 1979SOL    HW117396   2.825   1.837   1.364  0.7660  0.8272 -2.0936
 1979SOL    HW217397   2.724   1.923   1.416 -1.0985 -0.7515  0.4111
 1980SOL     OW17398   1.216   3.020   7.299 -0.0130 -0.7027 -0.1107
 1980SOL    HW117399   1.151   2.956   7.328  1.3756 -1.7490  0.6442
 1980SOL    HW217400   1.157   3.090   7.270 -1.0190 -1.2798  0.5101
 1981SOL     OW17401   3.934   1.340   8.678 -0.0250  0.0917 -0.3616
 1981SOL    HW117402   3.923   1.319   8.771 -0.5455 -1.3203 -0.7333
 1981SOL    HW217403   3.958   1.432   8.682  0.1816  0.1461 -3.2144
 1982SOL     OW17404   2.748   3.017   5.373  0.2604  0.5750  0.1211
 1982SOL    HW117405   2.736   3.060   5.289 -0.1450 -0.1479 -0.1889
 1982SOL    HW217406   2.657   2.992   5.391  0.6644 -1.0855 -0.1256
 1983SOL     OW17407   1.292   3.358  14.805  0.5336 -0.0508 -0.5628
 1983SOL    HW117408   1.330   3.413  14.737 -2.6037  3.7277  0.7282
 1983SOL    HW217409   1.225   3.422  14.829  0.6793 -0.5806  1.2502
 1984SOL     OW17410   2.591   0.004   3.449 -0.3451 -0.2568  0.5199
 1984SOL    HW117411   2.578   0.083   3.500 -0.3476 -0.3637  0.6829
 1984SOL    HW217412   2.686   0.007   3.434 -0.4099  0.4209  0.2335
 1985SOL     OW17413   3.575   3.632   5.721 -0.1656 -0.2405 -0.5172
 1985SOL    HW117414   3.648   3.674   5.767 -0.3649 -1.1063  0.5872
 1985SOL    HW217415   3.498   3.677   5.755  0.2792  0.7558 -0.8198
 1986SOL     OW17416   1.735   0.407   0.022 -0.1485  0.8252 -0.2596
 1986SOL    HW117417   1.720   0.500   0.036  0.5903  0.8790  0.1569
 1986SOL    HW217418   1.670   0.385   0.088  0.6080  1.3043  0.6326
 1987SOL     OW17419   0.361   2.094   6.510 -0.5312 -0.2970 -0.5790
 1987SOL    HW117420   0.388   2.130   6.594 -0.7211 -0.8822 -0.2698
 1987SOL    HW217421   0.438   2.104   6.453 -0.4841 -0.2600 -0.5090
 1988SOL     OW17422   2.501   2.946  11.085  0.1794  0.5174 -0.4914
 1988SOL    HW117423   2.582   2.995  11.071 -1.5396  3.1031 -1.2829
 1988SOL    HW217424   2.539   2.863  11.114 -0.6250 -0.0794 -1.1652
 1989SOL     OW17425   2.893   0.117  11.569 -0.6911  0.4400 -0.3612
 1989SOL    HW117426   2.973   0.073  11.598  0.3423  1.2349 -2.0102
 1989SOL    HW217427   2.869   0.174  11.643 -2.7609 -0.2721 -0.4851
 1990SOL     OW17428   0.306   0.803   5.385 -0.0143 -0.0414 -0.2285
 1990SOL    HW117429   0.317   0.709   5.404 -0.2888 -0.3677 -1.6419
 1990SOL    HW217430   0.316   0.830   5.476  0.5416  0.2934 -0.3939
 1991SOL     OW17431   2.548   4.414   5.095 -0.4645 -0.3970  0.2310
 1991SOL    HW117432   2.462   4.407   5.137  0.5048 -0.4629  2.2062
 1991SOL    HW217433   2.521   4.445   5.009 -1.7841 -0.3512  0.6614
 1992SOL     OW17434   2.869   3.650   7.041 -0.6421  0.3757 -0.2704
 1992SOL    HW117435   2.832   3.572   7.000  0.1205  0.6771 -1.5367
 1992SOL    HW217436   2.794   3.708   7.029 -0.0270  0.9918 -1.2264
 1993SOL     OW17437   3.397   0.369   2.208  0.2823  0.3575  0.0562
 1993SOL    HW117438   3.402   0.410   2.121  3.0426 -1.9768 -0.8754
 1993SOL    HW217439   3.444   0.442   2.249  0.9779  0.5712 -1.1299
 1994SOL     OW17440   1.761   1.808   8.825  0.1662 -0.2551 -0.0388
 1994SOL    HW117441   1.828   1.766   8.772  0.1452 -1.5647  0.9558
 1994SOL    HW217442   1.809   1.889   8.843  1.1271 -1.1941  1.7141
 1995SOL     OW17443   3.144   4.005   3.565  0.0980  0.1956 -0.4622
 1995SOL    HW117444   3.238   4.010   3.584  0.0076  0.8676 -0.1773
 1995SOL    HW217445   3.114   4.095   3.554 -0.5872  0.1912  1.3775
 1996SOL     OW17446   3.517   0.325   7.322 -0.4373  0.0369 -0.4132
 1996SOL    HW117447   3.593   0.357   7.274 -1.6930  2.1226 -0.9639
 1996SOL    HW217448   3.451   0.392   7.305  1.5317  2.0797  0.0365
 1997SOL     OW17449   4.050   4.102   3.907  0.1027  0.6726  0.0435
 1997SOL    HW117450   4.137   4.132   3.935  0.8843 -0.9508 -0.6504
 1997SOL    HW217451   4.067   4.064   3.821  1.2007  0.4129  0.3703
 1998SOL     OW17452   2.408   3.286   0.975 -0.1460 -0.2586  0.2472
 1998SOL    HW117453   2.313   3.291   0.978 -0.2866 -1.7659 -1.5020
 1998SOL    HW217454   2.431   3.285   1.068 -1.7458 -2.3290  0.6160
 1999SOL     OW17455   4.577   3.169   3.815 -0.0785  0.4301  0.0252
 1999SOL    HW117456   4.562   3.124   3.732 -1.7611  1.7719 -0.3740
 1999SOL    HW217457   4.503   3.226   3.798 -0.8643 -0.3141  0.9850
 2000SOL     OW17458   3.730   0.686   2.028 -0.6957 -0.3933  0.0991
 2000SOL    HW117459   3.738   0.777   2.000 -0.4538 -0.4360  0.0358
 2000SOL    HW217460   3.813   0.672   2.073 -0.7435 -3.1794 -0.7182
 2001SOL     OW17461   4.634   0.051   9.950  0.1361 -0.5125 -0.1533
 2001SOL    HW117462   4.620   0.146   9.953  0.8304 -0.5010  2.8610
 2001SOL    HW217463   4.561   0.012   9.996 -0.1624 -0.6321 -0.7315
 2002SOL     OW17464   3.958   2.602  11.815  0.2173 -0.6083 -0.8547
 2002SOL    HW117465   3.927   2.530  11.870 -0.4913 -0.1784 -0.7053
 2002SOL    HW217466   4.042   2.564  11.789  0.8750 -0.7867  1.5572
 2003SOL     OW17467   3.015   4.140   7.296  0.4341 -0.3829 -0.7297
 2003SOL    HW117468   2.927   4.103   7.309  1.0565 -1.4520  0.4101
 2003SOL    HW217469   2.981   4.229   7.308 -0.6027 -0.8418 -0.2386
 2004SOL     OW17470   4.362   0.389   8.055  0.1894  0.1274  0.0926
 2004SOL    HW117471   4.426   0.324   8.084 -0.2941 -0.6504 -0.5848
 2004SOL    HW217472   4.288   0.358   8.107  1.1388 -2.5933 -0.1743
 2005SOL     OW17473   1.576   2.675   0.105  0.2968 -0.4977 -0.2547
 2005SOL    HW117474   1.575   2.599   0.046  1.2700 -0.8887  0.2317
 2005SOL    HW217475   1.499   2.664   0.161 -0.8968  1.6092 -1.4889
 2006SOL     OW17476   1.352   2.302  13.448  0.7334  0.2848 -0.6888
 2006SOL    HW117477   1.372   2.215  13.482 -0.1222 -0.4349 -2.0540
 2006SOL    HW217478   1.257   2.308  13.448  0.8999  2.9161 -0.3179
 2007SOL     OW17479   1.853   1.836   5.892  0.2546 -0.4896  0.0522
 2007SOL    HW117480   1.879   1.832   5.984 -0.2242  2.3589  0.3299
 2007SOL    HW217481   1.934   1.822   5.844  1.3758  2.1818  1.1253
 2008SOL     OW17482   2.013   2.333   3.135 -0.0540 -0.2272  0.2243
 2008SOL    HW117483   2.031   2.420   3.101  0.6022 -0.5686 -0.3310
 2008SOL    HW217484   2.096   2.287   3.153 -0.4736 -0.7979  0.6950
 2009SOL     OW17485   1.969   3.990   2.496 -0.5103  0.5746  0.1512
 2009SOL    HW117486   1.887   3.995   2.447 -0.2318  0.8403 -0.2921
 2009SOL    HW217487   2.026   3.960   2.425 -0.0662  0.1168  0.6991
 2010SOL     OW17488   0.477   3.748  15.638  0.6449 -0.0285  0.3425
 2010SOL    HW117489   0.451   3.721  15.726  0.0009 -0.8468 -0.1032
 2010SOL    HW217490   0.459   3.673  15.581  1.3091 -0.5144  0.7765
 2011SOL     OW17491   4.416   0.191   7.124  0.1080  0.5994  0.0117
 2011SOL    HW117492   4.463   0.185   7.041 -1.2000  0.9575 -0.7593
 2011SOL    HW217493   4.334   0.226   7.090  0.1003 -0.6490 -1.2670
 2012SOL     OW17494   2.401   0.383   8.554  0.0962  0.0662 -0.1509
 2012SOL    HW117495   2.317   0.421   8.529  0.2322  2.2650  2.7651
 2012SOL    HW217496   2.424   0.453   8.616  0.8544 -0.2184 -0.1136
 2013SOL     OW17497   1.704   4.613   9.953 -0.0900  0.3055 -0.3484
 2013SOL    HW117498   1.621   4.660   9.953  0.4156  1.1906 -1.7539
 2013SOL    HW217499   1.743   4.647   9.873  1.2230 -2.2274 -0.7835
 2014SOL     OW17500   3.332   2.806  15.406 -0.0765 -0.0630  0.4770
 2014SOL    HW117501   3.247   2.763  15.404 -0.2904  0.3027  1.6891
 2014SOL    HW217502   3.392   2.738  15.377  0.0822  0.5529 -0.6219
 2015SOL     OW17503   4.259   0.851  13.147 -0.6072 -0.0298 -0.2176
 2015SOL    HW117504   4.215   0.867  13.231  1.3793 -1.7843  1.1480
 2015SOL    HW217505   4.218   0.767  13.125  1.8537 -1.1300 -0.5843
 2016SOL     OW17506   1.650   2.421   5.444  0.5946  0.3288 -0.0630
 2016SOL    HW117507   1.582   2.461   5.389  2.8369  0.2340 -2.9332
 2016SOL    HW217508   1.618   2.437   5.532 -0.5099  0.4263 -0.4789
 2017SOL     OW17509   4.504   0.146   8.485  0.1727  0.1627  0.0547
 2017SOL    HW117510   4.492   0.241   8.483  1.8350  0.4157  1.7093
 2017SOL    HW217511   4.413   0.116   8.478  0.8005 -1.1624 -2.5946
 2018SOL     OW17512   2.491   2.147   2.482 -0.0196  0.4710 -0.1179
 2018SOL    HW117513   2.567   2.092   2.465  0.5488  0.8586  1.1468
 2018SOL    HW217514   2.414   2.098   2.452  1.7155 -1.8162 -0.7747
 2019SOL     OW17515   2.093   0.605  13.637 -0.2138 -0.1358 -0.3633
 2019SOL    HW117516   2.034   0.612  13.712 -0.8174 -0.4988 -0.8068
 2019SOL    HW217517   2.103   0.510  13.643  3.1947  0.3428  1.3134
 2020SOL     OW17518   2.632   3.039   4.856  0.4432  0.2475  0.0993
 2020SOL    HW117519   2.562   2.980   4.884 -1.1196  2.1861  0.2805
 2020SOL    HW217520   2.600   3.069   4.771  0.0826 -1.4217 -0.3597
 2021SOL     OW17521   2.490   1.829   7.016  0.5831  0.4633  0.3543
 2021SOL    HW117522   2.402   1.853   7.044  0.6005  2.0077 -0.8632
 2021SOL    HW217523   2.477   1.740   6.984  0.8300  0.3623  0.5438
 2022SOL     OW17524   0.071   4.247   6.862  0.0524  0.1731  0.1364
 2022SOL    HW117525   0.122   4.326   6.844  0.5199  0.2404  1.7491
 2022SOL    HW217526   4.708   4.293   6.871 -0.0479 -0.2929  1.6590
 2023SOL     OW17527   3.543   3.242  17.088  0.3368  0.2921 -0.2568
 2023SOL    HW117528   3.576   3.313  17.033 -1.8361  1.7059  0.2586
 2023SOL    HW217529   3.612   3.179  17.068  0.3588 -0.1375  1.1583
 2024SOL     OW17530   1.104   3.029   9.092  0.0100 -0.2559 -0.2985
 2024SOL    HW117531   1.092   2.935   9.079 -0.8873 -0.4644  2.2442
 2024SOL    HW217532   1.184   3.019   9.144 -1.5397 -0.6520  1.9944
 2025SOL     OW17533   2.735   3.476   1.189  0.0614 -0.4179  0.0912
 2025SOL    HW117534   2.764   3.453   1.101 -0.3367 -0.8505  0.0736
 2025SOL    HW217535   2.667   3.410   1.204 -0.3244  0.1270  0.7378
 2026SOL     OW17536   3.690   3.440   8.104 -0.2274 -0.0369  0.0345
 2026SOL    HW117537   3.645   3.523   8.087  2.6333  1.0022 -2.3872
 2026SOL    HW217538   3.619   3.392   8.148 -0.8650  1.6015  0.8198
 2027SOL     OW17539   3.485   2.908   6.337  0.5225  0.1119  0.3269
 2027SOL    HW117540   3.539   2.866   6.270  0.1436  3.9590 -2.3954
 2027SOL    HW217541   3.415   2.941   6.280  0.9498 -0.8131 -0.7166
 2028SOL     OW17542   4.374   0.868   7.016  0.3017  0.0533  0.3219
 2028SOL    HW117543   4.453   0.869   6.962  0.9599  0.7025  1.2882
 2028SOL    HW217544   4.316   0.836   6.948 -0.5516  1.3752  0.4236
 2029SOL     OW17545   2.447   3.891   9.162  0.2870 -0.1152 -0.1763
 2029SOL    HW117546   2.435   3.938   9.245 -1.2124 -0.3042 -0.2926
 2029SOL    HW217547   2.438   3.799   9.188  0.4752  0.0295  0.3976
 2030SOL     OW17548   2.606   3.430   9.225 -0.3498 -0.2310  0.0349
 2030SOL    HW117549   2.639   3.418   9.315  0.1113 -0.4360 -0.1593
 2030SOL    HW217550   2.584   3.340   9.201  1.8473 -0.5481 -0.7890
 2031SOL     OW17551   3.991   4.075   2.002 -0.0511  0.4867 -0.2696
 2031SOL    HW117552   4.053   4.079   1.930 -0.2869 -0.6995 -0.5387
 2031SOL    HW217553   3.901   4.087   1.970 -0.0134  1.7370  0.0674
 2032SOL     OW17554   2.887   2.758   3.296 -0.0309  0.1196  0.1667
 2032SOL    HW117555   2.886   2.663   3.284 -1.9887  0.0781  0.5563
 2032SOL    HW217556   2.813   2.783   3.241  1.1525  4.0833  0.3861
 2033SOL     OW17557   1.562   3.868   1.822 -0.7063 -0.2481 -0.2337
 2033SOL    HW117558   1.547   3.955   1.786 -0.7621 -1.4778 -3.2074
 2033SOL    HW217559   1.473   3.845   1.850 -0.1076 -0.3723  1.5222
 2034SOL     OW17560   1.527   2.778  15.313  0.0912 -0.1201  0.2962
 2034SOL    HW117561   1.558   2.723  15.385 -0.1073 -0.1521  0.3572
 2034SOL    HW217562   1.606   2.757  15.263  0.0495  0.7681 -0.1578
 2035SOL     OW17563   0.355   4.337   8.001 -0.3147 -0.1267 -0.1004
 2035SOL    HW117564   0.438   4.335   8.048  0.4886  0.1244 -1.4891
 2035SOL    HW217565   0.303   4.395   8.057 -0.0012 -1.2180  1.3061
 2036SOL     OW17566   0.359   2.083  12.747  0.4524  0.0953 -0.1557
 2036SOL    HW117567   0.451   2.099  12.771  0.9553 -1.2173 -1.2262
 2036SOL    HW217568   0.352   2.127  12.663  1.1118  0.4554 -0.0195
 2037SOL     OW17569   3.062   1.038   3.059 -0.6090  0.1117  0.0337
 2037SOL    HW117570   3.101   1.111   3.106 -1.6533 -0.2256  1.4270
 2037SOL    HW217571   3.000   1.001   3.122 -0.2865 -0.0706  0.2419
 2038SOL     OW17572   4.240   1.735   1.628 -0.0026 -0.0863  0.4145
 2038SOL    HW117573   4.220   1.699   1.714 -1.2610 -0.9041 -0.2232
 2038SOL    HW217574   4.305   1.677   1.589  0.6146  1.2035 -0.4927
 2039SOL     OW17575   2.430   0.380   4.112 -0.5473  0.0813 -0.5378
 2039SOL    HW117576   2.459   0.289   4.106  1.9705  0.9871 -2.2533
 2039SOL    HW217577   2.425   0.406   4.204  1.2657 -0.5064 -0.2591
 2040SOL     OW17578   0.934   3.909   4.208  0.6948  0.1409  0.5372
 2040SOL    HW117579   0.877   3.949   4.274  0.9383  0.2982  0.6512
 2040SOL    HW217580   0.902   3.820   4.226  0.4541  0.4505  1.6591
 2041SOL     OW17581   0.938   1.984   2.094 -0.5127  0.1355  0.2055
 2041SOL    HW117582   0.937   1.989   1.999 -0.1984 -0.7036  0.1493
 2041SOL    HW217583   0.865   2.039   2.123  0.2004  1.0643  0.2036
 2042SOL     OW17584   0.606   2.378   8.450  0.3039  0.2157  0.6974
 2042SOL    HW117585   0.659   2.457   8.436  0.7814  0.0267  1.4754
 2042SOL    HW217586   0.516   2.409   8.442  0.7944  1.0631 -1.6147
 2043SOL     OW17587   3.441   4.579  14.642 -0.0851 -0.4304  0.0971
 2043SOL    HW117588   3.470   4.563  14.732 -0.7835 -0.8921  0.2349
 2043SOL    HW217589   3.442   4.493  14.599  0.3628 -0.1701 -0.4133
 2044SOL     OW17590   0.083   1.992   4.597  0.4926  0.0290  0.2381
 2044SOL    HW117591   0.171   1.969   4.626  0.7527 -0.0768 -0.6322
 2044SOL    HW217592   0.089   1.978   4.502  1.4742  0.1006  0.2897
 2045SOL     OW17593   4.006   2.460   4.719  0.5875 -0.8054  0.0044
 2045SOL    HW117594   4.010   2.556   4.721 -1.7303 -0.7225  0.2197
 2045SOL    HW217595   4.097   2.432   4.730  1.0034  0.7253  0.3724
 2046SOL     OW17596   2.112   3.388   0.662 -0.8591 -0.0249 -0.1780
 2046SOL    HW117597   2.204   3.363   0.661 -1.0531 -0.7513 -0.1829
 2046SOL    HW217598   2.089   3.345   0.579  1.4098 -1.1561 -0.2204
 2047SOL     OW17599   4.115   1.494   4.364 -0.1186  0.5153 -0.1943
 2047SOL    HW117600   4.116   1.444   4.282  0.0332  0.1411  0.0350
 2047SOL    HW217601   4.072   1.578   4.346 -1.2930 -0.4408 -1.8693
 2048SOL     OW17602   3.909   3.365   8.907 -0.4590  0.0983  0.2759
 2048SOL    HW117603   3.832   3.342   8.854 -0.2070  0.5172 -0.2720
 2048SOL    HW217604   3.984   3.375   8.848  0.7535  0.5269  1.8935
 2049SOL     OW17605   4.498   0.182  15.588  0.7647 -0.0039  0.0487
 2049SOL    HW117606   4.423   0.151  15.639 -0.2456  0.5592 -1.0978
 2049SOL    HW217607   4.498   0.121  15.515  2.1525  1.3547 -1.0710
 2050SOL     OW17608   4.324   2.051   5.005  0.3347  0.3052 -0.2461
 2050SOL    HW117609   4.324   2.144   4.981  1.0774  0.0848 -1.0759
 2050SOL    HW217610   4.261   2.055   5.077  0.2349  0.5313 -0.3462
 2051SOL     OW17611   0.231   4.612  10.424  0.2091  0.3141 -0.1165
 2051SOL    HW117612   0.162   4.673  10.453 -0.2696 -0.2681 -0.0217
 2051SOL    HW217613   0.272   4.574  10.502 -2.3755  1.3802  1.7998
 2052SOL     OW17614   1.240   3.492   0.236 -0.0000  0.3078  1.1381
 2052SOL    HW117615   1.161   3.543   0.214 -0.8259 -0.8579  1.3819
 2052SOL    HW217616   1.204   3.404   0.250  0.9315 -0.4485 -1.3179
 2053SOL     OW17617   1.916   2.923   7.808 -0.2355  0.7089  0.0493
 2053SOL    HW117618   1.835   2.955   7.768  0.5128  0.9087 -1.3026
 2053SOL    HW217619   1.960   2.873   7.739 -0.4848  0.0962  0.3300
 2054SOL     OW17620   3.850   3.731   5.599 -0.0423 -0.0071  0.9588
 2054SOL    HW117621   3.867   3.792   5.671 -1.1112 -1.2458  2.2326
 2054SOL    HW217622   3.941   3.728   5.568 -0.0266 -0.3341  1.0388
 2055SOL     OW17623   0.226   1.860   9.517  0.3436 -0.0558 -0.3701
 2055SOL    HW117624   0.241   1.953   9.535 -0.1609  0.2998 -1.7538
 2055SOL    HW217625   0.145   1.852   9.567  1.7358 -3.8406  1.2707
 2056SOL     OW17626   1.591   3.070   8.296  0.5939 -0.5603  0.5803
 2056SOL    HW117627   1.623   3.160   8.298  1.3622 -0.7911 -1.8473
 2056SOL    HW217628   1.619   3.034   8.380  3.0617 -0.2395 -0.1070
 2057SOL     OW17629   3.696   0.775   6.689 -0.7398 -0.2707 -0.1469
 2057SOL    HW117630   3.776   0.806   6.647 -1.4457  0.6279 -0.8380
 2057SOL    HW217631   3.634   0.845   6.667  0.1165 -0.3099 -2.6571
 2058SOL     OW17632   3.388   0.261   2.833  0.3252 -0.5659 -0.5459
 2058SOL    HW117633   3.441   0.182   2.826  0.8756 -0.2314 -0.1246
 2058SOL    HW217634   3.323   0.240   2.767 -1.4208  0.0672  0.9746
 2059SOL     OW17635   0.168   1.676   4.911  0.0735  0.0944 -0.0161
 2059SOL    HW117636   0.074   1.673   4.927 -0.2679  0.9953 -1.7852
 2059SOL    HW217637   0.182   1.687   4.817  0.7318 -1.1095 -0.0526
 2060SOL     OW17638   0.602   0.152  11.351  0.0587  0.0840  0.3390
 2060SOL    HW117639   0.589   0.068  11.395 -0.9462 -1.1780 -2.3365
 2060SOL    HW217640   0.571   0.217  11.413 -1.7278 -0.8932  0.4761
 2061SOL     OW17641   0.230   3.301   3.202  0.0687  0.5969 -0.5887
 2061SOL    HW117642   0.146   3.338   3.228  0.1541 -0.2782  0.9667
 2061SOL    HW217643   0.217   3.286   3.108  3.2427  1.4350 -1.1765
 2062SOL     OW17644   1.006   1.639  13.503  0.3250 -0.0604 -0.2460
 2062SOL    HW117645   0.911   1.637  13.497  0.2825  2.9289 -0.9156
 2062SOL    HW217646   1.022   1.553  13.540 -0.6280 -0.1890 -0.1303
 2063SOL     OW17647   0.521   4.323   1.660 -0.0333 -0.3482 -0.1319
 2063SOL    HW117648   0.448   4.337   1.600  0.5544  2.1126 -0.2559
 2063SOL    HW217649   0.592   4.342   1.598  0.0441 -0.5680 -0.1109
 2064SOL     OW17650   0.008   4.671  14.704 -0.4219 -0.1599 -0.5281
 2064SOL    HW117651   4.702   0.042  14.691  0.4774 -0.1395 -2.2311
 2064SOL    HW217652   4.716   4.632  14.617 -0.8543  1.5809 -1.2439
 2065SOL     OW17653   3.388   3.736  15.381  0.2758 -0.3762  0.6113
 2065SOL    HW117654   3.427   3.787  15.453  0.5737 -0.4231  0.4831
 2065SOL    HW217655   3.345   3.668  15.433  0.1360 -0.3963  0.4675
 2066SOL     OW17656   1.826   3.617   1.292 -0.0605  0.7874  0.5569
 2066SOL    HW117657   1.802   3.550   1.356 -1.6703 -0.5308 -1.4061
 2066SOL    HW217658   1.742   3.662   1.286  0.1173  0.8608 -1.4982
 2067SOL     OW17659   2.850   2.087   2.825 -0.1154  0.4118  0.4302
 2067SOL    HW117660   2.905   2.056   2.753 -0.0496 -0.0412  0.6784
 2067SOL    HW217661   2.782   2.020   2.824  1.1352 -0.8750  1.9467
 2068SOL     OW17662   4.651   1.418   3.960 -0.3266 -0.1609  0.4273
 2068SOL    HW117663   4.623   1.482   3.895  0.9618  0.7761  0.7996
 2068SOL    HW217664   0.024   1.423   3.940 -0.0580  1.1597  2.0653
 2069SOL     OW17665   3.728   2.526   1.573 -0.0234 -0.3043  0.0382
 2069SOL    HW117666   3.688   2.608   1.601  1.5054  0.4105  0.1033
 2069SOL    HW217667   3.719   2.541   1.479  0.8323 -0.7542 -0.1160
 2070SOL     OW17668   2.170   0.759   3.519  0.1400  0.4568 -0.4296
 2070SOL    HW117669   2.193   0.845   3.554 -2.1684  1.9833 -2.6409
 2070SOL    HW217670   2.142   0.794   3.434  0.1829  0.4973 -0.4267
 2071SOL     OW17671   3.523   2.068  14.975  0.1797 -0.2128 -0.2465
 2071SOL    HW117672   3.490   1.992  14.926  0.5203 -0.2225 -0.4581
 2071SOL    HW217673   3.477   2.057  15.058  0.4961 -1.1755 -0.1994
 2072SOL     OW17674   1.830   4.137   7.089 -0.1381 -0.5013  0.7256
 2072SOL    HW117675   1.905   4.130   7.149  1.2616 -0.7149 -1.0574
 2072SOL    HW217676   1.841   4.212   7.031 -1.0458 -0.4261  0.6524
 2073SOL     OW17677   0.802   2.797   7.196  0.1961 -0.0534 -0.4650
 2073SOL    HW117678   0.874   2.830   7.143 -0.0535 -2.9396 -2.5697
 2073SOL    HW217679   0.753   2.879   7.206 -0.2851 -0.5448  1.1335
 2074SOL     OW17680   2.375   1.528   8.740 -0.6782 -0.0046  0.1386
 2074SOL    HW117681   2.421   1.567   8.815 -3.1467 -1.0119  2.1759
 2074SOL    HW217682   2.403   1.437   8.733 -0.6755 -0.0420  0.6393
 2075SOL     OW17683   0.820   2.429   6.832  0.1085 -0.3881 -0.9741
 2075SOL    HW117684   0.771   2.351   6.856 -0.0229 -0.5623 -1.7945
 2075SOL    HW217685   0.771   2.470   6.760 -0.9791  1.6112  0.9168
 2076SOL     OW17686   2.918   0.774  12.936 -0.1902  0.0087  0.3262
 2076SOL    HW117687   2.863   0.829  12.880  0.9335  0.9937  0.1919
 2076SOL    HW217688   2.874   0.689  12.936 -1.6153  0.7435  0.3411
 2077SOL     OW17689   0.751   4.458   3.134  0.1842  0.7529  0.5260
 2077SOL    HW117690   0.678   4.514   3.160 -0.7378 -1.1323  2.0254
 2077SOL    HW217691   0.771   4.483   3.044  1.7954  0.3820  0.7889
 2078SOL     OW17692   3.653   1.418  14.595  0.6370  0.6270  0.6678
 2078SOL    HW117693   3.653   1.326  14.619  3.2844  0.0689 -1.5739
 2078SOL    HW217694   3.717   1.450  14.659 -0.0358  2.1145  0.6098
 2079SOL     OW17695   2.879   1.573   0.429  0.4737  0.1667 -0.0311
 2079SOL    HW117696   2.891   1.524   0.348 -0.7579  0.2728 -0.2688
 2079SOL    HW217697   2.899   1.656   0.385 -0.5925 -0.1731 -1.1545
 2080SOL     OW17698   3.945   4.342   2.899 -0.1827 -0.4936  0.0167
 2080SOL    HW117699   3.936   4.299   2.984 -1.5382  1.0590  0.6491
 2080SOL    HW217700   3.865   4.320   2.851 -0.1256  1.7354 -1.0718
 2081SOL     OW17701   1.744   4.170  10.087  0.6178 -0.3304 -0.0722
 2081SOL    HW117702   1.839   4.177  10.072  0.7323 -0.0513  0.7954
 2081SOL    HW217703   1.705   4.240  10.035 -2.1927  0.6388  3.4078
 2082SOL     OW17704   1.237   3.592   6.273  1.1466  0.0351 -0.6140
 2082SOL    HW117705   1.180   3.518   6.294  1.4520 -0.2295 -0.7103
 2082SOL    HW217706   1.286   3.551   6.202  0.4582  0.6125 -1.4129
 2083SOL     OW17707   0.533   3.846   5.067 -0.5979  0.1782  0.0290
 2083SOL    HW117708   0.591   3.923   5.063 -1.4640  0.9639  2.9301
 2083SOL    HW217709   0.568   3.795   5.140 -0.6782 -1.3200 -0.9871
 2084SOL     OW17710   3.035   1.201  12.367  0.0690 -0.4637  0.1042
 2084SOL    HW117711   2.988   1.125  12.332  0.5202 -0.1449 -1.1812
 2084SOL    HW217712   2.981   1.225  12.442  0.6582  0.7481  0.1381
 2085SOL     OW17713   3.918   2.251   8.528  0.0601  0.1638 -0.7487
 2085SOL    HW117714   3.832   2.249   8.570  0.6917  0.1586  0.5328
 2085SOL    HW217715   3.896   2.198   8.451  0.3562 -1.5935  0.3963
 2086SOL     OW17716   2.699   2.495  15.315  0.2423  0.3301 -0.2853
 2086SOL    HW117717   2.606   2.486  15.292  0.3397  3.7736 -2.1786
 2086SOL    HW217718   2.739   2.416  15.280 -1.9519  0.1595 -2.4039
 2087SOL     OW17719   4.528   1.194  13.241  0.3110  0.4435 -0.1052
 2087SOL    HW117720   4.563   1.210  13.153  0.5278 -0.9435 -0.2714
 2087SOL    HW217721   4.473   1.116  13.231  0.7346  0.0152  0.9336
 2088SOL     OW17722   0.428   0.550   5.396 -0.2169 -0.1169  0.4578
 2088SOL    HW117723   0.486   0.497   5.451 -1.6410 -1.8179  0.3089
 2088SOL    HW217724   0.399   0.483   5.334  1.3489  1.2777 -1.7708
 2089SOL     OW17725   1.999   1.405   3.038  0.3088  0.3885  0.7683
 2089SOL    HW117726   1.916   1.449   3.023  0.2055  0.7633  2.4630
 2089SOL    HW217727   2.027   1.406   2.947 -1.5836 -1.1147  0.1672
 2090SOL     OW17728   0.472   3.800  10.486  0.2222 -0.3785  0.2862
 2090SOL    HW117729   0.519   3.783  10.404  0.0957 -0.9021  0.3172
 2090SOL    HW217730   0.487   3.716  10.530  1.3408  0.2404  1.0756
 2091SOL     OW17731   3.572   0.825   7.948 -0.2306  0.0674 -0.1750
 2091SOL    HW117732   3.599   0.849   7.860  1.3894  1.4263  0.6780
 2091SOL    HW217733   3.477   0.814   7.944 -0.5532  2.1819  1.5200
 2092SOL     OW17734   0.185   0.064   5.968 -0.2008 -0.3574 -0.2878
 2092SOL    HW117735   0.199   0.093   6.059 -1.6267 -3.2243  0.8274
 2092SOL    HW217736   0.105   0.110   5.943  1.0983  0.8963 -2.1664
 2093SOL     OW17737   0.414   3.999  15.491 -0.1448 -0.3678  0.3999
 2093SOL    HW117738   0.375   4.033  15.571  0.5791 -0.2959  0.7256
 2093SOL    HW217739   0.444   3.914  15.524  0.9338 -0.6602 -1.3342
 2094SOL     OW17740   1.243   1.146   0.223  0.5654 -0.1287  0.3101
 2094SOL    HW117741   1.251   1.070   0.281 -0.3178  0.5342  1.3001
 2094SOL    HW217742   1.298   1.112   0.153  1.7736  1.1869  0.6225
 2095SOL     OW17743   2.921   0.892   5.412  0.1683 -0.1009 -0.6285
 2095SOL    HW117744   2.848   0.943   5.376  1.0337  2.1869  0.8302
 2095SOL    HW217745   2.900   0.814   5.360  0.9426 -0.2814 -0.6629
 2096SOL     OW17746   3.392   0.148  11.470 -0.2854  0.2705 -0.2271
 2096SOL    HW117747   3.337   0.200  11.528  1.1523  0.8303  0.6409
 2096SOL    HW217748   3.441   0.221  11.433 -0.8598 -0.0733 -1.6718
 2097SOL     OW17749   1.668   3.795   5.500 -0.1172 -0.6475 -0.3184
 2097SOL    HW117750   1.581   3.798   5.541  0.4257 -0.0069  0.8161
 2097SOL    HW217751   1.668   3.711   5.455  0.0241 -0.9552  0.2476
 2098SOL     OW17752   0.509   2.454   6.953  0.7197  0.0583  0.1483
 2098SOL    HW117753   0.565   2.377   6.950  2.0845  1.1028 -0.9225
 2098SOL    HW217754   0.484   2.466   6.861  1.1175 -2.8709 -0.3423
 2099SOL     OW17755   0.299   1.283   8.851  0.0137 -0.9316 -0.0345
 2099SOL    HW117756   0.309   1.359   8.794  0.7912 -1.1439 -0.1911
 2099SOL    HW217757   0.231   1.312   8.911  0.4414  0.0976 -0.0523
 2100SOL     OW17758   2.826   3.247   6.404  0.0545  0.0612 -0.4259
 2100SOL    HW117759   2.785   3.280   6.325 -1.5023 -2.1730 -0.5171
 2100SOL    HW217760   2.752   3.205   6.447 -0.5135  0.8790 -0.5976
 2101SOL     OW17761   0.724   4.431   6.356 -0.2119 -0.2665 -0.2877
 2101SOL    HW117762   0.681   4.345   6.358  0.2759 -0.5103 -0.0487
 2101SOL    HW217763   0.656   4.476   6.307  0.8424 -0.4222 -1.9052
 2102SOL     OW17764   3.317   4.539  15.762  0.6075  0.8384 -0.7494
 2102SOL    HW117765   3.313   4.444  15.753  1.5463  0.7641 -0.3541
 2102SOL    HW217766   3.351   4.549  15.851 -1.4989  1.2597  0.0056
 2103SOL     OW17767   0.657   1.820   2.839  0.0723 -0.4353 -0.2870
 2103SOL    HW117768   0.620   1.869   2.765 -1.2025  0.4232  0.9199
 2103SOL    HW217769   0.715   1.757   2.795  1.6322  0.9228 -0.1803
 2104SOL     OW17770   3.528   4.020  11.894 -0.1359  0.3522 -0.1680
 2104SOL    HW117771   3.451   4.041  11.947  1.1094  3.3094  0.4708
 2104SOL    HW217772   3.546   3.932  11.925 -1.0327  0.3035  0.2241
 2105SOL     OW17773   3.692   0.921   4.894  0.0048  0.0521 -0.2289
 2105SOL    HW117774   3.641   0.855   4.940 -1.4707  0.3800 -1.3805
 2105SOL    HW217775   3.635   0.940   4.820 -1.5529 -0.1281  0.9320
 2106SOL     OW17776   3.061   3.324   8.406  0.4579 -0.1495  0.5984
 2106SOL    HW117777   3.018   3.409   8.406  2.1494  0.6964  1.0285
 2106SOL    HW217778   3.019   3.277   8.478  1.3342 -1.6990  0.1219
 2107SOL     OW17779   4.390   1.309  16.453  0.1050 -0.0875 -0.4406
 2107SOL    HW117780   4.384   1.356  16.370 -2.5854  0.3391 -0.0298
 2107SOL    HW217781   4.480   1.278  16.446 -0.2663 -0.6782 -2.8309
 2108SOL     OW17782   0.226   4.370   1.813 -0.2834  0.1968 -0.4034
 2108SOL    HW117783   0.197   4.452   1.852  0.7590  0.7199 -0.7272
 2108SOL    HW217784   0.321   4.375   1.827 -0.1151 -1.0473 -1.0544
 2109SOL     OW17785   3.658   3.103   2.362  0.0773 -0.2907  0.4334
 2109SOL    HW117786   3.750   3.108   2.389  0.2205  1.6749 -0.3975
 2109SOL    HW217787   3.622   3.112   2.450 -3.1335 -2.3789 -0.6802
 2110SOL     OW17788   4.391   0.228   7.544  0.4292  0.1391 -0.3842
 2110SOL    HW117789   4.319   0.268   7.495 -1.9434 -3.0675  0.5183
 2110SOL    HW217790   4.369   0.264   7.631 -0.1986  1.4773 -1.0897
 2111SOL     OW17791   4.601   3.704   9.249 -0.3696  0.2400 -0.5833
 2111SOL    HW117792   4.670   3.657   9.203 -0.6391  1.0675 -1.8156
 2111SOL    HW217793   4.591   3.632   9.311  1.6890  0.0819 -0.4511
 2112SOL     OW17794   1.524   3.647  10.790  0.1715 -0.2166  0.1111
 2112SOL    HW117795   1.490   3.628  10.878  0.1978 -1.6209 -0.1833
 2112SOL    HW217796   1.442   3.672  10.748  0.7240  0.0437 -0.8108
 2113SOL     OW17797   3.672   1.501   3.179 -0.1928 -0.0261 -0.0385
 2113SOL    HW117798   3.631   1.546   3.253 -2.0851 -0.9681 -0.5162
 2113SOL    HW217799   3.624   1.418   3.179  0.2383 -0.2751  2.0609
 2114SOL     OW17800   1.381   2.905   7.096  0.5195 -0.6266 -0.3560
 2114SOL    HW117801   1.473   2.926   7.084  0.0732  2.8996  2.3522
 2114SOL    HW217802   1.353   2.974   7.156  1.0872 -0.0795 -0.7195
 2115SOL     OW17803   2.625   4.585   3.044 -0.0413 -0.1386  0.2513
 2115SOL    HW117804   2.709   4.631   3.042 -0.0423 -0.1035  1.4109
 2115SOL    HW217805   2.564   4.658   3.046  1.1576  0.9251 -1.7037
 2116SOL     OW17806   0.007   3.534  17.257  0.6396 -0.1139 -0.2210
 2116SOL    HW117807   4.685   3.498  17.335  0.9312  0.5742  0.2553
 2116SOL    HW217808   4.691   3.479  17.188  1.2962 -2.6237  1.4359
 2117SOL     OW17809   1.025   0.759  13.823 -0.3652 -0.7267 -0.5201
 2117SOL    HW117810   0.998   0.706  13.898 -0.4068  0.2089  0.1253
 2117SOL    HW217811   1.116   0.770  13.850 -0.9867  0.4485  1.0946
 2118SOL     OW17812   2.288   0.608   0.579  0.1721 -0.2642 -0.2730
 2118SOL    HW117813   2.207   0.652   0.553 -0.0921  0.4804  1.8765
 2118SOL    HW217814   2.353   0.675   0.559 -1.9023  1.8193  0.0082
 2119SOL     OW17815   3.761   0.403   4.331 -0.0676 -0.5840 -0.0328
 2119SOL    HW117816   3.686   0.348   4.310  1.1172 -1.4714 -1.8992
 2119SOL    HW217817   3.832   0.340   4.345  0.0820 -0.8716 -2.0993
 2120SOL     OW17818   3.661   1.307   2.823 -0.0849 -0.3688  0.2298
 2120SOL    HW117819   3.602   1.247   2.869 -1.1909 -0.7265 -1.6517
 2120SOL    HW217820   3.595   1.351   2.770  0.4772 -0.3310 -0.4355
 2121SOL     OW17821   2.827   2.338  11.063  0.2540 -0.4063  0.2774
 2121SOL    HW117822   2.830   2.413  11.004  1.3225 -0.4648  0.2526
 2121SOL    HW217823   2.839   2.265  11.002  1.7904 -1.3601  1.6921
 2122SOL     OW17824   2.302   1.285   2.308  0.2844  0.1954  0.0689
 2122SOL    HW117825   2.350   1.214   2.351  1.3082  1.3064  0.7710
 2122SOL    HW217826   2.285   1.343   2.382  0.3972 -0.6032  0.7251
 2123SOL     OW17827   3.152   1.333   8.805  0.7964 -0.0854  0.5036
 2123SOL    HW117828   3.200   1.283   8.739 -0.9215  0.0920 -0.8567
 2123SOL    HW217829   3.146   1.270   8.877 -0.9757 -1.1793 -0.6301
 2124SOL     OW17830   0.699   0.038  11.112  0.4689  0.4104  0.0151
 2124SOL    HW117831   0.676   4.679  11.160 -2.6609 -0.0657 -2.2525
 2124SOL    HW217832   0.680   0.107  11.176 -2.1800 -1.3920  1.1316
 2125SOL     OW17833   1.727   3.951  14.390 -0.2495 -0.1327  0.3567
 2125SOL    HW117834   1.788   3.925  14.321  0.4965  0.1500  0.9113
 2125SOL    HW217835   1.769   3.915  14.468 -0.3039 -0.6180  0.1622
 2126SOL     OW17836   1.475   3.029   1.808 -0.0283 -0.1187  0.6908
 2126SOL    HW117837   1.520   2.945   1.798  1.5496  0.5441  2.1386
 2126SOL    HW217838   1.387   3.017   1.771 -0.2262 -1.0595  1.4690
 2127SOL     OW17839   4.392   1.184   8.874  0.1381 -0.1269  0.1188
 2127SOL    HW117840   4.340   1.106   8.895 -0.3216  0.3867  0.8790
 2127SOL    HW217841   4.325   1.251   8.870 -0.9339 -1.1589  0.5925
 2128SOL     OW17842   3.233   1.894   9.453  0.0907 -0.0587 -0.7010
 2128SOL    HW117843   3.145   1.915   9.423  0.3843  4.0139  1.2666
 2128SOL    HW217844   3.208   1.835   9.524 -1.9677  0.5324 -0.9269
 2129SOL     OW17845   0.026   0.508   7.356  0.8119  0.9506  0.3659
 2129SOL    HW117846   4.680   0.514   7.425 -0.4290  1.0997 -0.8596
 2129SOL    HW217847   4.685   0.462   7.300 -1.3675  1.6025  2.2037
 2130SOL     OW17848   2.613   2.029   6.847  0.8080  0.4136  0.1731
 2130SOL    HW117849   2.699   1.995   6.874  0.4931 -2.2158 -2.0756
 2130SOL    HW217850   2.563   1.982   6.914  0.4590 -0.6238 -0.8104
 2131SOL     OW17851   3.384   1.994   4.589 -0.5373 -0.4411 -0.1965
 2131SOL    HW117852   3.290   1.984   4.604 -0.4467  1.6907  1.7856
 2131SOL    HW217853   3.381   2.080   4.547 -1.7511 -1.0851 -1.4212
 2132SOL     OW17854   1.020   3.427  16.037 -0.9514 -0.5993  0.1615
 2132SOL    HW117855   0.954   3.471  15.984 -1.3695 -1.5272 -0.0740
 2132SOL    HW217856   0.981   3.344  16.061  0.1914 -1.0534  0.4831
 2133SOL     OW17857   2.172   2.113   6.925 -0.0582 -0.2111 -0.0509
 2133SOL    HW117858   2.188   2.049   6.994 -0.7717 -0.6826 -0.3220
 2133SOL    HW217859   2.137   2.190   6.970 -0.1510  0.3036 -0.9995
 2134SOL     OW17860   1.172   2.002   8.967 -0.4769  0.3222 -0.0083
 2134SOL    HW117861   1.247   1.957   8.929 -1.7979 -0.8635 -1.2231
 2134SOL    HW217862   1.122   1.929   9.003 -1.0406  0.1398 -1.1518
 2135SOL     OW17863   1.381   4.199   3.555  0.1364  0.3508 -0.5388
 2135SOL    HW117864   1.382   4.230   3.464  2.8425 -0.5333 -0.8086
 2135SOL    HW217865   1.298   4.235   3.587 -0.5286  0.0988 -1.9804
 2136SOL     OW17866   1.372   0.032   2.591 -0.3543  0.1483 -0.5714
 2136SOL    HW117867   1.408   0.077   2.667 -0.6326 -2.2905  1.0020
 2136SOL    HW217868   1.430   0.063   2.521 -1.8831  0.5774 -1.6465
 2137SOL     OW17869   0.175   2.712   3.464  0.4409  0.4779 -0.2431
 2137SOL    HW117870   0.094   2.661   3.458  1.1294 -0.5424 -0.7569
 2137SOL    HW217871   0.217   2.685   3.383 -2.2236 -1.4753 -0.9805
 2138SOL     OW17872   4.619   3.901   6.675  0.1069 -0.6322  0.1394
 2138SOL    HW117873   4.561   3.975   6.694 -1.5676 -1.6921 -0.9314
 2138SOL    HW217874   4.689   3.927   6.735  0.4475  0.3526 -0.6894
 2139SOL     OW17875   4.606   0.815   5.044  0.6271  0.2799 -0.6282
 2139SOL    HW117876   4.665   0.802   4.969  0.4730 -1.5992 -0.4093
 2139SOL    HW217877   4.612   0.739   5.101  0.0848 -0.1289 -1.1121
 2140SOL     OW17878   0.525   3.134   8.011  0.1460  0.0418  0.0469
 2140SOL    HW117879   0.618   3.111   8.013 -0.3904 -2.1177  0.6868
 2140SOL    HW217880   0.532   3.224   8.042 -0.7091  0.7273 -1.8422
 2141SOL     OW17881   3.947   2.703   9.690  0.3677 -0.1093  0.6784
 2141SOL    HW117882   3.865   2.730   9.649  0.6467 -1.3053 -0.6839
 2141SOL    HW217883   4.009   2.775   9.678 -0.8977  0.6511 -1.3543
 2142SOL     OW17884   3.756   4.594   7.847 -0.5230  0.2856 -0.3369
 2142SOL    HW117885   3.749   4.499   7.838  1.2872  0.3314 -2.1683
 2142SOL    HW217886   3.684   4.620   7.790 -2.0667 -0.5706  1.2207
 2143SOL     OW17887   0.896   1.622   9.750  0.1839 -0.7206 -0.4155
 2143SOL    HW117888   0.864   1.706   9.717 -0.4933 -1.3023 -1.2286
 2143SOL    HW217889   0.986   1.652   9.761  0.1692 -0.6307 -0.5435
 2144SOL     OW17890   1.572   1.487  10.607  0.2650 -0.0172  0.0349
 2144SOL    HW117891   1.505   1.527  10.662  0.0951 -0.5783  0.2363
 2144SOL    HW217892   1.647   1.507  10.663  0.4269 -3.1039  0.9425
 2145SOL     OW17893   2.666   0.425   2.377 -0.3345  0.3713 -0.0320
 2145SOL    HW117894   2.751   0.395   2.345  0.7707  2.1661  1.2197
 2145SOL    HW217895   2.630   0.454   2.293 -0.2059 -0.0511 -0.2371
 2146SOL     OW17896   3.848   4.720  14.887  0.1190 -0.0041 -0.0010
 2146SOL    HW117897   3.782   0.065  14.867 -0.4461 -0.4387  0.4522
 2146SOL    HW217898   3.866   4.665  14.811 -1.0624 -1.1024  0.5151
 2147SOL     OW17899   0.641   3.503   7.749  0.0560 -0.1866  0.1736
 2147SOL    HW117900   0.567   3.558   7.774  0.3252 -0.1359  0.8633
 2147SOL    HW217901   0.670   3.480   7.837  2.7386 -0.3265 -0.7365
 2148SOL     OW17902   1.708   1.704   6.221  0.6178 -0.0575 -0.0467
 2148SOL    HW117903   1.793   1.745   6.210  0.5718 -0.1324 -0.6956
 2148SOL    HW217904   1.691   1.678   6.130  0.7207 -0.7063  0.1155
 2149SOL     OW17905   2.181   4.593   6.470  0.1971  0.2362  0.6307
 2149SOL    HW117906   2.222   4.548   6.545 -0.6935 -1.3938  0.1551
 2149SOL    HW217907   2.209   4.682   6.492  1.4684  0.2275 -0.9072
 2150SOL     OW17908   4.199   0.149   8.209  0.2700 -0.1459  0.1584
 2150SOL    HW117909   4.202   0.054   8.223 -0.6395  0.0170  1.4888
 2150SOL    HW217910   4.232   0.169   8.297 -1.2430 -1.5193  1.0387
 2151SOL     OW17911   0.020   4.226   8.122 -0.1675  0.7225  0.0267
 2151SOL    HW117912   0.072   4.225   8.202  0.3049  2.0086 -0.2654
 2151SOL    HW217913   4.651   4.199   8.142 -0.3754  0.8434 -0.7360
 2152SOL     OW17914   0.658   2.678   3.822 -0.0380  0.3451  0.0832
 2152SOL    HW117915   0.709   2.655   3.900 -0.7732  1.0172  0.7563
 2152SOL    HW217916   0.570   2.692   3.857  0.7232  1.6020  1.4822
 2153SOL     OW17917   1.167   2.553   5.538  0.1618  0.4932 -0.4124
 2153SOL    HW117918   1.097   2.524   5.597 -0.0444  1.3580 -0.2226
 2153SOL    HW217919   1.120   2.549   5.455  2.2800  1.3068 -1.6651
 2154SOL     OW17920   2.064   4.608   2.026  0.0127 -0.3021 -0.2689
 2154SOL    HW117921   2.108   4.528   1.996  1.4901  0.2973  0.2839
 2154SOL    HW217922   1.991   4.604   1.964 -0.5694  0.1310  0.4063
 2155SOL     OW17923   3.155   3.897   8.077  0.6358 -0.3842 -0.1464
 2155SOL    HW117924   3.170   3.807   8.047  2.0499 -0.1683 -0.0777
 2155SOL    HW217925   3.103   3.892   8.157  0.5265 -0.4229 -0.2190
 2156SOL     OW17926   0.707   1.457   6.996 -0.1652 -0.2169  0.4014
 2156SOL    HW117927   0.789   1.429   7.036 -0.7348 -0.0235  1.7206
 2156SOL    HW217928   0.701   1.547   7.027 -2.8268 -0.6254  1.1145
 2157SOL     OW17929   1.561   1.328   4.860 -0.8949  0.5421  0.2525
 2157SOL    HW117930   1.634   1.374   4.902 -0.1216  0.0203 -0.5040
 2157SOL    HW217931   1.524   1.395   4.802  0.0615  0.7045 -0.1803
 2158SOL     OW17932   2.803   1.929  12.267  0.1242 -0.1773  0.4878
 2158SOL    HW117933   2.773   1.928  12.358  0.0603 -3.5050  0.4043
 2158SOL    HW217934   2.894   1.953  12.283 -0.2228  1.7299 -0.3631
 2159SOL     OW17935   0.102   3.297  12.580 -0.2053  0.0349 -0.4878
 2159SOL    HW117936   0.076   3.230  12.644 -0.3592  0.0342 -0.5517
 2159SOL    HW217937   0.131   3.366  12.639 -1.6673  1.4864 -1.4634
 2160SOL     OW17938   1.399   0.961   5.660  0.5926 -0.7308 -0.3188
 2160SOL    HW117939   1.448   0.906   5.721 -0.7632 -1.4963  0.0880
 2160SOL    HW217940   1.315   0.972   5.705 -0.3624 -0.6257 -2.1652
 2161SOL     OW17941   4.150   1.919   0.068 -0.6954 -0.0429  0.1340
 2161SOL    HW117942   4.130   1.939   0.159  2.2905 -1.5923  1.1098
 2161SOL    HW217943   4.190   1.832   0.069  1.2371  0.8006 -2.7005
 2162SOL     OW17944   0.271   0.155   6.766  0.2132 -0.3447 -0.0412
 2162SOL    HW117945   0.314   0.220   6.822  3.0506 -0.3390 -2.2258
 2162SOL    HW217946   0.348   0.124   6.718  0.4571 -0.7055  0.5755
 2163SOL     OW17947   2.395   3.623   2.668 -0.1735  0.1978 -0.3621
 2163SOL    HW117948   2.454   3.697   2.649  0.0667  1.0131  3.5696
 2163SOL    HW217949   2.313   3.663   2.696 -0.6117  0.4438 -2.0153
 2164SOL     OW17950   1.733   4.099  16.608 -0.6010  0.6069 -0.1324
 2164SOL    HW117951   1.798   4.047  16.655 -1.8340 -0.9173 -0.1148
 2164SOL    HW217952   1.704   4.047  16.532 -1.2784  0.6523  0.0980
 2165SOL     OW17953   4.475   1.684  16.796 -0.3251  0.2968 -0.2007
 2165SOL    HW117954   4.481   1.638  16.880  1.0966  0.3162 -0.2941
 2165SOL    HW217955   4.568   1.694  16.779 -0.2147  0.6560  0.6423
 2166SOL     OW17956   3.791   1.745   8.793  0.3220  0.1724 -0.4094
 2166SOL    HW117957   3.771   1.699   8.875 -1.0326  1.2377 -0.1301
 2166SOL    HW217958   3.708   1.786   8.767 -0.3096 -1.3631 -0.8420
 2167SOL     OW17959   0.126   0.931   2.335  0.0107  0.0629 -0.0360
 2167SOL    HW117960   0.092   0.979   2.259  3.5193 -1.7859 -2.7673
 2167SOL    HW217961   0.122   0.995   2.406  1.3801 -2.1704  2.0654
 2168SOL     OW17962   0.612   2.719   6.407 -0.0044  0.1305  0.3083
 2168SOL    HW117963   0.614   2.643   6.349 -0.7256 -0.5222  1.1473
 2168SOL    HW217964   0.615   2.789   6.342  0.1943 -1.7015 -1.6446
 2169SOL     OW17965   3.656   1.925   6.565 -0.0547 -0.0671  0.0883
 2169SOL    HW117966   3.701   1.986   6.507  1.8654 -0.0787  1.5656
 2169SOL    HW217967   3.722   1.872   6.609  1.9846  0.4806 -2.2524
 2170SOL     OW17968   1.579   4.642   3.604  0.4136 -0.1013  0.2965
 2170SOL    HW117969   1.607   4.709   3.541  0.4736 -1.6514 -1.3279
 2170SOL    HW217970   1.632   4.566   3.580  0.2780  0.3730 -1.5284
 2171SOL     OW17971   3.833   0.650  13.401 -0.6004 -0.0510 -0.1247
 2171SOL    HW117972   3.753   0.698  13.425  0.6075  1.6706  0.5128
 2171SOL    HW217973   3.903   0.704  13.439  0.4923  0.1691 -2.4210
 2172SOL     OW17974   4.073   3.463  16.752  0.5527 -0.1552  0.5906
 2172SOL    HW117975   4.151   3.516  16.732 -0.6825  0.5502 -2.4272
 2172SOL    HW217976   4.020   3.537  16.781 -0.2325 -0.5813  0.2367
 2173SOL     OW17977   3.503   2.064   9.769 -0.4445 -0.5335 -0.5363
 2173SOL    HW117978   3.591   2.072   9.732  0.0406 -0.1297  0.6850
 2173SOL    HW217979   3.464   2.148   9.745  1.4465  0.5192  0.0562
 2174SOL     OW17980   2.793   3.213  10.625 -0.1845  0.1293 -0.9705
 2174SOL    HW117981   2.783   3.217  10.530 -0.4882 -2.1192 -1.0364
 2174SOL    HW217982   2.707   3.188  10.657 -0.4052  1.4498 -0.5307
 2175SOL     OW17983   3.059   2.033  14.206  0.0739  0.7075  0.6155
 2175SOL    HW117984   3.007   2.112  14.191 -1.9619 -0.5087  1.0984
 2175SOL    HW217985   3.115   2.039  14.129 -0.2094 -1.3781  0.2389
 2176SOL     OW17986   3.200   1.883  14.595  0.3289  0.3586 -0.2820
 2176SOL    HW117987   3.243   1.811  14.550 -0.6609 -1.4186  1.6271
 2176SOL    HW217988   3.143   1.828  14.649  0.2248  0.6846 -0.0611
 2177SOL     OW17989   0.864   2.498   6.296  0.1268  0.1804  0.0466
 2177SOL    HW117990   0.890   2.500   6.388 -2.0923 -2.1806  0.7436
 2177SOL    HW217991   0.946   2.487   6.249 -0.1860  1.9648 -0.9017
 2178SOL     OW17992   4.024   2.023  16.301  0.7725 -0.3601  0.0701
 2178SOL    HW117993   4.060   2.112  16.296 -0.0770 -0.1965 -3.1513
 2178SOL    HW217994   4.074   1.989  16.375 -0.9884 -0.3355  1.2547
 2179SOL     OW17995   4.062   0.095  15.625 -0.3203 -1.0719 -0.4335
 2179SOL    HW117996   3.978   0.054  15.605 -1.1328 -0.6266  2.0471
 2179SOL    HW217997   4.079   0.136  15.540 -1.0160 -1.0913 -0.5814
 2180SOL     OW17998   1.048   4.365   2.946  0.3961 -0.4172  0.0124
 2180SOL    HW117999   1.071   4.344   2.856  0.4942 -1.2565  0.2406
 2180SOL    HW218000   1.022   4.457   2.941  1.0088 -0.2854 -0.6790
 2181SOL     OW18001   0.304   0.712  10.046 -0.1163  0.0857  0.3830
 2181SOL    HW118002   0.344   0.642   9.995 -0.1923 -0.0169  0.4637
 2181SOL    HW218003   0.232   0.741   9.989  0.9424 -1.3234 -1.6575
 2182SOL     OW18004   0.721   0.354   5.670 -0.3682  0.3587 -0.0526
 2182SOL    HW118005   0.790   0.387   5.727  0.3292  0.3182 -0.8773
 2182SOL    HW218006   0.653   0.342   5.737  0.9451 -0.6549  1.0908
 2183SOL     OW18007   4.441   4.034   5.216 -0.2244  0.2691 -0.0284
 2183SOL    HW118008   4.469   3.947   5.245  0.9223  1.1214  1.4140
 2183SOL    HW218009   4.456   4.024   5.122  0.3304 -0.0274  0.0849
 2184SOL     OW18010   4.425   2.329   9.354  0.1436  0.9102  0.0496
 2184SOL    HW118011   4.446   2.386   9.280  2.1434  0.0826 -0.0118
 2184SOL    HW218012   4.471   2.374   9.425  0.3079 -1.4478  1.4281
 2185SOL     OW18013   2.841   3.960   1.730  0.0791  0.0918 -0.2454
 2185SOL    HW118014   2.854   3.896   1.800  3.5679  0.6758 -0.3571
 2185SOL    HW218015   2.821   3.906   1.653 -0.3036  0.2339 -0.2450
 2186SOL     OW18016   4.562   0.771   8.102  0.1585 -0.3137 -0.5243
 2186SOL    HW118017   4.607   0.816   8.030 -2.8043  0.5791 -1.8108
 2186SOL    HW218018   4.628   0.791   8.168 -1.0512 -1.2731  0.9600
 2187SOL     OW18019   0.960   3.877  13.073 -0.2320  0.3942  0.3036
 2187SOL    HW118020   1.016   3.812  13.117  0.5938  0.2757 -0.9099
 2187SOL    HW218021   0.957   3.830  12.989  1.2989 -2.4271  1.8020
 2188SOL     OW18022   2.053   0.434  13.104 -0.3178  0.4234 -0.1839
 2188SOL    HW118023   2.012   0.503  13.156  1.1493  1.6485 -0.6252
 2188SOL    HW218024   2.123   0.486  13.063  1.6990 -0.5742  2.0010
 2189SOL     OW18025   1.425   1.616   4.545 -0.2399  0.5654 -0.6982
 2189SOL    HW118026   1.503   1.566   4.524 -0.2609  0.3342 -0.2232
 2189SOL    HW218027   1.379   1.566   4.612 -0.7298  0.1420 -1.3443
 2190SOL     OW18028   0.948   0.907   6.594  0.0396 -0.0300  0.3803
 2190SOL    HW118029   0.971   0.901   6.502 -2.3027  0.6154 -0.2543
 2190SOL    HW218030   0.892   0.829   6.596 -0.3752  0.2901  1.4902
 2191SOL     OW18031   2.130   0.134   1.346 -0.5033  0.0953  0.3630
 2191SOL    HW118032   2.078   0.069   1.299  0.5271 -1.2660  1.0966
 2191SOL    HW218033   2.138   0.084   1.428  0.7177 -1.5439 -0.7573
 2192SOL     OW18034   0.582   0.470   3.946  0.1022  0.5441  0.8706
 2192SOL    HW118035   0.549   0.525   3.875 -0.8307 -0.9563  0.1524
 2192SOL    HW218036   0.675   0.470   3.923  0.1544 -1.6185  1.0318
 2193SOL     OW18037   2.024   0.032  15.046 -0.7077 -0.7339 -0.1905
 2193SOL    HW118038   1.973   4.681  15.006  3.4427 -2.5063 -2.3428
 2193SOL    HW218039   2.045   4.718  15.133  0.5047  1.3205  0.3243
 2194SOL     OW18040   2.494   3.919   7.636 -0.2295 -0.0865 -0.3897
 2194SOL    HW118041   2.542   3.858   7.580 -1.9070 -0.2716 -1.6094
 2194SOL    HW218042   2.506   3.876   7.721  1.3627 -0.7911 -0.9764
 2195SOL     OW18043   0.152   0.106   3.457 -0.3440  0.2910 -0.5757
 2195SOL    HW118044   0.107   0.033   3.414 -0.0297 -0.2680  0.0574
 2195SOL    HW218045   0.122   0.183   3.407  1.1592  0.5023 -1.1330
 2196SOL     OW18046   1.698   1.584   5.732  0.0156 -0.4483  0.4362
 2196SOL    HW118047   1.758   1.566   5.659 -0.6228 -0.4508 -0.0949
 2196SOL    HW218048   1.733   1.671   5.746 -0.6935 -0.6030  3.2467
 2197SOL     OW18049   2.267   0.994   3.617 -0.2814 -0.1776  0.1639
 2197SOL    HW118050   2.221   1.075   3.635 -1.9197 -0.8123 -1.1435
 2197SOL    HW218051   2.282   0.949   3.701  2.5647  2.8830  1.3000
 2198SOL     OW18052   4.517   3.455   5.161 -0.2631  0.5788 -0.2253
 2198SOL    HW118053   4.572   3.407   5.223 -1.7856  0.9641  1.4461
 2198SOL    HW218054   4.495   3.521   5.227  0.0002 -1.1600  1.6259
 2199SOL     OW18055   3.312   2.698  17.022  0.1799  0.3511  0.4103
 2199SOL    HW118056   3.237   2.752  17.045 -0.8927  0.2810 -2.8610
 2199SOL    HW218057   3.331   2.747  16.942  0.4110 -1.3571 -0.5975
 2200SOL     OW18058   2.361   3.024  12.058 -0.3030 -0.3428  0.0970
 2200SOL    HW118059   2.275   3.039  12.096  0.1753 -0.6253  1.2829
 2200SOL    HW218060   2.347   3.052  11.967 -3.0844 -0.9651  0.3319
 2201SOL     OW18061   0.536   0.773   8.565  0.0436 -1.3449 -0.0468
 2201SOL    HW118062   0.457   0.812   8.528 -0.4293 -0.2416  2.1015
 2201SOL    HW218063   0.605   0.808   8.510 -1.2037  1.0943 -0.0606
 2202SOL     OW18064   3.636   1.124   5.561 -0.0372 -0.0039  0.6047
 2202SOL    HW118065   3.621   1.140   5.654 -0.4521  3.3731 -0.0113
 2202SOL    HW218066   3.546   1.123   5.530  0.1404 -1.6797  0.1483
 2203SOL     OW18067   0.816   3.097  11.180  0.3489  0.2272  0.4309
 2203SOL    HW118068   0.743   3.106  11.118  1.1642  0.2091 -0.5319
 2203SOL    HW218069   0.789   3.172  11.233 -1.4792 -1.4220  1.8649
 2204SOL     OW18070   2.112   3.359   8.972  0.0364  0.1242 -0.5411
 2204SOL    HW118071   2.166   3.434   8.994  2.1661 -1.6371  0.2460
 2204SOL    HW218072   2.159   3.290   9.019  0.0014  0.7973  0.4639
 2205SOL     OW18073   3.233   3.916   2.674 -0.3356 -0.3625  0.1633
 2205SOL    HW118074   3.197   3.951   2.593  0.7825  1.2715  0.3907
 2205SOL    HW218075   3.158   3.935   2.731  0.5638 -0.3608  1.3374
 2206SOL     OW18076   2.072   2.761   3.982 -0.3265 -0.0784 -0.0069
 2206SOL    HW118077   2.151   2.808   3.953 -0.4226 -0.9207 -1.5913
 2206SOL    HW218078   2.050   2.796   4.068  1.0000  1.5293 -0.3195
 2207SOL     OW18079   0.337   4.506   3.149  0.5033  0.1882  0.3229
 2207SOL    HW118080   0.406   4.447   3.119 -1.2397 -1.1280 -1.0840
 2207SOL    HW218081   0.383   4.563   3.210  0.4601  1.4625 -0.8414
 2208SOL     OW18082   2.915   0.899   5.683  0.5066  0.6549  0.7640
 2208SOL    HW118083   2.922   0.994   5.688 -0.6506  0.6927  1.4680
 2208SOL    HW218084   2.890   0.896   5.591  0.0456 -1.0344  0.9401
 2209SOL     OW18085   2.523   0.253   3.652 -0.1213 -0.5134 -0.0259
 2209SOL    HW118086   2.604   0.287   3.689 -0.3306 -0.4638  0.3822
 2209SOL    HW218087   2.508   0.164   3.683  0.6463 -0.5180  0.3260
 2210SOL     OW18088   0.335   2.575   7.296  0.4963  0.2253 -0.3248
 2210SOL    HW118089   0.322   2.588   7.390 -0.7478  1.1681 -0.6264
 2210SOL    HW218090   0.396   2.650   7.291  0.3164  0.2968 -1.4970
 2211SOL     OW18091   3.826   0.282   0.465 -0.3953 -0.2950 -0.1770
 2211SOL    HW118092   3.891   0.260   0.398 -0.7238  2.3294 -1.3632
 2211SOL    HW218093   3.837   0.206   0.522 -0.3048  1.4065  2.0607
 2212SOL     OW18094   2.597   2.615   3.423 -0.2327 -0.1002  0.0757
 2212SOL    HW118095   2.544   2.647   3.351 -1.3930 -2.0090  0.0838
 2212SOL    HW218096   2.578   2.691   3.478  0.0113 -0.2143  0.3206
 2213SOL     OW18097   1.798   4.362   7.340  0.2505 -0.2198  0.8903
 2213SOL    HW118098   1.730   4.302   7.370  0.1009 -1.3395 -1.6257
 2213SOL    HW218099   1.761   4.442   7.301 -1.8231 -1.1670  0.9325
 2214SOL     OW18100   3.216   3.901   8.638 -0.5522  0.2598 -0.2786
 2214SOL    HW118101   3.265   3.974   8.600  1.1135  1.0071  3.2304
 2214SOL    HW218102   3.129   3.941   8.636 -1.9829 -3.0281 -2.7661
 2215SOL     OW18103   4.631   0.356   5.616 -0.3656  0.0852  0.0156
 2215SOL    HW118104   4.588   0.276   5.647  1.1340 -0.5660  0.4502
 2215SOL    HW218105   4.573   0.424   5.650 -3.4351 -1.8503 -1.3504
 2216SOL     OW18106   0.519   0.874  10.470  0.1924 -0.1401 -0.0867
 2216SOL    HW118107   0.440   0.825  10.449  0.3385 -0.3703 -0.0922
 2216SOL    HW218108   0.489   0.957  10.507 -0.7340 -0.5696  0.0934
 2217SOL     OW18109   0.186   1.538  14.592  0.2676  0.4278  0.6762
 2217SOL    HW118110   0.184   1.483  14.670  2.9361 -1.8059 -0.8608
 2217SOL    HW218111   0.168   1.620  14.638 -2.0963 -0.4483  1.2883
 2218SOL     OW18112   0.587   0.681   4.124 -0.7852 -0.2779  0.2083
 2218SOL    HW118113   0.615   0.610   4.066 -1.6417 -0.3790 -0.0813
 2218SOL    HW218114   0.491   0.685   4.122 -0.6003  3.0207 -1.9363
 2219SOL     OW18115   4.297   0.882   0.104 -0.8097 -0.5252  0.4577
 2219SOL    HW118116   4.256   0.965   0.081 -1.4864 -1.0698 -0.3019
 2219SOL    HW218117   4.386   0.919   0.099 -0.3913 -1.7002 -0.9041
 2220SOL     OW18118   0.189   1.107   0.159  0.4534 -0.3222  0.1489
 2220SOL    HW118119   0.137   1.168   0.212 -1.0936 -2.4615  1.1192
 2220SOL    HW218120   0.230   1.052   0.226 -0.3748 -1.3650 -0.1957
 2221SOL     OW18121   4.591   2.854  13.037 -0.5708 -0.5836 -0.4052
 2221SOL    HW118122   4.509   2.805  13.043 -0.2108 -1.0375  0.9324
 2221SOL    HW218123   4.580   2.881  12.946 -0.9187  0.3486 -0.0896
 2222SOL     OW18124   1.348   2.962   8.665  0.1940 -0.4564  0.2371
 2222SOL    HW118125   1.333   2.868   8.674  1.0316 -0.5144  1.0667
 2222SOL    HW218126   1.264   2.993   8.632 -0.9899 -1.4245  2.3429
 2223SOL     OW18127   1.736   2.977   8.655  0.4068  0.0606 -0.2387
 2223SOL    HW118128   1.707   2.886   8.655  1.1787 -0.1937  1.9482
 2223SOL    HW218129   1.826   2.965   8.625  0.0974 -0.0851 -1.0980
 2224SOL     OW18130   0.031   2.243   7.859 -0.5892  0.3191 -0.6401
 2224SOL    HW118131   0.096   2.302   7.897 -1.6485  2.3257 -1.9688
 2224SOL    HW218132   0.053   2.233   7.767  0.3807 -0.8629 -0.2834
 2225SOL     OW18133   1.774   2.422   3.333  0.1900 -0.5192 -0.3099
 2225SOL    HW118134   1.861   2.421   3.294  0.4418  3.3163  0.1806
 2225SOL    HW218135   1.715   2.439   3.260  1.8100 -1.6970 -1.8895
 2226SOL     OW18136   4.208   4.228   9.041  0.7055 -0.5320  0.3103
 2226SOL    HW118137   4.228   4.263   9.128 -0.1639  2.1279 -0.5954
 2226SOL    HW218138   4.129   4.181   9.065 -0.3423 -0.6331 -3.2974
 2227SOL     OW18139   3.651   4.657   5.778  0.2322 -0.2747  0.4691
 2227SOL    HW118140   3.666   4.615   5.862  0.2574 -2.2429 -0.5226
 2227SOL    HW218141   3.697   4.592   5.724 -0.3843  0.8726 -1.4679
 2228SOL     OW18142   3.731   2.480   4.600  0.9194 -0.3448  0.3007
 2228SOL    HW118143   3.740   2.515   4.512  0.8244 -0.2560  0.3260
 2228SOL    HW218144   3.819   2.458   4.630  0.4511 -0.2635  1.7400
 2229SOL     OW18145   1.198   0.256   2.040 -0.1953  0.1082  0.4783
 2229SOL    HW118146   1.244   0.288   2.118 -1.0198  0.8340  0.6615
 2229SOL    HW218147   1.231   0.166   2.032  0.5555  0.3444  0.9019
 2230SOL     OW18148   1.328   0.108   4.228  0.1405  0.4166 -0.1251
 2230SOL    HW118149   1.360   0.116   4.318 -1.2604 -1.7609  0.5614
 2230SOL    HW218150   1.233   0.113   4.234  0.2620  0.9032  1.4126
 2231SOL     OW18151   4.548   0.438  15.977 -0.5256  0.1135 -0.9237
 2231SOL    HW118152   4.601   0.428  15.898  0.6777  0.5884 -0.1791
 2231SOL    HW218153   4.472   0.492  15.954 -0.1047 -0.1529 -2.9735
 2232SOL     OW18154   3.875   1.048   4.118 -0.2238  0.4765 -0.7431
 2232SOL    HW118155   3.785   1.078   4.126 -0.3157 -0.1791  0.6746
 2232SOL    HW218156   3.900   1.046   4.211  0.0207 -1.0654 -0.8503
 2233SOL     OW18157   2.048   3.167   0.496 -0.2174 -0.3945 -0.0444
 2233SOL    HW118158   2.035   3.097   0.432 -0.9423  0.3242 -0.6983
 2233SOL    HW218159   2.034   3.130   0.583  0.8320  1.6648  1.0118
 2234SOL     OW18160   1.333   4.101   7.794 -0.3642 -0.3604  0.1638
 2234SOL    HW118161   1.272   4.038   7.832 -0.3567 -0.3468  0.1991
 2234SOL    HW218162   1.352   4.151   7.874 -1.4135 -0.8740  0.7316
 2235SOL     OW18163   0.890   2.687   8.736 -0.3416  0.7900 -0.1948
 2235SOL    HW118164   0.807   2.639   8.733 -0.9288  1.7935 -0.3252
 2235SOL    HW218165   0.953   2.615   8.737  0.8579  1.8516  0.6929
 2236SOL     OW18166   2.273   2.726   9.083 -0.2914 -0.2026  0.2055
 2236SOL    HW118167   2.200   2.784   9.059 -0.0394  0.5345  1.2356
 2236SOL    HW218168   2.232   2.677   9.154  1.9428 -3.1692 -0.5795
 2237SOL     OW18169   3.739   0.308   7.983  0.3159  0.5209 -0.2615
 2237SOL    HW118170   3.772   0.262   8.060 -3.5939 -1.1783  0.4092
 2237SOL    HW218171   3.668   0.356   8.027 -0.3343 -1.7376  1.1924
 2238SOL     OW18172   2.911   2.288  10.534  0.1328  0.4030  0.5765
 2238SOL    HW118173   2.891   2.194  10.537 -0.8839  0.4825 -4.0530
 2238SOL    HW218174   2.823   2.324  10.540 -0.5748 -1.4160  1.2651
 2239SOL     OW18175   4.087   1.081  14.279 -0.0658  0.4523 -0.0553
 2239SOL    HW118176   3.996   1.103  14.259 -0.5182 -0.6365  0.8091
 2239SOL    HW218177   4.074   0.987  14.288  0.5375 -0.0016 -3.9446
 2240SOL     OW18178   3.402   0.172  15.895  0.5181 -0.0208 -0.2469
 2240SOL    HW118179   3.387   0.209  15.982  0.6840 -1.4229  0.3639
 2240SOL    HW218180   3.390   0.080  15.917  1.5950 -0.0951 -0.0164
 2241SOL     OW18181   1.257   1.590   6.957  0.7039 -0.1196 -0.2510
 2241SOL    HW118182   1.192   1.552   6.898  0.6943 -0.2775 -0.1391
 2241SOL    HW218183   1.293   1.671   6.920  0.7209  0.1261  0.3096
 2242SOL     OW18184   0.263   2.389   8.219  0.6124  0.2034 -0.0379
 2242SOL    HW118185   0.299   2.382   8.131  0.5252  0.8537 -0.1274
 2242SOL    HW218186   0.267   2.484   8.227  0.4122  0.3729 -1.7874
 2243SOL     OW18187   2.951   2.927   2.325  0.5308 -0.7768 -0.3641
 2243SOL    HW118188   3.018   2.891   2.384 -0.4948  0.4421  1.5373
 2243SOL    HW218189   2.971   2.908   2.233 -0.6790 -3.7855 -0.0269
 2244SOL     OW18190   0.933   1.132   6.703 -0.2468  0.0493  0.0974
 2244SOL    HW118191   0.907   1.040   6.690  0.4370 -0.3228  1.3308
 2244SOL    HW218192   1.003   1.136   6.638  0.9327 -1.0654  1.3020
 2245SOL     OW18193   3.218   4.036   2.077 -0.5745  0.6005  0.0072
 2245SOL    HW118194   3.125   4.054   2.083 -0.9167 -1.3266  0.3293
 2245SOL    HW218195   3.214   3.942   2.093 -0.4838  0.5984  0.0189
 2246SOL     OW18196   2.161   1.834   4.390  0.2260  0.0615 -0.3824
 2246SOL    HW118197   2.186   1.912   4.340  1.3103 -0.0155  0.0420
 2246SOL    HW218198   2.242   1.800   4.428  0.8119 -0.5427 -2.2069
 2247SOL     OW18199   2.838   4.590   8.322 -0.6248  0.3206 -0.3310
 2247SOL    HW118200   2.920   4.550   8.292  0.4968 -0.5832  3.9941
 2247SOL    HW218201   2.775   4.540   8.270  0.3705  0.1776 -1.4012
 2248SOL     OW18202   3.217   3.542   8.686  0.4079 -0.2048 -0.4978
 2248SOL    HW118203   3.257   3.471   8.637  0.6790 -0.0723 -0.4739
 2248SOL    HW218204   3.199   3.594   8.608  0.1599  0.5766  0.0767
 2249SOL     OW18205   3.095   3.583   3.263 -0.0357 -0.1215  0.1569
 2249SOL    HW118206   3.059   3.607   3.177 -0.6063 -1.2621  0.0761
 2249SOL    HW218207   3.189   3.594   3.244 -0.4089  0.3662 -1.4337
 2250SOL     OW18208   3.383   2.517   0.081 -0.6466  0.0934  0.2040
 2250SOL    HW118209   3.369   2.485   0.170 -0.1894 -2.5830 -0.6827
 2250SOL    HW218210   3.431   2.440   0.050  0.3706  1.0105 -0.4873
 2251SOL     OW18211   1.636   1.638   3.810  0.0439  0.8461  0.2769
 2251SOL    HW118212   1.726   1.637   3.842  0.4098  0.2431 -0.7541
 2251SOL    HW218213   1.589   1.705   3.860  1.3338  1.4102  0.7160
 2252SOL     OW18214   1.998   2.589   4.783 -0.7869  0.3581  0.2127
 2252SOL    HW118215   2.037   2.527   4.845  1.2575  0.9912 -0.4457
 2252SOL    HW218216   1.907   2.595   4.812 -1.3244 -0.0174 -1.3772
 2253SOL     OW18217   1.858   0.791   7.115  0.5535 -0.5703  0.0357
 2253SOL    HW118218   1.771   0.750   7.116  0.7567 -0.9657  0.7684
 2253SOL    HW218219   1.909   0.719   7.079 -1.1681 -0.6178 -2.3183
 2254SOL     OW18220   2.895   2.567  10.939  0.2959 -0.3190  0.3330
 2254SOL    HW118221   2.944   2.649  10.929 -2.0586  1.1468  0.8461
 2254SOL    HW218222   2.886   2.539  10.848 -2.2060 -2.0402  1.1138
 2255SOL     OW18223   0.522   4.446   7.514  0.4061 -0.0796  0.2154
 2255SOL    HW118224   0.504   4.520   7.572  2.7531  2.1706 -1.9349
 2255SOL    HW218225   0.547   4.491   7.433  0.8359 -0.4394  0.1458
 2256SOL     OW18226   4.522   4.676   7.572  0.3260 -0.0454 -0.0094
 2256SOL    HW118227   4.567   4.707   7.651  0.6038 -0.8591  0.1506
 2256SOL    HW218228   4.480   0.038   7.545 -0.7544 -1.0314 -1.3105
 2257SOL     OW18229   1.603   2.378   4.049 -0.2052  0.2404  0.4776
 2257SOL    HW118230   1.575   2.324   3.975  0.2975 -1.6027  1.6047
 2257SOL    HW218231   1.563   2.339   4.127  1.1908  1.9490  2.0523
 2258SOL     OW18232   4.134   2.605  10.074 -0.0460 -0.3491 -0.3508
 2258SOL    HW118233   4.053   2.578  10.117 -0.1355  2.7357  1.4240
 2258SOL    HW218234   4.096   2.656  10.002 -1.1687 -0.7606 -0.0400
 2259SOL     OW18235   1.955   2.021   4.460  0.3209  0.0588 -0.1188
 2259SOL    HW118236   1.881   1.963   4.472 -0.4619  1.1437  0.2526
 2259SOL    HW218237   2.032   1.964   4.462 -0.2195 -0.7002 -0.8728
 2260SOL     OW18238   3.046   1.444  12.840 -0.4997 -0.3296  0.1766
 2260SOL    HW118239   3.101   1.400  12.905  0.8748 -2.4055 -2.3619
 2260SOL    HW218240   2.973   1.487  12.883  0.6871 -1.1671  3.0625
 2261SOL     OW18241   1.840   2.149   4.016 -0.4795 -0.3647 -0.1441
 2261SOL    HW118242   1.800   2.120   3.934  1.2952 -1.1667 -0.7232
 2261SOL    HW218243   1.933   2.139   3.994 -0.1620 -2.4957  2.1219
 2262SOL     OW18244   4.597   1.513  14.971  0.2328 -0.5501 -0.5931
 2262SOL    HW118245   4.609   1.540  15.062 -0.3523 -0.6803 -0.4818
 2262SOL    HW218246   4.682   1.535  14.932  0.8240  0.3002  1.2045
 2263SOL     OW18247   0.228   0.495   7.147 -0.3270 -0.5638  0.4159
 2263SOL    HW118248   0.189   0.408   7.133 -1.1184 -0.4616  1.9027
 2263SOL    HW218249   0.170   0.530   7.215 -0.3602  1.2772 -0.5779
 2264SOL     OW18250   1.333   2.891   4.384  0.0422 -0.6975 -0.3851
 2264SOL    HW118251   1.316   2.976   4.344  0.1328 -0.7350 -0.5047
 2264SOL    HW218252   1.426   2.887   4.362  0.2678  0.4726  0.3865
 2265SOL     OW18253   3.288   2.709   3.469 -0.2231 -0.2776  0.0960
 2265SOL    HW118254   3.293   2.671   3.381 -0.6517 -0.8295  0.3095
 2265SOL    HW218255   3.230   2.784   3.456 -1.2165 -0.8843  1.0192
 2266SOL     OW18256   3.117   2.730   5.012  0.0054 -0.1908 -0.0946
 2266SOL    HW118257   3.050   2.799   5.005 -0.3877 -0.3998  1.7075
 2266SOL    HW218258   3.190   2.768   4.963 -1.6170  1.8822 -0.8806
 2267SOL     OW18259   4.387   1.321   3.979  0.1893 -0.3226 -0.4798
 2267SOL    HW118260   4.481   1.339   3.979  0.3167 -0.9820  2.3290
 2267SOL    HW218261   4.350   1.404   3.948  0.3900  0.5437  1.6156
 2268SOL     OW18262   1.160   2.678  11.258  0.1317  0.5968 -0.0627
 2268SOL    HW118263   1.119   2.752  11.214  0.7690  1.1121  0.2009
 2268SOL    HW218264   1.213   2.729  11.320 -2.1191  1.1673  1.3677
 2269SOL     OW18265   4.133   1.528   2.343 -0.2482 -0.1554 -0.4487
 2269SOL    HW118266   4.076   1.555   2.415  0.5004 -0.4482  0.2476
 2269SOL    HW218267   4.180   1.460   2.390  0.3118  2.0557  2.1633
 2270SOL     OW18268   2.588   4.132   5.730  0.0220 -0.2968 -0.7312
 2270SOL    HW118269   2.627   4.150   5.816  1.0923 -2.1665 -0.8154
 2270SOL    HW218270   2.622   4.195   5.667  0.4661 -1.2931 -1.4962
 2271SOL     OW18271   2.575   1.031   3.933 -0.3874  0.3195 -0.8934
 2271SOL    HW118272   2.516   1.094   3.893 -1.0122 -0.9522 -1.9767
 2271SOL    HW218273   2.658   1.079   3.922 -1.2701  2.2306  0.7272
 2272SOL     OW18274   3.199   2.343  14.528 -0.8442 -0.5584 -0.2494
 2272SOL    HW118275   3.159   2.256  14.533 -1.3307 -0.2377  1.4164
 2272SOL    HW218276   3.159   2.379  14.448  2.1608  1.8743 -0.6623
 2273SOL     OW18277   3.092   0.102  13.074  0.3737 -0.2962 -0.2445
 2273SOL    HW118278   3.059   0.014  13.092  1.2727 -0.5464  0.1969
 2273SOL    HW218279   3.109   0.091  12.981  0.2280  0.8185 -0.4058
 2274SOL     OW18280   0.571   3.245   6.503  0.5795  0.0581  0.2774
 2274SOL    HW118281   0.509   3.195   6.450 -0.2043  0.5665  0.7224
 2274SOL    HW218282   0.639   3.238   6.437 -1.0386 -1.3336 -1.2473
 2275SOL     OW18283   3.196   1.385   7.762  0.1662 -0.0664 -0.4494
 2275SOL    HW118284   3.282   1.361   7.728  1.8288  2.8148  1.6896
 2275SOL    HW218285   3.145   1.305   7.748 -0.2994 -0.3228  2.7233
 2276SOL     OW18286   0.564   2.487  13.871 -0.8458  0.0170 -0.3102
 2276SOL    HW118287   0.635   2.434  13.906 -0.6861  0.8036  0.5494
 2276SOL    HW218288   0.520   2.427  13.810 -1.2639  1.4476 -1.4303
 2277SOL     OW18289   2.037   1.189   4.512  0.3285 -0.0293 -0.6573
 2277SOL    HW118290   2.004   1.271   4.477  0.9419  0.9042  0.9743
 2277SOL    HW218291   2.005   1.201   4.601  0.7581 -3.2988 -0.0476
 2278SOL     OW18292   4.694   1.378   6.913 -0.3016 -0.4975  0.1590
 2278SOL    HW118293   4.640   1.455   6.931  0.8402  0.2437  0.4423
 2278SOL    HW218294   0.040   1.416   6.856 -1.5048  0.3630 -0.6569
 2279SOL     OW18295   0.749   2.809   9.505  0.0716 -0.6249  0.1603
 2279SOL    HW118296   0.674   2.822   9.562 -0.3444 -4.1799  0.4088
 2279SOL    HW218297   0.792   2.895   9.502 -1.0977 -0.0608 -0.2931
 2280SOL     OW18298   3.802   3.127   4.635 -0.5013 -0.1229  0.5268
 2280SOL    HW118299   3.895   3.140   4.651  0.1470  0.9133 -4.0829
 2280SOL    HW218300   3.784   3.094   4.723 -0.8439 -0.6011  0.2777
 2281SOL     OW18301   0.934   3.813   4.867 -0.1190 -0.7456 -0.3682
 2281SOL    HW118302   0.918   3.865   4.789 -1.2570  0.2575  0.5416
 2281SOL    HW218303   1.027   3.825   4.887 -0.1872  1.8613 -1.7275
 2282SOL     OW18304   3.502   4.072   3.099 -0.7443 -0.3781  0.2322
 2282SOL    HW118305   3.436   4.025   3.150  1.5996 -1.1590  2.5523
 2282SOL    HW218306   3.489   4.165   3.116  0.4186 -0.0955 -0.4309
 2283SOL     OW18307   3.970   3.200   7.301 -0.1360  0.5941 -0.3868
 2283SOL    HW118308   3.884   3.173   7.333  0.6748 -1.1075  0.3319
 2283SOL    HW218309   3.950   3.287   7.267 -1.6062  0.6838  0.7009
 2284SOL     OW18310   1.876   2.401  12.180 -0.5591  0.5656  0.0497
 2284SOL    HW118311   1.948   2.373  12.124 -0.6841 -1.0885  0.7084
 2284SOL    HW218312   1.894   2.493  12.195  0.8531  0.6245 -2.0150
 2285SOL     OW18313   4.026   0.069   6.957  0.1175  0.0326  0.6291
 2285SOL    HW118314   3.958   0.118   7.003 -0.2953 -1.6652  1.8088
 2285SOL    HW218315   3.974   0.044   6.881 -0.3868 -2.3619  1.7547
 2286SOL     OW18316   2.617   1.153   5.707 -0.5218 -0.2871  0.0453
 2286SOL    HW118317   2.704   1.192   5.709 -1.1737  1.2180 -0.9423
 2286SOL    HW218318   2.637   1.082   5.768  0.3780 -0.1773 -0.1263
 2287SOL     OW18319   0.322   2.091   2.670 -0.2128 -0.3858  0.3698
 2287SOL    HW118320   0.296   2.174   2.630  1.5474 -1.2295 -2.5101
 2287SOL    HW218321   0.237   2.048   2.674 -1.3171  1.5046 -2.4245
 2288SOL     OW18322   1.385   3.620   5.367 -0.1090 -0.0429 -0.4510
 2288SOL    HW118323   1.330   3.628   5.445 -1.4315 -1.3903 -1.2407
 2288SOL    HW218324   1.370   3.706   5.327  0.0288  0.0704 -0.2612
 2289SOL     OW18325   2.663   1.590   0.591 -0.3628 -0.1160 -0.3867
 2289SOL    HW118326   2.742   1.585   0.537 -0.7099  1.4073 -1.0418
 2289SOL    HW218327   2.640   1.682   0.582  1.3315  0.0075 -3.3340
 2290SOL     OW18328   2.369   4.697  15.000  0.5981  0.0894 -0.3434
 2290SOL    HW118329   2.412   4.622  15.040 -0.5548 -0.7782 -0.7040
 2290SOL    HW218330   2.370   0.043  15.069  0.1952 -2.1342  1.7747
 2291SOL     OW18331   2.747   0.092   5.631 -0.6645 -0.1332 -0.3839
 2291SOL    HW118332   2.658   0.080   5.600 -1.2475 -0.8797  1.5395
 2291SOL    HW218333   2.768   4.719   5.623 -1.0063 -0.2491  0.0457
 2292SOL     OW18334   0.831   3.951  15.545  0.1464 -0.2279  0.3016
 2292SOL    HW118335   0.814   3.947  15.451  1.2085 -2.4668  0.2155
 2292SOL    HW218336   0.848   4.045  15.557 -2.8681  0.2245  1.1669
 2293SOL     OW18337   4.273   2.257  16.112  0.2138 -1.1004  0.1327
 2293SOL    HW118338   4.252   2.309  16.034 -1.5667 -1.1944  0.5549
 2293SOL    HW218339   4.300   2.322  16.177 -0.3604  0.1595 -0.8861
 2294SOL     OW18340   0.423   2.163   4.684  0.0904 -0.3026  0.4725
 2294SOL    HW118341   0.510   2.201   4.669 -0.0506  0.4154  1.4873
 2294SOL    HW218342   0.378   2.196   4.607  0.3307 -2.2499 -0.5167
 2295SOL     OW18343   3.365   1.406   1.649  0.1385  0.4151  0.8089
 2295SOL    HW118344   3.407   1.482   1.690 -0.5003  1.1281  0.1206
 2295SOL    HW218345   3.295   1.448   1.600  0.3373 -1.9408 -1.4748
 2296SOL     OW18346   4.014   0.970   7.013 -0.6221 -0.2253 -0.3322
 2296SOL    HW118347   3.992   1.051   6.966  1.4935  0.9134  0.6404
 2296SOL    HW218348   4.063   0.995   7.091 -0.0035  0.6038 -0.9891
 2297SOL     OW18349   0.051   2.379   2.715 -0.4933 -0.1072  0.2191
 2297SOL    HW118350   4.707   2.317   2.749 -1.2015 -0.4739 -1.7907
 2297SOL    HW218351   0.020   2.388   2.625  1.7526  1.5270 -0.3774
 2298SOL     OW18352   0.792   2.175   7.316 -0.0067 -0.0279 -0.0997
 2298SOL    HW118353   0.831   2.142   7.235  0.9487 -0.5202  0.5495
 2298SOL    HW218354   0.850   2.131   7.378  2.4779  2.7417 -0.4650
 2299SOL     OW18355   2.162   1.435  13.615  0.3182  0.2324  0.6581
 2299SOL    HW118356   2.229   1.368  13.600  1.7618  2.1026 -1.2739
 2299SOL    HW218357   2.133   1.440  13.524 -0.1029 -1.4290  0.6907
 2300SOL     OW18358   2.700   4.649  17.277  0.2567  0.0166 -0.2985
 2300SOL    HW118359   2.765   4.647  17.207 -0.0532  1.0339 -0.6235
 2300SOL    HW218360   2.681   4.556  17.286  1.0879 -0.1857 -0.6581
 2301SOL     OW18361   1.684   2.831   6.074 -0.4825 -0.3859 -0.0617
 2301SOL    HW118362   1.701   2.919   6.041 -2.4863  0.5421  1.4039
 2301SOL    HW218363   1.598   2.811   6.036  0.0947 -1.5223 -0.7840
 2302SOL     OW18364   4.473   0.415  11.822  0.0092 -0.1764 -0.2531
 2302SOL    HW118365   4.517   0.500  11.827  0.1578 -0.3069  0.7296
 2302SOL    HW218366   4.416   0.420  11.899  0.6961  0.6065  0.2068
 2303SOL     OW18367   0.881   1.905   6.646 -0.1431 -0.1557  0.6202
 2303SOL    HW118368   0.960   1.854   6.667 -0.2535 -0.5063  0.1710
 2303SOL    HW218369   0.814   1.838   6.635  1.4589 -1.4079 -1.4226
 2304SOL     OW18370   2.013   4.104   3.806 -0.2163  0.2270  0.7331
 2304SOL    HW118371   1.926   4.076   3.777 -0.0795  0.6360 -0.0585
 2304SOL    HW218372   2.046   4.016   3.826  0.3844  0.6199  1.4769
 2305SOL     OW18373   2.475   4.261   1.804 -0.2156  0.1432 -0.1797
 2305SOL    HW118374   2.431   4.179   1.823 -1.9222  1.4117  1.3022
 2305SOL    HW218375   2.559   4.231   1.769 -0.8829 -1.5076 -0.3588
 2306SOL     OW18376   1.638   3.127   3.530  0.3444 -0.0680  0.1268
 2306SOL    HW118377   1.609   3.054   3.584 -0.5277  1.0613  1.1711
 2306SOL    HW218378   1.733   3.131   3.540  0.3145 -1.5455  0.8810
 2307SOL     OW18379   2.959   4.108   2.067  0.4968 -0.1772  0.3741
 2307SOL    HW118380   2.957   4.181   2.129 -0.9985  3.4246 -3.9618
 2307SOL    HW218381   2.871   4.072   2.072 -0.2742  1.9192  2.2229
 2308SOL     OW18382   2.688   0.126   0.466  0.7913  0.3059  0.0024
 2308SOL    HW118383   2.694   0.084   0.380 -0.6194  0.8862 -0.3825
 2308SOL    HW218384   2.764   0.096   0.516 -0.5439 -2.7974  0.1468
 2309SOL     OW18385   0.302   1.324   7.326  0.0265  0.3203 -0.3068
 2309SOL    HW118386   0.309   1.341   7.420  1.6571  0.2148 -0.3942
 2309SOL    HW218387   0.391   1.292   7.309 -0.7638 -2.3348  0.4658
 2310SOL     OW18388   3.821   4.456   0.087  0.2473  0.2252 -0.2929
 2310SOL    HW118389   3.784   4.531   0.039  2.9596  2.2431  0.7710
 2310SOL    HW218390   3.800   4.472   0.179  0.4150 -0.9112 -0.0666
 2311SOL     OW18391   0.885   3.444  13.069 -0.1699  0.6400  0.9068
 2311SOL    HW118392   0.871   3.531  13.106 -0.9922  0.4046  1.1463
 2311SOL    HW218393   0.795   3.415  13.055  0.0072 -0.5054  2.0599
 2312SOL     OW18394   4.002   1.699   7.818 -0.3347  0.2473 -0.1750
 2312SOL    HW118395   3.959   1.781   7.795  0.3959  0.4082 -0.9811
 2312SOL    HW218396   3.928   1.656   7.859 -0.9049  1.8133  0.4423
 2313SOL     OW18397   3.550   4.391  16.982  0.6396  0.3293 -0.1056
 2313SOL    HW118398   3.550   4.299  16.957 -1.2380 -0.4609  2.8060
 2313SOL    HW218399   3.558   4.437  16.898 -1.0333 -1.2069 -1.1023
 2314SOL     OW18400   1.712   4.720  15.931  0.5559  0.0075 -0.0421
 2314SOL    HW118401   1.697   4.649  15.868  1.3865 -1.4449  1.3928
 2314SOL    HW218402   1.789   0.047  15.899 -0.3687  0.4120 -1.6613
 2315SOL     OW18403   3.354   2.756  12.011 -0.2860  0.2134 -0.0439
 2315SOL    HW118404   3.315   2.767  11.924 -0.4534  1.6522  0.2056
 2315SOL    HW218405   3.423   2.822  12.011  0.0148 -0.1137  2.0460
 2316SOL     OW18406   0.910   0.231   6.001  0.3128 -0.0468 -0.2171
 2316SOL    HW118407   0.897   0.256   5.910  1.6359  2.1583  0.1962
 2316SOL    HW218408   0.829   0.266   6.040  0.0024 -2.7079  1.4914
 2317SOL     OW18409   2.999   2.816   3.561 -0.0028 -0.1726  0.6053
 2317SOL    HW118410   3.041   2.793   3.644 -0.3817  0.2443  0.9112
 2317SOL    HW218411   3.012   2.737   3.509  1.7914  2.0121 -2.1975
 2318SOL     OW18412   3.000   0.555   6.401 -0.3238 -0.2697 -0.2749
 2318SOL    HW118413   3.046   0.591   6.326 -2.2290 -0.3142 -1.4509
 2318SOL    HW218414   3.022   0.616   6.471 -2.0057  0.1692 -0.1255
 2319SOL     OW18415   2.305   0.176   3.290  0.8018  0.4631 -0.0202
 2319SOL    HW118416   2.367   0.242   3.319  1.9894  0.5793 -2.8038
 2319SOL    HW218417   2.219   0.207   3.321  0.8449  0.0757  0.4897
 2320SOL     OW18418   1.210   3.912   7.212  0.6972 -0.0914 -0.4071
 2320SOL    HW118419   1.260   3.897   7.292  0.4961  1.0892 -0.0593
 2320SOL    HW218420   1.286   3.917   7.153 -0.0174  0.0621 -1.3136
 2321SOL     OW18421   0.284   1.189   5.249 -0.0522 -0.2854 -0.0657
 2321SOL    HW118422   0.231   1.150   5.319 -0.0566 -3.0711 -1.6445
 2321SOL    HW218423   0.214   1.227   5.195 -0.5497  0.4266  1.0638
 2322SOL     OW18424   4.674   2.358  10.592 -0.5879 -0.1007  0.6736
 2322SOL    HW118425   4.612   2.428  10.615 -0.7950 -0.1908  0.3871
 2322SOL    HW218426   0.025   2.377  10.653  0.4636  0.5863 -0.7775
 2323SOL     OW18427   2.320   0.106   7.719  0.2436  0.5272  0.2551
 2323SOL    HW118428   2.356   0.136   7.636 -0.6312  1.0504  0.0662
 2323SOL    HW218429   2.289   0.018   7.698  2.2569 -0.4603  1.3667
 2324SOL     OW18430   0.632   3.454   6.906  0.2467 -0.1884 -0.3936
 2324SOL    HW118431   0.595   3.515   6.970 -1.3417 -1.4984 -0.0679
 2324SOL    HW218432   0.656   3.384   6.966  1.0535  0.9138  0.5708
 2325SOL     OW18433   4.322   0.654   8.426 -0.0134  0.2573 -0.0944
 2325SOL    HW118434   4.316   0.637   8.332 -0.2845  1.5686 -0.3232
 2325SOL    HW218435   4.338   0.749   8.421 -3.3534  0.7423 -1.5559
 2326SOL     OW18436   2.669   0.545   5.385 -0.1652  0.1448 -0.0390
 2326SOL    HW118437   2.629   0.480   5.443  0.3015  0.5578  0.7491
 2326SOL    HW218438   2.593   0.589   5.348  0.5177 -0.3880 -2.0323
 2327SOL     OW18439   3.261   4.083  17.340  0.3159  0.3751 -0.2326
 2327SOL    HW118440   3.171   4.102  17.315  0.9627  2.1855 -1.1488
 2327SOL    HW218441   3.305   4.128  17.268  0.6782  0.9938  0.3777
 2328SOL     OW18442   2.357   2.269   9.348 -0.1160  0.1161  0.7264
 2328SOL    HW118443   2.442   2.312   9.358 -0.0840  0.2589 -0.2174
 2328SOL    HW218444   2.357   2.220   9.431 -0.4475 -1.1174 -0.0109
 2329SOL     OW18445   2.374   2.049   1.499  0.2204  0.2919  0.6885
 2329SOL    HW118446   2.403   1.979   1.441  0.3051  0.7811  0.1380
 2329SOL    HW218447   2.444   2.115   1.498  0.0585  0.4650  0.6757
 2330SOL     OW18448   1.391   4.149   7.333 -0.6040 -0.1774  0.0317
 2330SOL    HW118449   1.424   4.142   7.423 -1.8774  3.2077  0.7784
 2330SOL    HW218450   1.430   4.068   7.301 -0.4204 -0.1978  0.2997
 2331SOL     OW18451   4.057   0.283   2.949 -0.2060  0.1380  0.2859
 2331SOL    HW118452   4.093   0.211   3.000 -0.2409  0.0391  0.1702
 2331SOL    HW218453   3.990   0.310   3.012 -1.1097  0.8514 -0.9823
 2332SOL     OW18454   4.213   4.560  11.482 -0.0068  0.0029 -0.2688
 2332SOL    HW118455   4.249   4.487  11.431  0.7611  1.5090 -1.8545
 2332SOL    HW218456   4.260   4.633  11.443  1.6627  0.2775  2.2208
 2333SOL     OW18457   1.401   0.027  14.657 -0.2127 -0.1383  0.4479
 2333SOL    HW118458   1.398   0.072  14.741 -0.8375  2.0716 -0.7533
 2333SOL    HW218459   1.492   4.719  14.657 -0.5594 -1.2589 -0.2497
 2334SOL     OW18460   0.679   3.068  16.441  0.0640  0.2345  0.3880
 2334SOL    HW118461   0.765   3.041  16.474 -0.1853  0.5855  1.3252
 2334SOL    HW218462   0.621   3.064  16.517 -0.4145  0.5607  0.0395
 2335SOL     OW18463   0.660   2.695  16.482  0.4367 -0.3865 -0.4393
 2335SOL    HW118464   0.690   2.604  16.480 -2.2313 -1.2880  0.6313
 2335SOL    HW218465   0.705   2.727  16.403 -0.9626  0.0754 -1.0468
 2336SOL     OW18466   3.346   2.893  12.293  0.5620 -0.5564 -0.1847
 2336SOL    HW118467   3.385   2.833  12.230  1.9631 -0.6657  0.7759
 2336SOL    HW218468   3.254   2.876  12.272  0.0406  2.5988 -0.4993
 2337SOL     OW18469   0.987   2.448   6.545 -0.0699 -0.3975 -0.1641
 2337SOL    HW118470   1.038   2.464   6.625  1.3754  1.2617 -1.4374
 2337SOL    HW218471   0.964   2.356   6.556  0.5091 -0.6916 -1.5058
 2338SOL     OW18472   2.563   3.168   0.245  0.0540 -0.1178  0.2540
 2338SOL    HW118473   2.606   3.084   0.230 -0.9372  0.0267 -3.5057
 2338SOL    HW218474   2.489   3.156   0.185  0.3012 -3.0458  0.5191
 2339SOL     OW18475   1.773   2.006   2.230 -0.2353 -0.5558 -0.4307
 2339SOL    HW118476   1.702   2.067   2.251 -1.0375 -2.0524  1.2788
 2339SOL    HW218477   1.725   1.923   2.225  0.5095 -1.0668  0.6468
 2340SOL     OW18478   3.440   1.796  13.575  0.6545 -0.0716 -0.4540
 2340SOL    HW118479   3.399   1.792  13.661  0.7170 -1.8153 -0.5047
 2340SOL    HW218480   3.529   1.769  13.600  1.1793  2.8099  0.7232
 2341SOL     OW18481   1.202   0.204   8.788 -0.2561 -0.4898 -0.6530
 2341SOL    HW118482   1.226   0.132   8.731  2.3815  1.0764 -1.5192
 2341SOL    HW218483   1.239   0.283   8.748  1.0692 -0.4641  0.6324
 2342SOL     OW18484   3.210   2.863   2.874 -0.3305 -0.6409 -0.1736
 2342SOL    HW118485   3.121   2.830   2.864 -0.4631 -0.7625  1.3041
 2342SOL    HW218486   3.184   2.955   2.875  1.9475  0.0381 -2.2422
 2343SOL     OW18487   0.616   3.163   8.625 -0.6894 -0.3493 -0.4488
 2343SOL    HW118488   0.602   3.069   8.613 -1.5290 -0.3521  0.5042
 2343SOL    HW218489   0.667   3.177   8.705  3.0627  0.0134 -2.9071
 2344SOL     OW18490   3.128   4.560  15.447  0.3906  0.5247  0.4359
 2344SOL    HW118491   3.064   4.530  15.512  0.9946  1.4167  1.4441
 2344SOL    HW218492   3.073   4.572  15.369 -0.6474  2.2205  1.4201
 2345SOL     OW18493   2.964   2.186   9.540 -0.4074 -0.9213 -0.4934
 2345SOL    HW118494   3.000   2.131   9.471  0.4383  0.0873 -0.8535
 2345SOL    HW218495   3.041   2.200   9.594 -1.2599  2.8846 -0.2533
 2346SOL     OW18496   3.709   4.093  14.453  0.3878  0.6852  0.1659
 2346SOL    HW118497   3.621   4.081  14.417  1.0007 -1.0181 -0.7577
 2346SOL    HW218498   3.752   4.137  14.381  0.3835 -1.1950 -0.9820
 2347SOL     OW18499   2.484   0.350  11.367 -0.0418 -0.8135 -0.4376
 2347SOL    HW118500   2.570   0.308  11.366  0.8722  1.0453 -0.7779
 2347SOL    HW218501   2.432   0.283  11.411 -1.0444  1.3825  1.7074
 2348SOL     OW18502   1.048   3.200   6.017  0.1588 -0.3052 -0.1702
 2348SOL    HW118503   1.072   3.157   6.099 -1.1700  0.5514  0.6629
 2348SOL    HW218504   1.128   3.230   5.974 -1.6031  3.1934 -1.0671
 2349SOL     OW18505   4.230   3.501   0.680 -0.0967  0.0093  0.5020
 2349SOL    HW118506   4.257   3.593   0.683  0.9370 -0.2831  0.0600
 2349SOL    HW218507   4.208   3.497   0.773 -1.1272 -1.0467  0.2087
 2350SOL     OW18508   0.595   2.862   9.045 -0.5826 -0.0051  0.0192
 2350SOL    HW118509   0.688   2.877   9.028 -0.4741 -2.4495 -1.4201
 2350SOL    HW218510   0.596   2.819   9.130 -0.8145 -3.9043 -1.9663
 2351SOL     OW18511   0.702   2.465   8.076 -0.2819  0.6892  0.5249
 2351SOL    HW118512   0.724   2.389   8.130 -0.1766 -1.5768 -2.7627
 2351SOL    HW218513   0.716   2.425   7.991  1.0770  0.4228  0.8720
 2352SOL     OW18514   3.656   4.373  14.961 -0.0836 -0.1996 -0.5485
 2352SOL    HW118515   3.663   4.302  15.025 -1.2743 -0.3984 -0.6395
 2352SOL    HW218516   3.747   4.376  14.930  0.2671  4.7466  1.0325
 2353SOL     OW18517   1.881   3.352   8.583  0.0784  0.0305  0.3390
 2353SOL    HW118518   1.914   3.442   8.578 -1.1691  0.4365 -0.8731
 2353SOL    HW218519   1.955   3.299   8.553  0.7435  1.1011  0.0878
 2354SOL     OW18520   0.812   0.898   1.591  0.2510 -0.2620  0.4409
 2354SOL    HW118521   0.890   0.945   1.559  1.2460 -2.0154  0.2641
 2354SOL    HW218522   0.774   0.870   1.507  0.6418 -0.3061  0.2780
 2355SOL     OW18523   3.431   3.661  14.165 -0.0407  0.2553  0.0098
 2355SOL    HW118524   3.482   3.704  14.234  1.7371  1.2532 -1.9237
 2355SOL    HW218525   3.500   3.624  14.110  2.0495  0.8921  2.1976
 2356SOL     OW18526   0.750   1.719   1.933 -0.1729 -0.0223 -0.0220
 2356SOL    HW118527   0.678   1.702   1.872 -0.2615 -1.8019  0.5789
 2356SOL    HW218528   0.823   1.722   1.871  1.2782  2.9991  1.8326
 2357SOL     OW18529   1.938   0.386   3.806  0.2808 -0.7866 -0.2620
 2357SOL    HW118530   1.966   0.295   3.799 -2.0083 -1.4619 -0.4571
 2357SOL    HW218531   1.959   0.413   3.716 -1.1662  0.2761 -0.2703
 2358SOL     OW18532   1.851   3.207  14.248  0.0277  0.3059 -0.1293
 2358SOL    HW118533   1.901   3.287  14.260 -0.6366  0.4721  1.5630
 2358SOL    HW218534   1.760   3.220  14.275  0.1721  0.5642  0.2281
 2359SOL     OW18535   2.214   1.609   2.462  0.5046  0.6863 -0.5030
 2359SOL    HW118536   2.231   1.638   2.373  3.1623  0.9319  0.0937
 2359SOL    HW218537   2.119   1.597   2.449  0.8232 -2.6914  0.2222
 2360SOL     OW18538   3.271   3.588  17.080  0.6051  0.8347 -0.0022
 2360SOL    HW118539   3.336   3.527  17.115  0.7000 -0.7746 -2.9659
 2360SOL    HW218540   3.208   3.588  17.152 -0.0355  1.7954 -0.5617
 2361SOL     OW18541   4.190   0.456   7.396  0.1018 -0.4342  0.1299
 2361SOL    HW118542   4.164   0.485   7.309 -1.1166  0.9696  0.9570
 2361SOL    HW218543   4.236   0.532   7.431 -2.6432  1.7516 -1.0025
 2362SOL     OW18544   3.052   0.682   7.751 -0.2034  0.4850  0.0741
 2362SOL    HW118545   3.046   0.641   7.838 -1.1139  1.7100  0.5898
 2362SOL    HW218546   3.129   0.639   7.713 -0.5864  1.7680 -2.1490
 2363SOL     OW18547   1.830   2.084   2.869  0.3946 -0.2032  0.4722
 2363SOL    HW118548   1.805   2.129   2.789  2.1203  0.3691  0.2467
 2363SOL    HW218549   1.793   2.145   2.932 -1.3629  0.2571 -1.0178
 2364SOL     OW18550   3.313   0.734  15.528  0.1793 -0.2182  0.1152
 2364SOL    HW118551   3.226   0.713  15.562  0.0541  0.1230  0.0073
 2364SOL    HW218552   3.351   0.778  15.604 -0.8574 -1.7003  1.4999
 2365SOL     OW18553   1.053   3.141  13.517 -0.3999  0.1147 -0.4517
 2365SOL    HW118554   1.119   3.205  13.542  0.4494 -0.7434 -0.5368
 2365SOL    HW218555   0.977   3.197  13.501 -0.0515  0.9767  0.8872
 2366SOL     OW18556   0.995   2.923  11.773 -0.2680 -0.5770  0.2923
 2366SOL    HW118557   1.026   2.977  11.700 -1.0508 -0.3332  0.1411
 2366SOL    HW218558   0.900   2.923  11.766 -0.2791  0.9347  0.4664
 2367SOL     OW18559   3.006   3.930   3.041  0.3158  0.1520  0.1323
 2367SOL    HW118560   3.035   4.012   3.001 -0.2181  0.2184 -0.1201
 2367SOL    HW218561   2.980   3.961   3.128  2.5600  0.5694  0.6579
 2368SOL     OW18562   4.501   3.426   8.675 -0.5572 -0.5730  0.0584
 2368SOL    HW118563   4.575   3.448   8.732 -1.0222 -3.8130  1.9001
 2368SOL    HW218564   4.521   3.470   8.592 -2.0327 -0.9981 -0.5190
 2369SOL     OW18565   2.035   4.310   2.439  0.0048  0.0832 -0.4064
 2369SOL    HW118566   1.946   4.293   2.408  0.0902 -1.6928  0.3573
 2369SOL    HW218567   2.080   4.255   2.374  0.9190 -0.7888  0.9726
 2370SOL     OW18568   0.765   3.611   2.230  0.2089 -0.1663 -0.3719
 2370SOL    HW118569   0.681   3.647   2.257  0.9959  0.1668  1.6520
 2370SOL    HW218570   0.742   3.519   2.216  1.2847 -0.4632 -0.1710
 2371SOL     OW18571   2.575   0.127  11.731  0.3451  0.0450 -0.1122
 2371SOL    HW118572   2.662   0.167  11.744  1.3411 -1.5420 -1.8724
 2371SOL    HW218573   2.588   0.033  11.743  0.5386  0.2739  1.4771
 2372SOL     OW18574   2.627   0.625   8.498 -0.1749 -0.4011  0.1280
 2372SOL    HW118575   2.706   0.653   8.453  0.7692 -2.3171  0.5882
 2372SOL    HW218576   2.591   0.587   8.418 -0.8326  1.7738 -0.6094
 2373SOL     OW18577   1.087   3.432   8.048 -0.5139 -0.0335  0.5342
 2373SOL    HW118578   1.144   3.447   7.973  2.2812 -1.2259  2.4170
 2373SOL    HW218579   1.061   3.522   8.065 -2.5348 -0.3116 -1.0979
 2374SOL     OW18580   3.490   1.960   2.442 -0.0947 -0.3378 -0.4790
 2374SOL    HW118581   3.440   2.002   2.372 -0.1144  0.6518  0.1327
 2374SOL    HW218582   3.567   2.016   2.451  0.1097 -0.3479 -2.0953
 2375SOL     OW18583   0.303   0.937   8.461 -0.2437 -0.4452 -0.5623
 2375SOL    HW118584   0.326   1.002   8.528 -1.6258 -0.7044  0.1772
 2375SOL    HW218585   0.235   0.885   8.503 -1.7812  0.5120 -1.8580
 2376SOL     OW18586   1.557   0.379  13.705 -0.1443  0.1103  0.0525
 2376SOL    HW118587   1.645   0.358  13.673 -0.2427  0.2391 -0.3032
 2376SOL    HW218588   1.518   0.294  13.724  0.1346 -0.5160 -2.2348
 2377SOL     OW18589   1.084   2.991   7.866 -0.2185  0.5566  0.5435
 2377SOL    HW118590   1.124   2.905   7.876 -0.8182  0.2276  0.0757
 2377SOL    HW218591   1.159   3.051   7.860 -1.3968  1.8456 -1.2727
 2378SOL     OW18592   4.686   3.200   6.014 -0.0866 -0.0521  0.5402
 2378SOL    HW118593   4.641   3.151   6.083 -1.6701  1.4467  0.5815
 2378SOL    HW218594   4.607   3.233   5.971  0.2830 -0.4309 -0.4333
 2379SOL     OW18595   4.347   3.160   4.821 -0.4547  0.5149  0.3417
 2379SOL    HW118596   4.352   3.138   4.915 -0.8850 -0.8338  0.0465
 2379SOL    HW218597   4.387   3.087   4.774  0.3307  0.6897  0.7333
 2380SOL     OW18598   0.050   3.538   6.360 -0.0940 -0.3126  0.0425
 2380SOL    HW118599   4.714   3.531   6.283  0.7637 -1.4686 -0.4698
 2380SOL    HW218600   0.134   3.531   6.314  1.2430  2.6013  2.0136
 2381SOL     OW18601   1.685   0.421   3.456  0.1135 -0.7278  0.2701
 2381SOL    HW118602   1.649   0.481   3.521  0.9979  0.5849 -0.4497
 2381SOL    HW218603   1.771   0.461   3.453 -0.7256  1.1956  1.7732
 2382SOL     OW18604   4.587   1.497   2.816 -0.2453  0.0684  0.6494
 2382SOL    HW118605   4.681   1.484   2.803 -0.3883 -0.3892  0.0712
 2382SOL    HW218606   4.566   1.462   2.730  0.6817  0.0588  0.4209
 2383SOL     OW18607   0.706   0.855   2.915  0.3051  0.0167 -1.2868
 2383SOL    HW118608   0.678   0.922   2.853  1.0088  0.4173 -1.1691
 2383SOL    HW218609   0.721   0.902   2.997  0.6836 -1.8261 -0.2943
 2384SOL     OW18610   0.106   1.346   8.568  1.1933  0.1035 -0.1819
 2384SOL    HW118611   0.054   1.421   8.596 -0.0558 -0.5925 -0.6302
 2384SOL    HW218612   0.065   1.267   8.603 -0.4932  1.7478  1.5409
 2385SOL     OW18613   0.043   0.536   2.848  0.1990  0.3932 -0.1115
 2385SOL    HW118614   4.685   0.571   2.807 -0.1549 -1.6352 -1.1998
 2385SOL    HW218615   0.061   0.600   2.917 -0.8369  0.2451  0.2936
 2386SOL     OW18616   3.640   2.102   7.373  0.2842 -0.1122 -0.1015
 2386SOL    HW118617   3.625   2.085   7.280  1.7672 -1.8982 -0.0169
 2386SOL    HW218618   3.652   2.197   7.369  2.1694 -0.3794 -0.9032
 2387SOL     OW18619   2.376   2.387   6.819  0.1131  0.9596 -0.3225
 2387SOL    HW118620   2.383   2.477   6.788  1.4263  1.6412  1.9838
 2387SOL    HW218621   2.282   2.374   6.805  0.0088 -0.8873  2.0477
 2388SOL     OW18622   3.231   2.463  10.493 -0.1160 -0.0892 -0.7262
 2388SOL    HW118623   3.174   2.483  10.418  1.1412  1.1001 -1.3737
 2388SOL    HW218624   3.184   2.393  10.538  0.6850  1.0026  1.7629
 2389SOL     OW18625   0.740   0.603   6.900 -0.0741 -0.0247  0.2611
 2389SOL    HW118626   0.823   0.572   6.865 -0.6144  0.5422 -1.5550
 2389SOL    HW218627   0.740   0.546   6.977 -0.5426  0.1624  0.3985
 2390SOL     OW18628   1.522   1.516   7.624 -0.3830  0.1383  0.3401
 2390SOL    HW118629   1.487   1.442   7.573  0.2754 -1.7803  2.6760
 2390SOL    HW218630   1.470   1.592   7.599  2.2545  1.8120 -0.0297
 2391SOL     OW18631   0.171   3.189  17.460 -0.2002 -0.0326  0.0758
 2391SOL    HW118632   0.145   3.175  17.369  0.9651  0.7773 -0.3703
 2391SOL    HW218633   0.089   3.211  17.504  0.6120  0.4048  1.3856
 2392SOL     OW18634   4.285   3.049   6.063  0.0994  0.3130 -0.2591
 2392SOL    HW118635   4.332   3.065   5.981 -1.4185  0.2677 -1.1253
 2392SOL    HW218636   4.318   3.119   6.120 -0.8885  0.1554  0.5130
 2393SOL     OW18637   1.188   1.975  10.839  0.1183  0.6001 -0.1688
 2393SOL    HW118638   1.268   2.021  10.814  0.2499 -0.3794 -1.5273
 2393SOL    HW218639   1.193   1.888  10.799 -1.4296  1.9494 -3.3176
 2394SOL     OW18640   1.216   0.958   7.522 -0.1165  0.2614  0.6374
 2394SOL    HW118641   1.311   0.945   7.513 -0.4514 -1.5225 -0.2917
 2394SOL    HW218642   1.210   1.050   7.498 -0.5488 -0.3644 -1.6630
 2395SOL     OW18643   1.562   2.536  12.626  0.0289 -0.4548  0.2555
 2395SOL    HW118644   1.486   2.594  12.633 -0.3699 -1.2678  2.8735
 2395SOL    HW218645   1.614   2.545  12.706  0.6240  0.8124 -0.2804
 2396SOL     OW18646   0.455   3.141   2.767  0.2513  0.5442 -0.0900
 2396SOL    HW118647   0.393   3.117   2.698  0.8634 -0.5491 -0.2514
 2396SOL    HW218648   0.514   3.198   2.719  0.2607  1.5135  1.0546
 2397SOL     OW18649   3.749   3.518   4.239  0.3559  0.5426  0.9401
 2397SOL    HW118650   3.833   3.539   4.198  0.7207 -1.4577  0.6384
 2397SOL    HW218651   3.735   3.429   4.204 -0.3335  0.9950  0.0670
 2398SOL     OW18652   3.978   2.715  12.455  0.8469 -0.4762 -0.4013
 2398SOL    HW118653   3.913   2.675  12.398  0.3868  1.4052 -1.2134
 2398SOL    HW218654   4.057   2.697  12.404  1.8134  2.7534 -0.0683
 2399SOL     OW18655   0.368   3.073   3.764  0.0436  0.3882 -0.6851
 2399SOL    HW118656   0.368   3.057   3.670 -1.6171  1.7230 -0.9095
 2399SOL    HW218657   0.455   3.042   3.789 -0.2295  0.1685 -0.0263
 2400SOL     OW18658   3.369   2.972   6.800  0.3586 -0.5358 -0.0609
 2400SOL    HW118659   3.311   2.963   6.725 -0.1443 -1.0628  0.3980
 2400SOL    HW218660   3.441   2.915   6.773 -0.9769 -1.1145 -2.3596
 2401SOL     OW18661   0.406   4.496   6.599  0.8890 -0.0489  0.1898
 2401SOL    HW118662   0.399   4.553   6.522  2.4825 -2.8588 -2.0364
 2401SOL    HW218663   0.395   4.410   6.558 -0.3252 -0.2890  1.0323
 2402SOL     OW18664   3.372   2.463   6.741  0.6712  0.2735  0.1264
 2402SOL    HW118665   3.433   2.536   6.733  0.1097  0.6240 -0.9467
 2402SOL    HW218666   3.430   2.388   6.726 -0.5453 -0.4236 -1.1643
 2403SOL     OW18667   0.841   4.463   0.840  0.8185 -0.4179  0.0139
 2403SOL    HW118668   0.862   4.528   0.773  0.3211  1.1109  1.3399
 2403SOL    HW218669   0.805   4.512   0.914  1.6377  1.0587 -0.5618
 2404SOL     OW18670   2.315   1.767   9.008  0.4053  0.3155  0.4610
 2404SOL    HW118671   2.347   1.812   9.086 -0.1539  0.5142  0.5735
 2404SOL    HW218672   2.397   1.736   8.969  1.2055 -0.0783  2.4510
 2405SOL     OW18673   1.265   0.259   9.606 -0.5961  0.3827  0.6025
 2405SOL    HW118674   1.174   0.288   9.605 -0.6593  0.2064  1.3594
 2405SOL    HW218675   1.299   0.293   9.689 -1.0731  1.0478  0.5261
 2406SOL     OW18676   4.658   2.813   3.013  0.5478 -0.0719 -0.6667
 2406SOL    HW118677   4.588   2.875   3.034  0.8911 -0.1736  0.7381
 2406SOL    HW218678   4.624   2.742   3.068  0.5408 -0.7534 -1.5540
 2407SOL     OW18679   1.909   2.998  17.207 -0.1420  0.1987 -0.0172
 2407SOL    HW118680   1.947   3.069  17.155 -3.5865  0.4550 -2.2188
 2407SOL    HW218681   1.981   2.938  17.223  1.2214  1.1382 -2.7227
 2408SOL     OW18682   1.778   4.181   8.417 -0.0871  0.0008  0.4304
 2408SOL    HW118683   1.762   4.204   8.508 -2.4068  1.0858 -0.2541
 2408SOL    HW218684   1.871   4.204   8.411 -0.0781  0.2139  1.4080
 2409SOL     OW18685   3.535   2.348  11.211  0.0466  0.3135  0.0606
 2409SOL    HW118686   3.565   2.258  11.199  0.1167  0.6282 -2.1192
 2409SOL    HW218687   3.465   2.336  11.276 -1.0890  0.9282 -1.0600
 2410SOL     OW18688   3.787   0.983   2.103 -0.0087 -0.5848 -0.2303
 2410SOL    HW118689   3.851   0.959   2.036  1.1488 -1.1745  1.0876
 2410SOL    HW218690   3.744   1.055   2.058  1.5355  0.7258  0.3977
 2411SOL     OW18691   3.818   2.405   0.043 -0.2038  0.4838 -0.4886
 2411SOL    HW118692   3.756   2.337   0.072 -0.3712  0.5009 -0.8047
 2411SOL    HW218693   3.904   2.364   0.037  0.0808  0.9901  0.2710
 2412SOL     OW18694   1.086   0.395  17.373  0.1932  0.0222  0.5166
 2412SOL    HW118695   1.003   0.360  17.406 -0.8444  2.4664  0.5691
 2412SOL    HW218696   1.061   0.475  17.420  0.6125  0.8763 -0.7049
 2413SOL     OW18697   3.546   2.767   0.926  0.2171  0.5865 -0.5121
 2413SOL    HW118698   3.563   2.673   0.936 -1.1808  0.5780  1.8123
 2413SOL    HW218699   3.451   2.778   0.921  0.1714  0.2317 -0.4104
 2414SOL     OW18700   0.874   4.671   0.651  0.0487  0.2275  0.0996
 2414SOL    HW118701   0.814   4.614   0.602  1.8722 -0.0734 -1.8040
 2414SOL    HW218702   0.928   4.715   0.585 -0.0540 -1.0679 -0.8645
 2415SOL     OW18703   1.511   2.609   6.686  0.1572  0.3883 -0.1209
 2415SOL    HW118704   1.576   2.600   6.617  2.3751  0.8499  1.9274
 2415SOL    HW218705   1.538   2.688   6.733  1.5363  0.0292 -0.3346
 2416SOL     OW18706   0.971   2.843  16.333 -0.4851  0.1990 -0.2395
 2416SOL    HW118707   0.879   2.838  16.308 -0.0054 -1.7876 -1.5940
 2416SOL    HW218708   0.972   2.909  16.403  0.3887 -0.0517 -0.0140
 2417SOL     OW18709   1.392   0.284  15.641 -0.5895 -0.3318  0.4112
 2417SOL    HW118710   1.411   0.196  15.673  0.2938 -0.4163 -0.3277
 2417SOL    HW218711   1.313   0.305  15.690 -0.3038 -0.2880  0.8524
 2418SOL     OW18712   2.351   4.633   3.391 -0.4680 -1.2585 -0.7136
 2418SOL    HW118713   2.436   4.667   3.420 -1.9283  0.6953  1.1997
 2418SOL    HW218714   2.311   4.711   3.353  1.3920  0.5328  0.9553
 2419SOL     OW18715   0.622   0.018   4.815 -0.2086  0.3410  0.3487
 2419SOL    HW118716   0.609   4.667   4.753 -1.6178 -0.1746  1.2447
 2419SOL    HW218717   0.613   0.092   4.756 -1.1973  0.1130  0.2216
 2420SOL     OW18718   2.106   0.927   1.215 -0.8593  0.6181 -0.3267
 2420SOL    HW118719   2.044   0.993   1.182 -1.1916 -0.6826 -2.2691
 2420SOL    HW218720   2.175   0.931   1.149  1.3911  1.0157  2.0460
 2421SOL     OW18721   3.471   4.075  14.316 -0.1872  0.2612  0.0687
 2421SOL    HW118722   3.394   4.081  14.260 -0.8276  1.0933  1.0385
 2421SOL    HW218723   3.479   3.981  14.336 -0.8490  0.0403 -0.6891
 2422SOL     OW18724   1.754   3.674  17.524  0.4272  0.0997 -0.3294
 2422SOL    HW118725   1.685   3.608  17.530  1.0859 -0.5212  0.4941
 2422SOL    HW218726   1.760   3.684  17.429  0.8080  1.2485 -0.1846
 2423SOL     OW18727   2.296   2.455  14.949  0.0753 -0.2608 -0.3227
 2423SOL    HW118728   2.213   2.416  14.977 -1.1556  1.4957 -1.5226
 2423SOL    HW218729   2.271   2.544  14.925 -0.2788  0.1554  1.5990
 2424SOL     OW18730   2.642   2.901   2.411  0.2761 -0.4059 -0.4802
 2424SOL    HW118731   2.735   2.923   2.406  0.4805 -0.9903  0.7923
 2424SOL    HW218732   2.634   2.850   2.331  0.3118 -2.2880  0.7107
 2425SOL     OW18733   0.115   2.264   4.286 -0.6304  0.1558 -0.0628
 2425SOL    HW118734   0.135   2.324   4.214 -0.0971 -0.1779 -0.1933
 2425SOL    HW218735   0.064   2.196   4.243  0.1982 -1.0699  0.8962
 2426SOL     OW18736   4.197   2.149   8.860  0.0155  0.2345 -0.7531
 2426SOL    HW118737   4.147   2.095   8.922  1.2069  0.0365  0.0290
 2426SOL    HW218738   4.170   2.099   8.783  2.7627  0.4518 -1.8586
 2427SOL     OW18739   3.599   4.034   6.410  0.4898  0.2557 -0.2265
 2427SOL    HW118740   3.666   4.087   6.454  2.4626  0.1189 -3.0543
 2427SOL    HW218741   3.518   4.073   6.441 -0.0458 -0.5550 -0.6262
 2428SOL     OW18742   4.520   2.396   7.777  0.1972 -0.0531 -0.1929
 2428SOL    HW118743   4.600   2.361   7.817  0.6114 -0.6654 -1.5394
 2428SOL    HW218744   4.453   2.348   7.826  2.0900 -2.4543  0.0992
 2429SOL     OW18745   1.816   3.392  12.261  0.0187 -0.5272  0.3852
 2429SOL    HW118746   1.846   3.469  12.213  0.2448  0.1181  1.5754
 2429SOL    HW218747   1.859   3.396  12.346 -1.8888 -0.0790  1.3231
 2430SOL     OW18748   0.009   0.125   6.594  0.0092  0.3113  0.5977
 2430SOL    HW118749   4.719   0.072   6.673  1.4244 -0.5677  0.1737
 2430SOL    HW218750   0.032   0.210   6.631 -1.5220  1.2899 -0.6922
 2431SOL     OW18751   3.075   4.338   5.132  0.3823 -0.1697  0.4262
 2431SOL    HW118752   2.980   4.324   5.126  0.3603  0.9173 -1.5869
 2431SOL    HW218753   3.109   4.264   5.082  1.4335  1.3724 -1.1518
 2432SOL     OW18754   2.741   2.388   5.539 -0.7760  0.0437  0.2580
 2432SOL    HW118755   2.753   2.392   5.444 -1.2797 -0.3829  0.1829
 2432SOL    HW218756   2.701   2.303   5.555  1.9493 -0.8798  2.0813
 2433SOL     OW18757   0.836   0.778   7.736  0.5204  0.1115  0.3998
 2433SOL    HW118758   0.836   0.752   7.828 -0.1995  2.4038  1.0649
 2433SOL    HW218759   0.884   0.861   7.742 -0.4985  0.6337  1.4328
 2434SOL     OW18760   0.523   4.609   2.486 -0.1133 -0.0182 -0.0058
 2434SOL    HW118761   0.443   4.569   2.520  0.1517 -0.8774 -0.3949
 2434SOL    HW218762   0.485   4.651   2.409 -1.4443 -0.8931  0.1867
 2435SOL     OW18763   4.505   1.075   2.227  0.1309  0.4631 -0.3913
 2435SOL    HW118764   4.493   1.148   2.167  0.6996  0.9212  0.0525
 2435SOL    HW218765   4.556   1.013   2.175 -2.4910 -2.2290  0.2311
 2436SOL     OW18766   2.346   3.578   1.925  0.2569 -0.0761  0.1888
 2436SOL    HW118767   2.289   3.503   1.910  1.3914 -1.4786  2.8020
 2436SOL    HW218768   2.411   3.531   1.977  2.9086  0.3733 -2.6885
 2437SOL     OW18769   3.353   3.100   3.008  0.0603 -0.4765  0.2947
 2437SOL    HW118770   3.363   3.014   3.047 -1.4399 -0.6454  0.2738
 2437SOL    HW218771   3.284   3.137   3.063 -1.0668 -0.7707 -0.9364
 2438SOL     OW18772   4.463   1.605   5.854  0.2356  0.2952 -0.0993
 2438SOL    HW118773   4.483   1.534   5.793 -1.8156  1.4511 -2.1397
 2438SOL    HW218774   4.368   1.594   5.846  0.3444  0.6978 -2.0724
 2439SOL     OW18775   3.010   4.623  15.225 -0.0981  0.2374 -0.1156
 2439SOL    HW118776   2.929   4.660  15.259 -0.8405  0.3846 -2.0449
 2439SOL    HW218777   3.036   4.706  15.186  2.7480 -1.1643 -1.2086
 2440SOL     OW18778   4.305   2.750   0.242 -0.1042 -0.6290  0.3598
 2440SOL    HW118779   4.268   2.819   0.296 -0.8361 -0.4334 -0.3883
 2440SOL    HW218780   4.221   2.742   0.196  1.3273 -2.4359 -1.9439
 2441SOL     OW18781   4.019   0.051   5.483 -0.8907  0.2632 -0.2760
 2441SOL    HW118782   4.003   0.023   5.573  1.5391  1.3196  0.4764
 2441SOL    HW218783   4.062   4.693   5.450  0.5737  1.3700 -1.0272
 2442SOL     OW18784   0.604   3.290   2.590 -0.8008  0.0825  0.2357
 2442SOL    HW118785   0.605   3.384   2.607  1.1237 -0.2301  1.7566
 2442SOL    HW218786   0.696   3.270   2.607 -0.7180  0.6330  0.4327
 2443SOL     OW18787   2.273   0.126   5.984 -0.4866  0.7265  0.2750
 2443SOL    HW118788   2.299   0.170   6.065 -0.1024  2.0813 -0.5786
 2443SOL    HW218789   2.327   0.175   5.922 -0.0171  0.7070  0.6687
 2444SOL     OW18790   2.443   1.090   5.982 -0.0530 -0.6088 -0.4172
 2444SOL    HW118791   2.387   1.108   5.907  2.0985 -1.4782 -2.2231
 2444SOL    HW218792   2.507   1.030   5.945 -1.1985 -1.1802 -1.4875
 2445SOL     OW18793   3.448   0.468  13.743  0.0192  0.2941  0.1841
 2445SOL    HW118794   3.457   0.476  13.648  2.5241 -2.2132  0.2216
 2445SOL    HW218795   3.426   0.376  13.751 -0.1983  0.1288 -2.2925
 2446SOL     OW18796   1.091   2.276  14.319  0.7181  0.4150 -0.1660
 2446SOL    HW118797   1.076   2.186  14.289 -0.1549  0.8399 -1.0041
 2446SOL    HW218798   1.180   2.265  14.351  0.6323 -0.1725 -0.1275
 2447SOL     OW18799   4.481   3.766   9.009 -0.1348 -0.1336  0.2489
 2447SOL    HW118800   4.484   3.781   9.104 -2.5102  1.7181  0.0321
 2447SOL    HW218801   4.477   3.671   9.007 -0.4210 -0.0888 -0.9780
 2448SOL     OW18802   2.101   4.594   3.940 -0.0117  0.0453  0.2886
 2448SOL    HW118803   2.134   4.652   3.871  1.0590 -0.4656  0.3759
 2448SOL    HW218804   2.009   4.585   3.913  0.3785 -0.4460 -0.8844
 2449SOL     OW18805   3.647   1.891   9.585 -0.3226 -0.1024 -0.6103
 2449SOL    HW118806   3.650   1.871   9.678  0.4908  1.7877 -0.2385
 2449SOL    HW218807   3.584   1.824   9.556  1.0667 -1.9681  0.7459
 2450SOL     OW18808   2.927   0.176   2.532  0.0613 -0.0729 -0.2162
 2450SOL    HW118809   2.864   0.189   2.461  1.1949  0.7481 -1.0543
 2450SOL    HW218810   2.997   0.127   2.489 -1.2565  0.8392 -3.4079
 2451SOL     OW18811   4.502   3.499   3.752 -0.6194 -0.7535  0.0131
 2451SOL    HW118812   4.430   3.546   3.793  0.0132 -0.2295  0.5236
 2451SOL    HW218813   4.555   3.480   3.830  0.6283 -1.3889 -0.9784
 2452SOL     OW18814   2.178   1.558   8.198 -0.4364  0.2319  0.6181
 2452SOL    HW118815   2.198   1.535   8.107 -1.9595  2.3627 -0.2494
 2452SOL    HW218816   2.265   1.573   8.234 -0.3670 -1.7274  1.2576
 2453SOL     OW18817   0.983   2.851   5.438 -0.2817 -0.4191 -0.4062
 2453SOL    HW118818   0.957   2.853   5.530  0.3855 -0.9105 -0.2097
 2453SOL    HW218819   0.923   2.920   5.411  2.5558  2.0587 -0.3533
 2454SOL     OW18820   2.263   3.046   3.803  0.1820 -0.1453 -0.3761
 2454SOL    HW118821   2.183   3.091   3.832 -1.0467 -2.3678 -0.3253
 2454SOL    HW218822   2.233   3.017   3.717 -0.1178  0.8938 -0.6282
 2455SOL     OW18823   1.200   1.564   5.298 -0.1777 -0.0970  0.0361
 2455SOL    HW118824   1.111   1.546   5.327  0.1735 -0.5693  0.8568
 2455SOL    HW218825   1.180   1.634   5.236 -0.2399 -0.6728 -0.5884
 2456SOL     OW18826   1.933   0.574   6.838  0.1868  0.0189  0.2301
 2456SOL    HW118827   1.914   0.545   6.927  1.1596  1.0307  0.7588
 2456SOL    HW218828   2.007   0.631   6.857  0.3966 -0.1555 -0.0614
 2457SOL     OW18829   1.430   1.906  16.100  0.7345 -0.5513 -0.1055
 2457SOL    HW118830   1.515   1.949  16.092  0.4362 -0.0814 -0.8170
 2457SOL    HW218831   1.452   1.843  16.168  0.5965 -1.7195 -1.1472
 2458SOL     OW18832   2.709   0.266   3.872 -0.4903  0.2722  0.0045
 2458SOL    HW118833   2.628   0.226   3.906  0.2789 -2.0157 -0.8751
 2458SOL    HW218834   2.755   0.187   3.845  2.5074  1.7352  0.8605
 2459SOL     OW18835   3.548   1.014   2.633  0.3434 -0.1672  0.3906
 2459SOL    HW118836   3.634   1.050   2.611  1.3653 -3.1751 -0.7020
 2459SOL    HW218837   3.555   0.979   2.722 -0.3372 -1.5065 -0.0818
 2460SOL     OW18838   1.678   2.464   7.179  0.7949  0.0162 -0.1228
 2460SOL    HW118839   1.612   2.457   7.110  0.3299 -1.6721  0.4873
 2460SOL    HW218840   1.715   2.377   7.163 -0.6977 -0.8693  1.2785
 2461SOL     OW18841   2.026   3.060   8.737  0.5768  0.0597 -0.6076
 2461SOL    HW118842   2.025   3.040   8.643 -0.8802 -2.8935  0.0408
 2461SOL    HW218843   2.113   3.099   8.743  0.3064  0.6422 -0.3978
 2462SOL     OW18844   3.378   0.822   8.884  0.0722 -0.4831  0.4903
 2462SOL    HW118845   3.337   0.851   8.803  0.8049 -2.1581 -0.4913
 2462SOL    HW218846   3.412   0.906   8.915  2.7156 -0.6151 -2.0689
 2463SOL     OW18847   3.088   1.062   8.434  0.3315  0.4861  0.2488
 2463SOL    HW118848   3.001   1.049   8.395 -0.2662  3.2161  0.6689
 2463SOL    HW218849   3.094   1.155   8.453  0.8593  0.5865 -0.3944
 2464SOL     OW18850   1.655   3.902   8.756 -0.0283  0.1771  0.3363
 2464SOL    HW118851   1.687   3.818   8.722  1.1295  0.5737  0.4256
 2464SOL    HW218852   1.562   3.891   8.775  0.1891 -0.6099  0.9517
 2465SOL     OW18853   0.852   2.637  11.204  0.2557 -0.1498 -0.6873
 2465SOL    HW118854   0.889   2.613  11.289 -0.6519  3.4150  0.7326
 2465SOL    HW218855   0.930   2.661  11.153 -0.6107 -2.7105 -3.1612
 2466SOL     OW18856   3.746   0.642   2.517  0.3081 -0.5004 -0.6119
 2466SOL    HW118857   3.687   0.715   2.499 -0.4777 -0.7105  1.1186
 2466SOL    HW218858   3.693   0.575   2.475 -0.9019 -1.1857  2.0294
 2467SOL     OW18859   0.607   1.043  15.145  0.0533  0.4899  0.4761
 2467SOL    HW118860   0.567   1.086  15.220 -1.8700 -0.1424 -0.1773
 2467SOL    HW218861   0.624   0.961  15.192 -1.1123 -0.1350 -0.1875
 2468SOL     OW18862   3.011   1.782   1.371  0.0933 -0.0294 -0.4190
 2468SOL    HW118863   3.033   1.816   1.284 -1.2265  1.7278 -0.0465
 2468SOL    HW218864   3.088   1.809   1.420  1.4739 -3.2558 -0.7474
 2469SOL     OW18865   4.707   2.521  10.880  0.0126  0.4652  0.2455
 2469SOL    HW118866   4.649   2.446  10.894  0.6342 -0.3583 -1.5791
 2469SOL    HW218867   0.068   2.481  10.848 -1.1985 -2.1756  0.4399
 2470SOL     OW18868   2.829   0.580   7.538 -0.5093 -0.1954  0.9076
 2470SOL    HW118869   2.836   0.674   7.526  1.7275 -0.4525  0.1544
 2470SOL    HW218870   2.892   0.569   7.610  1.2767 -0.7592 -0.7394
 2471SOL     OW18871   2.287   1.299  16.886  0.0678 -0.7094  0.4669
 2471SOL    HW118872   2.211   1.356  16.899 -0.2541 -0.9762 -0.2155
 2471SOL    HW218873   2.248   1.212  16.893 -0.3031 -0.4739  1.2264
 2472SOL     OW18874   2.956   0.969  11.272 -0.0854  0.4877  0.6359
 2472SOL    HW118875   2.978   0.953  11.180  0.1018 -2.7428  1.2533
 2472SOL    HW218876   2.931   1.062  11.268  1.1622  0.7516 -1.0881
 2473SOL     OW18877   1.122   4.668   1.719 -0.1802  0.4568 -0.0419
 2473SOL    HW118878   1.190   4.607   1.690  2.7905  2.4451  2.6693
 2473SOL    HW218879   1.165   0.034   1.716 -1.9661  1.3414  0.0950
 2474SOL     OW18880   3.517   1.894   3.297 -0.4172 -0.0334 -0.0650
 2474SOL    HW118881   3.433   1.939   3.307 -1.9380 -3.2131  1.4300
 2474SOL    HW218882   3.571   1.954   3.245 -0.9863  0.4518 -0.0917
 2475SOL     OW18883   4.211   1.300   3.519  0.4335  0.5530  0.0774
 2475SOL    HW118884   4.274   1.305   3.591 -1.2612 -2.2285  1.7486
 2475SOL    HW218885   4.256   1.248   3.453 -0.5695 -2.4192  1.7439
 2476SOL     OW18886   3.471   0.333  14.151 -0.4601 -0.3222  0.2542
 2476SOL    HW118887   3.378   0.352  14.160 -0.2690  0.9017 -0.3635
 2476SOL    HW218888   3.501   0.338  14.242 -0.0692  0.9731  0.0634
 2477SOL     OW18889   4.233   3.097   8.092 -0.6484  0.0954  0.4330
 2477SOL    HW118890   4.287   3.175   8.088 -1.5091  0.5285 -2.3169
 2477SOL    HW218891   4.152   3.127   8.051 -0.2226 -0.3896 -0.7580
 2478SOL     OW18892   2.265   4.204   4.020  1.0936 -0.4816 -0.6207
 2478SOL    HW118893   2.169   4.199   4.023  1.2484 -2.5958  1.0992
 2478SOL    HW218894   2.281   4.121   4.067 -0.9509 -2.0787 -2.7425
 2479SOL     OW18895   0.601   0.345   8.561  0.3114  0.5947 -0.1417
 2479SOL    HW118896   0.534   0.394   8.515 -0.3115 -0.0476  0.0786
 2479SOL    HW218897   0.675   0.353   8.501  1.5755 -1.1543  1.1384
 2480SOL     OW18898   2.370   3.897   6.101 -0.5685 -0.0770  0.3987
 2480SOL    HW118899   2.325   3.913   6.184 -0.4566 -0.2031  0.4822
 2480SOL    HW218900   2.343   3.977   6.055  1.2788  0.7267  0.6726
 2481SOL     OW18901   4.470   1.685   0.728 -0.0744  0.0253 -0.7966
 2481SOL    HW118902   4.549   1.738   0.739 -1.6748  2.4003 -0.6822
 2481SOL    HW218903   4.476   1.669   0.634  0.3749 -2.9706 -0.2764
 2482SOL     OW18904   4.243   0.584   5.090  0.0931  0.0784 -0.2394
 2482SOL    HW118905   4.228   0.678   5.078 -1.6403 -0.4691 -2.3750
 2482SOL    HW218906   4.290   0.561   5.010  0.2407 -1.0922  0.1878
 2483SOL     OW18907   4.330   4.581   3.259  0.3181 -0.0079  0.5021
 2483SOL    HW118908   4.313   4.496   3.218 -0.0441  0.5358 -0.4721
 2483SOL    HW218909   4.274   4.648   3.220  1.6443  1.1976  0.6635
 2484SOL     OW18910   4.685   3.157   5.534  0.0857 -0.2305  0.1726
 2484SOL    HW118911   4.674   3.092   5.603  0.2742  0.9205  1.2888
 2484SOL    HW218912   0.049   3.136   5.492 -0.1148  0.3832 -0.5253
 2485SOL     OW18913   0.783   0.423  13.009  0.7963 -0.4030  0.0850
 2485SOL    HW118914   0.707   0.478  13.028  0.5969 -0.4860 -0.4868
 2485SOL    HW218915   0.851   0.482  12.976  0.3860  0.8007  1.3732
 2486SOL     OW18916   3.939   0.620  14.554  0.2842 -0.9314  0.2156
 2486SOL    HW118917   3.897   0.583  14.475 -1.6219 -0.5132  1.0184
 2486SOL    HW218918   3.910   0.553  14.616 -2.3170 -0.8545 -0.8829
 2487SOL     OW18919   1.332   2.227   9.234 -0.7826 -0.0338 -0.0209
 2487SOL    HW118920   1.412   2.272   9.207  0.9356 -1.8224  2.0664
 2487SOL    HW218921   1.328   2.259   9.325 -0.5690 -1.5538  0.5250
 2488SOL     OW18922   0.781   4.407   3.669 -0.1462 -0.0296 -0.6097
 2488SOL    HW118923   0.787   4.340   3.601  0.8572 -1.0377  0.4614
 2488SOL    HW218924   0.770   4.486   3.618 -0.6339  1.0236  1.1172
 2489SOL     OW18925   0.525   2.880   2.120  0.0819 -0.0198  0.1787
 2489SOL    HW118926   0.509   2.946   2.188 -0.2771  0.3763 -0.2959
 2489SOL    HW218927   0.491   2.930   2.046 -1.1226 -2.0928 -0.6620
 2490SOL     OW18928   0.915   3.408   8.702 -0.2609  0.8846  0.0784
 2490SOL    HW118929   0.876   3.325   8.730 -0.3461  2.1053  3.4954
 2490SOL    HW218930   1.005   3.389   8.731 -0.1640  0.9927 -0.1504
 2491SOL     OW18931   3.099   0.792   8.316 -0.0199 -0.1149 -0.0021
 2491SOL    HW118932   3.082   0.886   8.329 -0.9061 -0.3641  0.6437
 2491SOL    HW218933   3.188   0.794   8.281 -0.8258 -1.9707 -2.1233
 2492SOL     OW18934   1.098   0.107   6.695 -0.4128 -0.1649 -1.1492
 2492SOL    HW118935   1.162   0.157   6.644 -0.1791  0.6388 -0.0712
 2492SOL    HW218936   1.112   0.024   6.650  0.8478 -0.3489 -0.4209
 2493SOL     OW18937   3.937   1.385   5.149 -0.1846 -0.2125 -0.1836
 2493SOL    HW118938   3.849   1.365   5.182  0.2625  0.4042  1.3848
 2493SOL    HW218939   3.934   1.470   5.105  1.3174 -1.0997 -1.9550
 2494SOL     OW18940   4.037   0.561   5.271 -0.1817 -0.1537  0.0577
 2494SOL    HW118941   4.112   0.541   5.215  0.9837 -0.6973  1.8049
 2494SOL    HW218942   3.971   0.577   5.203 -0.3202  0.1916  0.2742
 2495SOL     OW18943   1.847   4.579   3.819  0.1503 -0.1987  1.1251
 2495SOL    HW118944   1.816   4.491   3.841  2.0762 -0.7274  1.7155
 2495SOL    HW218945   1.801   4.605   3.740  0.2201 -0.4835  0.9903
 2496SOL     OW18946   0.491   1.329   0.526  0.1842 -1.0814  0.4410
 2496SOL    HW118947   0.423   1.370   0.474 -0.9060 -1.7388  1.3509
 2496SOL    HW218948   0.538   1.409   0.551 -1.3669 -1.2388  3.8458
 2497SOL     OW18949   1.545   1.463   7.893 -0.6694 -0.6824 -0.2473
 2497SOL    HW118950   1.454   1.475   7.920 -0.2751  0.8359  0.4179
 2497SOL    HW218951   1.536   1.477   7.799  0.2170  2.5594  0.1562
 2498SOL     OW18952   0.973   1.057   4.687  0.0350 -0.1023 -0.7687
 2498SOL    HW118953   1.009   1.125   4.630 -1.6539 -0.0647 -1.8073
 2498SOL    HW218954   1.029   0.985   4.659 -0.7412 -0.7855 -0.5636
 2499SOL     OW18955   3.460   0.308   4.767 -0.1126 -0.2394 -0.3926
 2499SOL    HW118956   3.502   0.331   4.684 -1.2163  2.5273 -0.1887
 2499SOL    HW218957   3.435   0.216   4.760  1.7395 -0.6060 -2.1047
 2500SOL     OW18958   1.106   1.563   1.004 -0.0562 -0.0300 -0.4284
 2500SOL    HW118959   1.144   1.638   1.049  0.7284 -0.8630  0.2903
 2500SOL    HW218960   1.101   1.593   0.913 -0.8926  3.1382  0.6612
 2501SOL     OW18961   3.536   3.655  12.645  0.1184  0.0940 -0.1824
 2501SOL    HW118962   3.560   3.608  12.726  1.2143  0.0677 -0.5217
 2501SOL    HW218963   3.554   3.594  12.574 -0.5083  1.8920 -1.8616
 2502SOL     OW18964   4.174   3.872   2.706  0.0937 -0.4546 -0.4481
 2502SOL    HW118965   4.268   3.889   2.700 -0.0183 -0.3740 -1.9895
 2502SOL    HW218966   4.145   3.962   2.725 -0.1751 -0.6747  0.1966
 2503SOL     OW18967   2.300   4.583   5.027 -0.1658  0.4636 -0.0134
 2503SOL    HW118968   2.290   4.644   4.954 -0.2583  0.5629  0.0813
 2503SOL    HW218969   2.229   4.520   5.017 -1.3371  1.2341  3.2996
 2504SOL     OW18970   3.296   3.517   6.086  0.1409 -0.3241 -0.1745
 2504SOL    HW118971   3.276   3.472   6.168 -0.4220 -1.5677 -0.9938
 2504SOL    HW218972   3.224   3.492   6.027 -0.4216 -1.0378  0.8052
 2505SOL     OW18973   2.029   3.063   3.494 -0.0573 -0.2761  0.2265
 2505SOL    HW118974   2.115   3.023   3.478  0.0334  0.0591 -0.1375
 2505SOL    HW218975   1.993   3.033   3.410  1.3291 -1.9854  0.2495
 2506SOL     OW18976   2.155   3.613   7.270  0.3227 -0.4557 -0.0800
 2506SOL    HW118977   2.204   3.563   7.206  2.2088 -0.4925  1.3972
 2506SOL    HW218978   2.216   3.650   7.334 -0.2068  1.1750 -0.5484
 2507SOL     OW18979   1.623   2.095   3.289  0.5390  0.0587  0.0165
 2507SOL    HW118980   1.681   2.118   3.361 -0.0241 -0.2933  0.5815
 2507SOL    HW218981   1.649   2.159   3.223 -1.4256 -0.7031 -1.5032
 2508SOL     OW18982   4.598   1.622   6.973 -0.5166  0.0390  0.6573
 2508SOL    HW118983   4.679   1.660   7.009  0.3165 -2.3357  1.3059
 2508SOL    HW218984   4.602   1.670   6.891 -0.0941 -0.5528  0.3330
 2509SOL     OW18985   2.436   3.962   9.432  0.8140 -0.6211 -0.0399
 2509SOL    HW118986   2.526   3.982   9.457  0.2770  2.3153 -0.4263
 2509SOL    HW218987   2.433   3.871   9.461  0.9928 -0.3331  0.8681
 2510SOL     OW18988   1.485   3.912  15.053 -0.0798 -0.5012  0.0559
 2510SOL    HW118989   1.429   3.859  14.996  1.3885 -0.6342 -1.2682
 2510SOL    HW218990   1.534   3.845  15.100 -0.2010 -1.7899 -1.6407
 2511SOL     OW18991   2.331   3.320   1.545  0.0873 -0.1707 -0.0830
 2511SOL    HW118992   2.351   3.248   1.606 -0.4448 -1.4761 -1.4614
 2511SOL    HW218993   2.414   3.368   1.542 -0.4482  0.7674  0.1243
 2512SOL     OW18994   1.019   3.353   0.737  0.4855  0.3523  0.1286
 2512SOL    HW118995   1.061   3.433   0.769 -1.5736  1.3286  0.3502
 2512SOL    HW218996   0.961   3.388   0.670  1.8279  2.9022  0.3161
 2513SOL     OW18997   3.466   4.425   3.445  0.0043 -0.5677 -0.3431
 2513SOL    HW118998   3.542   4.377   3.479  0.9689  1.9784  1.1581
 2513SOL    HW218999   3.397   4.413   3.510  1.4748 -0.3262  1.2719
 2514SOL     OW19000   0.969   0.488   8.726 -0.0020  0.1247  0.1419
 2514SOL    HW119001   0.903   0.557   8.730 -1.7438 -1.6120  1.4187
 2514SOL    HW219002   1.047   0.543   8.728  0.9436 -1.2074 -0.0825
 2515SOL     OW19003   1.470   0.875  16.131  0.1588  0.4471  0.3846
 2515SOL    HW119004   1.554   0.891  16.090 -0.5256 -0.8712 -1.5010
 2515SOL    HW219005   1.414   0.855  16.056 -0.1576 -0.0680  0.7506
 2516SOL     OW19006   1.869   0.018   8.497  0.2235 -0.3429  0.2696
 2516SOL    HW119007   1.863   0.107   8.531  1.2119 -0.1503 -0.0798
 2516SOL    HW219008   1.889   4.692   8.578 -0.6892 -0.1986  0.5777
 2517SOL     OW19009   4.191   2.615   5.556  0.4649  0.2870  0.4131
 2517SOL    HW119010   4.240   2.636   5.476  0.2211 -1.0350 -0.0808
 2517SOL    HW219011   4.110   2.666   5.557  0.9730  1.0798  0.8058
 2518SOL     OW19012   0.600   2.852  12.476 -0.0900 -0.5393 -0.4691
 2518SOL    HW119013   0.553   2.935  12.483  0.5140 -0.3743  1.5445
 2518SOL    HW219014   0.684   2.881  12.440 -0.6931  1.1579 -0.5296
 2519SOL     OW19015   1.087   3.330  15.671  0.2545  0.0770  0.0350
 2519SOL    HW119016   1.145   3.378  15.730 -1.2179  0.3562  1.2728
 2519SOL    HW219017   1.087   3.242  15.709 -1.3203 -0.0921 -0.3432
 2520SOL     OW19018   1.085   3.184  14.594  0.1407 -0.3535 -0.1729
 2520SOL    HW119019   1.045   3.261  14.552  0.2642  0.9934  2.2011
 2520SOL    HW219020   1.013   3.122  14.586  1.0437 -1.4140  0.0465
 2521SOL     OW19021   0.180   0.445  16.516  0.6466 -0.1770 -0.3942
 2521SOL    HW119022   0.170   0.366  16.462 -0.7386 -1.2651  1.4663
 2521SOL    HW219023   0.276   0.447  16.517  0.5970  0.8481  2.2499
 2522SOL     OW19024   3.505   0.530   9.741  0.2056 -0.3564 -1.0255
 2522SOL    HW119025   3.549   0.520   9.825 -2.0321 -2.5468 -0.1155
 2522SOL    HW219026   3.522   0.447   9.697 -2.4590 -0.9023 -1.0013
 2523SOL     OW19027   0.703   2.660  17.297  0.4555  0.7277 -0.4278
 2523SOL    HW119028   0.705   2.717  17.374 -1.4808  0.9922 -0.5790
 2523SOL    HW219029   0.755   2.717  17.241 -2.8382  3.1552 -1.0245
 2524SOL     OW19030   0.262   4.231  14.562 -0.7397  0.0127 -0.0282
 2524SOL    HW119031   0.324   4.274  14.620  0.5563 -1.6142 -0.2150
 2524SOL    HW219032   0.178   4.268  14.588 -0.9639  1.1639 -2.3426
 2525SOL     OW19033   2.989   3.266   8.677  0.7753 -0.7793 -0.2945
 2525SOL    HW119034   3.013   3.230   8.763 -0.8498  2.2136  1.4055
 2525SOL    HW219035   2.953   3.352   8.698 -0.0083 -0.8131 -1.5176
 2526SOL     OW19036   0.415   1.777   2.988  0.2141  0.2113 -0.1258
 2526SOL    HW119037   0.468   1.829   2.928 -0.2650 -0.0571 -0.7937
 2526SOL    HW219038   0.454   1.690   2.976 -0.0385 -0.0511  0.9607
 2527SOL     OW19039   3.386   2.586   2.809 -0.4834  0.5104  0.3202
 2527SOL    HW119040   3.359   2.678   2.814 -1.4955  0.0336  3.4367
 2527SOL    HW219041   3.319   2.540   2.859 -1.3877  0.8551 -0.5917
 2528SOL     OW19042   3.668   3.881   7.763 -0.5374 -0.0500  0.1317
 2528SOL    HW119043   3.612   3.892   7.687  0.3338  0.8030 -0.3896
 2528SOL    HW219044   3.619   3.933   7.827 -0.7069 -0.9509  0.7231
 2529SOL     OW19045   0.500   1.747   6.153 -0.4908  0.0220 -0.1994
 2529SOL    HW119046   0.442   1.784   6.087  2.8732 -1.5026 -4.0341
 2529SOL    HW219047   0.570   1.812   6.148 -0.3973 -0.1571 -1.2882
 2530SOL     OW19048   2.344   2.801   2.353  0.4502  0.0758  0.5581
 2530SOL    HW119049   2.380   2.717   2.326 -0.7526  0.6930 -3.0108
 2530SOL    HW219050   2.298   2.788   2.436  0.6624 -2.6380  0.2501
 2531SOL     OW19051   2.134   1.342   6.692  0.3041 -0.0186 -0.3000
 2531SOL    HW119052   2.187   1.317   6.617  0.1172  2.9554 -1.3880
 2531SOL    HW219053   2.047   1.335   6.654  0.4704 -0.2213 -0.6397
 2532SOL     OW19054   0.209   1.613   9.372 -0.3374 -0.0894  0.1908
 2532SOL    HW119055   0.263   1.580   9.444  0.2367 -0.7221 -0.5354
 2532SOL    HW219056   0.202   1.704   9.402 -0.0439 -1.0500  3.2249
 2533SOL     OW19057   1.646   3.375   3.246 -0.1203  0.5874  0.1203
 2533SOL    HW119058   1.621   3.463   3.218  0.1731  0.3407 -0.9398
 2533SOL    HW219059   1.591   3.363   3.323  1.9715 -1.4210  1.2995
 2534SOL     OW19060   1.476   0.841   6.839  0.3232 -0.0537  0.3504
 2534SOL    HW119061   1.481   0.749   6.814 -2.3671 -0.1116  0.0092
 2534SOL    HW219062   1.560   0.873   6.808  1.6192 -1.6402  2.2708
 2535SOL     OW19063   2.785   1.392  15.795 -0.1432  0.0277  0.0273
 2535SOL    HW119064   2.720   1.457  15.767  0.9967  0.5420 -1.4234
 2535SOL    HW219065   2.759   1.315  15.745 -2.0414  1.6617 -1.5170
 2536SOL     OW19066   3.558   0.118   8.288 -0.0547 -0.2980  0.2478
 2536SOL    HW119067   3.540   0.206   8.254  1.7432 -0.5308 -1.2674
 2536SOL    HW219068   3.557   0.068   8.207 -0.1696 -0.6649  0.4736
 2537SOL     OW19069   1.884   3.910   5.377  0.2671  0.1973 -1.0039
 2537SOL    HW119070   1.908   3.834   5.325  0.6848  0.0244 -0.5637
 2537SOL    HW219071   1.807   3.878   5.424  1.0238  0.1435  0.2041
 2538SOL     OW19072   3.562   1.191  15.351 -0.1752 -0.6525 -0.5685
 2538SOL    HW119073   3.635   1.231  15.398 -0.2304 -0.7071 -0.4363
 2538SOL    HW219074   3.517   1.136  15.415  2.4967 -1.9066  0.2254
 2539SOL     OW19075   0.099   0.429   0.906  0.1714  0.0527  0.3353
 2539SOL    HW119076   0.132   0.365   0.969 -2.7392 -1.9492 -0.1972
 2539SOL    HW219077   0.174   0.474   0.865  0.4671 -0.1166  0.6925
 2540SOL     OW19078   1.844   2.292   9.308 -0.3504 -0.0878 -0.1583
 2540SOL    HW119079   1.832   2.380   9.343  4.5599  0.5262 -0.1391
 2540SOL    HW219080   1.838   2.246   9.392  2.7640 -1.6060 -0.7742
 2541SOL     OW19081   2.430   1.228  11.020 -0.6796  0.3669 -0.5704
 2541SOL    HW119082   2.470   1.263  10.941  0.9009 -1.4936 -0.5896
 2541SOL    HW219083   2.404   1.312  11.058 -1.7289 -0.4580  0.5250
 2542SOL     OW19084   4.509   4.074   8.180  0.1168 -0.4663  0.4359
 2542SOL    HW119085   4.467   4.092   8.264  0.1879 -2.5698  0.9383
 2542SOL    HW219086   4.435   4.090   8.122  0.5782  0.3794  0.0862
 2543SOL     OW19087   3.362   3.794   2.092  0.4542  0.5339 -0.0162
 2543SOL    HW119088   3.441   3.816   2.044  1.2477  0.3593  1.2129
 2543SOL    HW219089   3.373   3.707   2.129 -0.0539  0.4179 -0.1337
 2544SOL     OW19090   3.779   3.043   4.900 -0.2792 -0.7040 -0.3912
 2544SOL    HW119091   3.860   3.084   4.933 -0.4984 -0.1772 -0.5181
 2544SOL    HW219092   3.766   2.962   4.949 -1.1259 -1.0048 -1.1272
 2545SOL     OW19093   0.686   4.182   3.156  0.5456 -0.0306 -0.2180
 2545SOL    HW119094   0.704   4.269   3.191  1.0903 -0.3609  0.3405
 2545SOL    HW219095   0.713   4.194   3.065 -0.0543 -0.5997 -0.4707
 2546SOL     OW19096   1.340   2.406   7.715  0.2819  0.3400 -0.0588
 2546SOL    HW119097   1.307   2.415   7.626 -0.4779  1.7441  0.3523
 2546SOL    HW219098   1.346   2.497   7.746  0.3659  0.7271 -1.2438
 2547SOL     OW19099   4.390   1.258   1.089 -0.4928  0.2433  0.2334
 2547SOL    HW119100   4.419   1.224   1.174 -1.9874 -1.1460  0.1778
 2547SOL    HW219101   4.297   1.270   1.105 -1.0397 -0.5811 -2.2363
 2548SOL     OW19102   2.441   3.365   4.600  0.3754  0.2485  0.7250
 2548SOL    HW119103   2.369   3.409   4.646  0.2647 -1.1583  1.9009
 2548SOL    HW219104   2.440   3.417   4.520 -1.9181  0.7834  1.1044
 2549SOL     OW19105   3.881   2.356   7.680  0.2005 -0.0409  0.1912
 2549SOL    HW119106   3.836   2.437   7.656 -0.7532 -0.6155  0.0578
 2549SOL    HW219107   3.940   2.344   7.605  0.6250 -1.5611  0.7840
 2550SOL     OW19108   1.246   2.146   5.276  0.1466  0.2632 -0.0797
 2550SOL    HW119109   1.289   2.073   5.319 -1.1059 -0.1333  0.5092
 2550SOL    HW219110   1.212   2.194   5.351  3.6711 -0.1706  1.7541
 2551SOL     OW19111   2.717   0.775   4.220  0.1644 -0.2335 -0.3479
 2551SOL    HW119112   2.778   0.720   4.269  0.1352  1.3258  1.4818
 2551SOL    HW219113   2.765   0.776   4.138  1.3573  0.2775  0.3599
 2552SOL     OW19114   4.135   0.188   6.360  0.5703 -0.0965  0.1607
 2552SOL    HW119115   4.180   0.105   6.375 -1.4636 -1.3998 -0.9864
 2552SOL    HW219116   4.105   0.210   6.448  0.8446  0.2300  0.1739
 2553SOL     OW19117   0.382   1.651  11.121 -0.8694  0.5670  0.4502
 2553SOL    HW119118   0.412   1.741  11.135  1.3190 -0.0137 -0.5662
 2553SOL    HW219119   0.399   1.617  11.209 -1.2564 -0.9201 -0.0579
 2554SOL     OW19120   3.128   1.917   5.942 -0.2448  0.9633 -0.5685
 2554SOL    HW119121   3.177   1.902   6.023 -0.6310 -1.2336 -0.7249
 2554SOL    HW219122   3.127   2.012   5.944  2.4304  0.9532  1.0900
 2555SOL     OW19123   3.003   2.257   6.745  0.3557  0.1403  0.0607
 2555SOL    HW119124   3.043   2.172   6.726  0.0013  0.0548 -0.2801
 2555SOL    HW219125   2.914   2.246   6.714 -0.0497 -0.7555  1.5073
 2556SOL     OW19126   0.925   0.084  13.130 -0.2276 -0.4084 -0.3102
 2556SOL    HW119127   0.834   0.111  13.126 -0.3386 -0.7067  0.1565
 2556SOL    HW219128   0.933   0.046  13.043 -1.9208 -1.4097 -0.0358
 2557SOL     OW19129   0.730   1.517   8.232  0.1205 -0.5076  0.0836
 2557SOL    HW119130   0.747   1.535   8.140  1.7460 -1.1197  0.2750
 2557SOL    HW219131   0.785   1.582   8.274 -1.3637 -0.4904  2.0002
 2558SOL     OW19132   0.336   1.775   5.895  0.5424 -0.0910 -0.3924
 2558SOL    HW119133   0.376   1.748   5.812  1.1081 -0.8292  0.1195
 2558SOL    HW219134   0.287   1.694   5.910  1.1476 -0.7569 -2.0906
 2559SOL     OW19135   3.260   2.606   3.903  0.5610 -0.9001  1.0666
 2559SOL    HW119136   3.213   2.539   3.954 -1.3384 -0.5747 -0.2389
 2559SOL    HW219137   3.316   2.641   3.972  0.5449 -1.9020  1.5919
 2560SOL     OW19138   3.105   0.929   7.375 -0.0184  0.3806  0.5251
 2560SOL    HW119139   3.011   0.944   7.371  0.4889  3.3062 -1.1804
 2560SOL    HW219140   3.150   1.013   7.363 -0.7343  0.8403  1.0699
 2561SOL     OW19141   2.328   0.574   4.322  0.0264  0.2846 -0.1573
 2561SOL    HW119142   2.393   0.522   4.369  0.6477 -0.1840 -1.5447
 2561SOL    HW219143   2.272   0.592   4.397  0.2146 -0.8106  0.2357
 2562SOL     OW19144   4.206   4.471   2.049  0.7968  0.3041  0.2442
 2562SOL    HW119145   4.269   4.530   2.090  2.6822 -0.9640 -0.7907
 2562SOL    HW219146   4.206   4.498   1.957 -1.7524 -0.1523  0.1140
 2563SOL     OW19147   3.687   4.702  14.557 -0.3273  0.0853 -0.2519
 2563SOL    HW119148   3.595   4.711  14.583 -0.6768 -1.2104 -1.0735
 2563SOL    HW219149   3.698   4.609  14.537  0.6854 -0.2830  2.0063
 2564SOL     OW19150   0.133   4.176  13.015 -0.4771 -0.2583 -0.5964
 2564SOL    HW119151   0.222   4.210  13.025  0.2269 -2.7753  1.6572
 2564SOL    HW219152   0.134   4.138  12.928  1.1076  0.1003 -0.7358
 2565SOL     OW19153   2.280   3.636   6.829  0.1597  0.5020  0.4079
 2565SOL    HW119154   2.203   3.667   6.780 -0.4972 -1.4559  0.2194
 2565SOL    HW219155   2.270   3.541   6.824 -0.3933  0.6421 -1.1527
 2566SOL     OW19156   1.718   1.274   8.564  0.0614  0.2875 -1.1126
 2566SOL    HW119157   1.638   1.262   8.614  2.4353  1.3455  2.9065
 2566SOL    HW219158   1.772   1.322   8.627  0.5182  0.3908 -1.5775
 2567SOL     OW19159   0.796   3.169   8.839 -0.1595 -0.4156  0.1659
 2567SOL    HW119160   0.808   3.187   8.933  1.6174  1.7719 -0.4847
 2567SOL    HW219161   0.854   3.093   8.837  0.3675  0.0158 -0.8029
 2568SOL     OW19162   4.481   4.578   5.596 -0.5282 -0.2642 -0.5838
 2568SOL    HW119163   4.453   4.511   5.534 -0.6964  0.3646 -1.1835
 2568SOL    HW219164   4.440   4.540   5.673 -0.3717  0.1913 -0.2730
 2569SOL     OW19165   1.634   3.301  16.707 -0.0942  0.1600 -0.0789
 2569SOL    HW119166   1.563   3.340  16.656 -1.6940 -1.2966  1.0305
 2569SOL    HW219167   1.704   3.350  16.664 -0.6154  2.0455  1.2769
 2570SOL     OW19168   1.124   0.420  12.125  0.4580 -0.0036 -0.1997
 2570SOL    HW119169   1.195   0.481  12.146 -0.0168  0.1219  1.0762
 2570SOL    HW219170   1.160   0.347  12.076 -0.6481 -1.5539  1.2961
 2571SOL     OW19171   2.281   3.023   3.044 -0.1119 -0.1198  0.2185
 2571SOL    HW119172   2.312   3.075   2.971  1.1290  1.0318  1.5685
 2571SOL    HW219173   2.243   2.950   2.994  0.3658 -1.3799  1.6833
 2572SOL     OW19174   2.280   0.835  16.034 -0.3262  0.2891  0.1162
 2572SOL    HW119175   2.210   0.770  16.040  0.7950 -0.8332  1.1337
 2572SOL    HW219176   2.276   0.887  16.115 -1.2074  0.7833 -0.2492
 2573SOL     OW19177   0.854   0.508   3.526 -0.1809 -0.0381  0.6757
 2573SOL    HW119178   0.928   0.450   3.508 -0.1743  0.3258 -0.4709
 2573SOL    HW219179   0.840   0.553   3.443  2.7343  1.6204  1.0679
 2574SOL     OW19180   4.630   1.399   4.819  0.1783 -0.0941  0.4844
 2574SOL    HW119181   4.626   1.305   4.797 -2.0793  0.2050 -0.3755
 2574SOL    HW219182   4.706   1.420   4.765  0.0248 -1.3893 -0.2525
 2575SOL     OW19183   0.253   3.746   4.005 -0.1180  0.4055  0.0196
 2575SOL    HW119184   0.243   3.667   3.952 -0.6693  0.8778 -0.5917
 2575SOL    HW219185   0.176   3.790   3.967 -2.2691 -2.4021  1.0818
 2576SOL     OW19186   3.468   4.577   0.106  0.6935  0.1690 -0.2800
 2576SOL    HW119187   3.411   4.607   0.178 -0.8361 -1.9888 -0.5883
 2576SOL    HW219188   3.485   4.486   0.128 -2.1086 -0.3228 -0.1297
 2577SOL     OW19189   1.384   3.051   3.781  0.0397  0.3705  0.4568
 2577SOL    HW119190   1.289   3.059   3.770  0.1309 -1.2063 -1.5840
 2577SOL    HW219191   1.402   2.989   3.710 -0.2625  1.0566 -0.2277
 2578SOL     OW19192   1.075   3.917   3.018  0.5866  0.0952 -0.0046
 2578SOL    HW119193   1.045   3.829   2.994  1.8046 -0.0187 -1.0865
 2578SOL    HW219194   1.054   3.958   2.934  0.0341  1.5465  0.8448
 2579SOL     OW19195   4.595   0.173   2.622 -0.5510  0.3556  0.2114
 2579SOL    HW119196   4.674   0.189   2.571  0.1610  2.4274  1.9674
 2579SOL    HW219197   4.579   0.081   2.601 -0.0360 -0.0762  1.7203
 2580SOL     OW19198   1.359   3.652   1.523  0.4213 -0.2732 -0.1037
 2580SOL    HW119199   1.342   3.645   1.617  0.5250 -3.2734 -0.3147
 2580SOL    HW219200   1.286   3.709   1.497  0.6510 -0.6390 -1.5361
 2581SOL     OW19201   0.013   1.313   8.213 -0.1414  0.1899  0.3319
 2581SOL    HW119202   4.638   1.298   8.208  0.0167 -0.4623 -0.8442
 2581SOL    HW219203   0.020   1.381   8.146  0.6608  2.1060  2.3843
 2582SOL     OW19204   0.250   0.960   2.629 -0.4732  0.0777 -0.1950
 2582SOL    HW119205   0.279   0.896   2.694 -3.9160  1.6691  2.8865
 2582SOL    HW219206   0.329   0.972   2.577 -0.2964  2.4287  0.6377
 2583SOL     OW19207   2.709   3.732   6.211  0.3854  0.2461 -0.8970
 2583SOL    HW119208   2.656   3.696   6.141  1.0152  0.4344 -1.4720
 2583SOL    HW219209   2.790   3.681   6.199  1.8687  2.3193  0.3418
 2584SOL     OW19210   2.276   3.596   5.203  0.1182 -0.0294  0.2801
 2584SOL    HW119211   2.301   3.684   5.173  0.9019 -0.8963 -1.5986
 2584SOL    HW219212   2.296   3.615   5.295  1.5379  1.6181 -0.3606
 2585SOL     OW19213   4.243   2.515  10.401  0.0358 -0.3919 -0.3313
 2585SOL    HW119214   4.247   2.426  10.366  0.4990 -0.9612  1.1812
 2585SOL    HW219215   4.154   2.504  10.435  0.9418 -1.0428  1.8687
 2586SOL     OW19216   4.250   3.471   7.744 -0.1520 -0.2381  0.1053
 2586SOL    HW119217   4.286   3.500   7.660  0.3193 -1.3839 -0.0910
 2586SOL    HW219218   4.209   3.550   7.780  0.4046 -0.1327  0.5146
 2587SOL     OW19219   0.296   0.675   2.422 -0.0262  0.2703 -0.2515
 2587SOL    HW119220   0.257   0.621   2.491 -0.0468 -1.3727 -1.5609
 2587SOL    HW219221   0.277   0.764   2.451  0.1087  0.5433 -1.0108
 2588SOL     OW19222   2.100   0.088   0.961  0.2543  0.0219 -0.3802
 2588SOL    HW119223   2.072   0.075   1.051 -0.4837  0.9692 -0.4718
 2588SOL    HW219224   2.187   0.048   0.955  0.6126  0.8266 -0.6798
 2589SOL     OW19225   1.877   3.892   3.486  0.6776  0.3702  0.3670
 2589SOL    HW119226   1.963   3.929   3.505  0.7782  0.2897  0.0697
 2589SOL    HW219227   1.895   3.878   3.393  1.7288 -0.4670  0.7049
 2590SOL     OW19228   1.128   4.322   2.208 -0.0814  0.1874 -0.6842
 2590SOL    HW119229   1.219   4.347   2.188 -0.8712  2.5131 -1.3872
 2590SOL    HW219230   1.133   4.236   2.166 -0.3669 -0.3861  0.4593
 2591SOL     OW19231   0.593   0.477   2.846 -0.3385  0.0241  0.0296
 2591SOL    HW119232   0.541   0.471   2.927 -1.8980  0.7153 -0.9232
 2591SOL    HW219233   0.673   0.517   2.880  1.2064 -0.6653 -2.8060
 2592SOL     OW19234   1.279   4.519   8.969  0.2513  0.1274 -0.1138
 2592SOL    HW119235   1.202   4.574   8.955 -0.7157 -1.0627  0.6629
 2592SOL    HW219236   1.256   4.504   9.061  3.1039 -0.6891  0.4767
 2593SOL     OW19237   3.861   0.545   3.164 -0.0342 -0.0402 -0.1813
 2593SOL    HW119238   3.913   0.609   3.116 -1.7970  1.5441 -0.0011
 2593SOL    HW219239   3.925   0.478   3.189 -0.8392 -2.1993 -3.8788
 2594SOL     OW19240   3.514   0.694  16.480 -0.2182  0.5909 -0.0498
 2594SOL    HW119241   3.579   0.695  16.550 -0.5819 -0.3507  0.3130
 2594SOL    HW219242   3.435   0.729  16.521  1.3247  1.3277  2.3176
 2595SOL     OW19243   3.166   0.078   4.645 -0.2318 -0.1767 -0.0686
 2595SOL    HW119244   3.259   0.069   4.666 -0.1810 -0.4009 -0.3780
 2595SOL    HW219245   3.152   0.005   4.584 -0.7158  1.1437 -1.5298
 2596SOL     OW19246   0.889   1.785  10.872  0.1149 -0.1913  0.3010
 2596SOL    HW119247   0.952   1.821  10.935  2.0867 -0.0579 -1.7282
 2596SOL    HW219248   0.944   1.780  10.793 -2.4858 -0.9512 -1.4340
 2597SOL     OW19249   0.625   1.524   0.844 -0.5158 -0.1191 -0.0256
 2597SOL    HW119250   0.590   1.577   0.916 -3.5228 -2.4285  0.2171
 2597SOL    HW219251   0.557   1.457   0.834  3.2563 -3.7996 -1.0064
 2598SOL     OW19252   0.464   1.618   6.967 -0.1932 -0.6491 -0.8278
 2598SOL    HW119253   0.403   1.625   6.894  0.7191  0.3405 -1.4969
 2598SOL    HW219254   0.534   1.562   6.936  2.3609  1.5439  0.9540
 2599SOL     OW19255   4.342   4.391   5.404 -0.4802  0.3280  0.1516
 2599SOL    HW119256   4.314   4.300   5.399 -0.3248  0.4360 -2.4837
 2599SOL    HW219257   4.370   4.401   5.313  0.1691 -0.6470  0.2447
 2600SOL     OW19258   0.653   2.794   3.527  0.4907  0.1835  0.7924
 2600SOL    HW119259   0.650   2.753   3.614  2.6138 -1.5807  0.0466
 2600SOL    HW219260   0.576   2.758   3.484  0.7395  0.2737  0.2796
 2601SOL     OW19261   2.177   3.179   5.082  0.0673 -0.2686  0.2160
 2601SOL    HW119262   2.254   3.124   5.073 -0.1935 -0.6457  0.3064
 2601SOL    HW219263   2.169   3.192   5.176  0.2743  0.0812  0.1839
 2602SOL     OW19264   0.861   2.656   3.066  0.3333 -0.0593  0.1356
 2602SOL    HW119265   0.849   2.612   3.150  0.6678 -1.5018 -0.5669
 2602SOL    HW219266   0.901   2.735   3.104  2.3714 -0.5141 -1.0323
 2603SOL     OW19267   1.638   4.494   7.026  0.4828 -0.3485 -0.1321
 2603SOL    HW119268   1.566   4.430   7.022 -0.5283  0.8420 -1.0441
 2603SOL    HW219269   1.614   4.531   7.111 -0.4283  2.9049 -1.8161
 2604SOL     OW19270   4.047   3.392   6.835  0.9266  0.2504 -0.0007
 2604SOL    HW119271   4.046   3.483   6.805  1.0482 -0.0613 -0.9717
 2604SOL    HW219272   3.952   3.381   6.833  0.9805 -0.3282  0.7862
 2605SOL     OW19273   0.952   2.392   4.102 -0.4191 -0.0326  0.5071
 2605SOL    HW119274   0.898   2.313   4.093  0.4478 -0.7686  1.7306
 2605SOL    HW219275   1.043   2.376   4.076 -0.8993 -0.2577 -1.0366
 2606SOL     OW19276   1.106   1.536   8.794 -0.5145  0.6445  0.0538
 2606SOL    HW119277   1.187   1.559   8.839  0.1152  0.7379 -1.1196
 2606SOL    HW219278   1.122   1.442   8.780 -1.5535  0.1569  2.1044
 2607SOL     OW19279   3.264   1.139  16.104  0.2436 -0.1969 -0.2028
 2607SOL    HW119280   3.237   1.062  16.155 -2.3731  1.0835  0.3480
 2607SOL    HW219281   3.179   1.154  16.063 -0.0646 -0.8045  0.2044
 2608SOL     OW19282   2.481   4.075  10.864 -0.1800 -0.0537  0.2531
 2608SOL    HW119283   2.549   4.101  10.926 -0.4343 -0.3521  0.6532
 2608SOL    HW219284   2.509   3.984  10.852 -0.5493 -0.3029  1.2977
 2609SOL     OW19285   0.306   3.941   4.624 -0.0408  0.3742 -0.8388
 2609SOL    HW119286   0.376   3.946   4.559  0.4045  1.6145 -0.2421
 2609SOL    HW219287   0.325   3.860   4.672  0.6603  2.1979  1.9275
 2610SOL     OW19288   1.191   2.100   4.894 -0.0230  0.4028  0.0801
 2610SOL    HW119289   1.138   2.056   4.960  1.6111 -0.9474  0.4717
 2610SOL    HW219290   1.130   2.149   4.838 -1.2507 -0.6617  0.4747
 2611SOL     OW19291   3.306   4.577  16.816 -0.2495 -0.0694  0.0350
 2611SOL    HW119292   3.285   4.485  16.831 -0.4852  0.1264  0.9465
 2611SOL    HW219293   3.218   4.611  16.834  0.0674  1.3213 -1.0941
 2612SOL     OW19294   1.225   3.448   2.846 -0.2627  0.2598  0.2405
 2612SOL    HW119295   1.214   3.509   2.773 -1.1758  0.5788  0.6478
 2612SOL    HW219296   1.253   3.503   2.919 -0.9847 -1.0858  1.5252
 2613SOL     OW19297   2.414   2.194   5.528 -0.3433 -0.1222  0.0386
 2613SOL    HW119298   2.392   2.110   5.487  0.8629 -0.4326  0.0381
 2613SOL    HW219299   2.460   2.236   5.455  1.0431 -0.9221  0.4533
 2614SOL     OW19300   1.254   2.674  11.523 -0.4234 -0.1135 -0.5347
 2614SOL    HW119301   1.214   2.644  11.604  1.0931 -0.4151  0.1168
 2614SOL    HW219302   1.292   2.592  11.491 -1.1675 -0.2734 -1.0043
 2615SOL     OW19303   2.801   3.913   7.338  1.1608  0.3610 -0.3505
 2615SOL    HW119304   2.772   3.991   7.385  0.5174 -0.0563 -0.0467
 2615SOL    HW219305   2.715   3.889   7.303  0.9308  1.0104 -0.2174
 2616SOL     OW19306   3.141   4.179   5.548 -0.4162 -0.0111 -0.2524
 2616SOL    HW119307   3.169   4.137   5.467  1.6112 -0.9953  0.9734
 2616SOL    HW219308   3.210   4.242   5.569 -0.9465  0.7961 -0.9202
 2617SOL     OW19309   0.463   3.074   2.326  0.3009  0.1595  0.1822
 2617SOL    HW119310   0.464   3.165   2.355  1.5394 -0.8975  3.3749
 2617SOL    HW219311   0.502   3.026   2.399 -1.3344  0.1970  1.0881
 2618SOL     OW19312   3.415   3.234   4.241 -0.0711  0.1543  0.3183
 2618SOL    HW119313   3.461   3.154   4.213 -1.4448 -0.9274  1.1371
 2618SOL    HW219314   3.427   3.227   4.336  1.2779  0.2441  0.1527
 2619SOL     OW19315   1.591   2.448   6.913 -0.2731  0.2945 -0.2281
 2619SOL    HW119316   1.592   2.403   6.828 -1.8267  0.6818 -0.4509
 2619SOL    HW219317   1.500   2.463   6.939 -0.7546  2.2907 -2.9790
 2620SOL     OW19318   0.782   0.499   7.400 -0.2914  0.4309  0.1314
 2620SOL    HW119319   0.750   0.566   7.461  0.5265  1.6143 -0.7310
 2620SOL    HW219320   0.799   0.551   7.321  0.8574  1.0106  0.7655
 2621SOL     OW19321   4.073   4.271   5.151 -0.1368  0.1378  0.5268
 2621SOL    HW119322   4.064   4.195   5.093  0.1469 -0.0901  0.7813
 2621SOL    HW219323   3.989   4.265   5.198  0.3860 -0.5448  1.3730
 2622SOL     OW19324   1.220   4.520  12.239 -0.7800  0.2768  0.1368
 2622SOL    HW119325   1.271   4.576  12.297 -0.7526 -0.0136  0.3892
 2622SOL    HW219326   1.259   4.544  12.154  0.3442 -1.1678  0.2496
 2623SOL     OW19327   2.993   2.899   8.596 -0.0372 -0.1295 -0.1674
 2623SOL    HW119328   3.008   2.916   8.689  2.9159 -1.2470 -0.4401
 2623SOL    HW219329   2.927   2.831   8.607 -2.0306  2.0594  1.4610
 2624SOL     OW19330   3.002   3.394   6.782  0.1598  0.2940 -0.5554
 2624SOL    HW119331   2.998   3.316   6.727  4.2273  0.5108 -1.1844
 2624SOL    HW219332   3.034   3.348   6.860 -1.9026  1.2623  0.8734
 2625SOL     OW19333   0.275   1.709   7.786  0.3305  0.7796  0.5744
 2625SOL    HW119334   0.280   1.635   7.847  0.4370  0.4588  0.1725
 2625SOL    HW219335   0.249   1.785   7.838  2.7154  1.4339  0.8416
 2626SOL     OW19336   1.488   1.325   2.951  0.6037 -0.0522  0.3770
 2626SOL    HW119337   1.570   1.315   3.000  1.4849 -1.1290 -1.3320
 2626SOL    HW219338   1.494   1.416   2.925 -3.6287 -0.0221 -0.6039
 2627SOL     OW19339   1.996   0.408   8.952  0.0849  0.1907  0.2636
 2627SOL    HW119340   2.030   0.338   9.008  1.9642  0.8279 -0.0846
 2627SOL    HW219341   2.020   0.383   8.863 -0.3465 -2.0419  0.7760
 2628SOL     OW19342   1.621   0.636   5.409  0.2881  0.2479  0.1103
 2628SOL    HW119343   1.525   0.630   5.408  0.5458 -3.5007 -0.4828
 2628SOL    HW219344   1.625   0.712   5.351 -1.2748  1.0177  1.0287
 2629SOL     OW19345   1.729   0.478  12.284  0.6564 -0.1823  0.0123
 2629SOL    HW119346   1.664   0.548  12.278 -0.0004 -0.6418  1.7321
 2629SOL    HW219347   1.705   0.434  12.365 -1.8900 -0.1888 -0.7657
 2630SOL     OW19348   2.102   2.252   1.875 -0.5437 -0.0934  0.6978
 2630SOL    HW119349   2.157   2.246   1.797 -1.2419 -3.7349  0.4840
 2630SOL    HW219350   2.012   2.257   1.844 -1.0572  0.9099  2.3318
 2631SOL     OW19351   3.424   4.133   3.383  0.0260 -0.5771 -0.0934
 2631SOL    HW119352   3.486   4.191   3.427 -2.3187  0.8500  1.3546
 2631SOL    HW219353   3.369   4.202   3.346 -1.0668 -0.6888  1.3013
 2632SOL     OW19354   4.014   0.584   7.688  0.6285 -0.1136 -0.7469
 2632SOL    HW119355   3.976   0.496   7.695 -0.7503  0.6550  1.1441
 2632SOL    HW219356   3.946   0.628   7.739 -0.5588 -2.3332 -0.3832
 2633SOL     OW19357   3.044   1.624   4.753 -0.1570  0.2514 -0.1202
 2633SOL    HW119358   3.066   1.640   4.661 -2.6118 -2.6747 -1.1950
 2633SOL    HW219359   2.956   1.661   4.759 -0.1114  0.1628  1.2050
 2634SOL     OW19360   4.365   2.385   5.940  0.2815 -0.2432  0.1617
 2634SOL    HW119361   4.459   2.393   5.921  0.3990  0.9679  1.2475
 2634SOL    HW219362   4.362   2.289   5.943 -3.5669 -0.1279 -0.7927
 2635SOL     OW19363   0.356   1.145  17.640  0.1336  0.1315  0.4668
 2635SOL    HW119364   0.399   1.065  17.671 -0.9613 -0.4150  0.5547
 2635SOL    HW219365   0.285   1.149   0.019 -0.2736  1.0923 -0.0653
 2636SOL     OW19366   4.020   0.688   1.144  0.1741 -0.2738 -0.6024
 2636SOL    HW119367   4.005   0.666   1.052 -3.4261 -0.7808  0.1175
 2636SOL    HW219368   4.116   0.694   1.147  0.2236 -0.1881 -2.2833
 2637SOL     OW19369   0.631   3.811   6.354  0.2281 -0.3928 -0.0447
 2637SOL    HW119370   0.644   3.762   6.273 -0.5383 -1.8015  0.6707
 2637SOL    HW219371   0.551   3.858   6.333  1.5677  2.2778  0.8523
 2638SOL     OW19372   3.173   1.240   5.124 -0.0515 -0.1334 -0.0442
 2638SOL    HW119373   3.267   1.224   5.110  0.1517  0.7641  0.3111
 2638SOL    HW219374   3.164   1.330   5.093 -2.5970 -0.2447  0.4095
 2639SOL     OW19375   1.306   1.921   7.777 -0.3028  0.7222  0.0752
 2639SOL    HW119376   1.276   2.009   7.757 -1.4108  0.0935 -1.0065
 2639SOL    HW219377   1.313   1.923   7.873  0.9002 -1.2805  0.0401
 2640SOL     OW19378   2.976   2.384   1.789 -0.4192 -0.2800  0.2875
 2640SOL    HW119379   3.014   2.375   1.702  0.4712  1.4155  0.5021
 2640SOL    HW219380   2.924   2.305   1.776 -1.5482  0.4195  0.5466
 2641SOL     OW19381   1.231   3.877  10.864  0.2811  0.0114  0.0135
 2641SOL    HW119382   1.199   3.787  10.858 -2.0869  0.5340  4.6992
 2641SOL    HW219383   1.241   3.890  10.958  1.7938  0.0590 -0.1513
 2642SOL     OW19384   4.085   1.781   3.835 -0.1264  0.6665  0.1855
 2642SOL    HW119385   4.072   1.811   3.925  1.0919  3.8679 -0.7162
 2642SOL    HW219386   3.995   1.788   3.805  0.0177 -0.7698 -0.5943
 2643SOL     OW19387   2.613   1.964   6.323  0.0232 -0.0191 -0.2511
 2643SOL    HW119388   2.663   2.026   6.270  0.1057  1.0898  1.1200
 2643SOL    HW219389   2.643   1.987   6.411 -0.6437 -1.6636  0.4002
 2644SOL     OW19390   3.698   2.637   0.007  0.3695  0.1090  0.0353
 2644SOL    HW119391   3.743   2.554   0.020  0.7296  0.4082  0.6652
 2644SOL    HW219392   3.682   2.659   0.099  3.3421  0.1735  0.5115
 2645SOL     OW19393   3.475   0.216  14.607 -0.2295  0.2555 -0.1983
 2645SOL    HW119394   3.396   0.248  14.563 -0.0152 -0.7408 -1.2941
 2645SOL    HW219395   3.437   0.184  14.688  0.5203 -1.7461 -0.6398
 2646SOL     OW19396   0.292   0.315  13.004 -0.1638 -0.7450 -0.2900
 2646SOL    HW119397   0.260   0.374  13.072  0.5203 -1.0699  0.3137
 2646SOL    HW219398   0.212   0.284  12.961 -0.8769 -0.4132  0.7826
 2647SOL     OW19399   2.704   4.278   5.539  0.0926 -0.5737  0.3264
 2647SOL    HW119400   2.721   4.216   5.468  0.0686 -1.1362  0.8061
 2647SOL    HW219401   2.791   4.264   5.577  0.0673  0.5069  0.7771
 2648SOL     OW19402   2.188   3.700  12.342 -0.2605  0.4917 -0.0234
 2648SOL    HW119403   2.267   3.720  12.391  0.4573  1.2961 -1.4924
 2648SOL    HW219404   2.169   3.784  12.301 -0.8662  0.9424  1.1923
 2649SOL     OW19405   4.151   2.354  13.754 -0.1772  0.0417  0.7011
 2649SOL    HW119406   4.142   2.271  13.801  1.1258 -0.5718 -0.1578
 2649SOL    HW219407   4.148   2.421  13.822  2.2549 -0.5629  1.4010
 2650SOL     OW19408   1.232   4.539  13.393  0.1332 -0.3463 -0.7219
 2650SOL    HW119409   1.222   4.584  13.477 -0.6675 -2.2273  0.2085
 2650SOL    HW219410   1.238   4.620  13.343  2.3093 -0.1111 -0.0765
 2651SOL     OW19411   4.569   1.429   6.585  0.1250  0.4102  0.2973
 2651SOL    HW119412   4.539   1.339   6.571 -0.4834  0.5854  0.5122
 2651SOL    HW219413   4.494   1.485   6.600 -0.3131 -0.4287  1.2544
 2652SOL     OW19414   0.197   3.061   2.231  0.8642 -0.0271 -0.3488
 2652SOL    HW119415   0.180   2.974   2.195 -2.2518 -0.1899  1.5425
 2652SOL    HW219416   0.277   3.036   2.278 -0.7549 -2.4310  1.1405
 2653SOL     OW19417   2.627   0.322   6.580 -0.1428 -0.4341  0.4537
 2653SOL    HW119418   2.595   0.352   6.495 -0.2013 -0.1786  0.5673
 2653SOL    HW219419   2.626   0.397   6.639  1.2159  0.7502 -1.0373
 2654SOL     OW19420   4.590   1.106   5.087  0.5865  0.0989 -0.0581
 2654SOL    HW119421   4.673   1.152   5.072 -0.6812  2.6526  0.8481
 2654SOL    HW219422   4.628   1.019   5.093 -1.1001 -0.5142  1.8249
 2655SOL     OW19423   1.637   2.744   8.570  0.0719  0.1184  0.1980
 2655SOL    HW119424   1.599   2.705   8.491 -0.1489 -0.0969  0.4104
 2655SOL    HW219425   1.636   2.660   8.617  0.4927  0.0980  0.1739
 2656SOL     OW19426   1.037   4.572   5.527  0.5360  0.0274  0.4602
 2656SOL    HW119427   1.102   4.632   5.563 -1.3417  2.7334 -0.6441
 2656SOL    HW219428   1.071   4.583   5.439  0.7640  0.9127  0.6587
 2657SOL     OW19429   1.680   1.308   3.150 -0.3985  0.2676 -0.0962
 2657SOL    HW119430   1.706   1.303   3.242  0.9514 -0.5811 -0.5342
 2657SOL    HW219431   1.700   1.400   3.128 -2.2340  0.6094 -0.3386
 2658SOL     OW19432   0.722   3.598   5.895  0.3767 -0.0216  0.8648
 2658SOL    HW119433   0.778   3.665   5.857  0.0791  0.0739  0.5942
 2658SOL    HW219434   0.785   3.527   5.887  0.4611  0.1303  0.2393
 2659SOL     OW19435   1.146   3.077   1.145 -0.1600  0.1129  0.5326
 2659SOL    HW119436   1.118   3.146   1.084 -1.3424 -0.7216  0.1400
 2659SOL    HW219437   1.227   3.052   1.100  1.6902  4.3409  1.5268
 2660SOL     OW19438   2.879   1.831   6.243  0.1084  0.6433 -0.5431
 2660SOL    HW119439   2.935   1.753   6.243  0.2678  0.7546 -0.1779
 2660SOL    HW219440   2.888   1.858   6.335 -1.4667 -2.6462  0.5922
 2661SOL     OW19441   2.660   1.621   8.630 -0.1210 -0.5530 -0.2403
 2661SOL    HW119442   2.664   1.667   8.714 -0.1798 -0.7074 -0.1535
 2661SOL    HW219443   2.568   1.596   8.632 -0.4449  0.7112  0.3677
 2662SOL     OW19444   2.263   0.360   0.727  0.0840 -0.3991  0.5484
 2662SOL    HW119445   2.351   0.323   0.735  0.8099  1.1804 -0.3286
 2662SOL    HW219446   2.279   0.452   0.708  3.7295 -1.1357  0.0219
 2663SOL     OW19447   4.193   0.462   3.612 -0.4207  0.9366  0.4084
 2663SOL    HW119448   4.098   0.474   3.619 -0.2295  3.0786 -0.5793
 2663SOL    HW219449   4.208   0.517   3.536  0.6896 -1.2411 -0.9352
 2664SOL     OW19450   0.332   0.031  15.875  0.0389 -0.3936  0.0067
 2664SOL    HW119451   0.341   4.658  15.896  0.4001 -0.1804  0.8368
 2664SOL    HW219452   0.243   0.063  15.867 -0.7925 -2.4641  0.8011
 2665SOL     OW19453   1.947   0.835   1.433  0.5497  0.6611 -0.2074
 2665SOL    HW119454   1.994   0.874   1.507  0.9210 -0.0509 -0.0705
 2665SOL    HW219455   1.996   0.869   1.358  0.0126  1.7143 -0.0807
 2666SOL     OW19456   2.785   0.303   4.206  0.1038  0.1962  0.6166
 2666SOL    HW119457   2.796   0.299   4.111  0.8622 -0.2782  0.7215
 2666SOL    HW219458   2.805   0.395   4.225 -0.1746  0.8263 -2.1150
 2667SOL     OW19459   2.916   2.128   1.399  0.3771 -0.4019  0.4165
 2667SOL    HW119460   2.856   2.195   1.367  0.9336  1.7126  3.8976
 2667SOL    HW219461   2.968   2.093   1.327 -1.3441 -1.1669 -0.4666
 2668SOL     OW19462   1.207   1.950   8.320  0.4251 -0.4405 -0.1794
 2668SOL    HW119463   1.153   2.019   8.281 -1.2556 -2.5169 -1.5288
 2668SOL    HW219464   1.198   1.981   8.410  1.0474  0.3497 -0.3946
 2669SOL     OW19465   1.906   1.934   1.955  0.8365 -0.0603  0.1831
 2669SOL    HW119466   1.828   1.887   1.985 -0.9026  2.1832 -0.7644
 2669SOL    HW219467   1.885   1.940   1.861  0.6643 -1.9384  0.0971
 2670SOL     OW19468   4.052   0.010   4.480 -1.1040  0.1560 -0.2209
 2670SOL    HW119469   4.121   4.712   4.416 -0.7132  1.6456 -0.2236
 2670SOL    HW219470   4.029   4.641   4.506  1.3146 -0.4352 -0.1569
 2671SOL     OW19471   2.792   4.233   4.298  0.0289 -0.0021  0.1722
 2671SOL    HW119472   2.808   4.318   4.339 -1.7471 -0.4995  1.9219
 2671SOL    HW219473   2.696   4.229   4.289  0.1063 -1.5645  0.0642
 2672SOL     OW19474   0.082   4.176   3.505 -0.4507  0.1730 -0.1090
 2672SOL    HW119475   0.129   4.117   3.564 -1.8554 -0.0549  0.7864
 2672SOL    HW219476   0.029   4.225   3.567  0.6606 -1.0490  1.8094
 2673SOL     OW19477   0.612   2.785   0.908  0.7795  0.5342 -0.2009
 2673SOL    HW119478   0.541   2.721   0.904  0.0952  1.0910  3.4179
 2673SOL    HW219479   0.568   2.855   0.955 -1.8612 -0.5499 -1.0224
 2674SOL     OW19480   0.459   2.580   2.127  0.3517  0.2668 -0.3339
 2674SOL    HW119481   0.420   2.592   2.214 -2.4738 -2.6086 -1.2195
 2674SOL    HW219482   0.509   2.661   2.116  1.7776 -0.5965 -0.2146
 2675SOL     OW19483   1.593   2.746   5.103 -0.7647 -0.1595  0.8876
 2675SOL    HW119484   1.577   2.652   5.104 -1.3754 -0.0775 -0.2427
 2675SOL    HW219485   1.512   2.791   5.075 -0.1113  1.0112  0.8688
 2676SOL     OW19486   2.619   1.104   4.541 -0.3148  0.0473  0.0142
 2676SOL    HW119487   2.618   1.018   4.499 -0.0638  1.2903 -2.5435
 2676SOL    HW219488   2.708   1.139   4.537 -0.1380 -0.3306  0.5744
 2677SOL     OW19489   0.315   3.465  17.115  0.2072 -0.2498  0.3336
 2677SOL    HW119490   0.231   3.482  17.074  0.5144  1.8286  0.5696
 2677SOL    HW219491   0.345   3.382  17.077  1.3100  0.2903  0.0055
 2678SOL     OW19492   2.507   1.140   1.830 -0.6381  0.1542 -0.8329
 2678SOL    HW119493   2.519   1.045   1.835  0.1486  0.2718 -0.4384
 2678SOL    HW219494   2.504   1.140   1.734 -1.1108  0.0094 -0.8207
 2679SOL     OW19495   0.110   2.710  16.328 -0.4621 -0.2630 -0.1747
 2679SOL    HW119496   0.061   2.764  16.266  0.8742 -0.2452 -1.2118
 2679SOL    HW219497   0.160   2.785  16.359  1.6671 -1.3780 -0.8980
 2680SOL     OW19498   4.697   3.535   3.574  0.0559  0.1754 -0.8080
 2680SOL    HW119499   0.019   3.452   3.593  1.3659  1.3333  1.2225
 2680SOL    HW219500   4.632   3.534   3.644 -0.3005  0.9825 -1.1258
 2681SOL     OW19501   4.552   3.183   7.123  0.7464 -0.4596  0.0691
 2681SOL    HW119502   4.479   3.188   7.185  0.3478  2.6085 -0.6357
 2681SOL    HW219503   4.510   3.193   7.037  0.7407 -0.8268  0.0325
 2682SOL     OW19504   3.424   1.631  10.991 -0.2026  0.3323 -0.2211
 2682SOL    HW119505   3.517   1.615  11.011 -0.6456 -1.5445  0.3539
 2682SOL    HW219506   3.384   1.636  11.077 -0.0326  0.5646 -0.1548
 2683SOL     OW19507   1.861   0.394   5.565 -0.3401  0.1017  0.1667
 2683SOL    HW119508   1.846   0.309   5.607 -0.9854  0.2850  0.3033
 2683SOL    HW219509   1.817   0.383   5.481 -0.3033 -2.1785  0.4483
 2684SOL     OW19510   3.780   0.628   8.702 -0.1930  0.2833 -0.0136
 2684SOL    HW119511   3.802   0.541   8.667 -0.5713 -0.2359  1.0333
 2684SOL    HW219512   3.691   0.600   8.724  0.9248 -1.8413  1.7868
 2685SOL     OW19513   4.457   3.797   8.438 -0.3003 -0.1917  0.5358
 2685SOL    HW119514   4.425   3.876   8.481  0.8560 -0.1729  1.3803
 2685SOL    HW219515   4.387   3.734   8.452  0.4979 -1.1308  0.2541
 2686SOL     OW19516   2.543   0.144  16.228 -0.1528 -0.5369 -0.0322
 2686SOL    HW119517   2.618   0.087  16.211 -0.2819 -0.7150 -0.0025
 2686SOL    HW219518   2.488   0.089  16.284 -1.2467 -1.5214 -2.0868
 2687SOL     OW19519   2.355   0.145   6.489  0.6520  0.6475 -0.2653
 2687SOL    HW119520   2.331   0.159   6.580  0.2778 -0.3530 -0.2033
 2687SOL    HW219521   2.430   0.202   6.478  1.0807 -0.1311 -1.4063
 2688SOL     OW19522   2.330   0.068  15.480 -0.0419  0.3310  0.0180
 2688SOL    HW119523   2.278   0.146  15.498 -1.7954 -0.2637 -2.3601
 2688SOL    HW219524   2.342   0.022  15.563  0.8824 -0.2807 -0.4479
 2689SOL     OW19525   2.015   4.119   3.224 -0.4545 -0.0970  0.1644
 2689SOL    HW119526   2.094   4.087   3.267 -0.7662 -1.6260 -0.3750
 2689SOL    HW219527   1.969   4.037   3.207 -2.5221  0.6463  2.2587
 2690SOL     OW19528   3.483   3.711   8.100  0.7036 -0.0083 -0.0294
 2690SOL    HW119529   3.395   3.688   8.131  0.0446  2.0980 -0.3730
 2690SOL    HW219530   3.529   3.713   8.184 -0.5386  0.3953  0.6390
 2691SOL     OW19531   2.068   1.060   6.213  0.3782 -0.2642  0.0348
 2691SOL    HW119532   2.066   0.980   6.159  0.4068 -0.1869 -0.0810
 2691SOL    HW219533   2.017   1.120   6.159  1.7267  1.3347  0.5544
 2692SOL     OW19534   0.611   4.114   8.852  0.4452 -0.4811  0.1689
 2692SOL    HW119535   0.582   4.029   8.886 -1.2783 -0.3363 -0.9094
 2692SOL    HW219536   0.687   4.134   8.906  0.2425  0.1943  0.1976
 2693SOL     OW19537   4.715   0.628   8.423 -0.1729 -0.0642  0.8782
 2693SOL    HW119538   0.089   0.614   8.435 -0.6447 -1.5997  2.8289
 2693SOL    HW219539   4.709   0.710   8.375 -1.6939 -0.6399  0.0936
 2694SOL     OW19540   4.291   2.116   2.773 -0.1409  0.0459  0.7808
 2694SOL    HW119541   4.241   2.150   2.700 -0.5380  0.4443  1.2390
 2694SOL    HW219542   4.226   2.055   2.807  0.8988 -1.3297  0.3137
 2695SOL     OW19543   0.263   3.584  12.308 -0.0522 -0.0705 -0.1655
 2695SOL    HW119544   0.303   3.598  12.394 -1.3596 -0.1296  0.4489
 2695SOL    HW219545   0.298   3.656  12.255 -1.2294  0.0375 -0.8049
 2696SOL     OW19546   2.755   1.567   4.535  0.2484 -0.1951  0.1665
 2696SOL    HW119547   2.771   1.633   4.604  1.7451 -0.7273  0.3283
 2696SOL    HW219548   2.671   1.534   4.567  0.5629 -0.2126  0.9765
 2697SOL     OW19549   2.429   3.935   5.432  0.2958  0.0231  0.4269
 2697SOL    HW119550   2.441   4.001   5.364  0.9061  0.1615  0.6713
 2697SOL    HW219551   2.334   3.945   5.439 -0.0805 -1.5277 -2.4839
 2698SOL     OW19552   4.186   3.629   5.263  0.7544 -0.3161 -0.0074
 2698SOL    HW119553   4.209   3.622   5.355  2.3932  0.7799 -0.3346
 2698SOL    HW219554   4.126   3.554   5.256  1.6320 -1.0019 -0.2574
 2699SOL     OW19555   2.876   2.907   6.549  0.5813 -0.3241 -0.3223
 2699SOL    HW119556   2.795   2.911   6.498 -0.6501 -0.4541  1.6252
 2699SOL    HW219557   2.930   2.962   6.492  0.5565 -0.9159 -0.9159
 2700SOL     OW19558   3.695   1.628   0.480 -0.0310  0.1901  0.9854
 2700SOL    HW119559   3.659   1.704   0.433 -0.4089 -0.4645  0.2199
 2700SOL    HW219560   3.699   1.561   0.412 -3.2390  0.5560  0.4500
 2701SOL     OW19561   3.563   0.946   8.307  0.0558  0.3259 -0.7206
 2701SOL    HW119562   3.576   0.994   8.226 -4.5740  0.5090 -1.3596
 2701SOL    HW219563   3.640   0.964   8.361  0.8900  1.4097 -2.2686
 2702SOL     OW19564   4.608   1.627   3.765 -0.2486  0.2026  0.5863
 2702SOL    HW119565   4.684   1.681   3.746 -0.1911  0.2896  1.0609
 2702SOL    HW219566   4.552   1.684   3.713 -0.9688 -0.1208  1.0053
 2703SOL     OW19567   3.828   0.609   5.058  0.6949 -0.0017  0.7352
 2703SOL    HW119568   3.799   0.574   4.973 -1.5240  2.5138  0.4526
 2703SOL    HW219569   3.769   0.552   5.106 -1.1385  1.4010  0.1773
 2704SOL     OW19570   3.361   1.683   1.756 -0.2288  0.5697  0.0144
 2704SOL    HW119571   3.360   1.636   1.839  0.6129  2.8494  1.3183
 2704SOL    HW219572   3.451   1.714   1.746  0.4297 -1.3105  0.2625
 2705SOL     OW19573   4.428   0.294   2.299  0.2891  0.3978 -0.2048
 2705SOL    HW119574   4.384   0.334   2.374  1.7088 -1.5856  1.6663
 2705SOL    HW219575   4.520   0.300   2.321 -0.3786 -1.4165  3.1071
 2706SOL     OW19576   2.020   2.911   6.816  0.3788 -0.1927  0.2787
 2706SOL    HW119577   2.094   2.926   6.876  0.3884 -0.1966  0.2679
 2706SOL    HW219578   2.074   2.909   6.737  0.2976  0.5430  0.2038
 2707SOL     OW19579   3.629   1.421  12.733  0.3715 -0.1142  0.1637
 2707SOL    HW119580   3.700   1.423  12.797 -0.1557  0.5276  0.7313
 2707SOL    HW219581   3.592   1.507  12.754 -2.5478 -1.7137  1.6380
 2708SOL     OW19582   1.610   4.381  16.370 -0.1640 -0.0105  0.2589
 2708SOL    HW119583   1.609   4.354  16.279 -1.2238 -1.5679  0.7420
 2708SOL    HW219584   1.703   4.384  16.389 -0.3106  0.9063  0.8824
 2709SOL     OW19585   4.381   3.876   4.039 -0.7424 -0.1685 -0.1011
 2709SOL    HW119586   4.445   3.895   4.108 -0.8208  0.5150 -0.2119
 2709SOL    HW219587   4.398   3.948   3.979 -1.0355  0.1727  0.2239
 2710SOL     OW19588   0.889   0.827   2.303 -0.1474 -0.1553  0.5600
 2710SOL    HW119589   0.973   0.872   2.292 -0.3307 -0.0092 -0.2424
 2710SOL    HW219590   0.905   0.733   2.299 -1.1985 -0.2681 -0.9191
 2711SOL     OW19591   1.787   4.043  12.130  0.1503  0.5719  0.4735
 2711SOL    HW119592   1.852   4.110  12.105  0.4947 -0.1903 -0.6616
 2711SOL    HW219593   1.766   4.015  12.041  2.2787 -2.2931  0.8774
 2712SOL     OW19594   0.121   3.209   3.549 -0.3540 -0.0099 -0.1752
 2712SOL    HW119595   0.038   3.171   3.517 -0.7151  0.9739 -0.3973
 2712SOL    HW219596   0.181   3.135   3.538  0.3072  0.6460 -1.0034
 2713SOL     OW19597   2.571   4.547   8.188 -0.2820 -0.1888 -0.3822
 2713SOL    HW119598   2.541   4.602   8.260 -0.5603  0.0831 -0.7040
 2713SOL    HW219599   2.533   4.465   8.220  2.2619 -0.9646  0.6060
 2714SOL     OW19600   0.858   1.136   8.043  0.0486  0.8294  0.2936
 2714SOL    HW119601   0.920   1.160   7.974  2.0208 -2.1733  0.9914
 2714SOL    HW219602   0.776   1.153   7.998  0.6353 -0.8652 -1.4218
 2715SOL     OW19603   3.540   0.479   5.880  0.0921 -0.0947 -0.3891
 2715SOL    HW119604   3.522   0.385   5.890  0.0086 -0.0700 -0.3093
 2715SOL    HW219605   3.579   0.498   5.965  0.3805 -0.7536 -0.3752
 2716SOL     OW19606   1.415   0.150   6.455  0.5068  0.4484  0.5255
 2716SOL    HW119607   1.443   0.183   6.540 -0.8211  2.8755  0.0136
 2716SOL    HW219608   1.487   0.170   6.395  1.0189  1.7768  1.5946
 2717SOL     OW19609   4.562   2.905  15.147  0.3473  0.3651  0.3828
 2717SOL    HW119610   4.636   2.963  15.132 -0.5503  0.9412 -1.8354
 2717SOL    HW219611   4.492   2.938  15.091 -1.9992 -2.6397  1.5539
 2718SOL     OW19612   0.772   0.840   5.135  0.1967 -0.3257  0.4318
 2718SOL    HW119613   0.857   0.837   5.091 -0.1047  1.3264 -0.2436
 2718SOL    HW219614   0.810   0.840   5.223  1.2616  0.7097 -0.0271
 2719SOL     OW19615   0.249   0.846   7.939  0.1770 -0.3066 -0.4756
 2719SOL    HW119616   0.212   0.774   7.990 -1.4844  2.2003  1.8805
 2719SOL    HW219617   0.250   0.908   8.012 -0.0146 -0.8759  0.0139
 2720SOL     OW19618   4.497   4.072  12.933 -0.4488 -0.1159 -0.5621
 2720SOL    HW119619   4.501   4.069  13.029  1.3866  1.3047 -0.6031
 2720SOL    HW219620   4.567   4.133  12.911 -2.1861  1.3489 -2.0494
 2721SOL     OW19621   3.145   2.097   4.909 -0.0575  0.0459  0.3991
 2721SOL    HW119622   3.214   2.158   4.934 -0.7327  1.6849 -1.7142
 2721SOL    HW219623   3.083   2.118   4.978 -0.6139  0.6030 -0.2671
 2722SOL     OW19624   3.660   1.085   6.914 -0.1886  0.4278  0.6578
 2722SOL    HW119625   3.724   1.156   6.907 -0.6521  0.9374  1.6137
 2722SOL    HW219626   3.652   1.071   6.820  0.1945  1.1531  0.5128
 2723SOL     OW19627   0.731   2.801  12.008  0.1933  0.3689 -0.4307
 2723SOL    HW119628   0.692   2.875  11.962  0.2225 -0.0162 -1.0822
 2723SOL    HW219629   0.819   2.832  12.028  0.2642  0.1145 -0.3519
 2724SOL     OW19630   0.389   4.010   8.449 -0.0797 -0.0118  0.0952
 2724SOL    HW119631   0.405   3.962   8.530  2.7502  1.4141  0.3936
 2724SOL    HW219632   0.358   3.932   8.404  1.1911  0.6874 -1.9871
 2725SOL     OW19633   0.683   3.041   6.943  0.2164  0.3317 -0.5575
 2725SOL    HW119634   0.725   3.126   6.958 -0.9599  1.2112 -2.3575
 2725SOL    HW219635   0.686   3.006   7.032 -0.9186 -1.9624 -1.4418
 2726SOL     OW19636   3.351   2.598   3.206 -0.6242  0.5006  0.0561
 2726SOL    HW119637   3.261   2.565   3.206 -1.2662  2.2330  0.1922
 2726SOL    HW219638   3.406   2.520   3.196 -1.1419  0.0968  0.3920
 2727SOL     OW19639   0.266   3.680   6.825 -0.1501  0.6277 -0.1299
 2727SOL    HW119640   0.173   3.659   6.827 -0.2695  1.1538 -0.1793
 2727SOL    HW219641   0.276   3.703   6.918 -2.2922  1.3472 -0.0851
 2728SOL     OW19642   3.389   1.464   9.859 -0.5455  0.2316  0.4762
 2728SOL    HW119643   3.418   1.480   9.949 -1.6810  1.3760  0.6364
 2728SOL    HW219644   3.474   1.460   9.815 -1.2614 -1.5759 -0.7115
 2729SOL     OW19645   1.094   0.966  13.608 -0.8392 -0.1267 -0.3720
 2729SOL    HW119646   1.095   0.873  13.632  1.5392 -0.0841 -0.3131
 2729SOL    HW219647   1.040   0.969  13.530 -0.3697 -0.9177 -0.7198
 2730SOL     OW19648   1.815   3.148   6.448 -0.3139  0.0721 -0.8844
 2730SOL    HW119649   1.847   3.079   6.390  0.8308  0.2797 -0.4966
 2730SOL    HW219650   1.764   3.193   6.380 -0.0184 -0.4767 -1.4705
 2731SOL     OW19651   3.805   3.516   4.685 -0.2711  0.5369 -0.6317
 2731SOL    HW119652   3.876   3.500   4.747 -1.6544  0.8387  1.0178
 2731SOL    HW219653   3.741   3.572   4.729  1.0969  1.4284  0.1817
 2732SOL     OW19654   2.907   1.096  10.156 -0.0059 -0.1574  0.0334
 2732SOL    HW119655   2.930   1.142  10.237  1.9476  1.3362 -1.3584
 2732SOL    HW219656   2.924   1.008  10.189 -4.3720 -0.2575  1.9882
 2733SOL     OW19657   1.956   2.541  10.274 -0.6751  0.0672 -0.5297
 2733SOL    HW119658   1.951   2.449  10.300  0.9585  0.3584  0.8191
 2733SOL    HW219659   2.014   2.584  10.337 -2.0302  0.0844  0.6931
 2734SOL     OW19660   3.381   3.090   3.933  0.2730  0.2442  0.3002
 2734SOL    HW119661   3.466   3.086   3.889  0.7803  0.7867  1.2259
 2734SOL    HW219662   3.320   3.124   3.867 -0.0613 -0.5016  0.2259
 2735SOL     OW19663   3.663   3.475  12.855  0.3038 -0.7132  0.3778
 2735SOL    HW119664   3.754   3.503  12.844 -0.5160  1.0482 -1.9367
 2735SOL    HW219665   3.665   3.417  12.930  1.3418 -3.1828 -1.5411
 2736SOL     OW19666   3.186   3.463   9.912  0.1349 -0.4655  0.0776
 2736SOL    HW119667   3.105   3.493   9.954  0.3865  0.0430  0.2079
 2736SOL    HW219668   3.173   3.504   9.826 -2.1345  0.1629  0.7178
 2737SOL     OW19669   0.891   3.730   3.684 -0.1319  0.5242  0.3289
 2737SOL    HW119670   0.983   3.750   3.668  0.4213 -0.4704  2.3459
 2737SOL    HW219671   0.868   3.679   3.607 -0.4965 -0.2535  0.9617
 2738SOL     OW19672   4.336   4.041   7.472  0.2061  0.2256 -0.2203
 2738SOL    HW119673   4.329   3.978   7.400 -1.3644 -0.3759  0.4825
 2738SOL    HW219674   4.387   4.107   7.423 -0.3545  2.0668  1.6731
 2739SOL     OW19675   1.074   4.181   7.470  0.0031 -0.6063 -0.4111
 2739SOL    HW119676   1.168   4.176   7.489 -0.0183  0.2903 -0.0713
 2739SOL    HW219677   1.068   4.199   7.376  0.4745  1.5922 -0.0244
 2740SOL     OW19678   1.903   4.649   7.386  0.5627  0.8287  0.2434
 2740SOL    HW119679   1.919   4.561   7.350  0.9213  0.2498  1.8079
 2740SOL    HW219680   1.926   4.645   7.479 -0.2435  3.9484  0.5846
 2741SOL     OW19681   1.646   1.017   0.613  0.4362 -0.0323  0.2201
 2741SOL    HW119682   1.637   1.107   0.645  2.5290  0.4702 -0.6224
 2741SOL    HW219683   1.737   1.020   0.586  0.4229  0.1238  0.1924
 2742SOL     OW19684   1.131   4.498  12.631 -0.2138 -0.3442  0.9934
 2742SOL    HW119685   1.180   4.529  12.708  0.2791  3.9595 -1.0408
 2742SOL    HW219686   1.176   4.414  12.622 -1.3283 -0.4354 -3.4532
 2743SOL     OW19687   0.075   1.152   2.734 -0.2840 -0.0400 -0.1296
 2743SOL    HW119688   0.146   1.091   2.714 -2.1344 -1.8649 -1.0177
 2743SOL    HW219689   0.003   1.115   2.683  0.6014 -0.9598 -0.7108
 2744SOL     OW19690   3.197   3.233   5.555  0.2044 -0.6293 -0.5714
 2744SOL    HW119691   3.143   3.205   5.481  0.6024  0.2898 -1.2088
 2744SOL    HW219692   3.251   3.297   5.511 -0.3499 -0.6698 -1.3047
 2745SOL     OW19693   0.597   0.676   2.478  0.4742 -0.4420  0.0471
 2745SOL    HW119694   0.508   0.675   2.442  0.8977  0.0577 -1.0094
 2745SOL    HW219695   0.588   0.679   2.573 -1.3959 -0.4063 -0.1221
 2746SOL     OW19696   4.685   3.572   6.911 -0.1499 -0.3723  0.2004
 2746SOL    HW119697   4.614   3.627   6.944 -0.5437  0.6208 -2.2867
 2746SOL    HW219698   4.702   3.533   6.997  2.4703  1.3746  0.4490
 2747SOL     OW19699   2.087   1.151   5.924  0.0904 -0.2865  0.5067
 2747SOL    HW119700   2.130   1.088   5.982  3.1173 -0.1485 -1.5762
 2747SOL    HW219701   2.074   1.100   5.844  0.3259  1.5297 -0.6855
 2748SOL     OW19702   4.422   3.960   2.714  0.7021 -0.4420 -0.1076
 2748SOL    HW119703   4.501   3.925   2.675 -1.4768 -1.5762 -3.5099
 2748SOL    HW219704   4.453   4.021   2.781  2.6926  1.7657 -3.0547
 2749SOL     OW19705   0.099   2.423   8.516 -0.3760  0.6355  0.0403
 2749SOL    HW119706   0.037   2.385   8.577  0.3332 -1.3437 -0.4766
 2749SOL    HW219707   0.068   2.513   8.515 -0.8209  0.4696 -0.9050
 2750SOL     OW19708   4.442   4.468   4.846  0.1826 -0.3619 -0.1408
 2750SOL    HW119709   4.428   4.538   4.910 -2.3518 -0.8948 -0.0908
 2750SOL    HW219710   4.390   4.491   4.769  0.4189 -0.4082 -0.3128
 2751SOL     OW19711   3.233   0.250   4.257  0.0072  0.2781  0.5642
 2751SOL    HW119712   3.295   0.221   4.190 -0.7184  1.5739 -0.6545
 2751SOL    HW219713   3.196   0.166   4.283 -1.1462 -0.1805 -2.5508
 2752SOL     OW19714   1.853   1.353   8.155  0.0919 -0.6446 -0.2831
 2752SOL    HW119715   1.779   1.297   8.181  0.5340 -1.2121 -0.2415
 2752SOL    HW219716   1.904   1.289   8.106 -0.0008 -1.1389  0.2610
 2753SOL     OW19717   1.471   0.592   1.569 -0.0148  0.2403  0.0470
 2753SOL    HW119718   1.524   0.539   1.629  1.5547  0.5350 -1.0971
 2753SOL    HW219719   1.512   0.597   1.483  0.2208  2.0105  0.2713
 2754SOL     OW19720   0.745   2.266  16.550 -0.0181  0.5936  0.4944
 2754SOL    HW119721   0.701   2.316  16.619 -2.2062  0.7767 -1.0436
 2754SOL    HW219722   0.705   2.306  16.473 -0.0565  0.0039  0.2116
 2755SOL     OW19723   1.115   2.350  10.709  0.4258  0.3323 -0.0793
 2755SOL    HW119724   1.072   2.329  10.626 -0.3908  0.9209  0.1932
 2755SOL    HW219725   1.197   2.398  10.696  1.2585 -1.6073 -1.9271
 2756SOL     OW19726   4.715   3.237   4.301  0.0561  0.1930 -0.2839
 2756SOL    HW119727   4.672   3.201   4.379  1.4957  1.1059  0.9267
 2756SOL    HW219728   4.638   3.208   4.252 -0.3131 -0.5929  0.7410
 2757SOL     OW19729   1.183   1.246   3.883 -0.4432 -0.2126 -1.0206
 2757SOL    HW119730   1.222   1.276   3.801 -1.5520  2.4602 -0.5600
 2757SOL    HW219731   1.228   1.304   3.944 -1.2511 -1.4192  0.7402
 2758SOL     OW19732   1.517   3.419   6.335  0.3754  0.4693 -0.0988
 2758SOL    HW119733   1.576   3.450   6.405  0.7671  0.3856 -0.3898
 2758SOL    HW219734   1.457   3.363   6.385 -0.6980 -0.0379 -1.9665
 2759SOL     OW19735   0.471   1.405   4.071 -0.4185 -0.2176  0.1026
 2759SOL    HW119736   0.401   1.348   4.103 -0.0368  0.3851  2.0252
 2759SOL    HW219737   0.542   1.341   4.075  0.3894  0.5278 -2.7863
 2760SOL     OW19738   1.663   4.611   7.560 -0.2427  0.7263  0.0531
 2760SOL    HW119739   1.673   4.704   7.539  1.1311  0.6864  0.4965
 2760SOL    HW219740   1.750   4.603   7.600  0.2537 -0.2361 -1.2203
 2761SOL     OW19741   1.674   3.317   0.636 -0.9628 -0.1886 -0.4062
 2761SOL    HW119742   1.673   3.268   0.554 -2.5569  0.3599 -0.7086
 2761SOL    HW219743   1.669   3.404   0.597 -1.9035  0.7886  1.8644
 2762SOL     OW19744   0.095   4.397   5.417 -0.1811  0.5262 -0.4678
 2762SOL    HW119745   0.054   4.365   5.336  1.5972  0.0801 -1.1785
 2762SOL    HW219746   0.127   4.483   5.390  0.1639  0.8856  1.0937
 2763SOL     OW19747   3.427   2.162  14.366 -0.7259  0.3230  0.2875
 2763SOL    HW119748   3.462   2.230  14.308 -1.1114 -1.3826 -1.9489
 2763SOL    HW219749   3.434   2.096  14.297  1.6562 -0.6537  1.4410
 2764SOL     OW19750   1.904   3.625   2.061  0.2758 -0.4822 -0.0634
 2764SOL    HW119751   1.956   3.672   1.996  1.0001  1.3208  1.8201
 2764SOL    HW219752   1.974   3.610   2.124  0.8478  0.5912 -0.4346
 2765SOL     OW19753   3.040   2.944   8.845 -0.5958 -0.2341 -0.3930
 2765SOL    HW119754   3.136   2.936   8.843 -0.4618  1.7110 -1.4833
 2765SOL    HW219755   3.024   2.937   8.939  1.5882 -0.9014 -0.0643
 2766SOL     OW19756   2.311   2.877  11.466  0.0830 -0.0362  0.4900
 2766SOL    HW119757   2.274   2.927  11.539  0.0506  0.3150  0.2275
 2766SOL    HW219758   2.372   2.943  11.434  1.4603 -1.4253  0.2647
 2767SOL     OW19759   2.314   3.808   5.048  0.3727 -0.3277 -0.4163
 2767SOL    HW119760   2.240   3.858   5.014  0.1751 -0.4317 -0.1438
 2767SOL    HW219761   2.356   3.789   4.964  0.1990  3.1807 -1.2787
 2768SOL     OW19762   1.650   1.127   5.593  0.8351 -0.3027  0.2122
 2768SOL    HW119763   1.570   1.087   5.628  1.6361 -2.2653 -0.1822
 2768SOL    HW219764   1.688   1.049   5.551 -0.2812 -0.6753 -0.1115
 2769SOL     OW19765   2.230   1.119   7.983 -0.0187  0.3426  0.0028
 2769SOL    HW119766   2.166   1.064   7.938  0.4853 -0.3352  0.1074
 2769SOL    HW219767   2.192   1.204   7.962 -0.2616  0.9605  2.8845
 2770SOL     OW19768   1.547   0.890  14.702  0.0681  0.4878  0.0934
 2770SOL    HW119769   1.628   0.936  14.682  0.9225 -1.9681 -2.0868
 2770SOL    HW219770   1.493   0.968  14.713 -1.3857 -0.6653  1.2198
 2771SOL     OW19771   2.626   3.593   1.767  0.1907 -0.4492  0.0447
 2771SOL    HW119772   2.587   3.670   1.726 -1.3825 -1.2938 -0.0588
 2771SOL    HW219773   2.566   3.563   1.836 -0.1834  0.6755  0.2112
 2772SOL     OW19774   0.048   2.563   4.695 -0.1139  0.5222  0.0153
 2772SOL    HW119775   0.082   2.481   4.659 -0.0291  0.9710 -0.9322
 2772SOL    HW219776   0.076   2.619   4.623  0.3924  1.5309  0.9981
 2773SOL     OW19777   2.936   1.127   5.042  0.1038  0.0007 -0.2248
 2773SOL    HW119778   3.007   1.161   5.096 -1.4214  1.7045  0.6668
 2773SOL    HW219779   2.981   1.092   4.965 -0.6402 -3.2676  0.8036
 2774SOL     OW19780   4.223   0.045  10.746  0.1645  0.0425 -0.0522
 2774SOL    HW119781   4.232   0.082  10.834 -1.3789 -0.5398  0.3501
 2774SOL    HW219782   4.176   0.119  10.706  0.8227  0.0942 -0.7385
 2775SOL     OW19783   2.645   0.286   7.709 -0.2223 -0.2978  0.0575
 2775SOL    HW119784   2.654   0.217   7.775 -2.7360 -0.8806 -0.2004
 2775SOL    HW219785   2.699   0.353   7.752 -0.4238  1.0263 -1.7758
 2776SOL     OW19786   1.729   1.633  16.040 -0.5178  0.0145  0.2686
 2776SOL    HW119787   1.766   1.606  15.956  1.1709 -0.2119  1.0753
 2776SOL    HW219788   1.665   1.562  16.047  2.1004 -2.4350 -0.3297
 2777SOL     OW19789   3.415   2.187   8.435  0.1928  0.2089 -0.1431
 2777SOL    HW119790   3.319   2.187   8.427  0.2562  3.3993 -0.9329
 2777SOL    HW219791   3.434   2.093   8.430 -0.0461  0.0095  3.2314
 2778SOL     OW19792   0.813   3.116   7.977  0.2108  0.3705  0.0316
 2778SOL    HW119793   0.878   3.069   7.925 -1.3900 -0.6077 -1.0815
 2778SOL    HW219794   0.819   3.207   7.948  1.3902  0.2529 -0.0811
 2779SOL     OW19795   0.132   0.013   2.362  0.2793 -0.1136 -0.1858
 2779SOL    HW119796   0.173   0.022   2.448  2.6863  0.4542 -1.3952
 2779SOL    HW219797   0.091   0.099   2.352 -1.3941 -0.9623 -0.4907
 2780SOL     OW19798   2.072   4.504   0.973 -0.2633  0.2729  0.2520
 2780SOL    HW119799   2.001   4.466   0.922 -1.5784  1.3759  1.2789
 2780SOL    HW219800   2.134   4.529   0.904  0.1161 -1.3220  0.0141
 2781SOL     OW19801   2.151   1.717   5.402 -0.2888 -0.1379 -0.2737
 2781SOL    HW119802   2.083   1.781   5.382  0.1788  1.0238  1.9601
 2781SOL    HW219803   2.106   1.686   5.480 -0.2525 -0.8548 -0.5303
 2782SOL     OW19804   0.731   2.817   1.920 -0.2236 -0.0049  0.3452
 2782SOL    HW119805   0.785   2.891   1.947 -1.7439  1.1931  0.0897
 2782SOL    HW219806   0.667   2.832   1.990 -2.3256 -1.6987 -1.2285
 2783SOL     OW19807   0.035   3.062   2.879 -0.4438 -0.0276  0.8539
 2783SOL    HW119808   0.028   2.976   2.921  1.8079  0.6493  2.6396
 2783SOL    HW219809   4.682   3.065   2.818  2.1262 -1.3083 -2.3002
 2784SOL     OW19810   1.366   2.021   0.570  0.0620  0.5838  0.6467
 2784SOL    HW119811   1.338   2.032   0.661 -1.7635  2.0193 -0.0841
 2784SOL    HW219812   1.460   2.001   0.573  0.1715  1.0109  0.0711
 2785SOL     OW19813   1.754   0.885   5.502 -0.8194 -0.3312 -0.2289
 2785SOL    HW119814   1.753   0.792   5.483 -0.4320 -0.1453 -1.1709
 2785SOL    HW219815   1.811   0.914   5.430 -0.7496 -0.0234 -0.0516
 2786SOL     OW19816   2.279   4.463   8.347  0.3998 -0.6741  0.1855
 2786SOL    HW119817   2.261   4.472   8.440 -0.8119  0.6320 -0.1875
 2786SOL    HW219818   2.229   4.536   8.312  2.5193  0.7269  0.0592
 2787SOL     OW19819   0.484   2.522   6.250 -0.3821 -0.3860 -0.5386
 2787SOL    HW119820   0.482   2.441   6.301 -1.6805  0.2554  0.4187
 2787SOL    HW219821   0.390   2.536   6.237 -0.3310 -1.1564 -1.7297
 2788SOL     OW19822   0.120   1.723   7.512 -0.1577  0.0904  0.2733
 2788SOL    HW119823   0.207   1.741   7.548  0.5002  2.5825 -2.5090
 2788SOL    HW219824   0.053   1.756   7.572 -2.3054 -0.6493 -1.7013
 2789SOL     OW19825   0.093   3.092  14.514  0.0554  0.3227  0.4545
 2789SOL    HW119826   0.130   3.123  14.597 -2.5546 -1.3839  2.2451
 2789SOL    HW219827   0.145   3.012  14.504 -1.2391 -0.1598 -2.4224
 2790SOL     OW19828   0.460   0.593   1.774  0.4409  0.3623 -0.5182
 2790SOL    HW119829   0.376   0.639   1.780 -0.0656 -0.5453 -0.7618
 2790SOL    HW219830   0.472   0.567   1.865 -0.1154 -0.4412 -0.6812
 2791SOL     OW19831   2.114   3.600   5.930  0.0372 -0.1649  0.7423
 2791SOL    HW119832   2.057   3.673   5.956 -2.6035 -2.1550  0.5634
 2791SOL    HW219833   2.054   3.531   5.957 -1.3910  0.6556 -0.3404
 2792SOL     OW19834   2.451   4.065   3.521  0.6256  0.4345 -0.6322
 2792SOL    HW119835   2.403   4.115   3.588 -0.0843 -2.4028  1.0029
 2792SOL    HW219836   2.454   4.120   3.443 -1.5935 -1.9570 -2.4170
 2793SOL     OW19837   1.078   1.736   4.819 -0.4522 -0.4735 -0.3560
 2793SOL    HW119838   1.132   1.791   4.763  0.6668 -2.8131 -1.5657
 2793SOL    HW219839   0.991   1.769   4.799  0.1077 -0.8034 -3.3026
 2794SOL     OW19840   1.853   2.988   2.417  0.4891 -0.1861 -0.4638
 2794SOL    HW119841   1.835   2.967   2.325  1.2340  1.1918 -0.9289
 2794SOL    HW219842   1.801   3.065   2.437  0.1996 -1.3073  3.0159
 2795SOL     OW19843   4.188   1.668   8.030  0.1566  0.1711  0.0220
 2795SOL    HW119844   4.137   1.700   7.957  0.9767 -0.5969 -0.8905
 2795SOL    HW219845   4.185   1.573   8.020  0.9531  0.2655 -1.1887
 2796SOL     OW19846   3.922   3.881   6.964  0.4013 -0.1461 -0.9183
 2796SOL    HW119847   3.986   3.811   6.950 -0.2157 -0.8295 -0.3270
 2796SOL    HW219848   3.865   3.868   6.889  0.5294  0.0829 -1.0563
 2797SOL     OW19849   2.895   1.087   7.308 -0.2915  0.3028  0.1234
 2797SOL    HW119850   2.855   1.072   7.223 -1.4605  0.7617  0.5906
 2797SOL    HW219851   2.903   1.182   7.300 -1.0153  0.4898  1.6499
 2798SOL     OW19852   3.900   4.260   7.823 -0.2221  0.2284  0.4350
 2798SOL    HW119853   3.956   4.216   7.887 -1.1052 -1.1857  0.2626
 2798SOL    HW219854   3.816   4.264   7.869 -0.9978 -0.9233 -0.8452
 2799SOL     OW19855   0.567   3.405   5.145  0.0276 -0.1172 -0.1492
 2799SOL    HW119856   0.659   3.381   5.133 -0.4190 -1.8166 -0.1746
 2799SOL    HW219857   0.543   3.435   5.057  2.0714 -1.4760 -1.1918
 2800SOL     OW19858   0.605   1.866   0.574 -0.0013 -0.4318 -0.3701
 2800SOL    HW119859   0.551   1.835   0.647  1.1566  0.3373  0.8223
 2800SOL    HW219860   0.679   1.804   0.570 -0.4729 -1.0178 -0.0094
 2801SOL     OW19861   0.099   4.519   7.040 -0.0197  0.2351 -0.1828
 2801SOL    HW119862   0.139   4.539   7.125  0.1482 -1.0500  0.0496
 2801SOL    HW219863   0.174   4.483   6.993  1.7968  2.8354  0.7261
 2802SOL     OW19864   3.690   3.585   8.722 -0.1047  0.0390 -0.9527
 2802SOL    HW119865   3.616   3.611   8.778  0.6768  1.0813 -0.4065
 2802SOL    HW219866   3.672   3.491   8.716  2.4797 -0.4063 -1.4007
 2803SOL     OW19867   0.921   1.283   3.591 -0.2188  0.0368 -0.0582
 2803SOL    HW119868   0.956   1.198   3.616 -2.0826 -0.5601  0.5398
 2803SOL    HW219869   0.878   1.327   3.664  1.2774 -1.5472  1.7413
 2804SOL     OW19870   3.349   4.147  17.593 -0.5319 -0.6344 -0.3403
 2804SOL    HW119871   3.389   4.064  17.618 -0.8050 -0.6670 -0.0066
 2804SOL    HW219872   3.318   4.137  17.503 -1.6735  1.8878 -0.2279
 2805SOL     OW19873   4.356   0.943   5.846 -0.0293 -0.3812  0.7923
 2805SOL    HW119874   4.407   1.005   5.793 -1.4187 -0.3655 -0.5439
 2805SOL    HW219875   4.325   0.889   5.773 -2.9858  2.3989 -0.0054
 2806SOL     OW19876   4.545   2.342   3.774  0.4572 -0.4026  0.4645
 2806SOL    HW119877   4.461   2.366   3.812  0.7096 -1.1097  1.4707
 2806SOL    HW219878   4.595   2.424   3.774 -0.7170  0.3143  0.8510
 2807SOL     OW19879   2.600   2.397   0.393  0.1554  0.1225  0.0278
 2807SOL    HW119880   2.649   2.353   0.463 -0.4928 -0.7222 -0.0550
 2807SOL    HW219881   2.679   2.421   0.344 -0.4122  0.3962 -0.7379
 2808SOL     OW19882   0.098   0.745   6.568  0.0436  0.0845  0.2785
 2808SOL    HW119883   0.175   0.743   6.625 -0.0240 -4.0509  0.1758
 2808SOL    HW219884   0.127   0.687   6.498  0.5944  2.1569 -1.1974
 2809SOL     OW19885   4.692   0.771   3.912  0.3378 -0.6687 -0.2670
 2809SOL    HW119886   4.632   0.705   3.877 -0.3314 -0.7642  1.0484
 2809SOL    HW219887   4.697   0.741   4.003 -1.2988 -0.6652 -0.1795
 2810SOL     OW19888   1.596   3.659   8.393  0.3197 -0.2498 -0.0983
 2810SOL    HW119889   1.514   3.685   8.351  0.2465 -1.6838 -0.8680
 2810SOL    HW219890   1.583   3.564   8.402 -0.6682 -0.2336 -1.3362
 2811SOL     OW19891   1.324   0.523   9.768 -0.0681 -0.2236 -0.6943
 2811SOL    HW119892   1.397   0.541   9.708  1.1846 -2.4505  0.1484
 2811SOL    HW219893   1.251   0.579   9.742 -0.8394 -0.6097  0.6616
 2812SOL     OW19894   4.233   3.545  17.328  0.5685  0.6559  0.5406
 2812SOL    HW119895   4.263   3.480  17.392  2.1188 -1.6361 -2.5250
 2812SOL    HW219896   4.226   3.621  17.386 -4.7082  0.1902  0.4983
 2813SOL     OW19897   4.237   4.580   0.212  0.2534 -0.6455  0.2059
 2813SOL    HW119898   4.279   4.664   0.231 -0.2742  0.4421 -3.4571
 2813SOL    HW219899   4.194   4.567   0.297 -2.0401  2.4503 -0.4920
 2814SOL     OW19900   1.978   0.337   8.659  0.0999 -0.3274 -0.0440
 2814SOL    HW119901   1.897   0.305   8.621  0.2361 -1.0844  0.3148
 2814SOL    HW219902   1.991   0.413   8.602 -3.7294 -0.9254 -1.6941
 2815SOL     OW19903   0.098   3.015   9.269 -0.3236 -0.6822  0.2745
 2815SOL    HW119904   0.041   2.941   9.251 -1.3411  0.4390 -1.0491
 2815SOL    HW219905   0.059   3.039   9.353 -1.3785 -0.0559 -0.3924
 2816SOL     OW19906   4.556   2.699   6.484 -0.5548  0.2591 -0.0292
 2816SOL    HW119907   4.474   2.701   6.533  0.3689  1.0384  1.4518
 2816SOL    HW219908   4.562   2.793   6.468 -1.1875  0.2942 -0.0558
 2817SOL     OW19909   2.048   2.531  17.287  0.0149 -0.8300 -0.2212
 2817SOL    HW119910   1.982   2.586  17.246 -0.7527 -0.4548  1.5229
 2817SOL    HW219911   2.117   2.595  17.304 -0.0832 -1.1598  1.4862
 2818SOL     OW19912   4.277   3.488   4.891 -0.3643  0.3506  0.0325
 2818SOL    HW119913   4.301   3.423   4.958  2.5442  0.2812 -1.0661
 2818SOL    HW219914   4.295   3.443   4.808  0.6574 -1.8999  1.4792
 2819SOL     OW19915   1.463   4.272   6.580  0.4445 -0.3655  0.0782
 2819SOL    HW119916   1.542   4.236   6.620  1.7442  1.2958 -1.0350
 2819SOL    HW219917   1.424   4.291   6.666 -2.0292  0.3311 -1.1972
 2820SOL     OW19918   2.225   3.982   7.661  0.0708  0.5362 -0.2766
 2820SOL    HW119919   2.178   3.945   7.735 -2.4220 -0.4717 -2.3862
 2820SOL    HW219920   2.318   3.967   7.680  0.2332  1.3694 -0.4140
 2821SOL     OW19921   0.841   0.981   2.057  0.2199  0.0015 -0.0958
 2821SOL    HW119922   0.802   0.916   2.115 -0.9951  2.1565  1.5288
 2821SOL    HW219923   0.925   0.991   2.101  0.6067  0.0399 -0.8570
 2822SOL     OW19924   4.700   0.966   7.891  0.3020 -0.7476 -0.4145
 2822SOL    HW119925   0.051   1.008   7.939  1.1388  0.6149 -2.8578
 2822SOL    HW219926   4.654   1.045   7.860  2.1309  0.0653 -1.0519
 2823SOL     OW19927   0.994   2.412   8.432  0.5498 -0.0566  0.8516
 2823SOL    HW119928   0.973   2.447   8.345 -2.9623 -2.7005  0.6220
 2823SOL    HW219929   0.922   2.433   8.490  0.4517  0.6914  0.4536
 2824SOL     OW19930   3.938   2.096  12.811  0.6725 -0.2113  0.1600
 2824SOL    HW119931   3.997   2.083  12.885  0.2456  0.6952  0.6570
 2824SOL    HW219932   4.004   2.095  12.742  0.7094  0.6514  0.1919
 2825SOL     OW19933   3.752   0.996   7.504 -0.2308  0.2859 -0.1279
 2825SOL    HW119934   3.754   0.900   7.503  0.3932  0.2893  0.8968
 2825SOL    HW219935   3.828   1.025   7.454  1.4516 -1.7066  1.2741
 2826SOL     OW19936   1.039   0.664  17.213  0.2902 -0.1670 -0.3302
 2826SOL    HW119937   1.131   0.641  17.210 -0.4786 -3.1781 -0.5855
 2826SOL    HW219938   1.007   0.676  17.303 -1.0447 -1.5334 -0.6175
 2827SOL     OW19939   2.061   1.243   4.769  0.0060  0.3435 -0.5086
 2827SOL    HW119940   1.978   1.251   4.816  0.6894  0.6737  0.6566
 2827SOL    HW219941   2.107   1.173   4.817 -1.0921 -0.6307 -0.8874
 2828SOL     OW19942   0.821   1.281   9.096  0.1758 -0.6388  0.1522
 2828SOL    HW119943   0.841   1.324   9.179  0.0176  1.6428 -0.9946
 2828SOL    HW219944   0.855   1.193   9.114  1.3167 -0.2693 -0.1770
 2829SOL     OW19945   3.049   4.634   6.153  0.8076  0.3249  0.3068
 2829SOL    HW119946   2.981   4.637   6.221 -0.1404  2.3707 -0.7283
 2829SOL    HW219947   2.990   4.646   6.078  0.5999 -2.4158  0.0273
 2830SOL     OW19948   2.826   4.213   6.094 -0.2963 -0.0695 -0.0423
 2830SOL    HW119949   2.805   4.120   6.083  3.0796 -1.0515  1.6875
 2830SOL    HW219950   2.899   4.206   6.157  1.6427  1.4868 -2.1349
 2831SOL     OW19951   3.985   2.103  12.022 -0.4643  0.0614  0.2321
 2831SOL    HW119952   4.031   2.021  12.006  1.1180  1.0499 -0.3028
 2831SOL    HW219953   3.937   2.084  12.102  0.3223 -1.4956  0.3202
 2832SOL     OW19954   2.035   3.172   2.487  0.2056 -0.6304  0.6158
 2832SOL    HW119955   2.058   3.132   2.571  2.3363 -0.4196  0.1281
 2832SOL    HW219956   1.976   3.111   2.442  1.4211 -0.6540 -0.9567
 2833SOL     OW19957   4.555   3.829   7.931 -0.2530 -0.1764 -0.4433
 2833SOL    HW119958   4.636   3.858   7.973 -0.3077 -3.1106  1.6893
 2833SOL    HW219959   4.546   3.864   7.843 -1.0023 -0.3853 -0.4503
 2834SOL     OW19960   1.100   1.068  10.659 -0.4736  1.2718 -0.7916
 2834SOL    HW119961   1.170   1.035  10.602 -0.0434  0.4789  0.2118
 2834SOL    HW219962   1.153   1.127  10.712  1.6767  0.2472 -1.7954
 2835SOL     OW19963   1.097   2.445  13.445  0.4393  0.3940 -0.0029
 2835SOL    HW119964   1.144   2.449  13.528  0.4079 -0.4930  0.0504
 2835SOL    HW219965   1.147   2.512  13.397  0.4650 -0.3668 -1.0279
 2836SOL     OW19966   0.058   2.996  10.684  0.1923 -0.2031 -0.1459
 2836SOL    HW119967   0.071   2.971  10.776  1.2991  1.3829  0.1382
 2836SOL    HW219968   4.683   2.996  10.681  0.2248  0.2172 -1.0995
 2837SOL     OW19969   4.675   2.888  14.884  0.4427  0.6118  0.0683
 2837SOL    HW119970   4.696   2.965  14.831  0.9340  1.3222  1.3048
 2837SOL    HW219971   0.000   2.920  14.962  0.5751 -0.6036  0.4862
 2838SOL     OW19972   1.905   0.218  11.917  0.0361  0.4728  0.8757
 2838SOL    HW119973   1.956   0.150  11.962 -0.2857  0.3385  1.0373
 2838SOL    HW219974   1.971   0.283  11.891  1.9130 -0.8849  2.2116
 2839SOL     OW19975   3.214   3.375   8.185  0.4721  0.2460 -0.6162
 2839SOL    HW119976   3.224   3.284   8.213  2.4577  0.5798 -0.2405
 2839SOL    HW219977   3.123   3.392   8.208  1.0594  1.7265  0.6171
 2840SOL     OW19978   3.483   2.340   3.182 -0.0951 -0.1671 -0.9368
 2840SOL    HW119979   3.568   2.363   3.144 -0.1792  2.2237  0.3011
 2840SOL    HW219980   3.453   2.280   3.114  1.6709 -2.1309  0.0325
 2841SOL     OW19981   1.963   2.318  12.528  0.2464  0.4333 -0.1654
 2841SOL    HW119982   1.965   2.277  12.614 -0.0676 -1.5358 -1.1030
 2841SOL    HW219983   1.964   2.408  12.560  0.5437  1.6375 -3.4789
 2842SOL     OW19984   1.191   4.294   4.886  0.5575  0.2741  0.1043
 2842SOL    HW119985   1.266   4.280   4.828  0.4302  0.6405 -0.1435
 2842SOL    HW219986   1.204   4.389   4.891 -1.5422  0.5208  0.9849
 2843SOL     OW19987   1.728   1.496   5.054 -0.3419  0.0325  0.1278
 2843SOL    HW119988   1.677   1.573   5.080 -0.1030  0.6083 -1.0673
 2843SOL    HW219989   1.815   1.526   5.080 -0.8470  0.2684  1.5316
 2844SOL     OW19990   2.914   4.484  17.150  0.5184 -0.5743  0.6529
 2844SOL    HW119991   2.849   4.415  17.138 -0.8427  0.7572  0.2846
 2844SOL    HW219992   2.952   4.453  17.232  1.0789 -2.9649 -0.5304
 2845SOL     OW19993   3.573   3.836  10.572  0.4790 -0.4675 -0.1052
 2845SOL    HW119994   3.593   3.871  10.485 -2.9147 -0.7210 -0.9719
 2845SOL    HW219995   3.508   3.770  10.550  0.7603 -1.2615  1.3955
 2846SOL     OW19996   4.410   2.960  12.840  0.4731  0.4046 -0.2127
 2846SOL    HW119997   4.381   2.869  12.833 -1.6836  0.9890  0.9802
 2846SOL    HW219998   4.368   2.977  12.925 -0.1041 -0.3381 -0.3452
 2847SOL     OW19999   0.585   3.074  10.925 -0.4530 -0.0827  0.3172
 2847SOL    HW120000   0.656   3.075  10.860 -1.7438  2.7420 -1.0458
 2847SOL    HW220001   0.603   2.995  10.976  0.8960  0.5625  0.8492
 2848SOL     OW20002   1.785   4.595   4.166 -0.0098  0.6388 -0.3691
 2848SOL    HW120003   1.769   4.596   4.071 -1.3820 -0.4911 -0.1473
 2848SOL    HW220004   1.771   4.684   4.199  2.1137  0.0652  2.0558
 2849SOL     OW20005   2.229   4.111  17.390 -0.1177  0.0904 -0.9209
 2849SOL    HW120006   2.225   4.099  17.295 -0.9003 -1.6372 -0.6753
 2849SOL    HW220007   2.182   4.193  17.404 -0.1813 -0.6074  2.9648
 2850SOL     OW20008   2.033   3.289   1.240  0.0291  0.2482 -0.0891
 2850SOL    HW120009   2.056   3.273   1.332 -0.0344  0.9141  0.0472
 2850SOL    HW220010   1.938   3.304   1.243  0.0563  0.2166  0.9149
 2851SOL     OW20011   4.611   1.748  13.044  0.0427  0.5381 -0.1442
 2851SOL    HW120012   4.625   1.704  12.960 -4.0629  1.5641 -1.3415
 2851SOL    HW220013   4.618   1.839  13.016 -0.0485  0.8789  0.9423
 2852SOL     OW20014   1.997   1.756   8.419 -0.3838 -0.4401  0.4012
 2852SOL    HW120015   2.034   1.786   8.336 -0.2799  0.4418  0.7684
 2852SOL    HW220016   1.970   1.843   8.449 -1.2326  0.2062 -2.1593
 2853SOL     OW20017   1.121   1.746  12.040 -0.2600 -0.2092  0.2161
 2853SOL    HW120018   1.173   1.666  12.032  0.8991  0.5093  0.5755
 2853SOL    HW220019   1.046   1.743  11.980 -0.1822 -1.3980  0.1846
 2854SOL     OW20020   4.512   1.935   8.645 -0.2972  0.7271 -0.2231
 2854SOL    HW120021   4.538   1.978   8.564  2.6541 -1.2758 -0.3535
 2854SOL    HW220022   4.522   1.844   8.617 -1.5115  1.1272 -1.9214
 2855SOL     OW20023   4.255   0.529   6.585  0.5727 -0.0448  0.2321
 2855SOL    HW120024   4.186   0.491   6.638  1.3217 -0.6766  0.7381
 2855SOL    HW220025   4.275   0.459   6.523 -0.4098  1.0001 -1.2876
 2856SOL     OW20026   2.991   4.151   1.589 -0.2651  0.2555 -0.3755
 2856SOL    HW120027   2.933   4.085   1.627 -0.5730  0.5853 -0.2790
 2856SOL    HW220028   3.000   4.212   1.662 -1.1020 -1.8362  1.4954
 2857SOL     OW20029   3.324   0.469   0.722  0.0198 -0.7364 -0.0486
 2857SOL    HW120030   3.406   0.492   0.677  0.3690  0.4324  1.1784
 2857SOL    HW220031   3.281   0.554   0.723  1.8748  0.2049 -0.4046
 2858SOL     OW20032   2.517   0.458   8.295 -0.0192 -0.3856 -0.3376
 2858SOL    HW120033   2.506   0.407   8.216  0.7885  1.2296 -1.4955
 2858SOL    HW220034   2.464   0.404   8.354  1.4548  0.5336  1.8495
 2859SOL     OW20035   1.440   4.600   7.741  0.1403 -0.2306  0.0025
 2859SOL    HW120036   1.437   4.507   7.765  0.6403  0.2704  2.0195
 2859SOL    HW220037   1.522   4.591   7.691  1.2278  2.3927  1.2936
 2860SOL     OW20038   0.146   3.923   5.663 -0.0802  0.6204 -0.1403
 2860SOL    HW120039   0.111   3.990   5.604 -0.2385  0.4820 -0.2021
 2860SOL    HW220040   0.090   3.847   5.651  1.7786 -1.1051  2.1102
 2861SOL     OW20041   4.190   0.532   1.712  0.4221  0.2169 -0.2185
 2861SOL    HW120042   4.181   0.541   1.618 -0.4637  1.7312  0.0188
 2861SOL    HW220043   4.193   0.438   1.728  1.5391  0.5166  1.3731
 2862SOL     OW20044   3.864   1.964   3.409 -0.2512 -0.1013 -0.8074
 2862SOL    HW120045   3.808   2.035   3.377 -1.3054 -0.2602  0.6704
 2862SOL    HW220046   3.947   2.011   3.403 -0.7660  1.2861  3.1902
 2863SOL     OW20047   1.489   0.947   1.745  0.1719 -0.0926  0.1374
 2863SOL    HW120048   1.518   1.034   1.771 -0.4263  0.0963  0.1704
 2863SOL    HW220049   1.421   0.926   1.809  0.8263  1.5048  1.3362
 2864SOL     OW20050   3.085   2.231  10.876  0.0731  0.1790 -0.1755
 2864SOL    HW120051   3.006   2.177  10.874 -1.0541  1.8560 -2.1092
 2864SOL    HW220052   3.101   2.223  10.970 -1.8196  0.8243  0.2034
 2865SOL     OW20053   4.482   3.089   7.894 -0.2311  0.0885 -0.6449
 2865SOL    HW120054   4.429   3.169   7.894 -1.0820 -0.4822  0.3127
 2865SOL    HW220055   4.543   3.117   7.962  0.0937  0.1557 -0.9603
 2866SOL     OW20056   0.988   3.375   4.273 -0.0078 -0.6521 -0.3507
 2866SOL    HW120057   1.050   3.360   4.202 -0.2755 -0.3059 -0.6546
 2866SOL    HW220058   1.048   3.360   4.346 -0.7830 -1.0920  0.1922
 2867SOL     OW20059   1.168   2.512  15.991  0.0491  0.1938 -0.4708
 2867SOL    HW120060   1.181   2.482  15.901  0.7682  3.2801 -1.3984
 2867SOL    HW220061   1.111   2.450  16.036 -0.1790  0.1587 -0.8071
 2868SOL     OW20062   4.164   1.464  10.409 -0.1291  0.0243 -0.3940
 2868SOL    HW120063   4.239   1.519  10.388 -1.0105  1.3869 -0.0224
 2868SOL    HW220064   4.121   1.461  10.323 -0.3383  2.0726 -0.3646
 2869SOL     OW20065   1.087   3.884   5.737 -0.0204  0.0544  0.4528
 2869SOL    HW120066   1.093   3.978   5.723 -0.1636 -0.1595 -0.9983
 2869SOL    HW220067   0.994   3.863   5.727  0.4209 -1.4598 -0.4378
 2870SOL     OW20068   4.374   2.892   7.324  0.2877  0.2895  0.1011
 2870SOL    HW120069   4.332   2.818   7.280  0.1191  0.0523  0.6583
 2870SOL    HW220070   4.328   2.966   7.284 -1.3069  0.8760  3.0091
 2871SOL     OW20071   4.124   1.426   7.686 -0.5368 -0.6373 -0.2758
 2871SOL    HW120072   4.097   1.335   7.679 -3.3777  0.0607  1.3035
 2871SOL    HW220073   4.131   1.442   7.780  1.5439 -1.8457 -0.2257
 2872SOL     OW20074   2.503   0.806   0.485  0.1490 -0.0724 -0.6436
 2872SOL    HW120075   2.472   0.807   0.394  1.5477 -0.6001 -1.1218
 2872SOL    HW220076   2.597   0.789   0.484 -0.0119 -0.8949 -2.0720
 2873SOL     OW20077   1.073   3.666  13.206 -0.3301  0.0831 -0.8623
 2873SOL    HW120078   0.982   3.638  13.215 -0.3645  0.6788  0.5372
 2873SOL    HW220079   1.114   3.617  13.277 -0.3378  1.7152  0.2762
 2874SOL     OW20080   3.920   3.366  14.608  0.4750  0.0164  0.4367
 2874SOL    HW120081   3.895   3.282  14.646  2.8076 -0.4011  1.0351
 2874SOL    HW220082   3.896   3.426  14.678  0.0402  1.0667 -0.5938
 2875SOL     OW20083   3.284   4.686   5.167 -0.1664 -0.2548  0.2530
 2875SOL    HW120084   3.221   4.707   5.098 -1.0099 -1.9096  0.5361
 2875SOL    HW220085   3.362   4.666   5.115 -0.5229 -1.4229  0.1831
 2876SOL     OW20086   4.085   4.636   8.820  0.0042  0.4116 -0.4415
 2876SOL    HW120087   4.104   0.001   8.860  3.9435 -1.2883  1.2739
 2876SOL    HW220088   4.104   4.577   8.893 -0.0218  0.0488 -0.7291
 2877SOL     OW20089   1.778   4.081   2.145  0.3542  0.0932 -0.1252
 2877SOL    HW120090   1.836   4.157   2.160 -0.0939  0.5264 -0.5851
 2877SOL    HW220091   1.772   4.083   2.050  2.1847  3.0065 -0.1768
 2878SOL     OW20092   0.395   3.782   6.094  0.0369  0.0122  0.2477
 2878SOL    HW120093   0.305   3.749   6.105  0.4779 -0.6912  1.6223
 2878SOL    HW220094   0.404   3.830   6.176  1.9106 -1.9985  1.2039
 2879SOL     OW20095   0.643   3.362   2.237  0.4198  0.1447  0.0497
 2879SOL    HW120096   0.649   3.285   2.294  1.2933  0.5948  0.5626
 2879SOL    HW220097   0.551   3.380   2.222  0.6759  1.5383  0.1842
 2880SOL     OW20098   2.459   2.983   5.381  0.0673 -0.2302  0.4856
 2880SOL    HW120099   2.370   2.950   5.393 -0.0671 -0.6257 -1.6092
 2880SOL    HW220100   2.462   3.026   5.466  0.4823 -0.9435  0.8272
 2881SOL     OW20101   0.024   3.206   6.890  0.5360  0.2644 -0.2155
 2881SOL    HW120102   0.104   3.255   6.906 -0.7997  1.8221  1.6446
 2881SOL    HW220103   4.695   3.221   6.971 -0.0254  2.2513 -0.9414
 2882SOL     OW20104   3.641   0.088   3.365  0.3598  0.0071 -0.2419
 2882SOL    HW120105   3.581   0.147   3.411  1.9439  0.7060  0.9585
 2882SOL    HW220106   3.599   0.078   3.280  0.0715  1.1884 -0.2403
 2883SOL     OW20107   0.536   1.879  12.548  0.7113 -0.4984 -0.0678
 2883SOL    HW120108   0.628   1.904  12.551  1.5518 -3.5734 -1.3744
 2883SOL    HW220109   0.527   1.785  12.534  2.1694 -0.4923 -1.0939
 2884SOL     OW20110   0.289   3.429   6.308 -0.4887  0.1883 -0.0480
 2884SOL    HW120111   0.361   3.410   6.248 -0.7173  2.6416 -1.0854
 2884SOL    HW220112   0.286   3.344   6.352  1.2264  0.8185  1.3132
 2885SOL     OW20113   3.749   3.187   1.115  0.2827  0.1085  0.1556
 2885SOL    HW120114   3.761   3.108   1.064 -0.8617  0.8823 -1.2851
 2885SOL    HW220115   3.839   3.192   1.149  0.6151  2.8713 -1.0969
 2886SOL     OW20116   0.602   4.648  12.778 -0.0433 -0.1270  0.0374
 2886SOL    HW120117   0.669   4.581  12.763  1.3070  1.2525 -0.1057
 2886SOL    HW220118   0.656   0.006  12.769 -2.9872  1.7116 -1.5312
 2887SOL     OW20119   3.563   4.393   7.081  0.0828 -0.2039  0.7236
 2887SOL    HW120120   3.510   4.314   7.082  0.5174 -0.4734  2.2699
 2887SOL    HW220121   3.649   4.358   7.103 -0.8778 -1.0403  3.0866
 2888SOL     OW20122   4.220   0.586   2.270  0.1347 -0.4785  0.8133
 2888SOL    HW120123   4.298   0.534   2.291  1.3714 -0.3123 -3.3449
 2888SOL    HW220124   4.201   0.544   2.187  2.1721  1.0340 -0.4202
 2889SOL     OW20125   3.814   0.942  16.551  0.1457  0.3511  0.0139
 2889SOL    HW120126   3.806   0.850  16.526  0.6751  1.0650 -2.6935
 2889SOL    HW220127   3.783   0.985  16.471 -1.5242 -1.8851 -0.5252
 2890SOL     OW20128   4.672   1.961   7.275  0.3949 -0.2163 -1.0355
 2890SOL    HW120129   0.042   1.980   7.250 -0.0546  0.0008 -2.5118
 2890SOL    HW220130   4.640   2.050   7.266  1.4262  0.2909  0.4143
 2891SOL     OW20131   0.573   1.413  15.538  0.7554  0.6351  0.1498
 2891SOL    HW120132   0.643   1.452  15.485  1.2277  0.9365  0.9888
 2891SOL    HW220133   0.525   1.495  15.548 -2.6136 -1.1476 -1.3514
 2892SOL     OW20134   0.282   0.167   2.131 -0.5653 -0.6687  0.6705
 2892SOL    HW120135   0.232   0.090   2.156  1.4141 -3.0743 -2.7523
 2892SOL    HW220136   0.353   0.124   2.083 -3.3056 -1.0773 -3.0332
 2893SOL     OW20137   2.625   4.386   3.226 -0.2876 -0.1897  0.0798
 2893SOL    HW120138   2.701   4.430   3.263  1.1342 -2.3074 -0.3526
 2893SOL    HW220139   2.615   4.442   3.148 -0.5136 -0.3208  0.0141
 2894SOL     OW20140   0.118   0.173  13.323 -0.2441 -0.0714  0.5192
 2894SOL    HW120141   0.197   0.222  13.346 -1.3913  1.2025  1.6987
 2894SOL    HW220142   0.096   0.122  13.401  2.6102  2.1752  2.7898
 2895SOL     OW20143   0.644   4.458   1.447  0.4382  0.0007  0.2663
 2895SOL    HW120144   0.738   4.454   1.427  0.6162 -0.5250  1.1882
 2895SOL    HW220145   0.605   4.448   1.360 -1.5261 -0.5936  1.2124
 2896SOL     OW20146   2.137   3.873   2.311 -0.2741  0.0681 -0.5256
 2896SOL    HW120147   2.137   3.876   2.215 -0.1232 -1.6182 -0.5834
 2896SOL    HW220148   2.113   3.780   2.313  0.3093 -0.0867 -0.7834
 2897SOL     OW20149   1.125   3.012   6.748 -0.0156  0.4232  0.3074
 2897SOL    HW120150   1.181   2.941   6.781  1.2020  1.0073 -0.5312
 2897SOL    HW220151   1.189   3.051   6.689 -1.9964  0.6867 -1.6797
 2898SOL     OW20152   4.297   0.286  11.637 -0.2556  0.2785  0.5313
 2898SOL    HW120153   4.346   0.273  11.556 -1.3425  1.2983 -0.2843
 2898SOL    HW220154   4.364   0.327  11.691  0.3454  1.9124 -1.4721
 2899SOL     OW20155   2.178   3.301   2.711 -0.2620  0.0619  0.3921
 2899SOL    HW120156   2.158   3.362   2.640 -0.7963 -0.1284  0.3744
 2899SOL    HW220157   2.273   3.298   2.702 -0.4224  1.1540 -1.7085
 2900SOL     OW20158   0.963   2.834   6.011 -0.3184 -0.2488 -0.6494
 2900SOL    HW120159   0.960   2.806   6.102  0.4163  0.0295 -0.5312
 2900SOL    HW220160   0.901   2.906   6.002  0.5003  0.5143 -0.2276
 2901SOL     OW20161   2.129   0.089  16.750  0.3216  0.3111 -0.0891
 2901SOL    HW120162   2.142   4.720  16.783 -1.0983  1.2215  2.8684
 2901SOL    HW220163   2.159   0.078  16.659 -1.1583  0.8419 -0.6360
 2902SOL     OW20164   3.579   2.973   2.116  0.1659 -0.2062  0.3869
 2902SOL    HW120165   3.605   3.013   2.200 -2.4183  0.8211  0.6852
 2902SOL    HW220166   3.555   3.047   2.060 -0.2418 -0.3369  0.3896
 2903SOL     OW20167   4.710   1.174   9.563  0.5161 -0.2363 -0.4050
 2903SOL    HW120168   4.629   1.211   9.599  1.6992 -0.5233  2.5318
 2903SOL    HW220169   0.043   1.183   9.642  3.4035 -1.5123 -2.2237
 2904SOL     OW20170   1.690   1.594   2.528  0.7999 -0.1813 -0.1505
 2904SOL    HW120171   1.642   1.513   2.545  0.4276  0.4123  1.5290
 2904SOL    HW220172   1.644   1.643   2.460 -1.8982 -1.5804  0.6807
 2905SOL     OW20173   1.620   1.445  15.378 -0.2450  0.4359  0.8936
 2905SOL    HW120174   1.619   1.533  15.416  0.1992  2.0164 -2.7208
 2905SOL    HW220175   1.548   1.442  15.315  0.7180  0.3582 -0.2256
 2906SOL     OW20176   0.040   3.455  12.245  0.2160  0.3545  0.7114
 2906SOL    HW120177   4.709   3.534  12.225  1.9937  1.3493  0.0945
 2906SOL    HW220178   0.117   3.494  12.286  0.7726  0.7209 -0.6739
 2907SOL     OW20179   3.188   2.553  17.232 -0.4121 -0.2311 -0.5079
 2907SOL    HW120180   3.262   2.511  17.276  1.5505  1.0950 -2.5258
 2907SOL    HW220181   3.217   2.597  17.151 -0.8406 -0.2371 -0.6657
 2908SOL     OW20182   3.871   0.258  16.836  0.0950  0.0129  0.6107
 2908SOL    HW120183   3.802   0.205  16.797  0.1588  2.2634 -2.5773
 2908SOL    HW220184   3.863   0.347  16.800 -1.0201  0.1722  1.2517
 2909SOL     OW20185   3.147   2.179   8.495 -0.5916  0.0246  0.4960
 2909SOL    HW120186   3.099   2.257   8.522 -1.9110 -0.7942  0.4617
 2909SOL    HW220187   3.088   2.136   8.434 -1.0041  1.6643 -0.2623
 2910SOL     OW20188   2.970   0.495  12.073  0.6049 -0.1969  0.5202
 2910SOL    HW120189   2.947   0.579  12.112  1.2715  0.0252  0.4348
 2910SOL    HW220190   3.045   0.467  12.126  0.8276  0.0132  0.3121
 2911SOL     OW20191   0.117   0.511  12.335 -0.3029  0.1431  0.4129
 2911SOL    HW120192   0.091   0.469  12.417 -1.6927 -0.8542 -0.5141
 2911SOL    HW220193   0.052   0.477  12.273  0.0031  2.6745 -1.2763
 2912SOL     OW20194   3.483   3.845   6.804 -0.3336 -0.1544  0.2989
 2912SOL    HW120195   3.421   3.858   6.876  0.8185 -1.2054  1.4776
 2912SOL    HW220196   3.418   3.855   6.734  0.3491 -1.7932 -0.5813
 2913SOL     OW20197   3.581   0.326   9.599 -0.3293  0.3421 -0.1205
 2913SOL    HW120198   3.555   0.251   9.544 -1.5146 -1.4453  2.8898
 2913SOL    HW220199   3.660   0.300   9.647 -0.7277 -2.1688 -0.7995
 2914SOL     OW20200   0.524   0.005  16.639  0.4171 -0.1392 -0.3256
 2914SOL    HW120201   0.596   4.701  16.697  0.5310 -0.4494 -0.5979
 2914SOL    HW220202   0.518   0.101  16.641  1.3356 -0.0960  0.3203
 2915SOL     OW20203   4.312   0.430   2.499 -0.1096 -0.1935  0.3275
 2915SOL    HW120204   4.310   0.368   2.572 -1.0949 -0.6452 -0.0782
 2915SOL    HW220205   4.229   0.478   2.505  0.9205  1.8640 -1.7153
 2916SOL     OW20206   1.730   3.178   7.475  0.0177  0.2038 -0.5954
 2916SOL    HW120207   1.717   3.119   7.549  4.6339 -0.3173 -0.2095
 2916SOL    HW220208   1.804   3.131   7.437 -0.1957 -0.3710 -0.3015
 2917SOL     OW20209   2.402   3.484   0.070 -0.3377 -0.3999  0.3128
 2917SOL    HW120210   2.386   3.540   0.146 -1.1282 -0.6095  0.2924
 2917SOL    HW220211   2.381   3.547   0.002  0.8414 -0.9773 -0.5804
 2918SOL     OW20212   2.295   0.256  10.612 -1.0168  0.3678  0.0740
 2918SOL    HW120213   2.355   0.245  10.685 -1.7871  1.6811  0.9047
 2918SOL    HW220214   2.238   0.179  10.621  2.7668 -2.0573  3.2543
 2919SOL     OW20215   1.028   2.590   4.899 -0.0049 -0.2089 -0.3537
 2919SOL    HW120216   1.034   2.614   4.806 -0.3434 -1.2610 -0.6391
 2919SOL    HW220217   1.120   2.610   4.917  0.0165 -0.8545  0.2556
 2920SOL     OW20218   2.866   2.839   2.642  0.1312 -0.0303 -0.3886
 2920SOL    HW120219   2.771   2.828   2.642  0.0673  0.5937  0.8205
 2920SOL    HW220220   2.880   2.934   2.634  0.7524 -0.2622 -2.1060
 2921SOL     OW20221   2.674   1.401   5.143 -0.3181  0.6807  0.1263
 2921SOL    HW120222   2.700   1.331   5.083 -2.1099 -0.3006  0.5070
 2921SOL    HW220223   2.762   1.428   5.171  0.1226 -0.0619 -0.5292
 2922SOL     OW20224   3.674   3.771   5.102 -0.2922 -0.2788 -0.0891
 2922SOL    HW120225   3.626   3.709   5.157  0.2411 -0.5584  0.0614
 2922SOL    HW220226   3.758   3.770   5.148 -1.0486 -0.3566  1.3005
 2923SOL     OW20227   2.115   2.615  12.744 -0.1516 -0.0432  0.0375
 2923SOL    HW120228   2.178   2.664  12.692 -0.6090  1.6643  1.1113
 2923SOL    HW220229   2.168   2.571  12.810  0.4528 -0.8436 -0.9660
 2924SOL     OW20230   1.110   1.182  10.993  0.1226 -0.0827  0.0241
 2924SOL    HW120231   1.022   1.199  10.959  0.9216 -0.9597 -2.4737
 2924SOL    HW220232   1.140   1.273  10.987 -0.0987 -0.0531 -0.6145
 2925SOL     OW20233   3.805   1.062   4.563 -0.3819 -0.0169 -0.1699
 2925SOL    HW120234   3.870   1.126   4.592  0.5437 -0.4372 -1.3179
 2925SOL    HW220235   3.790   1.093   4.473 -0.4135  0.8208  0.1256
 2926SOL     OW20236   0.180   0.605   6.359  0.6122  0.1068 -0.2063
 2926SOL    HW120237   0.215   0.527   6.403 -0.7211  0.0718  0.7622
 2926SOL    HW220238   0.098   0.566   6.329  0.7429 -0.1234 -0.2651
 2927SOL     OW20239   0.529   2.156   0.310  0.1331 -0.1112 -0.3525
 2927SOL    HW120240   0.528   2.145   0.405 -0.3534 -0.6835 -0.4280
 2927SOL    HW220241   0.473   2.233   0.304  0.4911  0.1249 -0.6998
 2928SOL     OW20242   3.172   4.569   6.558  0.1930 -0.1375  0.3846
 2928SOL    HW120243   3.158   4.603   6.646 -0.5687 -1.5520  0.7969
 2928SOL    HW220244   3.107   4.500   6.548  0.1213  0.2230 -1.6826
 2929SOL     OW20245   0.508   3.267   7.471  0.5040 -0.2059  0.3138
 2929SOL    HW120246   0.494   3.250   7.564 -1.2451 -1.9359 -0.2467
 2929SOL    HW220247   0.481   3.357   7.452  0.7689 -0.3872 -0.8886
 2930SOL     OW20248   0.116   3.487  14.873  0.2045 -0.4872  0.1378
 2930SOL    HW120249   0.139   3.404  14.914 -0.0073 -0.4964  0.2371
 2930SOL    HW220250   0.185   3.546  14.905  0.5305 -0.8021  0.0174
 2931SOL     OW20251   2.280   2.324   6.335 -0.3418  0.1563  0.2290
 2931SOL    HW120252   2.248   2.414   6.345  1.1392  0.5829  1.0266
 2931SOL    HW220253   2.197   2.281   6.355 -0.1608  0.2933  1.2565
 2932SOL     OW20254   3.520   0.999   4.671  0.0325 -0.5023  0.2640
 2932SOL    HW120255   3.459   1.073   4.673 -0.7543 -1.1468 -0.1089
 2932SOL    HW220256   3.595   1.038   4.626  0.0349  0.7648  1.3539
 2933SOL     OW20257   1.215   1.239   9.389 -0.3556 -0.3412 -0.2599
 2933SOL    HW120258   1.148   1.307   9.393 -0.8822 -0.7936 -1.0753
 2933SOL    HW220259   1.276   1.269   9.455 -0.5029  1.5044 -0.9753
 2934SOL     OW20260   1.092   4.536  14.949  0.2303  0.4147 -0.3470
 2934SOL    HW120261   1.071   4.595  14.877  1.3233 -0.3807 -1.2986
 2934SOL    HW220262   1.187   4.540  14.955  0.1557  1.3035  0.3316
 2935SOL     OW20263   0.001   3.035  15.906  0.1435  0.1100 -0.1496
 2935SOL    HW120264   0.017   3.039  15.811 -0.0514 -0.1275 -0.1919
 2935SOL    HW220265   4.664   3.111  15.911  0.4776  0.3232  0.4447
 2936SOL     OW20266   2.560   0.023   1.924  0.1223 -0.3454 -0.1773
 2936SOL    HW120267   2.622   0.075   1.974 -0.8049  1.0955 -0.4989
 2936SOL    HW220268   2.579   4.656   1.958  0.5144  0.0387  0.5864
 2937SOL     OW20269   1.185   1.590   5.916  0.1896  0.2401  0.6041
 2937SOL    HW120270   1.202   1.602   5.822 -1.6427 -0.4554  0.1947
 2937SOL    HW220271   1.095   1.618   5.928  0.2550  0.2612  1.0474
 2938SOL     OW20272   0.621   1.024  10.259  0.0602  0.0025  0.2006
 2938SOL    HW120273   0.635   0.944  10.208 -0.6778 -0.4711  0.7399
 2938SOL    HW220274   0.597   0.986  10.343  0.3573  0.5834  0.5458
 2939SOL     OW20275   2.318   0.862   1.441  0.3199  0.0812 -0.2933
 2939SOL    HW120276   2.283   0.927   1.379  0.9103  0.9098  0.2347
 2939SOL    HW220277   2.276   0.789   1.396  0.4281 -0.5669  0.6740
 2940SOL     OW20278   2.643   2.738   9.241  0.0666  0.1392 -0.0005
 2940SOL    HW120279   2.622   2.694   9.159  2.2418 -0.8499 -0.0414
 2940SOL    HW220280   2.554   2.772   9.250 -0.0821 -0.7384  1.7480
 2941SOL     OW20281   2.984   0.147  13.523  0.0128 -0.7776  0.5738
 2941SOL    HW120282   2.931   0.227  13.518  0.8350 -0.2010  0.9278
 2941SOL    HW220283   3.059   0.164  13.467  0.5623  0.2871  1.6260
 2942SOL     OW20284   4.623   0.425  17.225 -0.5392 -0.1323  0.4210
 2942SOL    HW120285   4.644   0.490  17.293 -1.5822  0.9163 -0.2722
 2942SOL    HW220286   4.576   0.355  17.271  0.4124 -0.1607  1.3717
 2943SOL     OW20287   1.892   0.623  13.192 -0.4148  0.3932 -0.3474
 2943SOL    HW120288   1.843   0.704  13.199  0.0272  0.6921 -0.6915
 2943SOL    HW220289   1.823   0.569  13.231  1.8605 -1.6307  0.9379
 2944SOL     OW20290   0.129   0.180   6.239 -0.2797 -0.0624  0.2171
 2944SOL    HW120291   0.089   0.114   6.296  0.0889 -0.0345  0.5074
 2944SOL    HW220292   0.137   0.260   6.291 -1.4397 -0.0234  0.3497
 2945SOL     OW20293   3.424   4.154   7.052 -0.1436  0.2884  0.3263
 2945SOL    HW120294   3.389   4.109   7.129  0.9271 -2.4666 -0.7958
 2945SOL    HW220295   3.346   4.184   7.006 -0.7086 -1.4638  0.1466
 2946SOL     OW20296   4.287   2.183   7.220 -0.1915  0.2840 -0.2228
 2946SOL    HW120297   4.313   2.189   7.312  3.1164  0.3718 -1.1306
 2946SOL    HW220298   4.298   2.275   7.193 -1.3239  0.5584  0.2452
 2947SOL     OW20299   4.387   3.910  11.799  0.0347 -0.8068 -0.4560
 2947SOL    HW120300   4.480   3.931  11.808 -0.4261  0.6629  0.9988
 2947SOL    HW220301   4.379   3.887  11.891  1.6690 -3.0126 -0.8888
 2948SOL     OW20302   2.552   3.259   2.131  0.1954 -0.3758  0.0821
 2948SOL    HW120303   2.504   3.176   2.129 -1.2225  0.4637 -0.2834
 2948SOL    HW220304   2.610   3.246   2.207  0.5064 -1.1668 -0.2842
 2949SOL     OW20305   4.384   4.307   4.483  0.3216  0.5080 -0.2803
 2949SOL    HW120306   4.475   4.337   4.482  0.4658 -0.0202 -1.6900
 2949SOL    HW220307   4.376   4.242   4.553 -1.8044  0.4534 -0.5777
 2950SOL     OW20308   2.552   4.690   4.593 -0.3382 -0.4986  0.1966
 2950SOL    HW120309   2.478   0.030   4.600 -0.0277  0.0072 -0.9166
 2950SOL    HW220310   2.593   0.000   4.512  0.7652  0.5816  1.1501
 2951SOL     OW20311   1.657   3.024   7.690 -0.5658 -0.2206 -0.0595
 2951SOL    HW120312   1.608   2.943   7.677  0.2066 -0.8336  0.8156
 2951SOL    HW220313   1.643   3.044   7.783 -0.0753  0.8822 -0.2175
 2952SOL     OW20314   4.366   1.094   7.502 -0.0090 -0.3748 -0.0665
 2952SOL    HW120315   4.274   1.122   7.495 -0.2842 -1.2833  0.0094
 2952SOL    HW220316   4.359   1.000   7.517 -2.0188 -0.5199 -1.8877
 2953SOL     OW20317   2.891   0.594  13.425 -0.3559  0.2040 -0.4574
 2953SOL    HW120318   2.852   0.525  13.478  1.7116  0.3133  1.2026
 2953SOL    HW220319   2.949   0.549  13.364 -0.4336 -0.7184  0.1519
 2954SOL     OW20320   0.518   3.070   5.641  0.3437  0.2384  0.1230
 2954SOL    HW120321   0.551   3.066   5.730 -1.7556  1.1558  0.9281
 2954SOL    HW220322   0.519   2.978   5.616 -0.0717 -0.1600  1.6377
 2955SOL     OW20323   1.987   0.095   5.978  0.2614 -0.3756 -0.5607
 2955SOL    HW120324   2.002   0.004   6.004  1.1855  0.1608  0.7848
 2955SOL    HW220325   2.081   0.107   5.965  0.3034 -0.3511 -0.2259
 2956SOL     OW20326   1.938   1.429   3.805 -0.0084 -0.5184  0.5409
 2956SOL    HW120327   2.030   1.455   3.807 -0.1039 -0.2958  1.8722
 2956SOL    HW220328   1.903   1.458   3.889  0.2088  1.7404 -0.1473
 2957SOL     OW20329   1.171   0.244   5.018  0.6803 -0.3454  0.1794
 2957SOL    HW120330   1.134   0.333   5.022  0.6638 -0.3935  1.2994
 2957SOL    HW220331   1.137   0.209   5.100 -3.8201  0.5777 -1.3130
 2958SOL     OW20332   0.549   0.314   5.451 -0.7854  0.1693  0.2313
 2958SOL    HW120333   0.621   0.316   5.513  0.5514 -2.3657 -1.2350
 2958SOL    HW220334   0.598   0.275   5.379 -0.5830  0.2969  0.3007
 2959SOL     OW20335   3.785   4.665   7.272  0.2256  0.2338  0.0550
 2959SOL    HW120336   3.804   0.004   7.199  0.8605 -1.0770 -0.8449
 2959SOL    HW220337   3.724   4.718   7.323  0.1605 -0.1892  0.4152
 2960SOL     OW20338   0.527   2.029   3.504  0.4168  0.1976  0.0555
 2960SOL    HW120339   0.467   2.103   3.512  1.5384  1.3971 -2.7158
 2960SOL    HW220340   0.480   1.976   3.439  0.2122 -1.2339  1.3667
 2961SOL     OW20341   1.885   4.576   3.262  0.6740  0.3756  0.0558
 2961SOL    HW120342   1.791   4.570   3.279  0.5156 -1.3028 -1.4393
 2961SOL    HW220343   1.892   4.498   3.207  2.0614  0.3482  0.2739
 2962SOL     OW20344   1.170   2.897   0.603 -0.4217  0.2811 -0.4641
 2962SOL    HW120345   1.157   2.878   0.696  1.1031 -1.3871 -0.5805
 2962SOL    HW220346   1.172   2.992   0.604  1.4234  0.2548 -2.8130
 2963SOL     OW20347   0.363   4.035  12.072  0.1610 -0.1157  0.6438
 2963SOL    HW120348   0.443   4.050  12.021 -0.5528  0.4710 -0.3123
 2963SOL    HW220349   0.376   3.956  12.124 -0.1074  0.5186  1.6781
 2964SOL     OW20350   1.483   4.607   1.782 -0.2375 -0.1283 -0.2324
 2964SOL    HW120351   1.429   4.633   1.856  1.8689  0.4809  1.0891
 2964SOL    HW220352   1.423   4.553   1.731  0.4478 -3.0251  2.0056
 2965SOL     OW20353   2.346   3.616   7.719  0.1448 -0.2028  0.3594
 2965SOL    HW120354   2.370   3.561   7.645  2.9112 -0.0582  1.1603
 2965SOL    HW220355   2.268   3.566   7.744 -0.2873 -0.2363 -1.0594
 2966SOL     OW20356   2.191   1.604  15.312 -0.1152  0.0168  0.0236
 2966SOL    HW120357   2.122   1.614  15.246  0.4423  3.2335 -0.0726
 2966SOL    HW220358   2.225   1.515  15.307 -1.4925 -0.6214  1.8928
 2967SOL     OW20359   1.771   3.426   7.563  0.1768 -0.2427  0.0422
 2967SOL    HW120360   1.845   3.421   7.503 -0.3739  2.1272 -0.8431
 2967SOL    HW220361   1.739   3.337   7.543  2.9704 -1.5353  1.4221
 2968SOL     OW20362   1.175   3.343   3.254 -0.2459  0.4715 -0.3692
 2968SOL    HW120363   1.088   3.308   3.271 -0.7785  2.1499  0.3644
 2968SOL    HW220364   1.213   3.281   3.191 -5.3861 -1.4189 -1.5608
 2969SOL     OW20365   1.071   1.431  13.645 -0.3139 -0.2819  0.0434
 2969SOL    HW120366   1.052   1.388  13.728  0.0265  1.7945  1.2037
 2969SOL    HW220367   1.096   1.354  13.594  1.3932  0.3876 -0.1524
 2970SOL     OW20368   2.221   0.056   3.017  0.0787 -0.3484  0.6368
 2970SOL    HW120369   2.207   4.687   3.048 -0.7269  0.0696  1.4735
 2970SOL    HW220370   2.141   0.094   3.054 -0.2608  1.0392 -1.5462
 2971SOL     OW20371   3.503   2.508  12.357 -0.0915 -0.4838  0.1425
 2971SOL    HW120372   3.476   2.440  12.295  0.5528  0.9221 -1.6636
 2971SOL    HW220373   3.509   2.461  12.440  0.5231 -0.1592  0.2753
 2972SOL     OW20374   3.890   0.607   4.184 -0.1192  0.2152 -0.1677
 2972SOL    HW120375   3.834   0.542   4.227 -0.4642  1.4958  1.3312
 2972SOL    HW220376   3.829   0.680   4.187  0.6243  0.8479 -0.6992
 2973SOL     OW20377   4.712   2.922  13.676  0.2411  0.0853 -0.1568
 2973SOL    HW120378   0.086   2.907  13.679 -0.0653 -1.8651  0.0996
 2973SOL    HW220379   4.709   3.015  13.699  2.0514 -0.2352  1.3450
 2974SOL     OW20380   1.108   2.231   8.742  0.3406 -0.5318 -0.1891
 2974SOL    HW120381   1.170   2.294   8.705  1.1862 -1.2204  0.0488
 2974SOL    HW220382   1.129   2.238   8.835 -0.0206  0.2969 -0.1723
 2975SOL     OW20383   3.751   4.464   9.850  0.2402  0.6563  0.1162
 2975SOL    HW120384   3.819   4.485   9.914  1.1749 -0.1233 -0.6097
 2975SOL    HW220385   3.722   4.549   9.819  0.0014  0.9583  1.1520
 2976SOL     OW20386   3.244   0.652   6.521  0.8496  0.3028 -0.7766
 2976SOL    HW120387   3.333   0.648   6.487  0.3461 -2.3552 -1.8393
 2976SOL    HW220388   3.252   0.739   6.558 -0.6521  0.1392 -0.0515
 2977SOL     OW20389   0.623   4.060  16.066  0.2102 -0.3027 -0.0535
 2977SOL    HW120390   0.712   4.041  16.038 -0.6773 -1.8327 -1.8895
 2977SOL    HW220391   0.574   4.024  15.992 -0.2708  0.3521 -0.0531
 2978SOL     OW20392   2.646   0.941  12.275 -0.0992  0.0273  0.1478
 2978SOL    HW120393   2.569   0.960  12.328 -0.1780 -0.7164  0.2949
 2978SOL    HW220394   2.629   1.005  12.206  1.1722 -2.7455 -2.7102
 2979SOL     OW20395   0.244   3.070   8.401 -0.2754 -0.7324 -0.5401
 2979SOL    HW120396   0.261   3.162   8.379 -0.9265 -0.4812  0.0138
 2979SOL    HW220397   0.308   3.028   8.344  0.2621 -0.6579  0.0060
 2980SOL     OW20398   2.378   4.438   9.694  0.3912  0.2227 -0.1851
 2980SOL    HW120399   2.471   4.440   9.716  0.2845 -0.2822  0.3120
 2980SOL    HW220400   2.370   4.531   9.715 -1.0034 -0.5782  2.7108
 2981SOL     OW20401   2.396   3.457   3.599 -0.3246 -0.6573  0.5615
 2981SOL    HW120402   2.489   3.473   3.613 -0.1261 -0.6474 -0.7612
 2981SOL    HW220403   2.358   3.447   3.687  0.9727  0.4456  1.2505
 2982SOL     OW20404   3.523   3.033   3.288 -0.6206  0.6167  0.2832
 2982SOL    HW120405   3.467   2.979   3.234 -0.8500  0.6056  0.5319
 2982SOL    HW220406   3.599   2.976   3.275 -0.6251  0.5365  0.5962
 2983SOL     OW20407   4.571   2.462   9.547 -0.2062 -0.3564  0.5161
 2983SOL    HW120408   4.541   2.440   9.635  1.2862  0.2590  1.1877
 2983SOL    HW220409   4.587   2.556   9.551 -1.3634 -0.1259 -0.3804
 2984SOL     OW20410   1.423   1.548  11.804  0.6446 -0.2651 -0.1551
 2984SOL    HW120411   1.388   1.523  11.890 -1.6827  1.8922 -0.5126
 2984SOL    HW220412   1.353   1.528  11.742 -0.7532  2.6230  0.5238
 2985SOL     OW20413   2.649   1.684   2.054  0.4142 -0.3261  0.2231
 2985SOL    HW120414   2.587   1.715   2.120  0.7824  0.0123  0.4100
 2985SOL    HW220415   2.597   1.613   2.016 -0.2442  1.0748 -1.4943
 2986SOL     OW20416   2.847   3.757   4.346  0.5701  0.3714  0.2735
 2986SOL    HW120417   2.933   3.721   4.325  0.3075  0.7103 -1.4361
 2986SOL    HW220418   2.799   3.678   4.372 -0.1664  0.6780 -0.1269
 2987SOL     OW20419   3.942   1.832   0.572 -0.4083 -0.5967  0.0903
 2987SOL    HW120420   3.986   1.873   0.647  1.1076 -0.1741 -1.0283
 2987SOL    HW220421   4.015   1.801   0.519 -0.8098  0.5597 -1.1381
 2988SOL     OW20422   0.157   0.981   4.567 -0.3298 -0.6503  0.4163
 2988SOL    HW120423   0.069   0.948   4.584 -0.9758  1.2276  0.7120
 2988SOL    HW220424   0.202   0.900   4.543  2.9128  2.2351 -3.2738
 2989SOL     OW20425   2.885   3.245   4.853  0.1976 -0.2816  0.0675
 2989SOL    HW120426   2.935   3.183   4.906  2.5676  0.5614 -1.1568
 2989SOL    HW220427   2.831   3.186   4.799  0.2021 -0.6364  0.4485
 2990SOL     OW20428   3.958   1.222   2.363 -0.4411  0.4950 -0.1937
 2990SOL    HW120429   3.944   1.128   2.378  0.6491  0.0586 -1.8647
 2990SOL    HW220430   3.901   1.265   2.426 -1.7469  1.2640 -1.9125
 2991SOL     OW20431   1.697   4.628  14.641 -0.2704  0.3784 -0.7580
 2991SOL    HW120432   1.791   4.632  14.623 -0.0876 -0.6590 -0.0519
 2991SOL    HW220433   1.679   4.534  14.633  1.6881  0.1638 -2.9166
 2992SOL     OW20434   2.225   0.071   4.117  0.3750 -0.5773  0.7282
 2992SOL    HW120435   2.184   0.157   4.131  0.2024 -0.6534  0.6918
 2992SOL    HW220436   2.149   0.019   4.089  0.9707 -0.9648 -0.1572
 2993SOL     OW20437   3.074   4.587   2.951 -0.7462 -0.0616  0.1110
 2993SOL    HW120438   3.037   4.564   2.866  0.0019  1.2650 -0.5770
 2993SOL    HW220439   3.163   4.551   2.950 -1.2514 -1.2905 -0.8357
 2994SOL     OW20440   0.049   3.006   4.978 -0.4338  0.2366  0.2566
 2994SOL    HW120441   0.098   3.088   4.984  0.4703 -0.2459 -0.4523
 2994SOL    HW220442   0.126   2.950   4.987 -0.9587 -0.5185  0.0463
 2995SOL     OW20443   4.386   4.491   7.286 -0.0129  0.6028  0.2624
 2995SOL    HW120444   4.334   4.571   7.289 -0.4458  0.3865 -1.3581
 2995SOL    HW220445   4.394   4.468   7.378  3.5281  5.0592  1.0520
 2996SOL     OW20446   3.427   4.529   6.347 -0.2426  0.0830  0.4184
 2996SOL    HW120447   3.440   4.608   6.400  1.7752 -1.3684  2.0526
 2996SOL    HW220448   3.331   4.529   6.337 -0.1079  0.5447 -0.9045
 2997SOL     OW20449   3.084   3.679   3.912 -0.4729 -0.5638  0.0190
 2997SOL    HW120450   3.045   3.743   3.852  1.5877  0.1525 -0.5520
 2997SOL    HW220451   3.113   3.741   3.979 -1.3787  0.2808 -0.3782
 2998SOL     OW20452   1.114   4.197   7.202 -0.5481 -0.0604  0.2987
 2998SOL    HW120453   1.070   4.184   7.118  0.2346 -0.5697 -0.0329
 2998SOL    HW220454   1.180   4.127   7.200  2.4045  2.7045  0.3582
 2999SOL     OW20455   1.095   1.455   3.505 -0.0467 -0.2511  0.7471
 2999SOL    HW120456   1.025   1.401   3.544 -0.6785  0.3406  0.4235
 2999SOL    HW220457   1.057   1.489   3.424 -0.0977  0.5923  1.1251
 3000SOL     OW20458   1.468   2.728   2.299 -0.1031 -0.4250  0.2686
 3000SOL    HW120459   1.423   2.663   2.353 -1.2986  0.3187  0.1767
 3000SOL    HW220460   1.540   2.762   2.353 -1.0189  1.9004  0.0502
 3001SOL     OW20461   3.727   4.027   3.267 -0.0129 -0.7502 -0.0894
 3001SOL    HW120462   3.791   3.996   3.203  1.8277 -0.7615  1.7723
 3001SOL    HW220463   3.639   4.037   3.229 -0.5052 -0.9755  0.9874
 3002SOL     OW20464   0.144   1.084   7.498 -0.5706  0.2630  0.1205
 3002SOL    HW120465   0.227   1.131   7.508 -0.2785 -0.3411  0.5373
 3002SOL    HW220466   0.165   0.999   7.537  0.9206  0.4552 -0.2712
 3003SOL     OW20467   3.667   4.101   0.109 -0.0757  0.2699  0.0851
 3003SOL    HW120468   3.632   4.190   0.105  1.5906  1.0592  3.1418
 3003SOL    HW220469   3.725   4.107   0.184  0.6756 -1.4312 -0.3635
 3004SOL     OW20470   1.649   0.246   0.794 -0.4058 -0.0314  0.8650
 3004SOL    HW120471   1.706   0.230   0.868  0.5506 -1.1206 -0.1076
 3004SOL    HW220472   1.581   0.298   0.836 -0.2345  0.3031  0.7314
 3005SOL     OW20473   3.964   2.967  15.769 -0.1307 -0.3705 -0.2631
 3005SOL    HW120474   3.910   3.030  15.816 -0.8684 -2.2897  1.4693
 3005SOL    HW220475   4.038   2.955  15.830  0.3597  0.2076 -0.7398
 3006SOL     OW20476   3.932   2.121   6.203  0.2317  0.5397  0.5888
 3006SOL    HW120477   3.958   2.173   6.127 -1.7963 -1.8498 -1.7461
 3006SOL    HW220478   4.019   2.094   6.232  1.4961  1.7329 -2.0466
 3007SOL     OW20479   4.483   3.941   4.961  0.4958  0.1267 -0.1084
 3007SOL    HW120480   4.562   3.900   4.926 -0.1999 -0.8546 -0.5455
 3007SOL    HW220481   4.414   3.887   4.923 -0.7431  2.1787 -0.7703
 3008SOL     OW20482   3.570   1.680   8.044 -0.4687  0.6257 -0.1473
 3008SOL    HW120483   3.523   1.608   8.086  0.0236 -0.8788 -2.1777
 3008SOL    HW220484   3.641   1.686   8.107 -0.2453  0.5770 -0.3953
 3009SOL     OW20485   2.723   2.267  13.579 -0.5002 -0.3314 -0.6791
 3009SOL    HW120486   2.713   2.232  13.668  0.2472  1.3970  0.0835
 3009SOL    HW220487   2.762   2.350  13.606 -2.8482  1.2681 -2.1460
 3010SOL     OW20488   4.616   3.451   6.152  0.1990 -0.9417 -0.7009
 3010SOL    HW120489   4.613   3.528   6.094 -2.2109 -1.1257 -0.8390
 3010SOL    HW220490   4.648   3.379   6.098  1.2550 -0.8749 -0.1548
 3011SOL     OW20491   3.640   1.086   3.894 -0.6048  0.4462  0.1545
 3011SOL    HW120492   3.605   1.158   3.841  1.1141  2.3199  1.5625
 3011SOL    HW220493   3.735   1.098   3.891 -0.4935 -0.6807 -0.6668
 3012SOL     OW20494   0.724   4.555   5.269  0.1145  0.0170 -0.2756
 3012SOL    HW120495   0.807   4.508   5.260  0.0572 -0.0995 -0.1971
 3012SOL    HW220496   0.700   4.543   5.177 -0.6227 -2.3734  0.2438
 3013SOL     OW20497   3.815   2.570   0.731  0.1668  0.1360  0.6030
 3013SOL    HW120498   3.817   2.665   0.725  0.1832  0.0022 -1.7848
 3013SOL    HW220499   3.900   2.540   0.698 -0.0424 -0.6475  0.7907
 3014SOL     OW20500   3.533   3.592   3.503  0.8328  0.3478  0.0168
 3014SOL    HW120501   3.583   3.671   3.523 -1.6876  1.7901  0.6268
 3014SOL    HW220502   3.463   3.610   3.567  1.1556  0.9394  0.1950
 3015SOL     OW20503   1.062   2.755   9.034  0.0532 -0.0909  0.2619
 3015SOL    HW120504   1.127   2.729   9.099  0.3299 -1.7158 -0.6801
 3015SOL    HW220505   0.982   2.714   9.067  2.0441 -0.4522  4.6031
 3016SOL     OW20506   0.225   4.027   2.209 -0.5558 -0.3029  0.0475
 3016SOL    HW120507   0.272   3.970   2.270 -0.7546  0.0210  0.5065
 3016SOL    HW220508   0.278   4.024   2.129 -1.0746  2.3130 -0.3890
 3017SOL     OW20509   1.805   3.064   6.886  0.2525 -0.4699  0.1928
 3017SOL    HW120510   1.861   3.106   6.952 -1.7005  2.3504  0.0771
 3017SOL    HW220511   1.866   3.006   6.840 -0.5764 -1.9301  0.9404
 3018SOL     OW20512   1.451   3.630   0.711 -0.0138 -0.0959 -0.9591
 3018SOL    HW120513   1.510   3.697   0.677  0.0551  0.4030  0.1431
 3018SOL    HW220514   1.449   3.574   0.633 -2.0972 -0.8647 -0.3625
 3019SOL     OW20515   1.057   2.131  11.041 -1.2640 -0.4021 -0.1205
 3019SOL    HW120516   1.116   2.084  10.983 -0.1943 -0.7580  1.2679
 3019SOL    HW220517   1.081   2.222  11.026  0.7809 -0.7102  1.3209
 3020SOL     OW20518   1.928   0.272   5.226  0.1416  0.0768 -0.3136
 3020SOL    HW120519   1.902   0.341   5.165 -1.1437  0.8193  1.0794
 3020SOL    HW220520   1.853   0.266   5.286  0.8238 -0.6603  0.4699
 3021SOL     OW20521   3.125   0.003   5.788 -0.2690  0.6423 -0.3307
 3021SOL    HW120522   3.123   0.097   5.773  0.4459  0.5726 -0.8719
 3021SOL    HW220523   3.206   4.698   5.744 -1.6327  0.1607 -2.5786
 3022SOL     OW20524   3.696   0.642   3.372  0.3841  0.4985 -0.0136
 3022SOL    HW120525   3.762   0.701   3.407 -0.6720  0.3052  2.2545
 3022SOL    HW220526   3.743   0.610   3.294 -1.8632  0.2378 -1.2636
 3023SOL     OW20527   3.370   3.142  11.748 -0.2230 -0.6074 -0.0529
 3023SOL    HW120528   3.324   3.092  11.815  1.1100 -1.5878  0.1233
 3023SOL    HW220529   3.289   3.174  11.707 -0.6197 -1.2252  0.2428
 3024SOL     OW20530   4.643   1.270  16.439 -0.1869 -0.7451 -0.1421
 3024SOL    HW120531   4.700   1.338  16.476  0.6153 -0.8913 -1.1230
 3024SOL    HW220532   4.712   1.206  16.426 -0.1379 -0.8881  0.8270
 3025SOL     OW20533   0.812   1.928  12.529  0.1982 -0.4009  0.1299
 3025SOL    HW120534   0.897   1.952  12.566 -0.4755  0.6756  0.9816
 3025SOL    HW220535   0.837   1.931  12.437  0.3502  1.6433  0.2278
 3026SOL     OW20536   2.408   2.404  14.702 -0.6754  0.5677  0.0980
 3026SOL    HW120537   2.365   2.455  14.771  0.4379  0.9140  0.5319
 3026SOL    HW220538   2.470   2.359  14.759 -3.1907  0.4843  2.7739
 3027SOL     OW20539   3.913   3.329   8.058 -0.0118 -0.2337  0.1562
 3027SOL    HW120540   3.821   3.354   8.051 -1.2429 -4.2933  1.6923
 3027SOL    HW220541   3.950   3.417   8.060  1.2060 -0.7303 -0.5458
 3028SOL     OW20542   3.209   3.101   4.799 -0.3582  0.0408 -0.0506
 3028SOL    HW120543   3.301   3.078   4.787 -0.0875  1.4457 -0.6697
 3028SOL    HW220544   3.214   3.195   4.781 -1.5297 -0.2040 -1.7272
 3029SOL     OW20545   1.616   4.627   5.095 -0.4081  0.0959 -0.3402
 3029SOL    HW120546   1.678   4.555   5.083  0.3246  0.4536  1.3124
 3029SOL    HW220547   1.669   4.697   5.055 -1.4568  2.5679  2.6024
 3030SOL     OW20548   0.427   0.929   5.176 -0.4439 -0.1238  0.1634
 3030SOL    HW120549   0.400   0.874   5.250  1.5061  0.9841  1.6888
 3030SOL    HW220550   0.364   1.000   5.188  0.0562 -0.1274  2.8130
 3031SOL     OW20551   1.975   2.015   8.875 -0.0565  0.5895 -0.7110
 3031SOL    HW120552   2.060   2.034   8.835  0.1046  1.9684  0.3069
 3031SOL    HW220553   1.988   2.062   8.957 -4.3243  1.3292 -0.4800
 3032SOL     OW20554   0.891   2.240   5.670 -0.4172  0.6951 -0.9562
 3032SOL    HW120555   0.972   2.226   5.720 -0.6027  1.0250 -0.5644
 3032SOL    HW220556   0.900   2.333   5.650  1.9564  0.6601 -0.0394
 3033SOL     OW20557   3.001   2.945   5.292  0.6077 -0.1432  0.1004
 3033SOL    HW120558   3.023   3.038   5.296 -0.0863 -0.0138  0.9465
 3033SOL    HW220559   2.908   2.952   5.313  0.2860 -0.7439 -1.0894
 3034SOL     OW20560   2.159   2.523   4.341 -0.4017 -0.3148  0.2260
 3034SOL    HW120561   2.103   2.595   4.313 -0.0978 -0.4079 -0.6000
 3034SOL    HW220562   2.123   2.449   4.292 -0.0268 -0.1134 -0.3547
 3035SOL     OW20563   1.077   1.171  14.915 -0.0075  0.0064 -0.1137
 3035SOL    HW120564   1.159   1.219  14.927 -0.9960  1.0999  2.1497
 3035SOL    HW220565   1.079   1.130  14.828 -0.4055 -0.2990  0.0244
 3036SOL     OW20566   2.223   2.192  14.658 -0.7914 -0.0640  0.4219
 3036SOL    HW120567   2.293   2.127  14.660 -1.3235 -0.6010  1.2250
 3036SOL    HW220568   2.272   2.258  14.707  1.9442 -1.0452 -0.9825
 3037SOL     OW20569   0.890   0.014   6.960  0.3547 -0.0446 -0.2703
 3037SOL    HW120570   0.849   0.022   7.046 -0.4071  1.3566 -0.7638
 3037SOL    HW220571   0.813   0.020   6.903 -0.5193 -3.1265  0.5710
 3038SOL     OW20572   3.556   2.719   8.600  0.1199 -0.1828 -0.1030
 3038SOL    HW120573   3.489   2.769   8.553  0.1242 -0.6402 -0.5923
 3038SOL    HW220574   3.559   2.638   8.549 -0.2217 -0.0795 -0.2883
 3039SOL     OW20575   1.675   4.698   0.834  0.0452  0.0056 -0.1836
 3039SOL    HW120576   1.758   4.718   0.791 -0.4530  1.7154 -0.3643
 3039SOL    HW220577   1.631   0.063   0.832 -1.5088 -0.8101 -0.6173
 3040SOL     OW20578   3.919   4.119   3.468 -0.4130  0.1848  0.4944
 3040SOL    HW120579   3.971   4.043   3.495  0.0874  0.7048  0.9988
 3040SOL    HW220580   3.857   4.088   3.402  1.1523 -0.4062 -0.7010
 3041SOL     OW20581   2.719   1.536   7.570  0.3119 -0.5410 -0.1232
 3041SOL    HW120582   2.734   1.581   7.653  0.5009 -0.6783 -0.0833
 3041SOL    HW220583   2.771   1.590   7.511  1.6038 -0.8554  0.7324
 3042SOL     OW20584   2.886   0.917   4.657 -0.1784 -0.0087  0.5406
 3042SOL    HW120585   2.969   0.869   4.658  0.5139  1.1821  0.8582
 3042SOL    HW220586   2.843   0.880   4.734 -1.2666 -0.3810 -0.2445
 3043SOL     OW20587   3.679   1.258  16.372 -0.6197  0.3732  0.2178
 3043SOL    HW120588   3.754   1.295  16.417  0.9131 -0.9847 -1.1740
 3043SOL    HW220589   3.675   1.327  16.305  1.0542 -1.1017 -1.4326
 3044SOL     OW20590   0.885   4.555  15.233  0.1623 -0.4867  0.1673
 3044SOL    HW120591   0.862   4.538  15.325  3.1481 -1.1955  0.7671
 3044SOL    HW220592   0.961   4.498  15.234  0.1371 -0.4530  3.1735
 3045SOL     OW20593   3.314   0.346  17.574 -0.3551  0.3802  0.0006
 3045SOL    HW120594   3.359   0.262  17.561  1.3114  1.1600  0.8271
 3045SOL    HW220595   3.235   0.314  17.618  0.0190  0.7847  0.9630
 3046SOL     OW20596   1.285   3.081   4.198 -0.4609  0.1308  0.2686
 3046SOL    HW120597   1.205   3.123   4.168 -0.6127 -0.1657  0.2633
 3046SOL    HW220598   1.317   3.040   4.118  2.1846 -0.3728  1.5562
 3047SOL     OW20599   2.917   4.043   8.627  0.2563 -0.2815  0.1527
 3047SOL    HW120600   2.925   4.130   8.589  2.6090 -0.5000  0.1541
 3047SOL    HW220601   2.928   4.065   8.719  0.5581 -1.5040  0.4025
 3048SOL     OW20602   0.903   2.495   5.666  0.6045 -0.1503 -0.5653
 3048SOL    HW120603   0.867   2.579   5.636 -0.1579  1.3021  4.3431
 3048SOL    HW220604   0.934   2.529   5.750 -1.6361  1.3275 -0.3353
 3049SOL     OW20605   0.196   0.032  17.183  0.4756  0.2902  0.3967
 3049SOL    HW120606   0.291   0.046  17.186  0.9023 -2.2321 -1.0997
 3049SOL    HW220607   0.164   0.112  17.140  1.4341  0.5895  0.2330
 3050SOL     OW20608   4.238   4.227  13.415  0.4061  0.0769 -0.6481
 3050SOL    HW120609   4.323   4.205  13.378  0.1699  0.0005 -1.1360
 3050SOL    HW220610   4.259   4.247  13.507 -1.3653  2.4706 -0.7595
 3051SOL     OW20611   4.583   2.964   6.492  0.5468  0.0481  1.0876
 3051SOL    HW120612   4.654   3.004   6.542  0.5431  0.4937  0.7347
 3051SOL    HW220613   4.502   3.010   6.515  1.5664  1.1503  2.4703
 3052SOL     OW20614   0.886   3.637   4.282  0.3049  0.2509 -0.1480
 3052SOL    HW120615   0.905   3.544   4.271  2.3170  0.5708  0.6674
 3052SOL    HW220616   0.880   3.630   4.377 -0.3688 -0.1368 -0.2152
 3053SOL     OW20617   1.934   1.341   6.498 -0.1845 -0.3361 -0.2418
 3053SOL    HW120618   1.940   1.267   6.437 -1.1024  0.1613 -0.9286
 3053SOL    HW220619   1.845   1.370   6.480 -0.2239 -0.9092 -0.9950
 3054SOL     OW20620   4.496   2.563   4.765 -0.2418  0.4064  0.1905
 3054SOL    HW120621   4.570   2.508   4.789  0.1379  1.1628  0.7371
 3054SOL    HW220622   4.448   2.509   4.702  2.0806 -0.3382 -0.9518
 3055SOL     OW20623   1.750   4.018   5.941  0.1265 -0.3378  0.2322
 3055SOL    HW120624   1.786   3.958   5.875  1.6973 -0.2765  1.0291
 3055SOL    HW220625   1.711   4.081   5.881 -0.2114 -1.4042 -0.6778
 3056SOL     OW20626   3.378   3.637  10.058 -0.4294  0.1235 -0.2877
 3056SOL    HW120627   3.441   3.695  10.015  1.2237 -1.7419 -0.3362
 3056SOL    HW220628   3.328   3.594   9.990 -1.6323  1.1380 -0.0521
 3057SOL     OW20629   2.260   2.021   2.317  0.6850  0.0635 -0.2154
 3057SOL    HW120630   2.240   1.945   2.373 -2.3245  1.3967  0.5499
 3057SOL    HW220631   2.258   1.983   2.229 -3.1781  0.2493 -0.2015
 3058SOL     OW20632   4.599   1.076   7.166 -0.5786 -0.7860  0.1434
 3058SOL    HW120633   4.666   1.010   7.185 -0.8427 -0.2032  2.9992
 3058SOL    HW220634   4.534   1.055   7.232 -3.7644  1.4688 -2.2925
 3059SOL     OW20635   2.410   0.597   4.718 -0.0473  0.0286 -0.7052
 3059SOL    HW120636   2.501   0.586   4.744 -0.1916  0.5311  0.0269
 3059SOL    HW220637   2.425   0.676   4.667 -0.0617 -1.8387 -3.6130
 3060SOL     OW20638   2.885   2.648   6.352  0.5456  0.0546  0.2970
 3060SOL    HW120639   2.911   2.598   6.429 -3.4327 -0.9952  0.9443
 3060SOL    HW220640   2.910   2.738   6.374 -1.9261  0.6182  0.7989
 3061SOL     OW20641   3.096   1.920  10.003  0.3679 -0.2773  0.0350
 3061SOL    HW120642   3.111   1.846   9.945  1.0464  0.0005 -0.1489
 3061SOL    HW220643   3.130   1.995   9.953  0.5676 -0.4883 -0.1484
 3062SOL     OW20644   2.280   4.716   5.320  0.5052  0.5314 -0.2041
 3062SOL    HW120645   2.258   4.625   5.299  1.2425  0.3383 -0.1518
 3062SOL    HW220646   2.278   0.031   5.231 -0.1266  1.2837  0.1139
 3063SOL     OW20647   1.470   3.580   2.603  0.1254 -0.1401  0.3052
 3063SOL    HW120648   1.457   3.557   2.511  1.0009  3.2896 -0.6543
 3063SOL    HW220649   1.564   3.582   2.615  0.5581 -1.4369 -2.9105
 3064SOL     OW20650   3.688   1.577  13.504  0.6059 -0.0291 -0.3166
 3064SOL    HW120651   3.694   1.611  13.415  0.0727  1.3227  0.1664
 3064SOL    HW220652   3.682   1.662  13.548  0.0690 -0.0282 -0.3950
 3065SOL     OW20653   2.087   1.181   7.378  0.5595 -0.6228 -1.1136
 3065SOL    HW120654   2.132   1.242   7.320  0.9026  0.4211  0.2538
 3065SOL    HW220655   2.013   1.153   7.324 -1.3481  0.6586  0.8283
 3066SOL     OW20656   2.113   1.421   5.996 -0.2548 -0.2728  1.0870
 3066SOL    HW120657   2.018   1.425   5.987 -0.2791 -0.8983  1.0435
 3066SOL    HW220658   2.118   1.326   5.984 -1.5929 -0.1804 -0.2032
 3067SOL     OW20659   3.533   2.315  17.120  0.1601  0.5895 -0.1102
 3067SOL    HW120660   3.474   2.390  17.110  0.1727  0.6359  0.1775
 3067SOL    HW220661   3.514   2.276  17.035  0.0247 -1.1548  0.7177
 3068SOL     OW20662   3.630   4.230   9.926  0.0050 -0.2460 -0.2588
 3068SOL    HW120663   3.566   4.226   9.855 -0.0508  2.0780 -0.3350
 3068SOL    HW220664   3.695   4.292   9.893  0.6281 -0.0650  1.2825
 3069SOL     OW20665   4.586   3.083   3.530 -0.6462  0.5326 -0.3435
 3069SOL    HW120666   4.649   3.031   3.480 -1.5985 -0.6273 -0.3283
 3069SOL    HW220667   4.504   3.074   3.481 -0.2838 -0.7085 -0.7174
 3070SOL     OW20668   1.706   2.074   8.969  0.3506 -0.5152  0.4586
 3070SOL    HW120669   1.719   2.006   9.034  1.2355 -1.8644 -1.1463
 3070SOL    HW220670   1.791   2.084   8.928 -1.1018  0.8845 -2.2280
 3071SOL     OW20671   3.056   2.463   2.586  0.4746 -0.1009  0.0554
 3071SOL    HW120672   2.968   2.477   2.549 -0.0789 -0.5482  1.2135
 3071SOL    HW220673   3.076   2.532   2.650 -2.0933  0.2810  0.4565
 3072SOL     OW20674   0.648   2.387  16.321 -0.1846  0.1653  0.0842
 3072SOL    HW120675   0.572   2.342  16.283 -0.4216 -0.3743  1.1988
 3072SOL    HW220676   0.692   2.407  16.238  1.7213 -1.5678  0.6887
 3073SOL     OW20677   0.203   0.464  13.208 -0.7388  0.2727 -0.1632
 3073SOL    HW120678   0.166   0.439  13.293  0.7184 -2.2858 -0.3070
 3073SOL    HW220679   0.129   0.513  13.171 -2.2488 -2.6579 -0.9966
 3074SOL     OW20680   3.690   1.953  13.315  0.0044  0.4256 -0.0642
 3074SOL    HW120681   3.735   2.027  13.273  0.8825  0.4289  0.8830
 3074SOL    HW220682   3.600   1.987  13.319 -0.0829 -0.0196  1.5756
 3075SOL     OW20683   4.650   2.457   6.572 -1.1810  0.2649  0.8153
 3075SOL    HW120684   4.581   2.454   6.506 -1.7183 -0.6348  1.4183
 3075SOL    HW220685   4.651   2.552   6.570 -1.3164  0.2149 -2.3750
 3076SOL     OW20686   3.621   1.562   3.738 -0.5390  0.3110  0.8507
 3076SOL    HW120687   3.558   1.631   3.760 -0.3817  0.5267  0.6240
 3076SOL    HW220688   3.595   1.535   3.650  0.2663 -1.2508  1.1035
 3077SOL     OW20689   0.618   2.245  11.175  0.4607 -0.0797 -0.0132
 3077SOL    HW120690   0.607   2.340  11.184 -0.6552 -0.0853 -1.1542
 3077SOL    HW220691   0.537   2.210  11.213 -1.0103  0.9318 -2.1996
 3078SOL     OW20692   0.117   3.181   0.992 -0.4895  0.4505  0.3334
 3078SOL    HW120693   0.106   3.086   0.986  2.0277  0.2881 -1.6484
 3078SOL    HW220694   0.205   3.196   1.025  0.0818 -1.4477 -0.3160
 3079SOL     OW20695   0.634   2.736   9.280 -0.2402  0.0287 -0.0148
 3079SOL    HW120696   0.673   2.651   9.258  0.7823  0.8712 -1.4681
 3079SOL    HW220697   0.695   2.767   9.346  0.9540  0.9756 -1.5831
 3080SOL     OW20698   3.853   4.137   5.427 -0.1049 -0.5408  0.1847
 3080SOL    HW120699   3.818   4.218   5.463  0.3075  0.7955 -2.4482
 3080SOL    HW220700   3.773   4.085   5.416 -0.3097 -0.4810  1.4182
 3081SOL     OW20701   3.911   2.682  10.308  0.4936  0.7864  0.0077
 3081SOL    HW120702   3.918   2.760  10.254 -1.2243  0.3966 -0.7926
 3081SOL    HW220703   3.898   2.725  10.393  0.5945 -1.3567  1.1177
 3082SOL     OW20704   4.243   2.434   4.053  0.2241 -0.3267 -0.5112
 3082SOL    HW120705   4.287   2.459   3.972 -0.4193 -2.3343 -1.4871
 3082SOL    HW220706   4.178   2.504   4.054  0.8320  0.2389 -0.4998
 3083SOL     OW20707   1.777   0.954   3.715 -0.3863  0.4782  0.1432
 3083SOL    HW120708   1.697   0.956   3.769 -0.7294 -0.0132 -0.3423
 3083SOL    HW220709   1.777   1.045   3.685  1.5222  0.5239  0.2935
 3084SOL     OW20710   3.502   3.820   8.734 -0.3935  0.5146 -0.2204
 3084SOL    HW120711   3.424   3.841   8.683 -0.3641  1.7047  0.2220
 3084SOL    HW220712   3.457   3.765   8.798 -0.8064 -0.7027 -1.5591
 3085SOL     OW20713   2.595   2.778   7.410  0.2512  0.2570 -0.7047
 3085SOL    HW120714   2.686   2.752   7.404  0.7260  1.6375  0.3748
 3085SOL    HW220715   2.586   2.779   7.506  0.4445  1.8550 -0.6968
 3086SOL     OW20716   1.764   0.117   5.038  0.0954  0.4938 -0.7007
 3086SOL    HW120717   1.747   0.199   5.085 -1.4008  0.2483 -0.8180
 3086SOL    HW220718   1.758   0.131   4.944 -1.8314  1.2795 -0.4583
 3087SOL     OW20719   3.200   3.036   8.482 -0.2308 -0.0496 -0.2780
 3087SOL    HW120720   3.148   3.111   8.451 -1.5163 -1.4051 -1.3774
 3087SOL    HW220721   3.126   2.989   8.520  0.8335 -1.1400  0.4447
 3088SOL     OW20722   1.107   0.235   9.380 -0.2253  0.4449  0.5582
 3088SOL    HW120723   1.056   0.311   9.408  0.2839  0.7223  0.7444
 3088SOL    HW220724   1.165   0.276   9.315  0.4829  0.3173  1.1073
 3089SOL     OW20725   2.857   2.784  15.348  0.4735 -0.4329 -0.7799
 3089SOL    HW120726   2.806   2.704  15.336  0.2763 -0.4934  0.4492
 3089SOL    HW220727   2.795   2.855  15.331  1.0767 -0.2707 -2.3514
 3090SOL     OW20728   2.944   2.389   2.053 -0.0856  0.2746 -0.0197
 3090SOL    HW120729   2.968   2.392   1.960  0.4443  0.7562  0.1328
 3090SOL    HW220730   2.954   2.478   2.086 -1.8483  0.9093 -1.2290
 3091SOL     OW20731   3.910   2.262  14.983  0.5003  0.3151 -0.3351
 3091SOL    HW120732   3.822   2.280  15.017  0.7549 -1.0041  1.0004
 3091SOL    HW220733   3.912   2.324  14.910 -1.1071  1.3977  0.5385
 3092SOL     OW20734   1.309   1.076  15.440 -0.1546 -0.4005  0.2410
 3092SOL    HW120735   1.280   1.113  15.523  1.9498  0.4624  0.5863
 3092SOL    HW220736   1.318   0.985  15.467 -1.2773 -1.0819 -1.6542
 3093SOL     OW20737   2.909   3.136   2.067 -0.7454  0.3699  0.1840
 3093SOL    HW120738   2.989   3.181   2.095  0.7034 -1.3985 -1.1508
 3093SOL    HW220739   2.878   3.194   1.997 -1.6457  0.1255  0.3753
 3094SOL     OW20740   2.370   1.224   5.257 -0.2500 -0.2126 -0.8208
 3094SOL    HW120741   2.462   1.231   5.283 -0.4158 -0.0284 -0.2812
 3094SOL    HW220742   2.367   1.129   5.268  0.0100  0.0470  1.7065
 3095SOL     OW20743   4.018   2.199   9.541  0.1319 -0.3544  0.2220
 3095SOL    HW120744   3.970   2.254   9.603  1.0398  0.3882  0.2660
 3095SOL    HW220745   4.004   2.232   9.452  0.6600  0.5633  0.4900
 3096SOL     OW20746   2.678   0.571   4.793  0.4384  0.1465  0.0634
 3096SOL    HW120747   2.681   0.647   4.851  1.9222 -0.5388  0.8693
 3096SOL    HW220748   2.700   0.498   4.849  0.9192  0.6488  0.5328
 3097SOL     OW20749   2.300   3.968   4.135  0.1648 -0.2101  0.3108
 3097SOL    HW120750   2.336   3.881   4.118 -2.2670 -1.3253  0.7815
 3097SOL    HW220751   2.210   3.938   4.149  0.1007 -0.8403 -1.5273
 3098SOL     OW20752   1.293   3.940   2.587 -0.9257 -0.6100 -0.0934
 3098SOL    HW120753   1.301   3.955   2.493 -2.5772  1.1453  0.0431
 3098SOL    HW220754   1.341   4.017   2.616  0.0932 -1.6400  0.9454
 3099SOL     OW20755   4.528   0.788   1.074 -0.1742  0.5842 -0.8569
 3099SOL    HW120756   4.589   0.804   1.146  1.0587 -1.2480 -1.5107
 3099SOL    HW220757   4.583   0.755   1.003  1.5007 -1.2833  1.3413
 3100SOL     OW20758   2.376   2.249   7.064  0.1832  0.0019  0.0045
 3100SOL    HW120759   2.328   2.185   7.012 -1.2415 -0.3874  1.7655
 3100SOL    HW220760   2.385   2.322   7.004  1.0912  0.4638  0.7006
 3101SOL     OW20761   1.775   3.717   0.112 -0.3987 -0.4181 -0.5014
 3101SOL    HW120762   1.768   3.625   0.139  0.6776  0.4354  2.6851
 3101SOL    HW220763   1.759   3.707   0.018  2.4217 -0.8069 -0.9532
 3102SOL     OW20764   0.303   0.096  14.521 -0.2313 -0.7205  0.4733
 3102SOL    HW120765   0.233   0.038  14.489 -0.3085  0.0290 -0.7254
 3102SOL    HW220766   0.378   0.090  14.462  0.6128 -0.2219  1.4960
 3103SOL     OW20767   3.044   0.551   7.980 -0.3337 -0.0302 -0.5602
 3103SOL    HW120768   3.032   0.535   8.074 -0.9308 -2.6148 -1.0912
 3103SOL    HW220769   2.965   0.515   7.940  3.0270 -6.1082 -1.8011
 3104SOL     OW20770   1.380   2.898   3.568  0.5647 -0.1745  0.1531
 3104SOL    HW120771   1.333   2.943   3.499  0.8840  0.5486  0.4076
 3104SOL    HW220772   1.315   2.843   3.614 -0.3995  1.3999  0.6720
 3105SOL     OW20773   2.400   3.836   8.641 -0.2642  0.1276 -0.3533
 3105SOL    HW120774   2.315   3.875   8.624 -0.5250 -0.7903 -1.1198
 3105SOL    HW220775   2.406   3.857   8.734 -1.3776 -1.4218  0.0603
 3106SOL     OW20776   0.263   0.278  14.230  0.1818  0.6623  0.3973
 3106SOL    HW120777   0.299   0.282  14.141  0.2092  1.2113  0.4386
 3106SOL    HW220778   0.301   0.197  14.265 -0.1562  1.7096  3.2270
 3107SOL     OW20779   0.145   0.085   3.730 -0.1117 -0.1825 -0.4135
 3107SOL    HW120780   0.159   0.095   3.635  2.0622 -0.0982 -0.0835
 3107SOL    HW220781   0.225   0.049   3.768  0.2228  0.6411 -0.3367
 3108SOL     OW20782   2.460   4.549  13.887 -0.5029  0.0570  0.0840
 3108SOL    HW120783   2.437   4.642  13.896  0.5935  0.2439  0.9529
 3108SOL    HW220784   2.544   4.545  13.933 -0.9886  1.3310  1.1179
 3109SOL     OW20785   1.943   1.489   7.793 -0.6724 -0.7240  0.1269
 3109SOL    HW120786   1.888   1.552   7.840 -0.6390  1.6593 -3.0633
 3109SOL    HW220787   1.877   1.420   7.780 -0.0199 -1.2668 -0.2719
 3110SOL     OW20788   2.268   0.468   2.491  0.2922  0.1421  0.0615
 3110SOL    HW120789   2.190   0.465   2.546 -0.1792  0.8040 -0.5663
 3110SOL    HW220790   2.325   0.421   2.552 -1.2283 -2.3031 -0.4219
 3111SOL     OW20791   1.744   0.789  11.396 -0.0426 -0.4190 -0.4901
 3111SOL    HW120792   1.721   0.875  11.360 -0.1485 -0.6947 -1.0912
 3111SOL    HW220793   1.751   0.738  11.315  1.8211  2.1394 -1.9711
 3112SOL     OW20794   3.945   4.015  12.481 -0.0421  0.6850 -0.0784
 3112SOL    HW120795   3.923   3.951  12.414 -1.4956  0.7935  0.2909
 3112SOL    HW220796   3.922   3.971  12.563 -1.2762 -0.2896 -0.9677
 3113SOL     OW20797   3.331   1.053   2.481 -0.3373  0.3582  0.0675
 3113SOL    HW120798   3.357   1.109   2.409  1.4129  0.0537  0.4731
 3113SOL    HW220799   3.409   1.051   2.537 -1.3155 -2.3995  1.3419
 3114SOL     OW20800   1.500   3.362   5.039  0.4707 -0.1235  0.0424
 3114SOL    HW120801   1.446   3.439   5.021  1.2818  0.8848  1.8707
 3114SOL    HW220802   1.509   3.364   5.135 -3.6322  0.4752  0.4231
 3115SOL     OW20803   4.230   0.792   6.307  0.3047  0.1551  0.1838
 3115SOL    HW120804   4.285   0.823   6.379  0.1759 -0.9364  0.7506
 3115SOL    HW220805   4.297   0.749   6.254 -0.2210  1.3002 -1.4112
 3116SOL     OW20806   1.543   4.319   4.050  0.1386 -0.4335  0.1837
 3116SOL    HW120807   1.563   4.225   4.055 -0.9187 -0.6529  0.3306
 3116SOL    HW220808   1.570   4.327   3.959 -1.8325  0.1383 -0.3539
 3117SOL     OW20809   1.214   0.133   2.865  0.3838  0.1133 -0.1727
 3117SOL    HW120810   1.306   0.128   2.842  0.9599  2.3392  1.6828
 3117SOL    HW220811   1.216   0.140   2.960 -0.5093  1.7646 -0.2715
 3118SOL     OW20812   2.840   2.847   6.831  0.7600  0.2929 -0.3361
 3118SOL    HW120813   2.850   2.884   6.743  0.9047  0.7161 -0.1402
 3118SOL    HW220814   2.804   2.761   6.809 -0.8839  1.0308 -0.5569
 3119SOL     OW20815   4.302   0.250   5.539  0.6993  0.0991 -0.2074
 3119SOL    HW120816   4.242   0.197   5.591 -2.6144  1.1568 -2.9595
 3119SOL    HW220817   4.383   0.207   5.565  2.9057  4.9659  0.9810
 3120SOL     OW20818   4.029   3.422   4.559  0.8297  0.0564  0.4116
 3120SOL    HW120819   3.941   3.452   4.584  0.3497  0.4370 -1.7088
 3120SOL    HW220820   4.042   3.342   4.609 -0.6803 -0.1659  0.4487
 3121SOL     OW20821   1.036   4.308   4.139  0.0045 -0.3046  0.5101
 3121SOL    HW120822   1.127   4.338   4.136 -0.3494  0.8454  1.3377
 3121SOL    HW220823   0.994   4.375   4.193 -0.8045 -1.8929  1.8264
 3122SOL     OW20824   1.032   1.539   2.702 -0.4939 -0.1948  0.2255
 3122SOL    HW120825   1.084   1.509   2.628 -0.6181  0.5071 -0.1509
 3122SOL    HW220826   0.987   1.457   2.725  1.4415 -1.2800  0.0782
 3123SOL     OW20827   2.721   1.076   1.502  0.5071 -0.5242 -0.2766
 3123SOL    HW120828   2.681   1.087   1.416 -0.6396  2.6596  0.6642
 3123SOL    HW220829   2.676   1.007   1.551 -0.3175  0.5467  0.4867
 3124SOL     OW20830   4.292   2.586  13.109 -0.7933  0.0439 -0.3069
 3124SOL    HW120831   4.255   2.505  13.144  1.1840 -0.8440 -0.2548
 3124SOL    HW220832   4.328   2.623  13.189 -0.8201 -0.0469 -0.2532
 3125SOL     OW20833   1.650   1.147   4.468  0.1647  0.3010 -0.5673
 3125SOL    HW120834   1.679   1.156   4.559  0.7435 -2.6472 -0.4880
 3125SOL    HW220835   1.616   1.058   4.462  2.0879 -0.5216  0.7860
 3126SOL     OW20836   3.708   3.421   2.912 -0.2815 -0.0002 -0.8128
 3126SOL    HW120837   3.690   3.368   2.835 -1.7307  2.6903 -2.3537
 3126SOL    HW220838   3.621   3.448   2.943  0.0751  1.4356 -1.0391
 3127SOL     OW20839   1.072   4.287   0.769 -0.4101 -0.3671 -0.0448
 3127SOL    HW120840   1.002   4.333   0.815 -0.0240  1.4077 -1.2102
 3127SOL    HW220841   1.117   4.242   0.841 -0.8315 -0.7159  0.0010
 3128SOL     OW20842   3.037   0.084   5.303  0.0853  0.0779 -0.7222
 3128SOL    HW120843   3.068   4.715   5.297 -0.2957 -0.0823 -0.3030
 3128SOL    HW220844   3.071   0.115   5.219 -0.1657 -1.4847 -1.3933
 3129SOL     OW20845   2.037   1.028   3.416 -0.1182 -0.5403 -0.3123
 3129SOL    HW120846   2.087   1.084   3.355  0.4220 -0.0821  0.5492
 3129SOL    HW220847   1.994   1.094   3.470  1.9513  1.0502 -0.5631
 3130SOL     OW20848   1.758   2.196   2.633 -0.1471  0.0967  0.1571
 3130SOL    HW120849   1.741   2.269   2.572 -0.2638  0.1895  0.3023
 3130SOL    HW220850   1.694   2.131   2.606  0.1183  0.3889 -1.1965
 3131SOL     OW20851   1.957   3.625   8.654  0.3283  0.5079 -0.0259
 3131SOL    HW120852   1.865   3.613   8.679  0.4732 -0.4412  0.0651
 3131SOL    HW220853   1.980   3.718   8.661  0.1644  0.5193  0.3995
 3132SOL     OW20854   2.749   4.613   5.105  0.3825  0.0614 -0.6230
 3132SOL    HW120855   2.746   4.658   5.190 -0.5204  0.1306 -0.6905
 3132SOL    HW220856   2.677   4.550   5.105  1.1975 -0.8494  1.6001
 3133SOL     OW20857   2.506   3.247  16.733 -0.3944 -0.3931  0.6082
 3133SOL    HW120858   2.589   3.214  16.766  0.1957  1.4611  1.0200
 3133SOL    HW220859   2.500   3.343  16.740 -1.7604 -0.3260 -1.4815
 3134SOL     OW20860   2.235   0.487   2.214  0.3221  0.1217 -0.0954
 3134SOL    HW120861   2.308   0.534   2.173 -0.4738  2.3935  1.0876
 3134SOL    HW220862   2.263   0.476   2.305 -2.5365  1.0720  0.9085
 3135SOL     OW20863   3.516   2.117  10.155 -0.0373  0.4038  0.3049
 3135SOL    HW120864   3.508   2.118  10.251  0.1027 -0.7547  0.3374
 3135SOL    HW220865   3.453   2.181  10.124 -2.1538 -0.4836  2.8151
 3136SOL     OW20866   1.257   1.445  10.979  0.4574  0.2150 -0.0593
 3136SOL    HW120867   1.269   1.540  10.980  0.2588  0.2506 -1.0128
 3136SOL    HW220868   1.312   1.416  11.051 -0.2281  1.9350  1.1753
 3137SOL     OW20869   1.129   1.228   8.654  1.0177  0.4107  0.2603
 3137SOL    HW120870   1.104   1.237   8.746  0.9929  1.2225  0.1811
 3137SOL    HW220871   1.085   1.144   8.641 -1.2468  1.4748  0.9940
 3138SOL     OW20872   3.980   1.198   9.413  0.3934 -0.3295  0.2328
 3138SOL    HW120873   4.046   1.223   9.347  1.7017  1.3682  2.1873
 3138SOL    HW220874   3.967   1.284   9.452 -1.8139  0.8942 -3.1865
 3139SOL     OW20875   1.043   2.778  15.072 -0.0413 -0.5873 -0.4108
 3139SOL    HW120876   1.028   2.716  15.000 -0.0279  1.7459 -2.4457
 3139SOL    HW220877   1.137   2.767  15.086 -0.4547 -1.6259  1.4452
 3140SOL     OW20878   4.117   3.010  14.594  0.3104  0.1406 -0.2583
 3140SOL    HW120879   4.057   3.046  14.660  0.2369  2.1848 -1.4380
 3140SOL    HW220880   4.182   3.078  14.578  0.6089 -0.2279 -0.6301
 3141SOL     OW20881   2.952   1.215   4.735 -0.7670  0.0257  0.2466
 3141SOL    HW120882   2.867   1.255   4.756  0.0149  1.9691 -0.2778
 3141SOL    HW220883   2.921   1.141   4.683 -1.5761  0.0386  0.7054
 3142SOL     OW20884   3.059   0.130   3.593  0.5345  0.6980 -0.0111
 3142SOL    HW120885   3.152   0.152   3.600 -0.0289  2.3042  2.2563
 3142SOL    HW220886   3.062   0.055   3.533  1.0606  0.4497  0.3239
 3143SOL     OW20887   4.647   0.737   5.642  0.0135 -0.2818  1.0885
 3143SOL    HW120888   4.666   0.779   5.726 -0.0657  0.1753  0.8796
 3143SOL    HW220889   0.001   0.678   5.637  2.3712  2.9249 -1.6915
 3144SOL     OW20890   0.280   4.715   1.474 -0.6618 -0.0666  0.3994
 3144SOL    HW120891   0.366   0.026   1.444 -0.1411 -0.7520  1.1704
 3144SOL    HW220892   0.291   0.013   1.568 -0.1921 -0.5755  0.4424
 3145SOL     OW20893   3.765   0.546   6.884 -0.2252  0.7263  0.3996
 3145SOL    HW120894   3.843   0.588   6.921  0.0656  1.0130 -0.5453
 3145SOL    HW220895   3.715   0.617   6.845 -0.7610  0.0155 -0.2042
 3146SOL     OW20896   2.661   0.708  13.304  0.1522 -0.5489  0.5005
 3146SOL    HW120897   2.716   0.688  13.379 -1.0795 -3.2162  0.6859
 3146SOL    HW220898   2.695   0.796  13.286  3.2148 -1.5514  1.4465
 3147SOL     OW20899   1.999   3.653   3.329 -0.4167 -0.0170 -0.2784
 3147SOL    HW120900   1.964   3.573   3.291 -0.3909  0.8280 -2.0730
 3147SOL    HW220901   1.981   3.643   3.423  0.4986  0.4564 -0.0489
 3148SOL     OW20902   4.061   1.944   3.179 -0.1939 -0.2202  0.0002
 3148SOL    HW120903   4.106   1.860   3.185 -1.1008 -0.8475 -1.8930
 3148SOL    HW220904   3.970   1.914   3.183 -0.0927 -0.8215 -1.9798
 3149SOL     OW20905   0.810   1.709   3.249  0.3547  0.1369  0.0568
 3149SOL    HW120906   0.834   1.762   3.174  1.6785 -2.2497 -1.2173
 3149SOL    HW220907   0.823   1.773   3.319 -0.9572 -0.3813  0.7793
 3150SOL     OW20908   1.443   2.803   5.903 -0.4414 -0.3404  0.4079
 3150SOL    HW120909   1.353   2.835   5.895 -0.4927 -0.8460 -1.0185
 3150SOL    HW220910   1.425   2.724   5.953 -0.0826 -1.1598 -0.7680
 3151SOL     OW20911   2.261   0.050   4.848 -0.6363 -0.5071  0.0638
 3151SOL    HW120912   2.190   0.018   4.793  0.1326  0.3881 -1.4309
 3151SOL    HW220913   2.291   0.113   4.783  0.9073 -1.9814 -0.6560
 3152SOL     OW20914   3.753   3.543   1.416 -0.2428 -0.9049  0.1570
 3152SOL    HW120915   3.699   3.518   1.341  0.9812  0.3741 -1.1590
 3152SOL    HW220916   3.775   3.456   1.447  0.9094 -0.5348  0.3818
 3153SOL     OW20917   0.538   2.540  16.008 -0.2459 -0.6779  0.3660
 3153SOL    HW120918   0.472   2.519  15.942 -1.0170 -0.1174  0.9558
 3153SOL    HW220919   0.485   2.561  16.085 -1.2059  0.9713 -0.7487
 3154SOL     OW20920   3.938   1.608  14.514  0.0293  0.5086  0.0453
 3154SOL    HW120921   3.953   1.657  14.433 -3.2433 -1.1338 -1.5251
 3154SOL    HW220922   3.923   1.522  14.475  0.9678  0.0131  0.7658
 3155SOL     OW20923   0.325   2.871   5.399 -0.3863  0.3152  0.5689
 3155SOL    HW120924   0.411   2.841   5.426 -0.1018  0.5062 -0.1250
 3155SOL    HW220925   0.284   2.789   5.373  1.0314 -0.3931  0.5816
 3156SOL     OW20926   2.114   3.307   4.706  0.0506 -0.4868 -0.0065
 3156SOL    HW120927   2.155   3.390   4.733 -2.0514  0.3101  0.7406
 3156SOL    HW220928   2.023   3.332   4.688 -0.3361 -1.4100  0.6682
 3157SOL     OW20929   0.564   1.462  14.438 -0.0575 -0.3405  0.1782
 3157SOL    HW120930   0.582   1.459  14.344  1.2737 -0.2581  0.4250
 3157SOL    HW220931   0.473   1.432  14.439  0.5289 -2.1818 -0.4242
 3158SOL     OW20932   3.437   0.806   1.472  0.1789 -0.5140  0.0472
 3158SOL    HW120933   3.403   0.824   1.559  0.0821  0.1889 -0.1412
 3158SOL    HW220934   3.530   0.806   1.493 -0.0925  2.2013  1.1590
 3159SOL     OW20935   3.066   3.808   4.570 -0.1436 -0.3715 -0.0386
 3159SOL    HW120936   2.987   3.820   4.517  0.2300 -0.1688 -0.5482
 3159SOL    HW220937   3.115   3.755   4.507  0.4352 -0.7706  0.7526
 3160SOL     OW20938   1.025   0.887   5.032 -0.5563  0.4625 -0.2546
 3160SOL    HW120939   1.099   0.937   5.065 -0.7116 -0.3533  1.3247
 3160SOL    HW220940   1.074   0.859   4.955  2.0362 -1.2140  1.9936
 3161SOL     OW20941   1.023   2.519   8.175 -0.7362 -0.2359  0.2044
 3161SOL    HW120942   1.015   2.497   8.082 -2.3484 -0.3627  0.3740
 3161SOL    HW220943   0.971   2.600   8.176 -0.8943 -0.3623  1.4850
 3162SOL     OW20944   1.666   3.643   8.656 -0.1421  0.4757 -0.3742
 3162SOL    HW120945   1.653   3.555   8.692  0.0565  0.1196 -1.1775
 3162SOL    HW220946   1.641   3.638   8.564 -1.5665 -1.1037  0.1050
 3163SOL     OW20947   4.474   2.516   2.570  0.1160  0.1332  0.3451
 3163SOL    HW120948   4.495   2.595   2.520  0.7845 -0.2834 -0.0274
 3163SOL    HW220949   4.537   2.452   2.538  0.8144 -0.1628  2.2697
 3164SOL     OW20950   0.908   3.577  14.247  0.3606 -0.3936  0.4774
 3164SOL    HW120951   0.821   3.591  14.284 -0.0345 -1.6313  0.0174
 3164SOL    HW220952   0.939   3.666  14.266  1.3099 -0.3882 -1.1126
 3165SOL     OW20953   4.040   0.047   7.457 -0.4766  0.2780  0.0369
 3165SOL    HW120954   3.963   4.719   7.486 -1.1051  2.3075  1.8211
 3165SOL    HW220955   4.022   0.131   7.500 -2.3001  0.7930 -1.7376
 3166SOL     OW20956   4.664   2.599   3.464  0.2744 -0.8050 -0.2728
 3166SOL    HW120957   4.619   2.677   3.433  0.8161 -0.3790  0.0082
 3166SOL    HW220958   4.606   2.526   3.441 -2.4614  1.1283  0.5899
 3167SOL     OW20959   3.614   1.754   2.207 -0.0535  0.3250 -0.1658
 3167SOL    HW120960   3.668   1.714   2.275  0.7091  0.9876 -0.3787
 3167SOL    HW220961   3.548   1.803   2.255 -1.0281 -0.6531 -0.5064
 3168SOL     OW20962   1.182   0.410   6.443 -0.2692 -0.0960 -0.8683
 3168SOL    HW120963   1.191   0.439   6.352  0.5598  2.0125 -0.1312
 3168SOL    HW220964   1.183   0.317   6.424 -1.0208 -0.3999  0.5985
 3169SOL     OW20965   0.233   0.339   6.476  0.5232  0.2019 -0.8787
 3169SOL    HW120966   0.199   0.316   6.563  2.3819  0.5892 -0.0435
 3169SOL    HW220967   0.327   0.341   6.497  0.0864 -0.4378  1.1812
 3170SOL     OW20968   0.750   3.290   7.098  0.6433  0.2061 -0.0531
 3170SOL    HW120969   0.761   3.300   7.193  0.6733 -0.5151  0.0181
 3170SOL    HW220970   0.832   3.326   7.064  0.3333  0.4673 -0.5187
 3171SOL     OW20971   3.572   1.766   7.780 -0.1901 -0.2252 -0.4897
 3171SOL    HW120972   3.545   1.857   7.797 -0.6256 -0.6170  0.9914
 3171SOL    HW220973   3.573   1.730   7.869  0.7499 -0.1359 -0.4697
 3172SOL     OW20974   2.394   3.004   5.094 -0.3863  0.0456 -0.3318
 3172SOL    HW120975   2.440   2.995   5.177  0.9314  0.0833 -1.0725
 3172SOL    HW220976   2.426   2.936   5.035  1.7446  0.7049  0.0677
 3173SOL     OW20977   1.050   0.023   8.458 -0.0720 -0.5076  0.4657
 3173SOL    HW120978   1.080   4.692   8.383  0.2026 -0.5225  0.5842
 3173SOL    HW220979   0.969   4.695   8.473 -0.9859  1.2374  1.2055
 3174SOL     OW20980   0.825   3.086   5.927  0.3467  0.1395  0.2439
 3174SOL    HW120981   0.912   3.125   5.940  0.2227  0.6752 -0.5601
 3174SOL    HW220982   0.771   3.149   5.973  0.1314 -0.8743  1.3866
 3175SOL     OW20983   1.547   2.411   9.875 -0.3363 -0.7737 -0.2668
 3175SOL    HW120984   1.536   2.505   9.864 -0.4010 -0.9564 -1.8987
 3175SOL    HW220985   1.634   2.402   9.915  0.5271 -0.0536 -1.9584
 3176SOL     OW20986   3.543   1.262   6.694 -0.3407 -0.3220 -0.0075
 3176SOL    HW120987   3.571   1.297   6.610  0.4306  0.5545  0.6085
 3176SOL    HW220988   3.550   1.340   6.750 -1.3539  0.5248 -1.0665
 3177SOL     OW20989   2.142   0.121   0.615  0.2849 -0.0998  0.1339
 3177SOL    HW120990   2.187   0.193   0.658  1.2212 -0.5832 -0.0215
 3177SOL    HW220991   2.172   0.136   0.525  0.8561 -1.5868  0.0761
 3178SOL     OW20992   0.780   0.183   9.516  0.1168  0.1350  0.8774
 3178SOL    HW120993   0.806   0.238   9.590  0.8493 -0.3538  0.9820
 3178SOL    HW220994   0.688   0.209   9.513  0.0388 -0.2659 -0.1458
 3179SOL     OW20995   3.169   3.565  17.482  0.0448  0.5398  0.6222
 3179SOL    HW120996   3.161   3.581  17.576  0.2531  2.2998  0.3291
 3179SOL    HW220997   3.165   3.653  17.445  0.1868  0.0161 -0.6343
 3180SOL     OW20998   3.057   2.273   3.166 -0.3577 -0.5222 -0.1848
 3180SOL    HW120999   3.025   2.271   3.076 -0.7394 -2.8640 -0.0118
 3180SOL    HW221000   3.086   2.181   3.166 -0.9543 -0.7119  0.1994
 3181SOL     OW21001   2.063   4.275   8.274  0.4239  0.2365 -0.3943
 3181SOL    HW121002   2.109   4.192   8.290  0.6563  0.5666  0.6314
 3181SOL    HW221003   2.113   4.338   8.326  3.0653 -2.6166  0.5437
 3182SOL     OW21004   0.631   2.072   4.025  0.1034 -0.1021 -0.0340
 3182SOL    HW121005   0.712   2.102   3.984  0.1967 -2.6149 -1.6542
 3182SOL    HW221006   0.566   2.099   3.960 -1.1168 -0.0405  1.1969
 3183SOL     OW21007   2.452   1.957   8.790  0.2611  0.1611 -0.5283
 3183SOL    HW121008   2.392   1.903   8.841 -1.1328  1.0587 -1.2124
 3183SOL    HW221009   2.537   1.919   8.811 -0.4694 -1.2239 -0.0965
 3184SOL     OW21010   1.748   0.242   7.002 -0.8173 -0.4674 -0.2047
 3184SOL    HW121011   1.812   0.186   7.046  0.3128 -0.2661 -1.5958
 3184SOL    HW221012   1.755   0.210   6.912  0.5900 -1.9497  0.4336
 3185SOL     OW21013   0.344   1.126   6.857  0.1872 -0.9168 -0.2811
 3185SOL    HW121014   0.424   1.163   6.894 -0.5981  0.8993 -0.4070
 3185SOL    HW221015   0.297   1.139   6.939  0.7062 -0.2991 -0.0836
 3186SOL     OW21016   2.861   1.176  17.591 -0.0891 -0.0655  0.4644
 3186SOL    HW121017   2.827   1.177  17.681  0.5938  1.4705  0.7048
 3186SOL    HW221018   2.781   1.159  17.541  0.5808  0.7317 -0.8654
 3187SOL     OW21019   2.797   1.439   5.426  0.4543  0.0212  0.0334
 3187SOL    HW121020   2.814   1.513   5.484  2.3042 -0.2421 -0.1808
 3187SOL    HW221021   2.838   1.471   5.346 -0.3624 -0.2564 -0.5027
 3188SOL     OW21022   0.121   3.475  12.788  0.2201 -0.0405  0.1170
 3188SOL    HW121023   0.118   3.418  12.865 -0.0049 -1.9082 -1.2668
 3188SOL    HW221024   0.067   3.548  12.818  0.0139  0.7549 -2.1900
 3189SOL     OW21025   0.778   4.459   5.525  0.4128  0.2991  0.5459
 3189SOL    HW121026   0.864   4.499   5.542  0.1621  1.2589 -0.4652
 3189SOL    HW221027   0.757   4.503   5.443 -0.2337 -1.4646 -0.2435
 3190SOL     OW21028   0.287   3.894   0.457  0.3844  0.3268 -0.2721
 3190SOL    HW121029   0.294   3.815   0.511 -0.8382  0.7757  0.5575
 3190SOL    HW221030   0.199   3.928   0.471 -0.3130 -1.9902  1.0313
 3191SOL     OW21031   2.418   4.497   4.414  0.4452 -0.1455 -0.1247
 3191SOL    HW121032   2.398   4.583   4.451  1.8295  0.4073 -0.6379
 3191SOL    HW221033   2.462   4.512   4.330  1.2961  2.1840  0.7221
 3192SOL     OW21034   4.458   2.980   3.144 -0.4823  0.3402 -0.1731
 3192SOL    HW121035   4.404   2.905   3.169  2.2300 -0.8322  2.1849
 3192SOL    HW221036   4.416   3.051   3.193 -2.4092  0.0902 -1.4835
 3193SOL     OW21037   4.623   2.422   2.132  0.1609  0.9024 -0.4312
 3193SOL    HW121038   4.717   2.405   2.135 -0.0367  0.2304  2.2836
 3193SOL    HW221039   4.597   2.333   2.113  3.6695 -0.2805  0.2778
 3194SOL     OW21040   3.423   0.775  10.557  0.3025 -0.1390 -0.1121
 3194SOL    HW121041   3.348   0.819  10.597 -1.1854 -0.5878 -2.3849
 3194SOL    HW221042   3.386   0.733  10.479 -0.3105 -1.5896  0.9506
 3195SOL     OW21043   4.399   0.650   8.836  0.7464 -0.5041 -0.0023
 3195SOL    HW121044   4.317   0.599   8.837  0.3595  0.0719 -1.6687
 3195SOL    HW221045   4.448   0.597   8.773 -1.7345 -0.5635 -1.8955
 3196SOL     OW21046   4.261   4.010   6.039  0.5347  0.5316  0.4983
 3196SOL    HW121047   4.310   4.076   6.088 -0.7074  1.1908  0.8392
 3196SOL    HW221048   4.324   3.959   5.988  1.1287  1.6904  0.0981
 3197SOL     OW21049   0.132   0.239  16.321 -0.3265 -0.2397  0.8080
 3197SOL    HW121050   0.225   0.243  16.302 -0.1193 -0.2632  1.8311
 3197SOL    HW221051   0.101   0.211  16.235 -1.8783  2.3293  0.5161
 3198SOL     OW21052   4.047   3.486   3.300 -0.6244 -0.0210  0.3637
 3198SOL    HW121053   4.076   3.408   3.252 -1.0034  0.8579 -1.2887
 3198SOL    HW221054   3.974   3.502   3.241 -1.4748 -0.2750  1.3507
 3199SOL     OW21055   3.741   2.841   3.133  0.0566 -0.4127 -0.3278
 3199SOL    HW121056   3.730   2.797   3.049  1.7200 -1.1487 -0.1397
 3199SOL    HW221057   3.716   2.929   3.103 -1.5952 -0.9318 -0.5062
 3200SOL     OW21058   2.957   4.202  11.010 -0.1129  0.2404  0.0980
 3200SOL    HW121059   2.998   4.215  10.925  1.1362  1.7049  0.9160
 3200SOL    HW221060   2.984   4.286  11.048 -2.6296  1.5790 -1.0994
 3201SOL     OW21061   4.619   3.389   5.684  0.1742 -0.0346  0.2914
 3201SOL    HW121062   4.612   3.306   5.637 -0.6804  0.8621 -1.1832
 3201SOL    HW221063   4.712   3.403   5.666  0.0684 -2.6110 -2.1977
 3202SOL     OW21064   3.987   2.172   7.096 -0.6807  0.0648 -0.3055
 3202SOL    HW121065   4.016   2.083   7.072  1.0569 -1.0028  5.8478
 3202SOL    HW221066   4.067   2.206   7.137 -1.1725  1.1637 -0.2704
 3203SOL     OW21067   2.265   0.003  10.698 -0.1035 -0.2098 -0.1327
 3203SOL    HW121068   2.275   0.003  10.793 -1.6940 -0.3770  0.0447
 3203SOL    HW221069   2.226   4.636  10.691 -0.0778 -0.4274  2.4944
 3204SOL     OW21070   0.826   1.895  10.378 -0.2988 -0.1116 -0.1329
 3204SOL    HW121071   0.833   1.935  10.291 -0.0985  1.8620  0.7996
 3204SOL    HW221072   0.868   1.958  10.437 -2.0047 -0.2657  1.2439
 3205SOL     OW21073   0.832   2.967   9.243  0.1625 -0.4081  0.1221
 3205SOL    HW121074   0.907   2.909   9.258  1.4285  1.5506  1.4614
 3205SOL    HW221075   0.810   2.997   9.331  1.8368 -1.1147  0.7861
 3206SOL     OW21076   4.520   1.042  17.150 -0.0867  0.2524 -0.0815
 3206SOL    HW121077   4.500   0.955  17.184  2.2175  0.0288  0.7183
 3206SOL    HW221078   4.458   1.057  17.078 -0.7632  1.0461  0.6611
 3207SOL     OW21079   4.095   2.532  12.849 -0.2575 -0.1512 -0.1094
 3207SOL    HW121080   4.076   2.619  12.881  0.8496  0.1502 -0.2586
 3207SOL    HW221081   4.073   2.470  12.919 -1.3883  1.8823  1.3283
 3208SOL     OW21082   3.471   1.540   9.321 -0.4116 -0.1838  0.2249
 3208SOL    HW121083   3.493   1.585   9.403  2.0721 -0.4543 -0.3039
 3208SOL    HW221084   3.539   1.473   9.315 -0.5701 -0.5789  2.5569
 3209SOL     OW21085   0.807   3.583  11.999 -0.0705  0.5243  0.3736
 3209SOL    HW121086   0.898   3.604  11.975 -0.4258  0.5566 -0.9303
 3209SOL    HW221087   0.794   3.610  12.090  0.7604 -0.2215  0.7245
 3210SOL     OW21088   1.717   3.357  17.313 -0.1580 -0.4389  0.0910
 3210SOL    HW121089   1.655   3.392  17.377  1.2610  1.6081  0.3190
 3210SOL    HW221090   1.690   3.266  17.298 -0.1249 -0.5315  0.5879
 3211SOL     OW21091   0.163   0.107   2.626  0.0066  0.0585  0.5050
 3211SOL    HW121092   0.193   0.022   2.659  1.1588  0.1781 -0.2158
 3211SOL    HW221093   0.130   0.143   2.708 -1.4832 -0.6316  0.2097
 3212SOL     OW21094   1.147   2.564   9.297  0.6714  0.3042  0.1125
 3212SOL    HW121095   1.231   2.525   9.322  1.2070  1.6267  0.3945
 3212SOL    HW221096   1.083   2.497   9.318  0.0106  1.0129  0.3392
 3213SOL     OW21097   3.067   2.092   8.254  0.3873 -0.0094 -0.3686
 3213SOL    HW121098   3.131   2.069   8.186  1.5725  1.2469  0.3097
 3213SOL    HW221099   2.991   2.039   8.230  0.4384 -0.6141  0.8283
 3214SOL     OW21100   2.691   1.977   7.669 -0.3567  0.5997  0.3128
 3214SOL    HW121101   2.637   1.965   7.590  0.6934 -0.1206 -0.2851
 3214SOL    HW221102   2.625   1.999   7.735 -1.9860 -1.5390 -0.5968
 3215SOL     OW21103   1.250   2.394   5.868 -0.4640  0.4208  0.0816
 3215SOL    HW121104   1.238   2.488   5.855  0.7116  0.4423 -0.8132
 3215SOL    HW221105   1.320   2.395   5.934 -0.3567  0.4670 -0.0334
 3216SOL     OW21106   3.952   4.541   4.872  0.0210 -0.5071 -0.0039
 3216SOL    HW121107   3.948   4.446   4.862  0.9222 -0.6699  1.1253
 3216SOL    HW221108   3.980   4.556   4.962  0.9209  0.2054 -0.4029
 3217SOL     OW21109   4.111   1.071  16.817 -0.2327 -0.0305  0.0620
 3217SOL    HW121110   4.063   1.073  16.733  2.0046 -1.2409 -1.2272
 3217SOL    HW221111   4.050   1.016  16.867  1.6700 -0.7705  1.5254
 3218SOL     OW21112   4.114   0.061   1.481 -1.0324 -0.5479 -0.1015
 3218SOL    HW121113   4.191   0.013   1.449 -1.3381 -1.1187  0.0199
 3218SOL    HW221114   4.083   4.716   1.544  0.9616  0.1318  1.5819
 3219SOL     OW21115   2.084   2.562   1.795 -0.2396 -0.2785 -0.0903
 3219SOL    HW121116   2.041   2.553   1.880  0.7585 -0.0438  0.4331
 3219SOL    HW221117   2.009   2.597   1.747  0.4335  0.8488 -0.3132
 3220SOL     OW21118   1.548   3.028   2.108 -0.0057 -0.4565  0.1817
 3220SOL    HW121119   1.476   3.035   2.045  1.4434 -2.6789 -1.6793
 3220SOL    HW221120   1.506   2.966   2.168  1.6847 -1.7434  0.0025
 3221SOL     OW21121   3.577   0.890   6.160 -0.5410  0.4948  0.3983
 3221SOL    HW121122   3.577   0.973   6.112 -0.1980  0.5370  0.4723
 3221SOL    HW221123   3.602   0.850   6.077 -2.2350  4.0207 -1.8457
 3222SOL     OW21124   0.597   3.620   6.540  0.4391 -0.1104 -0.0954
 3222SOL    HW121125   0.613   3.536   6.497  0.8267 -0.8299  1.4400
 3222SOL    HW221126   0.625   3.679   6.470 -0.9055 -0.0373 -0.5740
 3223SOL     OW21127   1.677   0.194   7.638  0.1680 -0.1953  0.1139
 3223SOL    HW121128   1.756   0.189   7.692 -0.8036 -1.1293  1.4376
 3223SOL    HW221129   1.612   0.214   7.705 -0.9850 -2.2264 -0.4020
 3224SOL     OW21130   4.272   4.612   8.293  0.1642  0.0211  0.1574
 3224SOL    HW121131   4.300   4.553   8.224 -0.7551  0.0546 -0.2402
 3224SOL    HW221132   4.240   4.552   8.360  1.2886 -2.8144 -1.8656
 3225SOL     OW21133   3.968   3.951   3.100 -0.1906 -0.1428 -0.3131
 3225SOL    HW121134   3.993   3.863   3.072  1.9196  0.3172  0.1105
 3225SOL    HW221135   3.903   3.969   3.032 -0.0983 -0.0657 -0.3813
 3226SOL     OW21136   4.518   3.980   5.882 -0.3824  0.0098 -0.0930
 3226SOL    HW121137   4.608   3.973   5.914 -0.3289  0.0043 -0.2487
 3226SOL    HW221138   4.532   4.050   5.819  1.2007 -0.2178  0.0034
 3227SOL     OW21139   2.172   3.551  16.117  0.1439  0.0626  0.0141
 3227SOL    HW121140   2.132   3.483  16.062  0.1582 -0.0450  0.1382
 3227SOL    HW221141   2.264   3.531  16.101 -0.1129 -1.1223 -0.0247
 3228SOL     OW21142   3.434   0.706   8.398 -0.5119  0.1060  0.2835
 3228SOL    HW121143   3.412   0.645   8.328 -1.1427  0.4388  0.1861
 3228SOL    HW221144   3.501   0.765   8.363 -0.6955 -0.9841 -1.8701
 3229SOL     OW21145   0.756   2.595   8.397 -0.0711  0.2890  0.4658
 3229SOL    HW121146   0.777   2.660   8.330  1.8285 -0.4921  0.2910
 3229SOL    HW221147   0.702   2.648   8.456  1.6336  2.5335 -0.0189
 3230SOL     OW21148   1.559   2.695   2.062 -0.1680 -0.3042  0.5704
 3230SOL    HW121149   1.499   2.628   2.030  1.1093 -0.3042 -1.9034
 3230SOL    HW221150   1.509   2.727   2.136 -0.3067  1.1693 -0.1547
 3231SOL     OW21151   0.693   1.357   4.275  0.3715 -0.0883  0.1006
 3231SOL    HW121152   0.607   1.319   4.290 -0.2925  1.7597  0.9140
 3231SOL    HW221153   0.696   1.431   4.336 -1.5243  1.6777 -1.9429
 3232SOL     OW21154   0.049   2.891   0.969  0.7620  0.1766  0.5462
 3232SOL    HW121155   4.719   2.901   0.889 -0.7710  1.1139  1.6188
 3232SOL    HW221156   4.711   2.835   1.021 -1.4201  0.5372 -1.5366
 3233SOL     OW21157   1.516   0.114   7.866  0.0828  0.0835 -0.0670
 3233SOL    HW121158   1.519   0.040   7.805 -0.1651 -1.0108  1.2562
 3233SOL    HW221159   1.526   0.072   7.951  1.9552  0.4015 -0.1191
 3234SOL     OW21160   2.702   1.148   7.732  0.3964 -0.2212  0.3800
 3234SOL    HW121161   2.609   1.145   7.754  0.2807  0.0026 -0.0908
 3234SOL    HW221162   2.733   1.058   7.736  1.5740  0.1527 -0.2036
 3235SOL     OW21163   0.179   4.331   8.551 -0.0449 -0.8982  0.2149
 3235SOL    HW121164   0.268   4.342   8.516 -1.4023 -0.1623 -3.0451
 3235SOL    HW221165   0.187   4.348   8.645 -1.3972 -0.4159  0.2500
 3236SOL     OW21166   2.249   1.065   1.867 -0.4666  0.3853  0.3594
 3236SOL    HW121167   2.248   0.975   1.836  3.9497  0.6123 -0.4307
 3236SOL    HW221168   2.341   1.092   1.861 -0.5491  1.1456  2.4534
 3237SOL     OW21169   2.805   3.829  12.747 -0.0175  0.0323  0.8002
 3237SOL    HW121170   2.810   3.765  12.819  0.6606 -1.1592 -0.3110
 3237SOL    HW221171   2.895   3.824  12.716 -0.7324 -1.5616 -1.0608
 3238SOL     OW21172   3.911   1.375  14.385  0.2102 -0.2238  0.5376
 3238SOL    HW121173   3.918   1.395  14.292 -0.3199  0.8393  0.7307
 3238SOL    HW221174   3.820   1.345  14.385  0.2321 -0.3017  2.0399
 3239SOL     OW21175   2.842   4.077  10.309  0.2526  0.1203  0.5629
 3239SOL    HW121176   2.880   3.989  10.302 -0.4516 -0.1632  0.2339
 3239SOL    HW221177   2.874   4.101  10.395  0.2817  3.1006 -0.2763
 3240SOL     OW21178   3.688   0.439   5.191  0.6480 -0.1675  0.5793
 3240SOL    HW121179   3.680   0.377   5.119  1.2816 -0.3516  0.6634
 3240SOL    HW221180   3.623   0.394   5.245 -1.5279 -0.7814 -2.5985
 3241SOL     OW21181   4.053   3.222   0.237  0.0346  0.7711  0.0001
 3241SOL    HW121182   3.963   3.196   0.259 -0.8972  2.4973 -1.6847
 3241SOL    HW221183   4.076   3.284   0.305  1.0015  0.2893  0.1023
 3242SOL     OW21184   2.405   0.597  13.312 -0.0442  0.9768  0.4131
 3242SOL    HW121185   2.498   0.620  13.313  0.5920 -1.3457 -2.6685
 3242SOL    HW221186   2.377   0.653  13.239  0.8900 -1.3668 -1.7890
 3243SOL     OW21187   2.638   2.952   5.785  0.2458 -0.3478 -0.1937
 3243SOL    HW121188   2.717   2.915   5.747  0.1450  0.1468 -0.8935
 3243SOL    HW221189   2.677   3.039   5.793 -2.8245  0.9229  1.2817
 3244SOL     OW21190   3.567   4.513   4.514 -0.4020 -0.5761  0.2138
 3244SOL    HW121191   3.616   4.563   4.450 -0.8059  0.8433  1.0004
 3244SOL    HW221192   3.633   4.450   4.543 -0.4519 -0.4566  0.5992
 3245SOL     OW21193   0.180   1.564  12.291  0.2291  0.5739  0.3061
 3245SOL    HW121194   0.189   1.659  12.286  3.0302  0.3132  0.3607
 3245SOL    HW221195   0.274   1.548  12.297 -0.1217 -1.4156  0.3642
 3246SOL     OW21196   0.225   4.093   9.204  0.3658  0.1243  0.2996
 3246SOL    HW121197   0.166   4.066   9.274 -0.8807  0.1496 -0.7278
 3246SOL    HW221198   0.200   4.182   9.180  2.8415  0.5232 -0.8639
 3247SOL     OW21199   2.828   2.193  16.611 -0.1284 -0.0272  0.1153
 3247SOL    HW121200   2.747   2.204  16.662 -0.3255  1.4974 -0.5325
 3247SOL    HW221201   2.860   2.111  16.649 -3.1527 -1.4381 -0.3282
 3248SOL     OW21202   3.783   0.532   0.683 -0.3855  0.7564  0.2898
 3248SOL    HW121203   3.748   0.443   0.683  0.7303  0.3111 -0.9987
 3248SOL    HW221204   3.700   0.570   0.654 -1.6805 -2.0650  0.2429
 3249SOL     OW21205   3.264   1.165   7.300 -0.1248  0.2903  0.0065
 3249SOL    HW121206   3.355   1.159   7.269  0.0894  0.0620  0.6918
 3249SOL    HW221207   3.243   1.259   7.301  0.5770  0.4580 -0.9856
 3250SOL     OW21208   1.536   2.244  13.127 -0.2347  0.1633 -0.3532
 3250SOL    HW121209   1.586   2.234  13.208 -0.0793 -1.4800 -0.6518
 3250SOL    HW221210   1.462   2.185  13.139  0.3546 -0.9383 -2.2319
 3251SOL     OW21211   1.333   1.301   3.647 -0.9170 -0.4194 -0.2813
 3251SOL    HW121212   1.424   1.329   3.637 -1.1006  0.0633 -0.6354
 3251SOL    HW221213   1.285   1.351   3.581 -0.1412  0.6082 -0.0672
 3252SOL     OW21214   4.608   1.613  15.262 -0.2958 -0.1367  0.5899
 3252SOL    HW121215   4.573   1.697  15.232  0.2525 -0.0936  0.0684
 3252SOL    HW221216   4.589   1.615  15.356  0.7006  1.1649  0.7776
 3253SOL     OW21217   2.729   3.628  17.310 -0.2230 -0.1347 -0.1242
 3253SOL    HW121218   2.720   3.720  17.337  0.3048 -0.1958  0.2524
 3253SOL    HW221219   2.708   3.577  17.388 -0.0950  1.5817  1.0495
 3254SOL     OW21220   1.897   2.072  12.327 -0.0637  0.0243 -0.0525
 3254SOL    HW121221   1.875   2.011  12.257  0.5131 -1.2114  0.8575
 3254SOL    HW221222   1.975   2.034  12.366 -0.2401 -1.7773 -1.4664
 3255SOL     OW21223   0.073   4.559   4.257  0.3793  0.0799 -0.0075
 3255SOL    HW121224   0.112   4.489   4.309 -1.7097 -1.5457 -0.6323
 3255SOL    HW221225   0.140   4.627   4.250  0.7864  0.0522  3.5262
 3256SOL     OW21226   0.854   0.539   5.504  0.0886 -0.1757 -0.1485
 3256SOL    HW121227   0.789   0.602   5.536  2.1343  0.9936  1.6882
 3256SOL    HW221228   0.834   0.459   5.552 -0.2589  1.1061  1.8653
 3257SOL     OW21229   2.420   3.977  17.548 -0.0288  0.2735 -0.0876
 3257SOL    HW121230   2.348   4.012  17.494 -1.5112 -1.2954  0.8705
 3257SOL    HW221231   2.442   4.049  17.606 -3.2132  0.2725  1.1268
 3258SOL     OW21232   1.718   3.519   7.819  0.1402 -0.4183 -0.4795
 3258SOL    HW121233   1.750   3.481   7.737  0.4184 -2.4283  0.5742
 3258SOL    HW221234   1.772   3.598   7.825  0.6543 -0.8701  0.8280
 3259SOL     OW21235   4.089   4.704   2.296  0.3265  0.1433 -0.2165
 3259SOL    HW121236   4.059   0.056   2.240 -1.5491 -0.3841  0.1146
 3259SOL    HW221237   4.160   4.670   2.241  0.4214  0.0516 -0.0345
 3260SOL     OW21238   1.836   3.292  10.768 -0.0851 -0.2053  0.6015
 3260SOL    HW121239   1.783   3.212  10.772 -1.0704  0.5358  2.3506
 3260SOL    HW221240   1.825   3.307  10.674  0.0633 -1.0721  0.4445
 3261SOL     OW21241   2.168   4.439   4.168 -0.4301  0.0540 -0.0607
 3261SOL    HW121242   2.228   4.390   4.111 -0.7934 -0.7887  0.2858
 3261SOL    HW221243   2.134   4.495   4.098  2.3018 -0.2025 -1.5948
 3262SOL     OW21244   1.991   3.252   2.081  0.2626  0.2347  0.2133
 3262SOL    HW121245   1.956   3.226   1.996  1.0869 -2.6789  0.7457
 3262SOL    HW221246   1.915   3.253   2.138  0.2793  2.0964  0.2051
 3263SOL     OW21247   3.073   2.143   7.843  0.2454  0.3819  0.0056
 3263SOL    HW121248   3.165   2.168   7.832 -0.1330  2.4812  1.6260
 3263SOL    HW221249   3.027   2.156   7.760 -1.1979  0.6377  0.8485
 3264SOL     OW21250   0.196   2.880  15.191 -0.2650  0.0621 -0.4701
 3264SOL    HW121251   0.134   2.809  15.174  0.3032 -0.3686 -0.7349
 3264SOL    HW221252   0.155   2.949  15.138  1.1909  3.2237  2.4913
 3265SOL     OW21253   4.371   2.238   6.877 -0.6283  0.2629  0.8676
 3265SOL    HW121254   4.318   2.271   6.804  0.8577  1.4881  0.3279
 3265SOL    HW221255   4.382   2.305   6.944 -0.6103  0.5881  0.5441
 3266SOL     OW21256   1.596   2.735   4.364 -0.3707 -0.0633 -0.2241
 3266SOL    HW121257   1.550   2.653   4.384 -0.7778  0.4684  0.9671
 3266SOL    HW221258   1.618   2.726   4.271 -0.2371  0.9232 -0.2842
 3267SOL     OW21259   0.730   1.073   0.541 -0.1202  0.3789  0.0683
 3267SOL    HW121260   0.791   1.146   0.547 -2.4250  2.4396 -1.6123
 3267SOL    HW221261   0.755   1.030   0.623  0.4699 -0.0908 -0.3497
 3268SOL     OW21262   2.430   2.585   2.219 -0.2242  0.2243  0.6563
 3268SOL    HW121263   2.412   2.500   2.179 -0.5968  0.9404 -0.6891
 3268SOL    HW221264   2.521   2.571   2.245  0.0710 -1.1984 -1.1733
 3269SOL     OW21265   3.292   2.510   1.839 -0.8893 -0.1140 -0.1166
 3269SOL    HW121266   3.328   2.475   1.757 -2.8711 -0.8033 -0.7009
 3269SOL    HW221267   3.209   2.466   1.856 -1.0794  0.2668 -0.0531
 3270SOL     OW21268   1.237   0.486  15.775  0.1552  0.2767  0.1074
 3270SOL    HW121269   1.173   0.447  15.835 -0.9420  0.5643 -0.8759
 3270SOL    HW221270   1.305   0.518  15.834  1.3619  1.0261 -1.6872
 3271SOL     OW21271   3.460   2.351   2.626  0.3873 -0.1741  0.6997
 3271SOL    HW121272   3.545   2.315   2.650  0.3701 -0.7907 -0.1693
 3271SOL    HW221273   3.462   2.439   2.665  1.6366 -0.9006  2.2522
 3272SOL     OW21274   0.946   4.408   5.126  0.1764 -0.1866  0.3252
 3272SOL    HW121275   1.016   4.348   5.099 -0.2001 -0.8647  0.8465
 3272SOL    HW221276   0.962   4.478   5.063 -0.6370  0.8933  1.3350
 3273SOL     OW21277   4.529   1.426   0.934  0.0004  0.1933  0.4282
 3273SOL    HW121278   4.447   1.413   0.981  0.0322 -0.2561  0.3611
 3273SOL    HW221279   4.507   1.452   0.845  0.1085  0.5526  0.5073
 3274SOL     OW21280   1.139   3.469  13.397 -0.1041 -0.3266  0.6040
 3274SOL    HW121281   1.051   3.438  13.375  0.3344 -0.5345 -0.8700
 3274SOL    HW221282   1.193   3.395  13.425  1.5908  0.8655  0.4868
 3275SOL     OW21283   2.648   4.065  11.556  0.0956 -0.7570  0.1901
 3275SOL    HW121284   2.603   4.150  11.557 -2.6745 -2.2327  1.3215
 3275SOL    HW221285   2.668   4.043  11.647  1.5739 -2.1287 -0.4728
 3276SOL     OW21286   1.705   2.391  13.752  0.9546  0.4381  0.1203
 3276SOL    HW121287   1.779   2.398  13.813  1.1611 -1.8550  0.1094
 3276SOL    HW221288   1.735   2.447  13.680  3.2615  0.4246  1.0789
 3277SOL     OW21289   1.864   1.283  11.624 -0.0897 -0.1861  0.0148
 3277SOL    HW121290   1.902   1.321  11.545 -0.2237  0.5402  0.3058
 3277SOL    HW221291   1.796   1.349  11.639  0.7160  0.5969  0.2101
 3278SOL     OW21292   4.320   2.335   2.953  0.1497  0.6118 -0.4762
 3278SOL    HW121293   4.313   2.294   2.867  2.4043  1.8944 -1.2736
 3278SOL    HW221294   4.234   2.307   2.986 -0.3568  1.7334 -0.8636
 3279SOL     OW21295   3.258   2.889  17.537  0.3934 -0.3124 -0.0550
 3279SOL    HW121296   3.258   2.821  17.604  2.2032  0.3608  0.6465
 3279SOL    HW221297   3.343   2.877  17.494 -0.2326 -0.4820 -1.2270
 3280SOL     OW21298   3.345   1.166  16.372 -0.0987 -0.6228  0.0502
 3280SOL    HW121299   3.282   1.190  16.304  0.0091  0.7211  0.4249
 3280SOL    HW221300   3.353   1.073  16.352  1.0397 -0.4723 -0.1953
 3281SOL     OW21301   1.605   3.801   0.592  0.2603 -0.7753  0.1936
 3281SOL    HW121302   1.602   3.853   0.512 -0.5841 -1.2551 -0.0908
 3281SOL    HW221303   1.680   3.844   0.634  2.0676 -0.9133 -2.9300
 3282SOL     OW21304   0.574   1.097  12.644  0.0498 -0.3157 -0.2109
 3282SOL    HW121305   0.625   1.028  12.602  0.6254 -0.2524  0.3924
 3282SOL    HW221306   0.627   1.176  12.629 -0.6338  0.2078  0.1158
 3283SOL     OW21307   2.770   3.671   3.249 -0.5768 -0.1408 -0.0462
 3283SOL    HW121308   2.713   3.594   3.259  0.8451 -0.8783  2.4305
 3283SOL    HW221309   2.708   3.741   3.227 -1.3563 -0.3779  1.3633
 3284SOL     OW21310   0.271   3.731   9.091  0.7580  0.0366  0.4755
 3284SOL    HW121311   0.318   3.672   9.149  0.6529  0.4950  1.0250
 3284SOL    HW221312   0.307   3.698   9.009 -0.4290  2.9773 -1.2547
 3285SOL     OW21313   2.749   1.852   5.994 -0.1489 -0.5210 -0.4087
 3285SOL    HW121314   2.788   1.841   6.080 -4.8583 -1.9041  1.5992
 3285SOL    HW221315   2.786   1.936   5.967 -0.8147  0.0676  0.5140
 3286SOL     OW21316   2.998   4.051  17.277 -0.4744 -0.4554 -0.1404
 3286SOL    HW121317   2.958   4.093  17.201 -1.2285 -2.5809 -0.9186
 3286SOL    HW221318   2.916   4.031  17.323 -1.5921 -0.1479 -1.9973
 3287SOL     OW21319   3.905   2.752   9.973  0.8939  0.4352 -0.2932
 3287SOL    HW121320   3.896   2.771   9.880  1.5056  0.4199 -0.3553
 3287SOL    HW221321   3.862   2.667   9.972  1.3297  0.1979  0.8720
 3288SOL     OW21322   0.661   0.054   3.714  0.1775 -0.2156  0.0476
 3288SOL    HW121323   0.634   0.006   3.792  0.7154  1.8676  1.5259
 3288SOL    HW221324   0.646   4.719   3.637  2.1658 -1.2656  0.4391
 3289SOL     OW21325   2.285   0.531  12.732 -0.1977 -0.5651 -0.3921
 3289SOL    HW121326   2.311   0.596  12.666 -0.5754 -1.4587 -1.4194
 3289SOL    HW221327   2.253   0.464  12.671  1.5083 -1.4965 -0.2650
 3290SOL     OW21328   1.861   3.867   5.715 -0.1778  0.2229 -0.0473
 3290SOL    HW121329   1.778   3.839   5.677 -0.7380 -0.9269  2.0415
 3290SOL    HW221330   1.929   3.827   5.661  1.1405 -0.8951  2.4391
 3291SOL     OW21331   0.187   4.347   8.840 -0.3909 -1.0316 -0.2051
 3291SOL    HW121332   0.277   4.320   8.861 -1.2129 -3.2186  0.4739
 3291SOL    HW221333   0.154   4.348   8.929 -0.4148 -2.8403 -0.1916
 3292SOL     OW21334   1.539   3.690   1.307  0.0435  0.3143 -0.2513
 3292SOL    HW121335   1.500   3.771   1.274 -3.8304 -0.9933  1.1103
 3292SOL    HW221336   1.469   3.649   1.359  0.1693  2.8092  1.9305
 3293SOL     OW21337   4.432   2.261  17.354  0.6896 -0.6163 -0.1905
 3293SOL    HW121338   4.426   2.282  17.261  0.8126 -0.0803 -0.0722
 3293SOL    HW221339   4.417   2.342  17.401  0.9279 -0.5982 -0.1435
 3294SOL     OW21340   2.265   3.692   5.696  0.0903 -0.5222  0.4346
 3294SOL    HW121341   2.328   3.760   5.718 -0.7287  0.5467 -0.5445
 3294SOL    HW221342   2.219   3.669   5.777 -3.4148 -1.4002 -1.7858
 3295SOL     OW21343   3.321   1.865   6.117  0.1427  0.3733  0.3515
 3295SOL    HW121344   3.293   1.893   6.204  1.5236  2.1295  0.2194
 3295SOL    HW221345   3.293   1.773   6.116  1.3819 -0.0048  0.5424
 3296SOL     OW21346   2.386   2.443   8.235 -0.3171 -0.3800 -0.4791
 3296SOL    HW121347   2.369   2.428   8.328 -3.6056 -1.3047 -1.2112
 3296SOL    HW221348   2.298   2.472   8.211 -0.4342  1.7172  2.5775
 3297SOL     OW21349   3.943   3.393   6.162 -0.8231 -0.3477 -0.0736
 3297SOL    HW121350   3.872   3.456   6.179  0.0105  0.2847  1.0350
 3297SOL    HW221351   3.958   3.409   6.069  0.2179 -0.1771  0.1329
 3298SOL     OW21352   4.103   0.874   2.230  0.1642 -0.0677 -0.0831
 3298SOL    HW121353   4.134   0.943   2.171  3.7719 -0.3148  1.5594
 3298SOL    HW221354   4.190   0.854   2.264 -0.7286 -0.2766  2.0812
 3299SOL     OW21355   4.147   3.927   8.516 -0.0097 -0.0903 -0.0289
 3299SOL    HW121356   4.235   3.961   8.528  0.8686 -2.5720  0.5635
 3299SOL    HW221357   4.099   3.954   8.595 -1.2296 -0.1415 -0.7424
 3300SOL     OW21358   3.480   3.225   7.956 -0.1720  0.1856  0.5164
 3300SOL    HW121359   3.396   3.270   7.945 -0.2513 -0.4150 -1.4461
 3300SOL    HW221360   3.454   3.164   8.025 -0.0101 -0.2274  0.2177
 3301SOL     OW21361   4.279   4.047   6.456 -0.1195  0.1056 -0.4340
 3301SOL    HW121362   4.373   4.035   6.440  0.1111  0.8649  0.3687
 3301SOL    HW221363   4.271   4.082   6.544  1.5967  0.1766 -0.2923
 3302SOL     OW21364   4.040   1.475   3.691 -0.1769 -0.5134 -0.1003
 3302SOL    HW121365   4.064   1.428   3.611  0.1520 -1.9712  0.8347
 3302SOL    HW221366   4.115   1.531   3.708  0.8455 -2.3578  1.4604
 3303SOL     OW21367   3.596   4.416  16.521  0.0020 -0.4312 -0.0008
 3303SOL    HW121368   3.562   4.327  16.534 -0.8631 -0.2824 -1.2432
 3303SOL    HW221369   3.672   4.399  16.465 -0.3289  0.1210 -0.6105
 3304SOL     OW21370   0.833   4.624   1.652  0.1499 -0.1475 -0.5599
 3304SOL    HW121371   0.913   4.657   1.692 -0.1719 -0.8310  0.6391
 3304SOL    HW221372   0.879   4.557   1.600 -0.4802 -2.1523  1.4642
 3305SOL     OW21373   2.763   1.288   2.246 -0.3002 -0.1697  0.0683
 3305SOL    HW121374   2.747   1.335   2.328  0.8495  0.6700 -0.1855
 3305SOL    HW221375   2.696   1.333   2.194  0.0506  0.4280  0.1274
 3306SOL     OW21376   2.713   3.170   8.617  0.1083  0.3997 -0.4714
 3306SOL    HW121377   2.773   3.135   8.551 -0.0266 -0.5647 -0.0761
 3306SOL    HW221378   2.778   3.223   8.663  0.1512  1.2039 -1.4580
 3307SOL     OW21379   2.067   0.346   0.895  0.2004 -0.5773  0.3156
 3307SOL    HW121380   2.128   0.358   0.822  1.1859  1.4985  1.4650
 3307SOL    HW221381   2.075   0.252   0.909  2.2743 -0.1750  1.8313
 3308SOL     OW21382   3.482   0.142  16.874 -0.4980  0.1139 -0.0581
 3308SOL    HW121383   3.459   0.051  16.858 -2.0522  0.7268 -1.3072
 3308SOL    HW221384   3.494   0.139  16.968  0.7693  0.8529 -0.1906
 3309SOL     OW21385   0.518   3.363   8.953  0.6570 -0.1629  0.0166
 3309SOL    HW121386   0.486   3.293   8.897 -0.2669  2.7893 -3.1593
 3309SOL    HW221387   0.582   3.309   8.998  1.2351  0.4721 -0.0385
 3310SOL     OW21388   0.978   1.199   6.089  0.0782 -0.6332  0.4893
 3310SOL    HW121389   0.939   1.136   6.150 -0.6626 -1.5473 -0.9348
 3310SOL    HW221390   0.988   1.276   6.145  1.2331 -0.4614  0.0517
 3311SOL     OW21391   4.023   0.714   8.867  0.3461 -0.6410 -0.0680
 3311SOL    HW121392   4.053   0.678   8.784  0.3541 -1.4995  0.3086
 3311SOL    HW221393   3.945   0.660   8.882 -0.0975 -0.4281 -1.6593
 3312SOL     OW21394   1.218   0.362  16.901 -0.5680  0.5801  0.7301
 3312SOL    HW121395   1.248   0.400  16.983  1.4835 -0.2342  0.3440
 3312SOL    HW221396   1.290   0.401  16.851 -1.0050 -0.6679 -0.8653
 3313SOL     OW21397   0.918   2.390   9.252  0.2025  0.6462 -0.0011
 3313SOL    HW121398   0.875   2.323   9.305  0.0358 -1.2771 -2.5582
 3313SOL    HW221399   0.948   2.329   9.185  0.0619 -0.8043  1.2815
 3314SOL     OW21400   3.592   1.884   6.175  0.0295 -0.5320  0.2823
 3314SOL    HW121401   3.498   1.873   6.158  0.2043 -0.9308 -0.4159
 3314SOL    HW221402   3.584   1.924   6.262 -1.5252 -1.8872  0.7614
 3315SOL     OW21403   4.323   2.004   4.473  0.0789  0.0454  0.1698
 3315SOL    HW121404   4.394   1.942   4.452 -0.4504 -0.7021  0.5851
 3315SOL    HW221405   4.357   2.033   4.557  1.7164 -0.2804 -0.3738
 3316SOL     OW21406   3.292   3.942  16.683  0.4298  0.1349 -0.0527
 3316SOL    HW121407   3.326   3.860  16.647 -1.1973 -1.0825  1.1955
 3316SOL    HW221408   3.258   3.923  16.770 -1.1162  2.7249 -0.0834
 3317SOL     OW21409   4.227   1.272   5.167  0.2534  0.3395 -0.4280
 3317SOL    HW121410   4.212   1.227   5.084 -1.7816 -0.6107  0.4487
 3317SOL    HW221411   4.153   1.332   5.169  0.0071  0.0737 -1.6625
 3318SOL     OW21412   2.395   1.838   9.265  0.7501 -0.1934 -0.1460
 3318SOL    HW121413   2.331   1.886   9.318  1.1972 -0.1094  0.3161
 3318SOL    HW221414   2.475   1.883   9.293  0.3659  0.3187  0.1220
 3319SOL     OW21415   1.977   0.466   8.205 -0.3300  0.1788 -0.3737
 3319SOL    HW121416   2.003   0.525   8.134 -1.0053 -1.1560 -1.7276
 3319SOL    HW221417   1.905   0.520   8.237 -1.1630  0.2225 -2.3504
 3320SOL     OW21418   1.451   2.930   7.498  0.1260 -0.2073  0.5955
 3320SOL    HW121419   1.382   2.931   7.431  0.8081  1.4354 -0.0793
 3320SOL    HW221420   1.402   2.938   7.579 -0.9447 -1.3819  0.0768
 3321SOL     OW21421   4.238   3.622   3.004  0.3609 -1.0609 -0.8031
 3321SOL    HW121422   4.185   3.564   2.949 -3.5866  1.8870 -0.0731
 3321SOL    HW221423   4.300   3.665   2.944 -1.2236  1.3123 -0.7428
 3322SOL     OW21424   3.414   4.016  15.751  0.5632 -0.5594  0.4636
 3322SOL    HW121425   3.431   4.005  15.657 -1.1320 -0.8256  0.1880
 3322SOL    HW221426   3.355   3.940  15.761  0.3616 -0.3158  1.0875
 3323SOL     OW21427   3.183   1.051   1.305 -0.5759 -0.1298  0.3937
 3323SOL    HW121428   3.124   1.090   1.369 -1.6001  0.4886 -0.9107
 3323SOL    HW221429   3.128   1.070   1.229 -0.3164 -1.5429 -0.1641
 3324SOL     OW21430   2.485   0.315   6.926 -0.0871  0.0583  0.4339
 3324SOL    HW121431   2.570   0.348   6.897 -1.6611  1.1281 -2.9796
 3324SOL    HW221432   2.504   0.305   7.019  2.6605 -1.9108 -0.3592
 3325SOL     OW21433   0.349   1.244   6.108 -0.2191  0.2112  0.6682
 3325SOL    HW121434   0.402   1.165   6.100  0.7141  0.7325  1.6856
 3325SOL    HW221435   0.311   1.232   6.195 -1.7585 -2.0532 -0.3403
 3326SOL     OW21436   2.078   3.246   1.533  0.3760  0.5230  0.4351
 3326SOL    HW121437   2.167   3.271   1.508  0.8970 -0.2191  1.5529
 3326SOL    HW221438   2.091   3.161   1.574  2.0626  0.7757  0.4092
 3327SOL     OW21439   2.586   4.604   8.735 -0.2268 -0.0878  0.0445
 3327SOL    HW121440   2.533   4.595   8.814  0.9359 -0.1832  0.8212
 3327SOL    HW221441   2.577   4.699   8.722 -0.9774 -0.1634  0.0541
 3328SOL     OW21442   0.024   1.892   6.304  0.0625  0.0019 -0.3033
 3328SOL    HW121443   4.690   1.818   6.330 -0.2440  0.4406  0.3073
 3328SOL    HW221444   0.113   1.858   6.302 -0.6655 -1.8408 -1.4314
 3329SOL     OW21445   0.379   4.030  10.604 -0.2210 -0.5682 -0.2964
 3329SOL    HW121446   0.442   3.963  10.579  1.9193  1.3277 -0.0461
 3329SOL    HW221447   0.315   3.976  10.650  0.6685 -0.5171  0.9902
 3330SOL     OW21448   3.990   4.469   4.422  0.2230 -0.2622 -0.1230
 3330SOL    HW121449   4.021   4.392   4.470 -1.5963  0.0895  1.6109
 3330SOL    HW221450   3.993   4.444   4.330 -1.6738 -0.3307 -0.1632
 3331SOL     OW21451   3.548   2.905   6.596 -0.2612 -0.7147 -0.1786
 3331SOL    HW121452   3.528   2.905   6.502  0.0273 -0.9364 -0.2407
 3331SOL    HW221453   3.640   2.879   6.588  0.2305  1.7255 -2.6181
 3332SOL     OW21454   0.967   0.292   2.508  0.5861 -0.4468  0.0049
 3332SOL    HW121455   0.873   0.289   2.525  0.2713  1.8660 -1.4409
 3332SOL    HW221456   0.986   0.218   2.451 -0.8683 -0.6943 -0.1615
 3333SOL     OW21457   1.617   2.779  12.261 -0.0967 -0.3052  0.4399
 3333SOL    HW121458   1.540   2.734  12.296  1.0196 -1.4123  1.4393
 3333SOL    HW221459   1.680   2.774  12.332  2.6133 -0.6555 -2.0106
 3334SOL     OW21460   1.966   2.426  15.263 -0.7802 -0.2240 -0.1428
 3334SOL    HW121461   1.898   2.391  15.205  2.8434  1.7690 -5.5440
 3334SOL    HW221462   1.955   2.361  15.333  0.2440 -0.4816 -0.2291
 3335SOL     OW21463   4.626   3.041   6.209  0.1754  0.1795  0.1874
 3335SOL    HW121464   4.618   2.962   6.156  0.2900 -0.0478  0.5100
 3335SOL    HW221465   4.627   3.008   6.299 -1.3054  2.3511  0.9994
 3336SOL     OW21466   1.050   2.140   3.779  0.1666 -0.2821  0.4454
 3336SOL    HW121467   1.057   2.115   3.687 -3.0461 -4.5823  1.3783
 3336SOL    HW221468   1.110   2.214   3.772  1.7623 -1.6369 -0.1203
 3337SOL     OW21469   4.465   4.216   2.833 -0.3662 -0.6020 -0.2591
 3337SOL    HW121470   4.542   4.235   2.887  1.1395  0.5892 -2.8496
 3337SOL    HW221471   4.445   4.305   2.806  1.8402 -0.6099 -1.8747
 3338SOL     OW21472   1.061   2.899   8.591 -0.3998 -0.6453  0.5509
 3338SOL    HW121473   1.028   2.927   8.676  0.8361 -1.5709  1.3423
 3338SOL    HW221474   1.047   2.804   8.583 -0.6451 -0.6479  1.0768
 3339SOL     OW21475   2.349   3.666  17.579 -0.0355  0.2720  0.5289
 3339SOL    HW121476   2.313   3.614  17.507  2.0169  0.0108 -0.3077
 3339SOL    HW221477   2.311   3.751  17.560 -0.2674  0.0075 -0.2133
 3340SOL     OW21478   3.504   0.028   2.747  0.0740  0.4027 -0.3855
 3340SOL    HW121479   3.462   0.000   2.666 -1.3323  0.6886  0.2543
 3340SOL    HW221480   3.581   4.693   2.759 -0.1920 -0.6191 -3.4249
 3341SOL     OW21481   1.122   0.094  16.964 -0.0079 -0.3315  0.2242
 3341SOL    HW121482   1.196   0.153  16.949 -0.5022  0.4744  0.9508
 3341SOL    HW221483   1.155   0.038  17.035 -0.3449 -1.4501 -0.5038
 3342SOL     OW21484   4.705   0.995   4.324  0.1985 -0.4209  0.5559
 3342SOL    HW121485   4.688   1.063   4.389  3.9804 -1.4640  2.6013
 3342SOL    HW221486   4.657   1.035   4.251  0.6385 -0.8858  0.0074
 3343SOL     OW21487   0.412   3.553  10.607 -0.3955  0.6616 -0.2607
 3343SOL    HW121488   0.329   3.570  10.562  0.9421  0.5583 -2.7759
 3343SOL    HW221489   0.392   3.550  10.700  1.8468 -0.8933  0.1549
 3344SOL     OW21490   1.443   3.085  14.758 -0.4102 -0.1161  0.0996
 3344SOL    HW121491   1.497   3.011  14.787 -0.4287 -0.3317 -0.4291
 3344SOL    HW221492   1.516   3.145  14.738  0.4064 -0.8331  0.9225
 3345SOL     OW21493   3.629   0.664   0.343  0.0835 -0.4503 -0.2540
 3345SOL    HW121494   3.715   0.705   0.335  0.3904 -1.3410 -1.5543
 3345SOL    HW221495   3.571   0.703   0.278  3.2503  2.1102 -1.5197
 3346SOL     OW21496   3.877   1.254   8.103  0.0847 -0.2874  0.2731
 3346SOL    HW121497   3.898   1.329   8.159  3.3431  0.3821 -1.8672
 3346SOL    HW221498   3.952   1.195   8.097  0.2625 -0.3492  2.8958
 3347SOL     OW21499   1.017   1.477   4.258 -1.1789  0.7949 -0.0874
 3347SOL    HW121500   1.002   1.569   4.236  0.9004  1.1332 -0.1231
 3347SOL    HW221501   1.096   1.494   4.310 -0.8791  1.0451 -0.6223
 3348SOL     OW21502   1.713   0.435  16.743  0.4907 -0.5919  0.7099
 3348SOL    HW121503   1.674   0.357  16.783  0.2496 -0.1773  1.2741
 3348SOL    HW221504   1.699   0.491  16.819  1.2752  2.7394 -1.6012
 3349SOL     OW21505   1.551   0.532   8.762  0.1791  0.3427  0.5343
 3349SOL    HW121506   1.581   0.623   8.763 -0.8033  0.6763 -0.1624
 3349SOL    HW221507   1.629   0.479   8.746 -0.1973 -1.0122  3.0574
 3350SOL     OW21508   4.239   2.546  10.800 -0.4053  0.1909  0.3037
 3350SOL    HW121509   4.303   2.476  10.805 -1.4376 -0.8250 -0.5418
 3350SOL    HW221510   4.161   2.513  10.844 -2.9729 -1.4557 -5.4032
 3351SOL     OW21511   3.783   1.969  17.472 -0.5915 -0.3821  0.1658
 3351SOL    HW121512   3.767   2.050  17.424  0.7828  0.2100  0.7401
 3351SOL    HW221513   3.693   1.943  17.493 -0.8482  0.4285  0.0686
 3352SOL     OW21514   4.384   0.520   6.935  0.2076 -0.0142  0.1820
 3352SOL    HW121515   4.465   0.570   6.928  0.6245 -0.7343 -0.1801
 3352SOL    HW221516   4.413   0.430   6.918  0.3984  0.0684  0.0694
 3353SOL     OW21517   4.126   4.511   0.783  0.3573 -0.6533  0.2521
 3353SOL    HW121518   4.031   4.514   0.797  0.6263  0.3744  1.7899
 3353SOL    HW221519   4.156   4.548   0.865  1.2492  0.5471 -0.6182
 3354SOL     OW21520   1.211   4.231  16.380  0.1920  0.3102  0.3887
 3354SOL    HW121521   1.138   4.262  16.433  0.7614  1.9377  0.2205
 3354SOL    HW221522   1.257   4.309  16.349 -1.2361  1.0099  0.0607
 3355SOL     OW21523   1.626   4.351   0.190 -0.3225 -0.4713  0.2935
 3355SOL    HW121524   1.557   4.289   0.215 -1.1107  0.6656  0.9306
 3355SOL    HW221525   1.656   4.321   0.104 -2.2901 -2.2602  0.2380
 3356SOL     OW21526   1.698   3.502   6.514 -0.2979 -0.1580 -0.1019
 3356SOL    HW121527   1.772   3.447   6.540 -0.2788 -0.9287 -1.7993
 3356SOL    HW221528   1.668   3.528   6.601  0.5588 -0.4661  0.2778
 3357SOL     OW21529   1.620   2.700  11.455  0.1849  0.0836 -0.0152
 3357SOL    HW121530   1.643   2.664  11.540  1.5041  1.0069  0.0296
 3357SOL    HW221531   1.541   2.653  11.430 -0.3651  0.6091  0.7739
 3358SOL     OW21532   1.653   2.498   2.664  0.4362 -0.0496 -0.0110
 3358SOL    HW121533   1.643   2.449   2.583  0.9036 -0.8612  0.4264
 3358SOL    HW221534   1.579   2.475   2.720  0.1155  1.3451  0.1464
 3359SOL     OW21535   4.621   1.668   1.732  0.3032 -0.1399 -0.2044
 3359SOL    HW121536   4.560   1.636   1.799 -0.6355 -0.5363 -1.2605
 3359SOL    HW221537   4.690   1.602   1.740  1.3676  1.1934  1.7235
 3360SOL     OW21538   3.024   4.499   7.963 -0.7755  0.2160  0.7177
 3360SOL    HW121539   2.973   4.579   7.946 -0.3188  0.0582 -1.4406
 3360SOL    HW221540   2.983   4.435   7.905  0.4511 -0.9335  1.1350
 3361SOL     OW21541   2.572   0.927   5.551  0.0536 -0.0475  0.1937
 3361SOL    HW121542   2.563   1.014   5.590  1.2989 -0.2894  1.0023
 3361SOL    HW221543   2.595   0.952   5.461 -1.9222 -0.5327 -0.4556
 3362SOL     OW21544   3.789   2.064   6.936  0.1726  0.5381  0.9414
 3362SOL    HW121545   3.854   1.995   6.948  0.2486  0.1108 -1.8444
 3362SOL    HW221546   3.823   2.129   6.998 -2.0980  0.3238  2.3872
 3363SOL     OW21547   3.729   2.248  16.448  0.1077 -0.0936  0.2706
 3363SOL    HW121548   3.786   2.235  16.372 -2.0897 -1.9331 -1.0424
 3363SOL    HW221549   3.787   2.222  16.520 -1.1138 -1.1095  0.8874
 3364SOL     OW21550   3.419   2.668  11.387 -0.0457  0.0135  0.2705
 3364SOL    HW121551   3.513   2.658  11.369 -0.1361  0.4409 -0.4789
 3364SOL    HW221552   3.418   2.691  11.480  1.2560 -1.9859  0.7756
 3365SOL     OW21553   3.042   4.147  13.874  0.5839  0.5638 -0.0571
 3365SOL    HW121554   2.950   4.124  13.879  0.5489  0.5030 -0.9771
 3365SOL    HW221555   3.076   4.060  13.851 -0.1375  0.8794 -2.3193
 3366SOL     OW21556   2.338   2.568   3.652  0.0318 -0.2539 -0.2375
 3366SOL    HW121557   2.245   2.590   3.662  0.2222 -0.6271  2.5070
 3366SOL    HW221558   2.373   2.654   3.629  0.9690 -0.5763  0.0189
 3367SOL     OW21559   4.310   1.078  13.023  0.0883  0.4548 -0.1869
 3367SOL    HW121560   4.299   1.143  13.093 -0.4747 -1.1908  1.2484
 3367SOL    HW221561   4.279   1.001  13.070  0.6545 -0.1277 -0.7694
 3368SOL     OW21562   2.944   1.142   1.899 -0.3397 -0.1701 -0.4353
 3368SOL    HW121563   2.914   1.100   1.979 -1.0554  0.9142 -0.1291
 3368SOL    HW221564   3.036   1.119   1.885 -0.3873 -0.5862 -0.0408
 3369SOL     OW21565   1.383   1.087  14.759 -0.0504 -0.2111  0.2137
 3369SOL    HW121566   1.418   1.097  14.848 -0.5794 -1.7536  0.5975
 3369SOL    HW221567   1.343   1.171  14.737 -2.1832 -1.5205 -0.7556
 3370SOL     OW21568   3.539   0.615   2.243  0.0076 -0.1526  0.1033
 3370SOL    HW121569   3.608   0.649   2.186  0.4160 -0.9696  0.1027
 3370SOL    HW221570   3.537   0.684   2.309 -0.9241  0.5560 -0.6616
 3371SOL     OW21571   0.149   1.053  10.646 -0.0757  0.6401  0.3722
 3371SOL    HW121572   0.237   1.055  10.682 -0.7293 -1.5903  2.1103
 3371SOL    HW221573   0.119   0.974  10.691  0.7978 -0.1997 -0.5119
 3372SOL     OW21574   2.056   1.017  12.209  0.7015  0.1955  0.7742
 3372SOL    HW121575   2.037   1.035  12.301 -0.2884 -0.9518  0.7991
 3372SOL    HW221576   2.128   1.078  12.193 -0.5247  1.7412  1.1571
 3373SOL     OW21577   4.698   4.386  10.500 -0.3238 -0.2312 -0.3165
 3373SOL    HW121578   0.059   4.361  10.456  0.9019  3.0027  0.1171
 3373SOL    HW221579   0.009   4.462  10.548 -0.3625  0.7814 -1.9184
 3374SOL     OW21580   1.037   0.517   7.559 -0.5227 -0.3592 -0.2827
 3374SOL    HW121581   1.032   0.481   7.647  0.4538 -0.8684 -0.4327
 3374SOL    HW221582   1.059   0.435   7.514  0.7044 -0.1470 -0.0806
 3375SOL     OW21583   2.384   0.583   3.487 -0.7051  0.5017  0.1727
 3375SOL    HW121584   2.291   0.604   3.484 -1.1922 -1.4720  1.3089
 3375SOL    HW221585   2.413   0.600   3.397 -1.1308 -0.6454 -0.1846
 3376SOL     OW21586   3.529   0.543  14.498  0.2927  0.1530  0.0556
 3376SOL    HW121587   3.580   0.482  14.446  0.2958 -1.1810  1.6280
 3376SOL    HW221588   3.441   0.512  14.474  0.7011  0.4887 -1.8671
 3377SOL     OW21589   2.628   3.491   7.659 -0.4828 -0.2013 -0.2224
 3377SOL    HW121590   2.653   3.428   7.592 -0.7446 -0.1660 -0.3552
 3377SOL    HW221591   2.533   3.495   7.646 -0.4814 -0.9633 -0.4347
 3378SOL     OW21592   2.338   2.759  10.147 -0.0807  0.2536  0.4586
 3378SOL    HW121593   2.261   2.770  10.202  1.3118  0.5105  2.3610
 3378SOL    HW221594   2.399   2.801  10.208 -2.2524 -0.9079  3.3715
 3379SOL     OW21595   2.503   0.606   3.907 -0.0998  0.0991  1.0476
 3379SOL    HW121596   2.503   0.515   3.936  0.2614  0.6845  2.8833
 3379SOL    HW221597   2.444   0.651   3.968 -1.3973 -0.7610  0.4245
 3380SOL     OW21598   4.081   0.112   0.031 -0.5065  0.2684 -0.0700
 3380SOL    HW121599   4.166   0.071   0.047 -2.3636 -3.4018  0.3346
 3380SOL    HW221600   4.058   0.060  17.639  2.1970  1.1120 -1.4556
 3381SOL     OW21601   3.955   0.488   0.200  0.2211  0.0347  0.1330
 3381SOL    HW121602   3.944   0.547   0.275 -0.3623 -1.2900  1.0900
 3381SOL    HW221603   4.007   0.415   0.234  2.7302  2.1805  0.8710
 3382SOL     OW21604   0.391   0.980   4.044 -0.1625 -0.3633  0.2169
 3382SOL    HW121605   0.335   0.944   4.113 -1.8862  1.2655 -0.3120
 3382SOL    HW221606   0.331   1.034   3.992 -0.5996  1.6376  2.8257
 3383SOL     OW21607   1.274   2.424   8.226  0.0298  0.4520 -0.2376
 3383SOL    HW121608   1.200   2.460   8.176 -1.9776 -1.9557  1.0208
 3383SOL    HW221609   1.296   2.492   8.290  0.1551  2.4408 -2.3980
 3384SOL     OW21610   2.274   2.678  13.252  0.1694 -0.0675 -0.4111
 3384SOL    HW121611   2.308   2.728  13.326  0.7271  0.9812 -1.3951
 3384SOL    HW221612   2.308   2.592  13.278 -0.3364  0.0465  0.6571
 3385SOL     OW21613   4.664   2.219  13.839  0.2776  0.1626  0.1760
 3385SOL    HW121614   4.648   2.309  13.869 -0.4242 -0.1420  0.7110
 3385SOL    HW221615   0.035   2.212  13.866  0.6815  1.1563 -0.9126
 3386SOL     OW21616   1.551   0.493   4.143 -0.0922 -0.0294 -0.7009
 3386SOL    HW121617   1.592   0.453   4.066  0.9097 -0.8683  0.2758
 3386SOL    HW221618   1.588   0.580   4.130  1.3847 -0.3777  1.2832
 3387SOL     OW21619   0.894   1.422   5.688 -0.1266  0.2033 -0.4895
 3387SOL    HW121620   0.987   1.404   5.677 -0.2468 -1.8140  1.6775
 3387SOL    HW221621   0.901   1.511   5.653  2.3274  0.0138 -0.4587
 3388SOL     OW21622   2.030   2.739   9.561 -0.4737  0.6057 -0.4652
 3388SOL    HW121623   1.998   2.733   9.651  0.8308 -1.6286 -0.1677
 3388SOL    HW221624   1.985   2.668   9.516 -0.3594  0.0409  0.3127
 3389SOL     OW21625   3.799   2.169   1.253 -0.0473  0.5458 -0.3512
 3389SOL    HW121626   3.714   2.128   1.267  0.4763 -0.6503 -0.6075
 3389SOL    HW221627   3.855   2.105   1.297 -0.7354  0.7827  0.8802
 3390SOL     OW21628   2.576   0.364   8.041 -0.3209 -0.2294 -0.4378
 3390SOL    HW121629   2.561   0.426   7.969  0.2959 -1.7510 -1.8799
 3390SOL    HW221630   2.672   0.361   8.048 -0.3929  1.4671  1.2989
 3391SOL     OW21631   1.072   3.269   0.271  0.3171 -0.1506 -0.1320
 3391SOL    HW121632   1.053   3.177   0.290  0.2725  0.0001  0.5676
 3391SOL    HW221633   0.985   3.303   0.247  0.9127  0.8542 -0.8914
 3392SOL     OW21634   4.708   2.665   1.084 -0.0156  0.1529 -0.7004
 3392SOL    HW121635   4.615   2.650   1.102 -0.1538  0.9611 -0.7353
 3392SOL    HW221636   0.007   2.590   1.028 -0.2488 -1.9423  2.0498
 3393SOL     OW21637   0.384   2.040  10.656 -0.1528 -0.0320  0.0033
 3393SOL    HW121638   0.464   2.010  10.612 -0.2552 -0.3041  0.0068
 3393SOL    HW221639   0.424   2.125  10.675 -1.2412  0.0627  1.8719
 3394SOL     OW21640   1.756   3.776  10.249  0.1713  0.4182  0.3875
 3394SOL    HW121641   1.794   3.735  10.172  1.8270  1.3147  0.7386
 3394SOL    HW221642   1.838   3.768  10.298  0.1229 -0.3060  0.3534
 3395SOL     OW21643   4.589   2.733   2.440 -0.3280  0.0385  0.1710
 3395SOL    HW121644   4.653   2.803   2.455  2.1023 -2.5841  2.1333
 3395SOL    HW221645   4.642   2.669   2.393 -0.1448  1.4804 -1.5769
 3396SOL     OW21646   1.180   1.858  14.941 -0.2754 -0.3252 -0.2044
 3396SOL    HW121647   1.120   1.834  15.011 -0.3114  2.0301  0.5834
 3396SOL    HW221648   1.129   1.865  14.860  1.2576  0.2983 -1.1248
 3397SOL     OW21649   3.925   3.335  15.330 -0.0309  0.0182  0.1016
 3397SOL    HW121650   3.880   3.327  15.414 -0.7302  1.1433 -0.1582
 3397SOL    HW221651   3.882   3.412  15.293  0.8194 -0.0263 -0.9838
 3398SOL     OW21652   2.675   0.353  12.949 -0.3319 -0.8985  0.5980
 3398SOL    HW121653   2.762   0.394  12.953 -0.4403 -0.3472 -2.6003
 3398SOL    HW221654   2.703   0.280  13.005  0.5980  0.4353  1.8757
 3399SOL     OW21655   2.433   4.610   8.949  0.3145  0.0725  0.9700
 3399SOL    HW121656   2.424   4.700   8.979 -0.3951 -0.0280  1.0574
 3399SOL    HW221657   2.397   4.554   9.017 -1.8313 -0.0948 -0.3344
 3400SOL     OW21658   3.363   0.640  13.249  0.3026  0.0647 -0.3145
 3400SOL    HW121659   3.362   0.717  13.305 -1.2782  0.6563 -1.1739
 3400SOL    HW221660   3.381   0.684  13.166 -0.1271  0.6645 -0.0925
 3401SOL     OW21661   2.973   0.794   5.041  1.0066  0.0682 -0.2004
 3401SOL    HW121662   2.954   0.793   5.134 -0.3496  0.0152 -0.4874
 3401SOL    HW221663   3.049   0.738   5.058 -0.0390 -1.9295 -2.0273
 3402SOL     OW21664   2.358   2.356  11.805 -0.3291  0.2047 -0.0672
 3402SOL    HW121665   2.309   2.397  11.733 -0.0117 -1.3565 -1.1762
 3402SOL    HW221666   2.309   2.278  11.831  0.7453  0.0042  1.3044
 3403SOL     OW21667   1.514   1.792   3.560  0.2117 -0.2319 -0.2491
 3403SOL    HW121668   1.547   1.779   3.649  1.5465  0.9868 -0.5801
 3403SOL    HW221669   1.496   1.886   3.573  0.7476 -0.4468  2.0382
 3404SOL     OW21670   2.056   4.636   4.383 -0.2196  0.4770 -0.1317
 3404SOL    HW121671   1.979   4.586   4.408  1.4118 -1.7535  0.4633
 3404SOL    HW221672   2.095   4.567   4.329  1.4055  1.5406 -0.3233
 3405SOL     OW21673   1.165   0.592   5.947  0.0446 -0.0172 -0.0457
 3405SOL    HW121674   1.170   0.553   6.035  0.7839  0.5685  0.1685
 3405SOL    HW221675   1.240   0.650   5.948 -0.6331  0.8759 -0.5981
 3406SOL     OW21676   1.463   2.698   6.355 -0.0100 -0.3787  0.2029
 3406SOL    HW121677   1.518   2.714   6.431 -0.8676  0.3386  0.6835
 3406SOL    HW221678   1.476   2.604   6.343  1.4441 -0.0921 -0.5125
 3407SOL     OW21679   3.434   1.416   4.694 -0.1743  0.4611 -0.2766
 3407SOL    HW121680   3.399   1.329   4.713 -0.0737  0.3611 -0.5553
 3407SOL    HW221681   3.508   1.415   4.756  0.2165 -0.8457 -0.7608
 3408SOL     OW21682   1.401   2.353   4.577 -0.3309 -0.5712 -0.3141
 3408SOL    HW121683   1.354   2.436   4.574  1.4914  0.4560 -0.2000
 3408SOL    HW221684   1.444   2.351   4.663 -1.5792  0.4267  0.3205
 3409SOL     OW21685   0.910   0.595  14.002 -0.4154  0.1340 -0.2172
 3409SOL    HW121686   0.940   0.565  14.088  1.8934 -0.0946 -1.1035
 3409SOL    HW221687   0.817   0.571  14.005 -0.5746  0.8362  0.5210
 3410SOL     OW21688   0.123   4.310   0.556 -0.0879  0.5263 -0.0418
 3410SOL    HW121689   0.097   4.374   0.489 -3.4850 -0.3634  0.4386
 3410SOL    HW221690   0.158   4.240   0.501  1.0092 -0.1456  1.5306
 3411SOL     OW21691   1.817   2.941  13.360  0.1390 -0.0177 -0.0042
 3411SOL    HW121692   1.808   2.989  13.278  3.2015  0.3790 -0.1268
 3411SOL    HW221693   1.867   2.866  13.330 -0.4159 -1.0144  1.5561
 3412SOL     OW21694   2.010   1.069   8.832 -0.3650  0.6835 -0.5738
 3412SOL    HW121695   1.921   1.098   8.850  0.4637  2.6588  0.4749
 3412SOL    HW221696   2.022   1.016   8.910 -2.1037  0.0308 -0.7620
 3413SOL     OW21697   0.582   4.019  11.864 -0.3461 -0.5300  0.3123
 3413SOL    HW121698   0.631   3.944  11.828 -0.6367  0.3045 -1.8093
 3413SOL    HW221699   0.617   4.092  11.813 -0.3980  0.2425  1.3850
 3414SOL     OW21700   3.848   2.018   1.907  0.1714 -0.0391  0.6732
 3414SOL    HW121701   3.822   1.995   1.818 -1.0047  1.4697  0.6252
 3414SOL    HW221702   3.903   2.093   1.887 -2.6980  1.8025 -0.2644
 3415SOL     OW21703   4.396   2.910   2.806  0.0384 -0.0004  0.2657
 3415SOL    HW121704   4.461   2.957   2.754  2.4106 -3.1004  0.3719
 3415SOL    HW221705   4.364   2.987   2.852 -0.6106  0.4402 -0.9300
 3416SOL     OW21706   0.045   4.117   8.462  0.5358 -0.3122 -0.5285
 3416SOL    HW121707   0.096   4.119   8.381  1.9917 -0.7513  0.3898
 3416SOL    HW221708   0.060   4.205   8.496 -1.2291 -0.4256  0.5400
 3417SOL     OW21709   1.765   3.993   3.740 -0.0657 -0.2521 -0.0936
 3417SOL    HW121710   1.794   3.937   3.669 -0.2116  0.1003 -0.4331
 3417SOL    HW221711   1.681   4.022   3.706 -0.1809 -1.8158 -1.1171
 3418SOL     OW21712   4.676   2.171   6.369  0.1132 -0.7105 -0.2768
 3418SOL    HW121713   4.720   2.087   6.356  1.4901  0.4991 -3.3524
 3418SOL    HW221714   4.660   2.158   6.463  0.8569  1.6932  0.1681
 3419SOL     OW21715   0.636   0.268   4.297  0.0496 -0.3450 -0.8351
 3419SOL    HW121716   0.660   0.360   4.310  0.0899 -0.6074  1.0696
 3419SOL    HW221717   0.703   0.237   4.235  0.6951 -0.5621 -0.0375
 3420SOL     OW21718   4.120   2.544   6.654 -0.1444  0.3888 -0.1158
 3420SOL    HW121719   4.060   2.601   6.703 -1.2633 -0.8971  0.0427
 3420SOL    HW221720   4.099   2.453   6.675  1.0381 -0.3445 -2.0791
 3421SOL     OW21721   2.840   1.306   0.768  0.2760 -0.3614  0.0623
 3421SOL    HW121722   2.821   1.239   0.835  1.2332 -1.6881 -0.9823
 3421SOL    HW221723   2.760   1.358   0.768  1.1381  0.9497 -0.5445
 3422SOL     OW21724   1.457   1.290   2.258 -0.5371  0.0090 -0.5035
 3422SOL    HW121725   1.376   1.341   2.254 -1.0785 -0.8004  0.3299
 3422SOL    HW221726   1.427   1.214   2.208 -0.2834 -1.0272  0.9341
 3423SOL     OW21727   0.360   0.527  10.415 -0.0796 -0.3999 -0.1600
 3423SOL    HW121728   0.455   0.539  10.406 -0.3371  0.0395 -2.1934
 3423SOL    HW221729   0.323   0.594  10.357 -0.0250  0.2096  0.5047
 3424SOL     OW21730   1.541   3.368  12.361 -0.5520  0.7999 -0.0422
 3424SOL    HW121731   1.625   3.358  12.315 -1.0369 -0.7141 -0.5933
 3424SOL    HW221732   1.511   3.277  12.370  0.8720  0.5148  1.8209
 3425SOL     OW21733   4.086   2.015   9.058  0.0721 -0.1802  0.7582
 3425SOL    HW121734   4.080   1.927   9.095  1.2502 -1.3409 -1.8440
 3425SOL    HW221735   4.149   2.054   9.118  0.7306 -0.6345  0.3626
 3426SOL     OW21736   1.448   0.342   5.339  0.7715  0.4348 -0.2353
 3426SOL    HW121737   1.376   0.386   5.293  1.6180  0.7124 -1.3095
 3426SOL    HW221738   1.400   0.331   5.421 -1.4897  0.1544 -1.5681
 3427SOL     OW21739   3.785   2.002   5.996 -0.6363 -0.0260 -0.1724
 3427SOL    HW121740   3.698   1.998   6.036 -1.1164  1.0230 -1.1089
 3427SOL    HW221741   3.845   2.045   6.056  0.6739  0.2404 -1.6649
 3428SOL     OW21742   0.519   0.040   2.063  0.0439 -0.6373  0.0082
 3428SOL    HW121743   0.562   4.694   2.010  1.2379  0.7121 -0.7136
 3428SOL    HW221744   0.489   4.717   2.143 -0.4744 -0.2504  0.0289
 3429SOL     OW21745   2.401   2.703  13.022  0.0161 -0.3338 -0.0267
 3429SOL    HW121746   2.358   2.687  13.106  0.3213 -0.6022  0.0770
 3429SOL    HW221747   2.377   2.621  12.979 -0.5536  0.5861 -1.4523
 3430SOL     OW21748   3.915   3.221  13.704 -0.6094  0.4996  0.1384
 3430SOL    HW121749   3.900   3.126  13.707  2.4357  0.0039 -0.8882
 3430SOL    HW221750   4.008   3.226  13.726 -0.5632 -2.1598  0.6004
 3431SOL     OW21751   1.598   0.853   7.935 -0.4766  0.2264  0.4993
 3431SOL    HW121752   1.659   0.919   7.901  1.5554 -2.4595 -1.0086
 3431SOL    HW221753   1.656   0.821   8.005  2.3983  0.5914 -1.7097
 3432SOL     OW21754   1.000   0.464   9.531  0.3447  0.2220 -0.0930
 3432SOL    HW121755   0.904   0.472   9.532  0.3610  0.9021 -2.8550
 3432SOL    HW221756   1.022   0.526   9.600 -0.1229 -1.8075  1.8693
 3433SOL     OW21757   0.524   1.870   5.210 -0.0819 -0.1719 -0.7785
 3433SOL    HW121758   0.481   1.935   5.266  1.0368 -1.0742  1.1349
 3433SOL    HW221759   0.452   1.843   5.154  0.6824 -0.1837 -1.7555
 3434SOL     OW21760   0.743   0.566  17.329 -0.4610  0.6315 -1.4326
 3434SOL    HW121761   0.800   0.606  17.395 -0.8900  1.1555 -1.3832
 3434SOL    HW221762   0.784   0.480  17.338 -0.4735  0.6968 -0.7390
 3435SOL     OW21763   0.071   1.486  14.071  0.1432 -0.0942 -0.0887
 3435SOL    HW121764   0.055   1.450  13.984 -0.1985  0.5787 -0.2983
 3435SOL    HW221765   0.138   1.433  14.115 -0.4638 -0.8575 -0.0800
 3436SOL     OW21766   3.446   0.286   6.680  0.5904  0.1054  0.3131
 3436SOL    HW121767   3.419   0.228   6.751 -0.2561  1.4607  1.0988
 3436SOL    HW221768   3.402   0.365   6.711 -0.9401 -0.9264  0.7283
 3437SOL     OW21769   1.414   1.905   4.570  0.0794  0.0955  0.0561
 3437SOL    HW121770   1.334   1.904   4.623  0.5420  2.3133  0.8323
 3437SOL    HW221771   1.429   1.812   4.583 -0.5564 -0.3092 -2.1906
 3438SOL     OW21772   3.268   1.547  12.617  0.1490  0.2395  0.5880
 3438SOL    HW121773   3.215   1.491  12.559  0.8623  1.1173 -0.9006
 3438SOL    HW221774   3.221   1.630  12.605  1.4758  0.9024  0.0232
 3439SOL     OW21775   0.844   0.680   8.433 -0.1461 -1.0241  0.0635
 3439SOL    HW121776   0.815   0.664   8.523 -0.7335  2.0661  0.3955
 3439SOL    HW221777   0.779   0.713   8.371  0.4716  0.0727 -0.0020
 3440SOL     OW21778   1.136   1.981   2.306 -0.6634  0.3672  0.0844
 3440SOL    HW121779   1.218   2.001   2.260 -0.5103 -0.0993  0.1556
 3440SOL    HW221780   1.081   1.993   2.228 -0.4845 -0.2334 -0.1389
 3441SOL     OW21781   0.172   2.508   5.940 -0.0993 -0.0218  0.3483
 3441SOL    HW121782   0.260   2.501   5.902 -0.2549  1.9584 -0.3273
 3441SOL    HW221783   0.200   2.516   6.032  2.1941  1.1993 -0.4610
 3442SOL     OW21784   0.835   3.334   7.651 -0.4858  0.8798  0.1459
 3442SOL    HW121785   0.773   3.406   7.664  0.5756  2.1646 -1.8345
 3442SOL    HW221786   0.859   3.329   7.743  3.1246 -1.4101 -0.9357
 3443SOL     OW21787   1.515   2.858  12.015  0.1078 -0.0663  0.6861
 3443SOL    HW121788   1.567   2.843  12.094  1.1708  4.0965  0.7818
 3443SOL    HW221789   1.426   2.843  12.047  0.1215  0.0221  0.7669
 3444SOL     OW21790   1.613   1.872   3.961  0.3463 -0.0985  0.3536
 3444SOL    HW121791   1.645   1.942   3.904 -1.5054 -0.3411 -0.9877
 3444SOL    HW221792   1.608   1.914   4.047  0.0479  0.0431  0.2677
 3445SOL     OW21793   4.058   2.215   0.011  0.3038 -0.3982  0.6589
 3445SOL    HW121794   4.122   2.171  17.639  1.1635  1.0138  0.5454
 3445SOL    HW221795   4.040   2.147   0.077  2.4259 -0.3204  1.3120
 3446SOL     OW21796   4.638   3.364  17.075 -0.2948  0.9255 -0.4609
 3446SOL    HW121797   4.549   3.351  17.043 -0.2068 -0.9062  0.0293
 3446SOL    HW221798   4.690   3.377  16.995  0.2036 -0.5091 -0.3789
 3447SOL     OW21799   2.286   0.337  16.322 -0.1482 -0.1529 -0.2312
 3447SOL    HW121800   2.305   0.388  16.244  0.6127  0.8677  0.6158
 3447SOL    HW221801   2.315   0.389  16.397  0.7190 -2.3908  0.9885
 3448SOL     OW21802   1.952   2.924   5.567  0.0254  0.4602  0.1571
 3448SOL    HW121803   2.031   2.873   5.552  0.6590  0.8104  2.3104
 3448SOL    HW221804   1.895   2.859   5.608  0.5778 -0.1858 -0.1105
 3449SOL     OW21805   1.120   0.897  11.595 -0.2127 -0.3727 -0.4148
 3449SOL    HW121806   1.094   0.814  11.635 -1.9786 -0.3563 -1.5059
 3449SOL    HW221807   1.144   0.869  11.506 -1.7550  2.4303 -1.7309
 3450SOL     OW21808   1.451   1.189  11.616 -0.1426 -0.9338 -0.2121
 3450SOL    HW121809   1.433   1.166  11.524  0.0446 -2.4976  0.1366
 3450SOL    HW221810   1.508   1.115  11.638  0.1744 -1.0363 -1.3346
 3451SOL     OW21811   2.332   3.546   5.466 -0.4424  0.4602 -0.0304
 3451SOL    HW121812   2.311   3.457   5.494  1.4343 -0.5064 -1.7221
 3451SOL    HW221813   2.316   3.600   5.543 -2.2434 -0.2015  0.0434
 3452SOL     OW21814   0.907   0.800   5.718  0.2684 -0.1966  0.2047
 3452SOL    HW121815   0.921   0.787   5.812  3.3310 -1.3482 -0.4122
 3452SOL    HW221816   0.815   0.826   5.714  0.1751 -0.1585  2.5054
 3453SOL     OW21817   0.385   1.253  14.989 -0.4083 -0.0259  0.0720
 3453SOL    HW121818   0.400   1.163  15.016  0.6016  0.1908  0.2355
 3453SOL    HW221819   0.461   1.302  15.019 -0.7200  0.4215  0.1437
 3454SOL     OW21820   2.427   3.913   8.380 -0.4428  0.4494  0.1580
 3454SOL    HW121821   2.436   3.886   8.472  1.7883  2.3371  0.4893
 3454SOL    HW221822   2.520   3.899   8.359 -0.2022  1.8165  0.3346
 3455SOL     OW21823   3.450   4.258   7.675  0.4083  0.5905  0.1443
 3455SOL    HW121824   3.406   4.200   7.613  4.0859 -1.4169 -0.5298
 3455SOL    HW221825   3.404   4.338   7.647  1.9388  0.0231 -3.9561
 3456SOL     OW21826   3.717   2.868  10.791 -0.8558 -0.1698  0.6121
 3456SOL    HW121827   3.685   2.944  10.840  0.5039  1.6273 -1.3231
 3456SOL    HW221828   3.632   2.828  10.776  0.1164 -1.8508 -0.4655
 3457SOL     OW21829   1.924   1.157  10.018  0.5038 -0.1252  0.0411
 3457SOL    HW121830   1.927   1.168  10.113  1.2228  2.1003 -0.2385
 3457SOL    HW221831   1.833   1.131  10.003  0.3369 -0.4655  1.6181
 3458SOL     OW21832   4.662   2.039   8.404  0.1385  0.3105 -0.3563
 3458SOL    HW121833   4.670   1.985   8.326 -0.6470 -1.5355  0.8594
 3458SOL    HW221834   4.701   2.120   8.371  2.6091 -1.5442 -1.9914
 3459SOL     OW21835   0.463   0.660   8.049  0.3624 -0.3762 -0.5615
 3459SOL    HW121836   0.489   0.598   7.981 -0.2640  0.4302 -1.5242
 3459SOL    HW221837   0.368   0.665   8.047  0.2739 -1.5166  0.5459
 3460SOL     OW21838   3.716   1.160  14.625 -0.0261  0.2438  0.2262
 3460SOL    HW121839   3.727   1.110  14.544  0.4932 -1.5648  1.4195
 3460SOL    HW221840   3.648   1.120  14.679  2.1660  0.1900  2.9274
 3461SOL     OW21841   1.841   1.165   6.096 -0.2051 -0.3469  0.3577
 3461SOL    HW121842   1.757   1.138   6.057  0.8864 -0.8913 -1.6033
 3461SOL    HW221843   1.805   1.153   6.184  1.7302  1.1512  1.3229
 3462SOL     OW21844   3.004   1.600  10.136  0.0350  0.5759 -0.0619
 3462SOL    HW121845   2.960   1.615  10.052  0.2175  0.4140 -0.1867
 3462SOL    HW221846   3.058   1.527  10.104 -0.2231 -0.7638  2.5619
 3463SOL     OW21847   0.505   1.800   0.057 -0.0982 -0.6075  0.5660
 3463SOL    HW121848   0.488   1.893   0.040 -2.0524 -1.1941 -0.6884
 3463SOL    HW221849   0.587   1.789   0.104  0.1633 -2.5450 -0.3336
 3464SOL     OW21850   0.460   2.317   8.931 -0.1585 -0.0282  0.0633
 3464SOL    HW121851   0.377   2.347   8.895  0.1133  1.1599  0.4409
 3464SOL    HW221852   0.442   2.223   8.924 -0.3597 -0.2511  3.6652
 3465SOL     OW21853   4.227   4.267   9.325 -0.1880 -0.1649 -0.1891
 3465SOL    HW121854   4.151   4.308   9.368  0.7376  0.0960  1.2054
 3465SOL    HW221855   4.192   4.178   9.330  0.2259 -0.2410  1.4711
 3466SOL     OW21856   0.484   2.872  15.223 -0.0337 -0.3529  0.0897
 3466SOL    HW121857   0.496   2.964  15.200 -0.9318 -0.1696  0.3621
 3466SOL    HW221858   0.389   2.866  15.222 -0.1785  1.4060  2.8162
 3467SOL     OW21859   4.026   1.691  15.516 -0.3127 -0.3141  0.3397
 3467SOL    HW121860   4.040   1.739  15.597 -0.1064 -1.4188  0.9626
 3467SOL    HW221861   4.111   1.719  15.481 -0.2335 -0.9473  0.0124
 3468SOL     OW21862   4.639   1.197   7.443 -0.5904 -0.2909  0.2389
 3468SOL    HW121863   4.663   1.276   7.395  0.9996 -1.1360 -0.3710
 3468SOL    HW221864   0.001   1.153   7.467 -0.6161 -0.0560  0.7643
 3469SOL     OW21865   2.884   2.632   3.009  0.1491 -0.1064  0.1361
 3469SOL    HW121866   2.823   2.706   3.004  1.4262  0.8307 -1.5658
 3469SOL    HW221867   2.825   2.565   2.974  2.0185 -2.6446  1.9385
 3470SOL     OW21868   0.700   4.613   3.483  0.5178 -0.2848  0.3483
 3470SOL    HW121869   0.715   4.689   3.427 -0.3765 -2.0843 -2.3394
 3470SOL    HW221870   0.616   4.587   3.447  0.1956  0.4451  0.5709
 3471SOL     OW21871   2.797   2.466   5.276 -0.4365 -0.0699  0.1934
 3471SOL    HW121872   2.882   2.505   5.253 -1.7017  2.0273 -0.9638
 3471SOL    HW221873   2.743   2.535   5.237 -1.7185 -0.9429  0.4325
 3472SOL     OW21874   2.088   4.462   9.141  0.5775 -0.4756 -0.5790
 3472SOL    HW121875   2.139   4.524   9.089  1.8738 -0.4720  0.6942
 3472SOL    HW221876   2.117   4.389   9.087  1.5023 -1.8168  1.7234
 3473SOL     OW21877   3.011   2.219   4.275  0.1117 -0.4976 -0.5668
 3473SOL    HW121878   2.937   2.192   4.221  2.1477 -1.3468 -2.9913
 3473SOL    HW221879   2.981   2.302   4.311 -0.2124 -1.8713  2.2772
 3474SOL     OW21880   0.779   2.665   1.229 -0.8461  0.1009 -0.1813
 3474SOL    HW121881   0.751   2.742   1.279 -2.3244 -1.0826  0.8342
 3474SOL    HW221882   0.833   2.613   1.289 -1.0207 -0.0570 -0.1614
 3475SOL     OW21883   0.562   2.620   4.820 -0.6318 -0.4251 -0.5327
 3475SOL    HW121884   0.490   2.682   4.810  1.8729  2.5856 -0.1566
 3475SOL    HW221885   0.515   2.544   4.854  0.6257 -0.8177  0.3551
 3476SOL     OW21886   3.173   0.782  11.068  0.4824  0.0405 -0.5959
 3476SOL    HW121887   3.250   0.727  11.085  2.6390  3.2300 -0.0220
 3476SOL    HW221888   3.214   0.866  11.048  4.2507 -2.4750 -3.4212
 3477SOL     OW21889   3.343   2.090  12.469  0.0819 -0.6451  0.3543
 3477SOL    HW121890   3.359   2.183  12.486 -0.8131  0.1662 -3.2179
 3477SOL    HW221891   3.383   2.060  12.550 -0.9126 -1.0955  0.6733
 3478SOL     OW21892   2.642   3.573   3.620  0.1593  0.0931 -0.6166
 3478SOL    HW121893   2.724   3.583   3.667 -0.5447 -0.1891  0.6615
 3478SOL    HW221894   2.615   3.660   3.592 -2.4102 -0.0816  1.3767
 3479SOL     OW21895   1.642   3.109   6.047  0.1157  1.2646  0.3332
 3479SOL    HW121896   1.554   3.082   6.073  0.1275  1.9076  1.0379
 3479SOL    HW221897   1.625   3.198   6.015  0.5599  0.9060 -0.8755
 3480SOL     OW21898   2.696   2.968   2.023  0.1039 -0.0827 -0.2668
 3480SOL    HW121899   2.679   3.018   2.103 -1.4074 -2.0766  0.6642
 3480SOL    HW221900   2.788   2.992   2.010 -0.1577  0.9911 -0.1162
 3481SOL     OW21901   3.296   3.844   6.624 -0.5151  0.1110 -0.4881
 3481SOL    HW121902   3.232   3.876   6.560 -1.5819 -1.1402 -0.0407
 3481SOL    HW221903   3.276   3.751   6.629  0.0205  0.1659  2.9102
 3482SOL     OW21904   1.589   4.001   6.839 -0.3170 -0.1361 -0.1310
 3482SOL    HW121905   1.550   3.956   6.764  3.0638 -1.8146 -0.8812
 3482SOL    HW221906   1.591   4.088   6.798  1.5759  1.1095  2.5644
 3483SOL     OW21907   2.844   1.677   5.034 -0.0475 -0.7351 -0.1065
 3483SOL    HW121908   2.907   1.650   5.100  1.7255  2.3288 -0.5278
 3483SOL    HW221909   2.755   1.674   5.069  0.1077  2.7910  0.6014
 3484SOL     OW21910   1.733   3.237   2.158 -0.0247  0.0956  0.0001
 3484SOL    HW121911   1.675   3.238   2.234 -2.5288 -3.0433 -1.8731
 3484SOL    HW221912   1.679   3.203   2.086 -2.6903  3.7045  0.2557
 3485SOL     OW21913   3.137   0.101  11.314 -0.3899  0.3865  0.3850
 3485SOL    HW121914   3.147   0.187  11.274 -2.7402  0.0140 -0.9968
 3485SOL    HW221915   3.058   0.115  11.367 -0.2582 -0.8709  0.9149
 3486SOL     OW21916   1.934   2.642   8.697 -0.5028  0.2002 -1.2402
 3486SOL    HW121917   1.936   2.649   8.793 -1.3448  1.1563 -1.2901
 3486SOL    HW221918   1.899   2.556   8.675 -1.9089  0.3431  0.4360
 3487SOL     OW21919   1.066   1.101   5.486  0.5157  0.6466  0.8385
 3487SOL    HW121920   1.066   1.048   5.407  0.2033 -1.2053  2.0868
 3487SOL    HW221921   0.979   1.140   5.475 -0.0315 -0.7629  0.2502
 3488SOL     OW21922   1.689   3.133   3.160 -0.0993  0.1343 -0.6165
 3488SOL    HW121923   1.614   3.098   3.207  0.4259 -0.2949 -0.0969
 3488SOL    HW221924   1.679   3.223   3.192  0.1387  0.2481 -0.8571
 3489SOL     OW21925   0.599   0.789   8.852 -0.7740  0.5903 -0.7658
 3489SOL    HW121926   0.612   0.884   8.856  0.3749  0.4341 -0.8312
 3489SOL    HW221927   0.585   0.770   8.759  1.9157 -0.9382 -0.8474
 3490SOL     OW21928   0.693   4.258   6.954 -0.2202 -0.8380  0.1875
 3490SOL    HW121929   0.627   4.259   7.024 -1.2911  0.8266 -0.8371
 3490SOL    HW221930   0.680   4.346   6.918  0.8665  0.1970  2.2752
 3491SOL     OW21931   1.128   3.203   2.919  0.5722 -0.2702 -0.2247
 3491SOL    HW121932   1.198   3.184   2.982  1.0039 -2.2530 -1.3067
 3491SOL    HW221933   1.148   3.288   2.881 -1.2859  0.5743  0.6510
 3492SOL     OW21934   3.665   3.495   3.812 -0.0880 -0.2970 -0.0359
 3492SOL    HW121935   3.585   3.532   3.848  0.4884 -0.2355  1.1840
 3492SOL    HW221936   3.666   3.539   3.727 -0.3541  1.5225  0.8982
 3493SOL     OW21937   0.588   3.305   1.204 -0.5389  0.2624 -0.2879
 3493SOL    HW121938   0.657   3.288   1.268 -0.6094  0.5434 -0.1359
 3493SOL    HW221939   0.617   3.386   1.161 -0.6016  1.4266  1.8181
 3494SOL     OW21940   3.377   3.706   4.903  0.1629 -0.9503  0.3852
 3494SOL    HW121941   3.304   3.748   4.947  0.7624  2.0607 -1.4385
 3494SOL    HW221942   3.374   3.754   4.820 -0.5970 -0.8158  0.4865
 3495SOL     OW21943   0.142   0.955   8.866 -0.0635 -0.6416  0.2894
 3495SOL    HW121944   0.102   1.042   8.854  0.0852 -0.6323 -0.1425
 3495SOL    HW221945   0.135   0.924   8.775 -0.2925 -3.2356  1.2131
 3496SOL     OW21946   3.132   1.837   4.992 -0.0661 -0.0054  0.0091
 3496SOL    HW121947   3.154   1.924   4.958 -1.2521  0.8823  1.4659
 3496SOL    HW221948   3.162   1.782   4.920 -1.6154  1.6283 -1.8886
 3497SOL     OW21949   0.951   4.133   4.885  0.0570 -0.0639  0.1182
 3497SOL    HW121950   1.033   4.182   4.884 -0.7678  1.2980 -0.7475
 3497SOL    HW221951   0.957   4.083   4.804 -1.0463 -1.4968  0.9133
 3498SOL     OW21952   0.787   3.787  13.935 -0.0864  0.1763  0.1014
 3498SOL    HW121953   0.817   3.861  13.881  1.1699 -1.1838 -1.0508
 3498SOL    HW221954   0.776   3.838  14.015  1.0810 -0.2500  0.5409
 3499SOL     OW21955   3.544   3.124   5.023 -0.4710  0.1243  0.2093
 3499SOL    HW121956   3.612   3.094   4.962 -1.7938  0.4181 -1.4011
 3499SOL    HW221957   3.599   3.157   5.094 -0.5698 -1.6923  1.1303
 3500SOL     OW21958   2.244   2.484   9.637  0.0836 -0.5961  0.1240
 3500SOL    HW121959   2.152   2.468   9.621 -0.1553  0.8535  0.0494
 3500SOL    HW221960   2.245   2.524   9.724 -1.2279 -0.5541  0.1110
 3501SOL     OW21961   0.151   2.335   2.303  0.5992  0.8257 -0.6599
 3501SOL    HW121962   0.181   2.311   2.215 -0.6645  2.7827 -1.6296
 3501SOL    HW221963   0.212   2.288   2.359 -0.1089 -0.7017 -1.1722
 3502SOL     OW21964   0.694   1.718   7.650 -0.1404 -0.3066 -0.2971
 3502SOL    HW121965   0.776   1.674   7.629  0.3135 -0.0817  1.0120
 3502SOL    HW221966   0.685   1.710   7.745  2.5456  0.5053  0.0387
 3503SOL     OW21967   0.715   2.983  11.746 -0.2129  0.2023  0.3789
 3503SOL    HW121968   0.666   3.045  11.799 -3.0171 -1.3354 -0.4372
 3503SOL    HW221969   0.738   3.045  11.678  0.1833  0.5047  0.7854
 3504SOL     OW21970   1.329   0.519   3.999 -0.2080  0.7978  0.2285
 3504SOL    HW121971   1.402   0.503   4.058  1.9705 -1.2214 -3.0561
 3504SOL    HW221972   1.259   0.530   4.064 -2.2978  0.4093 -1.9214
 3505SOL     OW21973   1.601   0.790   5.824 -0.2590  0.2981 -0.0957
 3505SOL    HW121974   1.694   0.777   5.842 -0.3177 -0.5396 -0.4408
 3505SOL    HW221975   1.600   0.738   5.744  0.9158 -0.6940  0.5317
 3506SOL     OW21976   4.126   0.145  11.807  0.5076  0.1790 -0.1672
 3506SOL    HW121977   4.163   0.059  11.787  2.1981  0.3441  2.3882
 3506SOL    HW221978   4.184   0.189  11.745 -0.1987  0.8504 -0.3457
 3507SOL     OW21979   2.598   4.285  10.007  0.4563  0.5288  0.4316
 3507SOL    HW121980   2.611   4.345   9.934  0.1658  1.3291  1.0376
 3507SOL    HW221981   2.666   4.304  10.071 -0.5037  2.1406  0.9597
 3508SOL     OW21982   2.738   3.718   3.941  0.2675  0.6333 -0.2805
 3508SOL    HW121983   2.824   3.702   3.979  0.3249 -0.3054 -0.7934
 3508SOL    HW221984   2.747   3.806   3.904  0.4110  0.6723 -0.1525
 3509SOL     OW21985   3.550   1.634   3.423  0.5257 -0.5818  0.3470
 3509SOL    HW121986   3.642   1.646   3.447  0.2308  4.4172 -0.9761
 3509SOL    HW221987   3.535   1.727   3.402  1.3604  0.1417  2.8694
 3510SOL     OW21988   3.754   4.460   8.220  0.2782  0.3755 -0.7729
 3510SOL    HW121989   3.676   4.462   8.164 -1.4323  1.0649  1.6508
 3510SOL    HW221990   3.832   4.454   8.165  0.6268  1.1844 -0.3715
 3511SOL     OW21991   3.082   1.904   2.958 -0.3114 -1.0913 -0.2500
 3511SOL    HW121992   3.010   1.897   3.019  0.1053 -0.8498  0.2697
 3511SOL    HW221993   3.063   1.829   2.901  0.4597 -0.3535 -1.4836
 3512SOL     OW21994   4.318   2.450   2.185 -0.8807  0.0920 -0.2354
 3512SOL    HW121995   4.410   2.424   2.185 -1.4220 -1.7707  2.2375
 3512SOL    HW221996   4.323   2.518   2.117  0.1754 -0.6655 -0.9205
 3513SOL     OW21997   2.715   3.540   4.409 -1.2070 -0.1949 -0.3293
 3513SOL    HW121998   2.619   3.538   4.407 -1.2221 -1.0535  1.1910
 3513SOL    HW221999   2.735   3.483   4.335 -0.3612 -0.7398  0.3102
 3514SOL     OW22000   0.192   2.329   4.540 -0.0778 -0.4806  0.1827
 3514SOL    HW122001   0.155   2.309   4.454 -0.8310  0.3562  0.3088
 3514SOL    HW222002   0.262   2.392   4.530  0.1315 -0.6781  0.3890
 3515SOL     OW22003   2.228   2.200   8.079  0.1926  0.2584 -0.1350
 3515SOL    HW122004   2.274   2.200   8.163  1.6466 -0.4715 -0.9273
 3515SOL    HW222005   2.152   2.146   8.103 -0.0234  0.9628  0.8057
 3516SOL     OW22006   1.090   0.644   8.994  0.2049 -0.0156 -0.7088
 3516SOL    HW122007   1.133   0.559   8.997  0.1869 -0.0865 -2.3315
 3516SOL    HW222008   1.028   0.638   9.068  0.8370  2.1189  0.0001
 3517SOL     OW22009   1.534   0.376   7.149  0.5310 -0.1230 -0.3816
 3517SOL    HW122010   1.600   0.365   7.080 -0.1228 -0.8694 -0.8916
 3517SOL    HW222011   1.457   0.354   7.097  0.9559  0.2085 -1.1684
 3518SOL     OW22012   1.946   1.494   7.155 -0.2424 -0.0882  0.1088
 3518SOL    HW122013   2.010   1.464   7.090 -0.1270  1.2388 -0.3783
 3518SOL    HW222014   1.886   1.420   7.167 -0.9131  0.7320  1.8590
 3519SOL     OW22015   3.533   2.896   7.394 -0.8530 -0.2293 -0.0092
 3519SOL    HW122016   3.453   2.918   7.440 -0.6554 -0.2025  0.3195
 3519SOL    HW222017   3.540   2.959   7.322  0.1721 -0.4626 -0.1157
 3520SOL     OW22018   1.707   4.220   6.680 -0.3643  0.6279  0.3496
 3520SOL    HW122019   1.751   4.266   6.751 -1.2600  1.1462  0.5610
 3520SOL    HW222020   1.780   4.171   6.641 -0.3629  0.6060  0.3800
 3521SOL     OW22021   3.773   4.563   6.976 -0.2399  0.3665 -0.0460
 3521SOL    HW122022   3.729   4.481   6.995 -0.0465  0.2321 -0.1699
 3521SOL    HW222023   3.730   4.622   7.037 -1.1952  0.1009 -0.4550
 3522SOL     OW22024   2.427   1.202   6.897  0.2253 -0.4717  0.4906
 3522SOL    HW122025   2.334   1.181   6.884  0.4464 -1.6637  0.8731
 3522SOL    HW222026   2.444   1.131   6.959 -0.6686 -1.1159 -0.0017
 3523SOL     OW22027   3.847   1.673  12.837  0.0250  0.5089  0.3514
 3523SOL    HW122028   3.876   1.701  12.924 -0.4727  0.1450  0.6308
 3523SOL    HW222029   3.763   1.719  12.834 -1.7374 -2.7426 -0.5999
 3524SOL     OW22030   3.245   3.057   3.674  0.9382 -0.4474 -0.5556
 3524SOL    HW122031   3.336   3.044   3.647  0.7491 -0.9298 -0.9520
 3524SOL    HW222032   3.218   2.970   3.702  0.3103 -0.0684  0.0231
 3525SOL     OW22033   1.538   0.825   7.270 -0.3738  0.3612  0.2487
 3525SOL    HW122034   1.530   0.909   7.225 -2.3641 -1.1173 -2.0946
 3525SOL    HW222035   1.518   0.764   7.200 -0.1012 -0.0450  0.5243
 3526SOL     OW22036   3.528   4.346  14.258  0.1480 -0.4018  0.6283
 3526SOL    HW122037   3.558   4.360  14.168 -2.3405  0.2043 -0.1066
 3526SOL    HW222038   3.533   4.251  14.270  1.0622 -0.2037  1.7166
 3527SOL     OW22039   3.130   1.559   8.519 -0.3288  0.4412 -0.2411
 3527SOL    HW122040   3.100   1.594   8.604  1.5023 -0.2058  0.6706
 3527SOL    HW222041   3.222   1.583   8.526 -0.2224  0.4422 -1.6553
 3528SOL     OW22042   1.218   0.030   3.893 -0.3451  0.5761  0.0542
 3528SOL    HW122043   1.314   0.028   3.888 -0.3652  0.3038 -0.2758
 3528SOL    HW222044   1.186   0.004   3.806  0.4120  2.0121 -0.6606
 3529SOL     OW22045   0.949   0.464   4.081 -0.1171  0.4676  0.0216
 3529SOL    HW122046   1.011   0.529   4.114  0.2417 -0.6743  1.5410
 3529SOL    HW222047   0.916   0.520   4.010  0.7600  2.4008  1.1297
 3530SOL     OW22048   1.181   3.336   9.757 -0.3448  0.5543 -0.6581
 3530SOL    HW122049   1.190   3.300   9.845  0.4025 -0.0524 -0.9786
 3530SOL    HW222050   1.086   3.346   9.759 -0.3617  0.2723  0.2458
 3531SOL     OW22051   3.585   2.790   8.287  0.7455 -0.0779 -0.3047
 3531SOL    HW122052   3.591   2.742   8.205  0.3402 -0.2620 -0.2305
 3531SOL    HW222053   3.495   2.787   8.322  1.1532 -1.2014  0.6523
 3532SOL     OW22054   1.057   4.641   2.851  0.5842 -0.5037  0.4033
 3532SOL    HW122055   1.101   0.005   2.862  3.1953 -1.5401 -1.8577
 3532SOL    HW222056   1.015   4.654   2.766 -1.7922  0.0250  1.6824
 3533SOL     OW22057   3.674   2.347   3.870 -0.2260 -0.4190 -0.4601
 3533SOL    HW122058   3.673   2.294   3.790 -1.1278  0.6953 -1.1999
 3533SOL    HW222059   3.586   2.334   3.904 -0.0318  0.5152  0.3947
 3534SOL     OW22060   1.485   1.881   1.626 -0.1082 -0.2220 -0.0384
 3534SOL    HW122061   1.572   1.884   1.586 -0.0945  1.1274  0.1035
 3534SOL    HW222062   1.440   1.852   1.547 -0.7892  0.3255  0.1580
 3535SOL     OW22063   0.761   3.947   6.634  0.3027 -0.3228 -0.4621
 3535SOL    HW122064   0.719   3.922   6.552  0.3794  1.1510 -0.9494
 3535SOL    HW222065   0.832   3.883   6.631  0.8378  0.1568  1.9592
 3536SOL     OW22066   1.205   4.295  10.955  0.3974 -0.1090  0.2120
 3536SOL    HW122067   1.145   4.369  10.965 -0.5701 -0.9496  0.6243
 3536SOL    HW222068   1.290   4.341  10.950  0.7906 -1.1077 -2.0645
 3537SOL     OW22069   2.737   2.998  16.524 -0.0550 -0.1366  0.1298
 3537SOL    HW122070   2.730   3.092  16.506  1.1939 -0.5227 -2.2437
 3537SOL    HW222071   2.804   2.985  16.457 -0.7906  0.2054 -0.6620
 3538SOL     OW22072   3.025   0.356   4.872 -0.0900 -0.2263  0.5038
 3538SOL    HW122073   3.056   0.439   4.837  3.6691 -2.2873 -1.0029
 3538SOL    HW222074   3.006   0.303   4.794 -0.2578 -0.1933  0.5204
 3539SOL     OW22075   2.653   4.049   6.567 -0.7713  0.5675  0.1818
 3539SOL    HW122076   2.670   4.087   6.653 -0.1520 -2.4300  1.3972
 3539SOL    HW222077   2.560   4.033   6.580 -0.8267  0.4585 -0.3549
 3540SOL     OW22078   1.546   1.842   3.159 -0.0796  0.2618 -0.2947
 3540SOL    HW122079   1.459   1.858   3.123 -0.8419 -1.7772  0.6467
 3540SOL    HW222080   1.563   1.929   3.195 -0.4426 -0.4072  1.4850
 3541SOL     OW22081   3.314   0.592   8.155 -0.6876 -0.2273  0.2617
 3541SOL    HW122082   3.234   0.544   8.175 -0.7937 -1.6365 -3.7658
 3541SOL    HW222083   3.285   0.656   8.090 -2.6032 -3.2397 -1.8347
 3542SOL     OW22084   3.752   1.609   6.607 -0.2447  0.4685 -0.2402
 3542SOL    HW122085   3.804   1.648   6.537  0.3543  0.6870  0.3331
 3542SOL    HW222086   3.723   1.529   6.564  2.5543 -0.2154 -0.8684
 3543SOL     OW22087   4.329   1.839   7.598  0.2788  0.3053  0.6442
 3543SOL    HW122088   4.328   1.927   7.635 -2.3966  1.0773 -1.2217
 3543SOL    HW222089   4.409   1.814   7.644  0.3018  0.4348  0.6729
 3544SOL     OW22090   3.821   4.520   0.802 -0.2255  0.1448  0.1485
 3544SOL    HW122091   3.765   4.540   0.727  2.4217 -1.2501 -2.1578
 3544SOL    HW222092   3.794   4.586   0.867  0.0670  1.1634 -0.7623
 3545SOL     OW22093   3.171   4.485   8.491  0.7372  0.2666  0.1452
 3545SOL    HW122094   3.250   4.539   8.485  0.1214  0.9718 -1.5614
 3545SOL    HW222095   3.152   4.494   8.585  2.4175  0.0143  0.5130
 3546SOL     OW22096   4.436   1.619   8.485 -0.1363 -0.1805  0.5651
 3546SOL    HW122097   4.455   1.643   8.395 -0.0021 -3.0584 -0.1775
 3546SOL    HW222098   4.522   1.645   8.519 -0.3596 -0.1008  1.0684
 3547SOL     OW22099   3.021   1.398   6.541 -0.5578 -0.0015 -0.4488
 3547SOL    HW122100   3.070   1.472   6.576  1.5722 -0.7254 -1.9013
 3547SOL    HW222101   2.959   1.448   6.488  0.4690  2.0669  0.3017
 3548SOL     OW22102   3.317   3.205  10.136  0.4826  0.0202 -0.2270
 3548SOL    HW122103   3.377   3.144  10.179 -0.5579 -0.5841  0.3674
 3548SOL    HW222104   3.339   3.175  10.047 -0.5856 -1.9058  0.1651
 3549SOL     OW22105   3.116   3.174  17.326 -0.0214 -0.0784 -0.3094
 3549SOL    HW122106   3.074   3.092  17.302  0.2812  0.0121 -1.1678
 3549SOL    HW222107   3.121   3.171  17.421  2.8919  0.8786 -0.4121
 3550SOL     OW22108   3.408   0.773  13.013  0.2298 -0.7114 -0.1834
 3550SOL    HW122109   3.473   0.822  12.963 -0.2548 -0.4064 -0.5114
 3550SOL    HW222110   3.331   0.829  13.002  0.7851  0.2160  0.6439
 3551SOL     OW22111   0.188   2.406   9.694  0.6628 -0.2302  0.2716
 3551SOL    HW122112   0.228   2.399   9.607 -0.0629 -2.5429  0.1142
 3551SOL    HW222113   0.263   2.384   9.749  0.7684  1.0325  0.6351
 3552SOL     OW22114   3.364   0.542   7.268  0.1440  0.3726 -0.1734
 3552SOL    HW122115   3.438   0.602   7.266 -1.6175  2.5602 -0.1809
 3552SOL    HW222116   3.304   0.581   7.204 -0.6887  0.3552  0.5995
 3553SOL     OW22117   3.839   2.441  14.275  0.5760  0.0329  0.1399
 3553SOL    HW122118   3.843   2.534  14.296  1.4958 -0.5041  2.2860
 3553SOL    HW222119   3.911   2.405  14.327  1.6832  2.7160  0.4572
 3554SOL     OW22120   4.422   0.488   4.913  0.0311 -0.4424 -0.2238
 3554SOL    HW122121   4.505   0.474   4.956  1.4150 -0.6575 -2.9305
 3554SOL    HW222122   4.448   0.517   4.825 -0.2351 -0.4459 -0.3062
 3555SOL     OW22123   0.178   1.476   4.376  0.0857 -0.3283 -0.1848
 3555SOL    HW122124   0.108   1.446   4.318 -1.2930  1.0772  0.7552
 3555SOL    HW222125   0.213   1.396   4.415  1.7206  0.9013  0.8437
 3556SOL     OW22126   3.245   2.634  11.160  0.0437 -0.5812 -0.1312
 3556SOL    HW122127   3.296   2.647  11.240 -1.3210  1.7680  0.3532
 3556SOL    HW222128   3.194   2.555  11.175 -0.4911 -0.4722 -1.3918
 3557SOL     OW22129   3.623   3.719   9.332  0.4943  0.0595  0.1189
 3557SOL    HW122130   3.561   3.714   9.259  3.0650 -0.2090 -2.0570
 3557SOL    HW222131   3.573   3.667   9.395  0.3967  0.0974  0.0738
 3558SOL     OW22132   1.137   0.854   3.950 -0.0385  0.4422 -0.3151
 3558SOL    HW122133   1.051   0.895   3.933 -0.0499  1.4651  2.2025
 3558SOL    HW222134   1.163   0.833   3.860  0.4549 -4.2361  0.9511
 3559SOL     OW22135   2.369   2.785  12.289  0.1962  0.1443 -0.0300
 3559SOL    HW122136   2.425   2.859  12.312  1.1234 -0.4951 -0.2363
 3559SOL    HW222137   2.318   2.826  12.219  1.8264 -2.8138 -2.9337
 3560SOL     OW22138   3.705   0.092   5.497  0.0670  0.2712  0.8250
 3560SOL    HW122139   3.646   0.132   5.561 -0.5029  1.3471 -0.3722
 3560SOL    HW222140   3.787   0.141   5.502 -0.1762  0.9288 -2.2952
 3561SOL     OW22141   1.329   2.640   7.871  0.8049 -0.0297  0.4203
 3561SOL    HW122142   1.313   2.714   7.813 -3.0554 -0.7708  0.4876
 3561SOL    HW222143   1.283   2.687   7.941  1.2186  1.4175 -0.2783
 3562SOL     OW22144   2.802   0.766   3.971  0.4384 -0.7709  0.0126
 3562SOL    HW122145   2.724   0.711   3.963 -1.0063  1.5507 -1.9660
 3562SOL    HW222146   2.820   0.788   3.880 -0.2371  0.0009  0.0553
 3563SOL     OW22147   3.081   3.683  14.792  0.2782  0.1275 -0.1958
 3563SOL    HW122148   3.033   3.765  14.802 -1.8793 -1.3498  1.6944
 3563SOL    HW222149   3.162   3.713  14.752  2.0292 -1.8446  1.8123
 3564SOL     OW22150   0.654   2.740   8.065 -1.0584 -0.3442  0.3184
 3564SOL    HW122151   0.672   2.649   8.088 -0.6588 -0.3814 -0.1494
 3564SOL    HW222152   0.561   2.752   8.084 -1.3815 -0.9317 -0.8909
 3565SOL     OW22153   1.627   2.873   1.414  0.9547  0.4451 -0.8227
 3565SOL    HW122154   1.549   2.860   1.359 -0.8270 -1.0461  2.0769
 3565SOL    HW222155   1.647   2.964   1.391  0.8781  0.3895 -1.1159
 3566SOL     OW22156   1.159   0.123   6.375  0.4611  0.2297  0.0141
 3566SOL    HW122157   1.179   0.109   6.283 -0.0476 -1.0090  0.0842
 3566SOL    HW222158   1.245   0.111   6.416  1.5936  0.2576 -2.3762
 3567SOL     OW22159   0.683   2.597   4.443 -0.2348  0.1706  0.4484
 3567SOL    HW122160   0.715   2.656   4.511  0.9193 -0.2251  0.2482
 3567SOL    HW222161   0.761   2.558   4.406 -1.2515 -1.1955 -0.2615
 3568SOL     OW22162   3.130   2.024   3.216  0.3081 -0.5264  0.4536
 3568SOL    HW122163   3.117   1.957   3.148  2.6382 -1.8048  1.2695
 3568SOL    HW222164   3.178   1.976   3.284 -3.8017 -0.4461  3.4286
 3569SOL     OW22165   3.285   1.761   6.378 -0.0776  0.1279 -0.3564
 3569SOL    HW122166   3.189   1.759   6.381  0.0726 -2.2072  3.1794
 3569SOL    HW222167   3.319   1.784   6.464  1.4003  0.1564 -0.9388
 3570SOL     OW22168   2.050   0.657   5.036  0.5322  0.6549  0.1404
 3570SOL    HW122169   1.985   0.593   5.064 -0.2958  0.9886 -1.0244
 3570SOL    HW222170   2.064   0.636   4.943  0.8492 -1.8489  0.7553
 3571SOL     OW22171   0.669   3.870   7.912 -0.1146 -0.4995 -0.6740
 3571SOL    HW122172   0.666   3.963   7.930  1.9273 -0.6805  0.5425
 3571SOL    HW222173   0.586   3.867   7.863  0.9441 -0.5578 -2.4839
 3572SOL     OW22174   0.427   2.705  13.964  0.2242  0.2908  0.4781
 3572SOL    HW122175   0.501   2.758  13.993 -0.6099  4.2103 -4.5357
 3572SOL    HW222176   0.479   2.625  13.950  0.6261  0.3138  1.7967
 3573SOL     OW22177   1.449   1.764  16.755 -1.0084  0.5847  0.1350
 3573SOL    HW122178   1.531   1.737  16.797 -1.5253 -2.5892 -0.9249
 3573SOL    HW222179   1.395   1.730  16.826 -0.8450  2.0078  0.9375
 3574SOL     OW22180   1.942   1.109   0.145  0.6125  0.2071  0.2586
 3574SOL    HW122181   1.890   1.083   0.069  0.1074 -0.9080  0.9906
 3574SOL    HW222182   2.032   1.097   0.116  1.1557 -0.3410  2.1184
 3575SOL     OW22183   1.103   2.370  14.988  0.5027  0.5049  0.1862
 3575SOL    HW122184   1.107   2.315  14.910  1.2547  0.9834 -0.1092
 3575SOL    HW222185   1.082   2.301  15.050 -0.6314  1.2019  0.5850
 3576SOL     OW22186   3.940   4.455  11.443 -0.1098 -0.0683  0.0006
 3576SOL    HW122187   4.019   4.503  11.416  0.5905 -0.6037  1.0701
 3576SOL    HW222188   3.971   4.367  11.463 -1.3800 -0.1101  1.7566
 3577SOL     OW22189   1.549   0.847   5.254  0.0259  0.3759 -0.3084
 3577SOL    HW122190   1.498   0.848   5.173 -2.9249  0.6476  1.5488
 3577SOL    HW222191   1.496   0.909   5.305 -1.4896 -0.4135 -0.9427
 3578SOL     OW22192   1.600   4.133   4.810  0.2090  0.1452  0.4794
 3578SOL    HW122193   1.605   4.125   4.715  1.2395  2.0383  0.3746
 3578SOL    HW222194   1.676   4.188   4.828  0.1406  1.1910 -2.4203
 3579SOL     OW22195   4.552   4.135   7.752  0.2517 -0.3946  0.8074
 3579SOL    HW122196   4.637   4.098   7.730  0.4442  1.2800 -1.2865
 3579SOL    HW222197   4.502   4.070   7.702  1.1256  0.1465 -0.7675
 3580SOL     OW22198   4.688   3.987   4.016 -0.0834 -0.2034 -0.1599
 3580SOL    HW122199   4.718   3.933   3.942  0.3121  1.6733 -1.3928
 3580SOL    HW222200   4.705   4.076   3.983 -0.3492 -0.2015 -0.2896
 3581SOL     OW22201   1.057   0.644   6.817 -0.4566 -0.2418  0.2992
 3581SOL    HW122202   1.072   0.723   6.767 -1.5757 -0.0834  0.2125
 3581SOL    HW222203   1.087   0.571   6.762 -0.9753 -1.2314  1.3134
 3582SOL     OW22204   3.146   2.525   2.294 -0.2503  0.6051  0.3743
 3582SOL    HW122205   3.144   2.498   2.385  0.4560  1.3192  0.5935
 3582SOL    HW222206   3.055   2.540   2.269 -0.7320 -1.8489  0.5925
 3583SOL     OW22207   3.795   2.459  11.354  0.3858 -0.1601  0.1753
 3583SOL    HW122208   3.747   2.542  11.356  0.4568 -0.1066 -0.6740
 3583SOL    HW222209   3.740   2.409  11.294  1.1838  0.3287 -0.9734
 3584SOL     OW22210   1.637   0.146  12.159 -0.6443 -0.1764 -0.0441
 3584SOL    HW122211   1.691   0.107  12.090  1.3600  2.7305 -0.1154
 3584SOL    HW222212   1.647   0.090  12.237  2.3935 -0.5025 -0.6672
 3585SOL     OW22213   4.229   3.249  14.635 -0.2655  0.0388 -0.1772
 3585SOL    HW122214   4.207   3.297  14.555 -1.2842  1.2001  0.8147
 3585SOL    HW222215   4.325   3.245  14.631 -0.2631  2.4383 -2.4586
 3586SOL     OW22216   0.822   2.451  10.733 -0.7263  0.5817 -0.4208
 3586SOL    HW122217   0.853   2.540  10.715  2.8336 -0.8143 -1.0488
 3586SOL    HW222218   0.899   2.410  10.771  0.7917  2.0179 -1.9700
 3587SOL     OW22219   1.572   0.120   2.419  0.2736  0.1552 -0.1992
 3587SOL    HW122220   1.667   0.114   2.422  0.0761 -0.8546  4.1720
 3587SOL    HW222221   1.555   0.198   2.367  1.8764  1.4764  1.2806
 3588SOL     OW22222   2.815   4.091   8.132 -0.4221  0.3955 -0.1782
 3588SOL    HW122223   2.908   4.085   8.108 -0.6877 -0.4775 -0.9714
 3588SOL    HW222224   2.802   4.186   8.128  0.5455  0.5008 -0.8408
 3589SOL     OW22225   2.630   4.144   8.763 -0.8332 -0.2988 -0.5551
 3589SOL    HW122226   2.623   4.065   8.816 -0.4410 -0.4063 -0.6666
 3589SOL    HW222227   2.662   4.214   8.820 -0.9286 -1.9332  1.5107
 3590SOL     OW22228   3.358   3.354  17.483  0.9019  0.4047 -0.0194
 3590SOL    HW122229   3.285   3.315  17.532  1.3311 -1.5133 -0.8937
 3590SOL    HW222230   3.309   3.433  17.463  1.7207  0.6839 -0.9288
 3591SOL     OW22231   0.559   0.662  16.235  0.1619  0.1243  0.1214
 3591SOL    HW122232   0.648   0.629  16.225 -1.0428 -2.5411 -1.8744
 3591SOL    HW222233   0.559   0.745  16.187  3.7345  0.8595  1.4358
 3592SOL     OW22234   2.079   4.175   5.043  0.3193 -0.5652  0.6023
 3592SOL    HW122235   2.004   4.166   5.102  0.6140 -1.8019  0.7917
 3592SOL    HW222236   2.147   4.149   5.105  2.7271  1.7156 -1.0518
 3593SOL     OW22237   3.408   1.526   8.832  0.1882  1.1639 -0.3523
 3593SOL    HW122238   3.469   1.460   8.799  0.2402  1.2911 -0.5126
 3593SOL    HW222239   3.346   1.476   8.885  0.8458  1.6257  0.8531
 3594SOL     OW22240   0.254   2.197   8.426 -0.0074  0.1966  0.3315
 3594SOL    HW122241   0.160   2.196   8.406  0.0026 -3.3418  0.4415
 3594SOL    HW222242   0.272   2.287   8.400 -1.8420  1.6428  4.0672
 3595SOL     OW22243   3.314   0.624   8.622 -0.0097  0.0144 -0.8117
 3595SOL    HW122244   3.354   0.665   8.545 -0.6573  2.6272  0.2436
 3595SOL    HW222245   3.389   0.599   8.675 -2.0057  1.9181  2.8908
 3596SOL     OW22246   1.403   4.312  11.864  0.7174  0.1715 -0.4327
 3596SOL    HW122247   1.400   4.229  11.817  0.7888 -0.3067  0.3936
 3596SOL    HW222248   1.487   4.299  11.907  1.5212  1.7091 -1.5402
 3597SOL     OW22249   3.552   2.971   0.186  0.5920 -0.1055  0.1642
 3597SOL    HW122250   3.487   2.974   0.255 -1.2740  0.6791 -1.6312
 3597SOL    HW222251   3.506   2.933   0.111  1.8251  2.6557 -1.9847
 3598SOL     OW22252   3.424   1.404   3.443 -0.1206  0.3509 -0.1276
 3598SOL    HW122253   3.454   1.495   3.450 -1.4438  0.6973  1.0624
 3598SOL    HW222254   3.331   1.422   3.430  0.0988 -0.3210 -2.5523
 3599SOL     OW22255   0.364   2.597   4.088  0.3941 -0.2082 -0.2850
 3599SOL    HW122256   0.393   2.516   4.131  0.7666  0.0352 -0.0694
 3599SOL    HW222257   0.291   2.557   4.042  0.3042 -1.2632  0.7698
 3600SOL     OW22258   0.854   3.239   0.892 -0.0894  1.0887  0.4708
 3600SOL    HW122259   0.787   3.272   0.832  0.5895  3.2512  0.9005
 3600SOL    HW222260   0.930   3.267   0.840  0.2961  0.8062  0.8864
 3601SOL     OW22261   3.978   1.158   7.762 -0.1545 -0.1189  0.2740
 3601SOL    HW122262   4.048   1.132   7.822  0.5845 -0.0539 -0.5467
 3601SOL    HW222263   3.972   1.078   7.710  1.8903  1.8154 -2.9532
 3602SOL     OW22264   2.442   2.771   6.883 -0.1774  0.2729 -0.7282
 3602SOL    HW122265   2.512   2.820   6.927 -1.4008  2.3624 -1.0888
 3602SOL    HW222266   2.433   2.704   6.951  0.7780  1.0203  0.1498
 3603SOL     OW22267   1.710   3.677  17.241  0.1137  0.0331  0.5237
 3603SOL    HW122268   1.616   3.656  17.243 -0.0889  0.8821 -0.1741
 3603SOL    HW222269   1.727   3.619  17.167 -0.3718  1.4258 -0.6931
 3604SOL     OW22270   2.616   4.526   7.761  0.0411  0.1588  0.3273
 3604SOL    HW122271   2.604   4.569   7.846  0.5241  2.5524 -0.8024
 3604SOL    HW222272   2.679   4.458   7.783  0.9213  0.7194 -0.4937
 3605SOL     OW22273   2.481   0.412   6.369 -0.0212 -0.3120  0.2136
 3605SOL    HW122274   2.435   0.494   6.385  1.4671  0.4762  0.4294
 3605SOL    HW222275   2.524   0.422   6.284 -1.0758  1.2389 -0.1386
 3606SOL     OW22276   4.521   2.974  10.600  0.0969 -0.1641  0.2874
 3606SOL    HW122277   4.429   3.000  10.604  0.2462  0.2955  0.7359
 3606SOL    HW222278   4.522   2.878  10.595 -3.2916 -0.1822  0.2940
 3607SOL     OW22279   0.901   0.551   0.493 -0.1668  0.1353 -0.6643
 3607SOL    HW122280   0.986   0.571   0.531 -0.3182 -2.1101  0.8380
 3607SOL    HW222281   0.884   0.460   0.518 -0.5452  0.4566  0.2449
 3608SOL     OW22282   0.999   2.064   8.585 -0.0179 -0.1546  0.1734
 3608SOL    HW122283   0.969   1.999   8.649  0.5429 -1.2411 -0.6683
 3608SOL    HW222284   1.041   2.127   8.644 -1.5845  0.7613  0.3339
 3609SOL     OW22285   1.844   3.791   4.324 -0.0984 -0.1408 -0.0318
 3609SOL    HW122286   1.835   3.742   4.406 -2.8810  0.1652 -0.1650
 3609SOL    HW222287   1.825   3.879   4.354 -1.0223 -0.5601  0.6020
 3610SOL     OW22288   3.580   3.885  13.123  0.4334  0.0543 -0.0209
 3610SOL    HW122289   3.534   3.965  13.097 -0.9469 -1.4839 -2.2613
 3610SOL    HW222290   3.644   3.864  13.055  0.3500  0.1970 -0.1433
 3611SOL     OW22291   4.558   0.382   5.957 -0.0346  0.1461 -0.0616
 3611SOL    HW122292   4.530   0.451   5.898 -0.8991  0.6765  0.9604
 3611SOL    HW222293   4.472   0.341   5.947 -0.9337  2.4516 -1.6641
 3612SOL     OW22294   2.187   1.380   7.894 -0.0383 -0.3398 -0.0860
 3612SOL    HW122295   2.094   1.388   7.873 -0.0960 -1.0945 -0.1182
 3612SOL    HW222296   2.225   1.392   7.807 -3.0502  0.7225 -1.2297
 3613SOL     OW22297   2.188   4.371   4.430 -1.2326  0.5389  0.2386
 3613SOL    HW122298   2.181   4.372   4.334 -2.7572  0.3163  0.3535
 3613SOL    HW222299   2.278   4.402   4.444 -1.0989  0.2793 -0.0295
 3614SOL     OW22300   3.902   3.722   7.249 -0.2106  0.0148  0.1820
 3614SOL    HW122301   3.901   3.778   7.171  0.3338  0.6306  0.6261
 3614SOL    HW222302   3.905   3.787   7.318 -0.2170  1.2896 -1.0178
 3615SOL     OW22303   0.016   1.132   1.240  0.1848 -0.1770 -0.0121
 3615SOL    HW122304   0.053   1.046   1.262  2.2833  0.5914 -0.4702
 3615SOL    HW222305   4.646   1.132   1.270  0.3765 -0.4200  0.5844
 3616SOL     OW22306   1.450   0.902   8.305  0.0730 -0.3764 -0.7046
 3616SOL    HW122307   1.508   0.842   8.352 -0.9053  0.0576  1.0736
 3616SOL    HW222308   1.483   0.991   8.315  3.4806 -1.7536  0.0699
 3617SOL     OW22309   2.092   0.393  11.455 -0.0865  0.1355 -0.2485
 3617SOL    HW122310   2.057   0.435  11.533 -0.8754 -2.1043  0.5817
 3617SOL    HW222311   2.098   0.469  11.396  1.3917  0.3512  0.1749
 3618SOL     OW22312   4.167   4.604   8.554 -0.1126 -0.4848  0.6137
 3618SOL    HW122313   4.254   4.577   8.585 -0.0822 -0.4796  0.5333
 3618SOL    HW222314   4.128   4.616   8.641  0.2232  2.2892  0.3966
 3619SOL     OW22315   0.436   4.691   4.329 -0.2503 -1.1193  0.2621
 3619SOL    HW122316   0.449   4.605   4.290 -0.8959 -0.8181 -0.6353
 3619SOL    HW222317   0.429   0.021   4.247 -0.4535 -1.8806 -0.1852
 3620SOL     OW22318   4.657   1.411   1.185 -0.2115 -0.3726  0.1787
 3620SOL    HW122319   4.613   1.341   1.136  2.4992 -0.5124 -2.0599
 3620SOL    HW222320   4.588   1.477   1.191  0.1813  0.1252 -0.8252
 3621SOL     OW22321   3.752   0.024   4.858  0.2246  0.1315  0.0731
 3621SOL    HW122322   3.826   4.686   4.844 -0.1063 -0.2162 -0.2343
 3621SOL    HW222323   3.779   0.108   4.822 -0.0989  1.1440  2.2113
 3622SOL     OW22324   1.431   4.347   4.286  0.0077 -0.1256  0.3308
 3622SOL    HW122325   1.458   4.321   4.198  1.3838  3.1553 -0.2061
 3622SOL    HW222326   1.359   4.402   4.256  0.9680  0.8035 -0.2915
 3623SOL     OW22327   2.637   0.079   2.504 -0.2895  0.8398 -0.5812
 3623SOL    HW122328   2.692   0.053   2.577  0.3145 -2.7025 -2.3212
 3623SOL    HW222329   2.589   0.003   2.472  1.3638  0.6727 -2.6757
 3624SOL     OW22330   1.379   0.086  17.111  0.3397 -0.1397  0.4997
 3624SOL    HW122331   1.445   0.143  17.151 -3.0507  1.6229  3.5761
 3624SOL    HW222332   1.317   0.081  17.183 -1.9388  0.0788 -1.4511
 3625SOL     OW22333   1.869   0.660   3.259  0.1661  0.4808  0.1428
 3625SOL    HW122334   1.785   0.688   3.223  0.6016 -0.0389 -1.2934
 3625SOL    HW222335   1.856   0.685   3.350  0.5254 -0.3453  0.4161
 3626SOL     OW22336   2.086   4.254   1.764 -0.5987 -0.0244  0.7746
 3626SOL    HW122337   2.096   4.191   1.693  1.4872  0.2369  0.8147
 3626SOL    HW222338   2.046   4.328   1.720  0.1158  0.3139  0.6858
 3627SOL     OW22339   3.729   1.272   8.504  0.7708  0.2698 -0.6333
 3627SOL    HW122340   3.801   1.312   8.554 -1.7704  0.1939  3.0617
 3627SOL    HW222341   3.758   1.313   8.423  0.1404 -0.2795 -1.1312
 3628SOL     OW22342   1.718   0.136  15.537 -0.0632  0.8643 -0.4269
 3628SOL    HW122343   1.794   0.077  15.540  0.5227  1.7121  1.3165
 3628SOL    HW222344   1.716   0.163  15.629 -0.0506  1.7488 -0.6838
 3629SOL     OW22345   4.031   0.684   6.932  0.7040 -0.0608  0.1826
 3629SOL    HW122346   4.014   0.775   6.957 -2.0619 -1.0681  1.8798
 3629SOL    HW222347   4.111   0.694   6.880  1.1317  0.9517  1.0291
 3630SOL     OW22348   2.253   3.528   8.611 -0.5492 -0.7377  0.3433
 3630SOL    HW122349   2.158   3.531   8.598 -0.7432  0.0234  1.9345
 3630SOL    HW222350   2.268   3.569   8.696  1.7730  1.2211 -1.0077
 3631SOL     OW22351   3.984   0.795   1.610  0.2723  0.1550 -0.2540
 3631SOL    HW122352   4.045   0.788   1.537  1.0851  0.2573  0.4213
 3631SOL    HW222353   4.001   0.712   1.655 -2.4316 -0.8968 -1.1574
 3632SOL     OW22354   1.628   4.579   7.280 -0.2291  0.2714  0.5478
 3632SOL    HW122355   1.617   4.673   7.293 -1.3228  0.0435  1.3571
 3632SOL    HW222356   1.597   4.553   7.367  1.0609 -1.1524  0.5685
 3633SOL     OW22357   2.773   2.053   3.755  0.5122 -1.0780  0.0710
 3633SOL    HW122358   2.801   1.970   3.793 -2.5117 -2.3043 -0.4245
 3633SOL    HW222359   2.681   2.055   3.781  0.3239 -1.0862 -0.6038
 3634SOL     OW22360   0.080   3.481   8.540  0.5686 -0.1612  0.4014
 3634SOL    HW122361   0.110   3.565   8.505 -1.4012 -0.1764 -1.2982
 3634SOL    HW222362   0.050   3.506   8.628  3.5753 -3.7138  2.3931
 3635SOL     OW22363   2.607   2.467   1.605 -0.0050 -0.1381 -1.1337
 3635SOL    HW122364   2.523   2.505   1.581  0.3101 -0.6936 -3.0989
 3635SOL    HW222365   2.609   2.448   1.699  0.8315  3.8924 -0.3267
 3636SOL     OW22366   3.635   1.462   9.762 -0.6849 -0.2620 -0.6014
 3636SOL    HW122367   3.716   1.509   9.780 -0.7356  0.2331 -1.6655
 3636SOL    HW222368   3.669   1.400   9.699  0.9571 -0.3744  0.4045
 3637SOL     OW22369   1.091   3.656  15.601  0.0116 -0.7544 -0.2732
 3637SOL    HW122370   1.016   3.687  15.550  1.2765  4.2320  0.9301
 3637SOL    HW222371   1.134   3.604  15.533 -2.0807  0.9034 -2.8859
 3638SOL     OW22372   2.997   2.342  17.635 -0.3885  0.2633  0.2498
 3638SOL    HW122373   3.023   2.271   0.010 -0.0299  0.6148  0.5108
 3638SOL    HW222374   3.031   2.316  17.550  0.0558  2.4817 -0.2394
 3639SOL     OW22375   3.090   4.186   6.170  0.5678  0.0550 -0.0409
 3639SOL    HW122376   3.124   4.265   6.128  2.3930  0.1755  1.6628
 3639SOL    HW222377   3.154   4.123   6.136  2.4493  1.7051  0.4726
 3640SOL     OW22378   0.531   2.213   3.038 -0.2953 -0.3410 -0.0247
 3640SOL    HW122379   0.535   2.213   2.942 -1.0180  1.1561 -0.0453
 3640SOL    HW222380   0.620   2.197   3.068 -0.9649 -2.4490  0.9005
 3641SOL     OW22381   3.054   2.491   1.194  0.5733 -0.1143  0.5531
 3641SOL    HW122382   2.985   2.425   1.193 -0.9015  1.4612 -1.8789
 3641SOL    HW222383   3.007   2.562   1.151  1.9468  0.4729  0.0253
 3642SOL     OW22384   1.698   2.888   3.712  0.2800 -0.1749  0.1114
 3642SOL    HW122385   1.777   2.914   3.759  0.9531 -2.2576  0.1144
 3642SOL    HW222386   1.718   2.799   3.683 -1.4795  0.0635 -1.7823
 3643SOL     OW22387   1.715   2.769   4.098 -0.0810  0.2997 -0.5644
 3643SOL    HW122388   1.634   2.764   4.048 -0.1191  1.6554 -0.6300
 3643SOL    HW222389   1.726   2.857   4.135 -0.4251 -0.1382  0.5826
 3644SOL     OW22390   3.057   3.518   2.050 -0.1390 -0.6257 -0.7282
 3644SOL    HW122391   3.046   3.472   1.967 -0.3224  1.4535 -1.8749
 3644SOL    HW222392   3.102   3.449   2.098  0.4481  0.7212  0.6517
 3645SOL     OW22393   0.583   0.882   1.797  0.3221 -0.5637  0.4441
 3645SOL    HW122394   0.536   0.801   1.774 -2.3635  0.7021  1.4341
 3645SOL    HW222395   0.655   0.887   1.735 -0.2254  0.5951 -0.0822
 3646SOL     OW22396   1.239   1.566   8.394 -0.0508 -0.0884 -0.2896
 3646SOL    HW122397   1.308   1.545   8.457  0.1254 -3.1660 -1.4874
 3646SOL    HW222398   1.179   1.626   8.438 -2.2345 -1.9381 -0.7627
 3647SOL     OW22399   2.092   4.618   1.206 -0.0378 -0.2560  0.2968
 3647SOL    HW122400   2.086   4.551   1.275 -0.5489  0.4472  0.9312
 3647SOL    HW222401   2.071   4.571   1.126 -1.1515  1.2603 -0.2959
 3648SOL     OW22402   4.555   4.557   2.623  0.2057 -0.2596  0.3073
 3648SOL    HW122403   4.538   4.558   2.717 -1.3324  0.9838  0.0120
 3648SOL    HW222404   4.625   4.491   2.624  0.6245  0.2089  3.2753
 3649SOL     OW22405   1.947   2.007   3.684 -0.2423 -0.5501  0.2544
 3649SOL    HW122406   2.029   1.958   3.676 -0.4031 -0.3875 -2.2243
 3649SOL    HW222407   1.950   2.053   3.601 -1.1451 -0.3179  0.3487
 3650SOL     OW22408   3.241   0.973   2.091 -0.4472 -0.0415  0.0625
 3650SOL    HW122409   3.205   0.899   2.042 -2.6238 -0.1656  1.8582
 3650SOL    HW222410   3.182   0.970   2.166  1.6766 -0.1923  1.7253
 3651SOL     OW22411   1.345   0.971   4.097 -0.2208  0.2771  0.0327
 3651SOL    HW122412   1.369   0.891   4.144 -2.0343  0.7525  1.8009
 3651SOL    HW222413   1.262   0.940   4.060 -0.4013  0.4655  0.2776
 3652SOL     OW22414   2.969   2.176   2.251 -0.6880 -0.4773 -0.0914
 3652SOL    HW122415   3.051   2.135   2.223 -0.5999 -0.2229 -0.2065
 3652SOL    HW222416   2.973   2.252   2.193 -1.6261 -1.2665 -1.1757
 3653SOL     OW22417   2.954   2.341  17.159 -0.3132 -0.1907  0.2466
 3653SOL    HW122418   3.027   2.381  17.111  0.8827 -1.5902  0.8869
 3653SOL    HW222419   2.911   2.416  17.199  1.0414  0.3539  0.6977
 3654SOL     OW22420   3.252   2.694  15.705 -0.1449  0.1516 -0.6568
 3654SOL    HW122421   3.285   2.771  15.659 -0.2372 -0.8133 -2.3310
 3654SOL    HW222422   3.197   2.663  15.633 -1.6245 -0.7858  0.8793
 3655SOL     OW22423   4.495   0.442   8.496  0.3193  0.2302 -0.3482
 3655SOL    HW122424   4.419   0.497   8.479 -0.8273 -1.4040 -0.5067
 3655SOL    HW222425   4.573   0.488   8.465  0.2932 -0.2336 -1.0955
 3656SOL     OW22426   2.557   1.220   9.335 -0.0676 -0.1149  0.1230
 3656SOL    HW122427   2.591   1.309   9.329 -1.2973  0.3155 -0.4643
 3656SOL    HW222428   2.560   1.205   9.430 -1.2082  0.4197  0.2404
 3657SOL     OW22429   2.339   0.575   5.451  0.3557 -0.3194  0.0867
 3657SOL    HW122430   2.343   0.560   5.356 -1.3422 -0.6081  0.0481
 3657SOL    HW222431   2.301   0.495   5.489  2.5728 -0.5548  1.7532
 3658SOL     OW22432   1.347   0.782   3.012  0.6204 -0.1037 -0.5764
 3658SOL    HW122433   1.334   0.710   3.073  0.3095  1.6235  1.4263
 3658SOL    HW222434   1.407   0.835   3.065  1.5073  0.1549 -1.8404
 3659SOL     OW22435   1.844   2.596   6.854  0.6599 -0.3985  0.0013
 3659SOL    HW122436   1.772   2.533   6.848 -0.1568  0.3520  1.9453
 3659SOL    HW222437   1.802   2.669   6.900  1.3586 -0.1733  0.2759
 3660SOL     OW22438   0.065   3.337   3.786 -0.2566 -0.9258 -0.2894
 3660SOL    HW122439   4.704   3.313   3.830 -0.2458  1.5970  1.0982
 3660SOL    HW222440   0.071   3.273   3.715 -2.1596  0.2934 -1.5355
 3661SOL     OW22441   3.686   3.292   8.724 -0.1610  0.1075  0.5510
 3661SOL    HW122442   3.623   3.240   8.774  0.2293 -2.0230 -1.1283
 3661SOL    HW222443   3.679   3.250   8.638  0.9860  0.9243  0.0597
 3662SOL     OW22444   0.855   3.596  15.874 -0.1923 -0.4456 -0.0750
 3662SOL    HW122445   0.837   3.573  15.783  0.4169  0.7922 -0.5102
 3662SOL    HW222446   0.879   3.688  15.863  0.4332 -0.7696 -1.4826
 3663SOL     OW22447   3.736   0.151  13.236 -0.4454  0.3458 -0.0124
 3663SOL    HW122448   3.785   0.095  13.177  2.1531  1.4779  1.0731
 3663SOL    HW222449   3.785   0.143  13.318  0.4970 -1.7084 -0.7608
 3664SOL     OW22450   2.896   1.315   7.706  0.3192 -0.3957  0.2403
 3664SOL    HW122451   2.812   1.270   7.717 -0.2692  1.0650  1.6827
 3664SOL    HW222452   2.951   1.240   7.685  0.4542 -0.2744  0.1662
 3665SOL     OW22453   3.096   0.890   2.702 -0.1087  0.1361  0.2962
 3665SOL    HW122454   3.120   0.851   2.786 -0.0141  1.7298  0.9988
 3665SOL    HW222455   3.148   0.833   2.645 -1.7085 -0.2903 -0.7531
 3666SOL     OW22456   2.862   2.637  16.064  0.0934 -0.0366 -0.1046
 3666SOL    HW122457   2.834   2.725  16.089  1.5517  0.5289 -0.4784
 3666SOL    HW222458   2.911   2.614  16.143  0.1118  0.4089  0.0134
 3667SOL     OW22459   2.690   4.056   4.860 -0.0877  0.1476 -0.1492
 3667SOL    HW122460   2.726   4.134   4.817 -0.4247  0.9944  1.1044
 3667SOL    HW222461   2.770   4.004   4.859 -0.4020 -0.3219 -0.9079
 3668SOL     OW22462   2.940   2.662   0.470 -0.2850 -0.4634  0.0416
 3668SOL    HW122463   2.930   2.589   0.409  1.1352  1.7229 -2.8009
 3668SOL    HW222464   3.004   2.624   0.530  0.1722  0.7269  0.3116
 3669SOL     OW22465   3.447   2.095   6.901 -0.1244  0.4372 -0.1021
 3669SOL    HW122466   3.453   2.149   6.980 -0.4873  0.7579 -0.2928
 3669SOL    HW222467   3.515   2.135   6.846 -1.3075  0.3378 -1.6312
 3670SOL     OW22468   2.948   0.906   9.783  0.0129 -0.1830  0.2981
 3670SOL    HW122469   2.947   0.811   9.792  1.2137 -0.3717 -1.5129
 3670SOL    HW222470   3.013   0.918   9.853 -2.0681 -0.7433  2.3086
 3671SOL     OW22471   2.483   2.269   7.684  0.0846 -0.0595  0.3946
 3671SOL    HW122472   2.447   2.326   7.752  1.6339  0.9751  0.3364
 3671SOL    HW222473   2.502   2.189   7.734 -1.2128 -1.0845 -0.7503
 3672SOL     OW22474   0.307   0.329  13.447  0.6019 -0.1227  0.4811
 3672SOL    HW122475   0.323   0.335  13.541 -0.0256  0.3664  0.5557
 3672SOL    HW222476   0.391   0.362  13.416  1.1131 -1.1712  0.7646
 3673SOL     OW22477   4.466   4.042  15.966  0.2176  0.3828  0.0451
 3673SOL    HW122478   4.410   4.117  15.986 -2.2588 -1.6540  0.6605
 3673SOL    HW222479   4.522   4.076  15.896  0.7082  1.9209  1.1866
 3674SOL     OW22480   1.038   3.716   8.446 -0.2003  0.1582  0.3464
 3674SOL    HW122481   0.953   3.757   8.430 -0.9704 -1.2039  0.9720
 3674SOL    HW222482   1.046   3.656   8.372  0.0029  0.8648 -0.2095
 3675SOL     OW22483   3.298   1.558   0.658 -0.2502 -0.0115  0.2582
 3675SOL    HW122484   3.229   1.495   0.638 -1.4533  0.9739  1.3018
 3675SOL    HW222485   3.251   1.641   0.650 -0.5129 -0.0072  1.7869
 3676SOL     OW22486   0.805   1.859   4.658 -0.6365 -0.1643 -1.0153
 3676SOL    HW122487   0.734   1.796   4.643 -1.0807  0.7257 -2.6139
 3676SOL    HW222488   0.865   1.840   4.587 -0.8538 -1.1517 -0.9430
 3677SOL     OW22489   1.345   3.002   0.075  0.6136 -0.5666  0.3095
 3677SOL    HW122490   1.348   2.942   0.150 -0.8577 -3.2996 -1.8105
 3677SOL    HW222491   1.392   2.951   0.008  1.2324  1.1633 -0.5788
 3678SOL     OW22492   4.629   4.412   1.918  0.4376  0.4601  0.1032
 3678SOL    HW122493   4.658   4.504   1.919 -0.5880  0.7588  1.7315
 3678SOL    HW222494   4.576   4.416   1.838  0.4169  1.7449  0.1706
 3679SOL     OW22495   1.423   1.021   7.063  0.3996  0.1962 -0.1461
 3679SOL    HW122496   1.358   0.964   7.104  0.5553 -0.5374 -0.9076
 3679SOL    HW222497   1.436   0.975   6.980  1.1577  0.6566 -0.2739
 3680SOL     OW22498   2.177   1.955   3.896 -0.6080 -0.3754  0.3035
 3680SOL    HW122499   2.181   1.909   3.813 -3.0258  1.3871 -0.7961
 3680SOL    HW222500   2.163   2.046   3.870 -1.0157 -1.1945 -2.2747
 3681SOL     OW22501   1.182   4.612   7.524  0.4901  0.1269  0.0466
 3681SOL    HW122502   1.264   4.565   7.510  0.1158 -0.2440 -0.8448
 3681SOL    HW222503   1.156   4.572   7.607 -0.1686  0.2585 -0.0937
 3682SOL     OW22504   2.483   3.115   5.620  0.6843 -0.0398 -0.3057
 3682SOL    HW122505   2.477   3.063   5.700 -1.0475 -1.7208 -1.5049
 3682SOL    HW222506   2.551   3.175   5.648 -1.6348  1.0295  3.0317
 3683SOL     OW22507   3.660   0.987   3.225 -0.6619 -0.2562  0.8495
 3683SOL    HW122508   3.666   1.082   3.242 -0.4090 -0.1716  0.2862
 3683SOL    HW222509   3.748   0.969   3.260  1.1198  4.4353 -1.1655
 3684SOL     OW22510   4.621   1.017   9.966  0.3043  0.0704  0.3843
 3684SOL    HW122511   4.707   0.991   9.932  1.0827  1.5905  1.2046
 3684SOL    HW222512   4.647   1.066  10.043 -1.2186  2.6792 -0.7501
 3685SOL     OW22513   1.274   3.841   1.901  0.5296 -0.2213  0.1469
 3685SOL    HW122514   1.235   3.777   1.841 -1.2322  0.4267  0.6093
 3685SOL    HW222515   1.212   3.909   1.876  1.1477 -0.0897 -1.0399
 3686SOL     OW22516   3.773   1.359  12.511  0.0760  0.6885 -0.1971
 3686SOL    HW122517   3.740   1.431  12.458  1.3357  0.5751 -1.1432
 3686SOL    HW222518   3.723   1.375  12.591 -0.0766 -0.5930 -0.0394
 3687SOL     OW22519   2.939   0.573   3.589  0.4999  0.5766 -0.2418
 3687SOL    HW122520   2.893   0.590   3.506 -1.5076  1.2488  1.0203
 3687SOL    HW222521   3.033   0.571   3.569  0.1194 -2.1223 -1.7475
 3688SOL     OW22522   3.395   3.362   5.209 -0.2401  0.4624  0.6967
 3688SOL    HW122523   3.360   3.386   5.123  1.5784 -0.2369 -0.2391
 3688SOL    HW222524   3.378   3.268   5.210  1.3861  0.1625  1.0206
 3689SOL     OW22525   3.129   1.974   4.641  0.8588 -0.6790  0.3146
 3689SOL    HW122526   3.137   1.977   4.736  2.1976 -1.3997  0.2265
 3689SOL    HW222527   3.052   2.026   4.619  0.8397 -0.0995  1.8076
 3690SOL     OW22528   0.572   0.605   6.690 -0.4992  0.5317 -0.2750
 3690SOL    HW122529   0.497   0.657   6.718 -0.4211  0.4350  0.1115
 3690SOL    HW222530   0.616   0.591   6.774 -0.6032  4.1530  0.3723
 3691SOL     OW22531   4.210   0.274   6.980  0.4162 -0.1653 -0.0004
 3691SOL    HW122532   4.146   0.202   6.981  2.3168 -1.8594 -0.2728
 3691SOL    HW222533   4.199   0.306   6.890  0.7385 -1.9414 -0.6725
 3692SOL     OW22534   4.432   0.943  12.825  0.5954  0.7625  0.0869
 3692SOL    HW122535   4.396   1.004  12.888 -0.2512 -2.5798  2.8620
 3692SOL    HW222536   4.377   0.865  12.836  3.1731 -1.1985 -0.7997
 3693SOL     OW22537   4.310   0.201   2.096  0.2641 -0.3481  0.2346
 3693SOL    HW122538   4.364   0.231   2.168  0.1585 -0.6099  0.4261
 3693SOL    HW222539   4.327   0.107   2.102  1.1622 -0.2929 -1.5150
 3694SOL     OW22540   1.050   4.686   5.052  0.4076 -0.3933  0.0638
 3694SOL    HW122541   1.115   0.031   5.027  0.2711 -0.1428  0.3641
 3694SOL    HW222542   0.967   0.000   5.022  0.8142  0.8377  0.3597
 3695SOL     OW22543   1.735   1.075   6.719 -0.9321 -0.2863 -0.0472
 3695SOL    HW122544   1.678   1.118   6.655 -1.7292  1.2550  1.6966
 3695SOL    HW222545   1.708   0.983   6.723 -1.3830 -0.1487  0.0223
 3696SOL     OW22546   1.150   1.945   4.667 -0.1140  0.2786  0.4615
 3696SOL    HW122547   1.195   2.001   4.730  0.0896 -2.3001  2.5635
 3696SOL    HW222548   1.086   2.008   4.633  3.9352  3.9028 -0.3302
 3697SOL     OW22549   2.072   2.493  17.672  0.2110 -0.2783  0.2309
 3697SOL    HW122550   2.162   2.524  17.665  0.4424 -1.3445 -1.4146
 3697SOL    HW222551   2.079   2.450   0.073  0.6038 -0.1106  0.2844
 3698SOL     OW22552   1.011   2.380  14.581 -0.5032 -0.4449  0.5978
 3698SOL    HW122553   1.037   2.325  14.508  1.1430  1.7257 -0.4399
 3698SOL    HW222554   1.048   2.332  14.655  0.7315 -1.2413 -0.5445
 3699SOL     OW22555   1.008   2.034  14.230  0.2309  0.1291 -0.4084
 3699SOL    HW122556   0.951   2.064  14.160 -2.9399 -1.8000  1.3497
 3699SOL    HW222557   1.073   1.984  14.180 -0.4068 -0.0007 -1.0980
 3700SOL     OW22558   4.431   3.356  16.104 -0.0234 -0.7294 -0.2867
 3700SOL    HW122559   4.386   3.432  16.068  2.4542  1.1134  0.5095
 3700SOL    HW222560   4.483   3.325  16.029  0.0041 -1.7339  0.1485
 3701SOL     OW22561   3.440   2.240   0.029 -0.5631 -0.3483 -0.5470
 3701SOL    HW122562   3.367   2.190   0.064 -1.3241  0.9680 -0.2569
 3701SOL    HW222563   3.469   2.177  17.647  0.3261  0.2293 -0.7194
 3702SOL     OW22564   2.256   0.588  13.003  0.1312  0.3480 -0.2173
 3702SOL    HW122565   2.253   0.556  12.913 -1.4457 -0.5855  0.1632
 3702SOL    HW222566   2.327   0.652  12.997 -2.1451  3.1620  2.6668
 3703SOL     OW22567   1.012   1.700   6.823 -0.2574  0.6228  0.1731
 3703SOL    HW122568   1.038   1.755   6.898  0.1717 -0.1856  0.6146
 3703SOL    HW222569   1.087   1.704   6.764  0.4469  0.7873  1.0843
 3704SOL     OW22570   1.729   3.578   5.347 -0.2663 -0.0102 -0.2181
 3704SOL    HW122571   1.667   3.509   5.322 -2.5526  2.1715 -0.5297
 3704SOL    HW222572   1.807   3.527   5.369 -0.3649  0.1972  0.6141
 3705SOL     OW22573   4.691   2.053   4.189 -0.1096 -0.1056 -0.3556
 3705SOL    HW122574   4.712   2.013   4.273 -2.1243 -0.4773 -0.0198
 3705SOL    HW222575   4.631   1.983   4.164 -0.3142 -0.0657  0.0136
 3706SOL     OW22576   0.252   3.187  10.867  0.2114 -0.6280 -0.0814
 3706SOL    HW122577   0.232   3.095  10.852 -4.1424  0.1317  1.0909
 3706SOL    HW222578   0.295   3.206  10.783  3.3282  1.6428  2.0157
 3707SOL     OW22579   3.999   3.603   7.769 -0.2939 -0.1208 -1.2836
 3707SOL    HW122580   4.000   3.659   7.846 -1.3568 -1.1308 -0.5318
 3707SOL    HW222581   3.976   3.516   7.803  1.3210 -0.4862 -1.1350
 3708SOL     OW22582   3.205   3.397   6.326  0.2224  0.0031 -0.2565
 3708SOL    HW122583   3.248   3.364   6.404  0.5607 -2.0319 -1.3099
 3708SOL    HW222584   3.125   3.427   6.370  0.2791 -0.7542  0.3613
 3709SOL     OW22585   2.697   1.635   6.798 -0.5978  0.3939 -0.2279
 3709SOL    HW122586   2.720   1.593   6.881 -2.1477 -2.0188 -1.0218
 3709SOL    HW222587   2.774   1.683   6.769  0.0224 -0.0775  0.6246
 3710SOL     OW22588   4.719   1.195  17.265  0.3691 -0.2852  0.2704
 3710SOL    HW122589   4.645   1.154  17.221 -0.3499 -1.6204  2.7226
 3710SOL    HW222590   0.030   1.252  17.195  0.5167  0.9032  1.2879
 3711SOL     OW22591   1.491   2.287   8.108 -0.2131  0.7519  0.0809
 3711SOL    HW122592   1.424   2.350   8.135  0.0467  0.4411  1.4296
 3711SOL    HW222593   1.541   2.290   8.190 -0.9948 -0.5689  0.5937
 3712SOL     OW22594   2.653   0.936   5.867 -0.0436  0.5828  0.3055
 3712SOL    HW122595   2.725   0.946   5.930 -2.0816 -1.8235  3.0096
 3712SOL    HW222596   2.678   0.872   5.801 -1.9957 -0.7059  0.8276
 3713SOL     OW22597   3.276   3.354   7.202  0.2349 -0.4936  0.5050
 3713SOL    HW122598   3.268   3.448   7.188 -2.2665 -0.7284  0.3923
 3713SOL    HW222599   3.232   3.320   7.124  1.8175 -1.1597 -0.1039
 3714SOL     OW22600   2.635   3.548   9.744 -0.2031 -0.0904 -0.4838
 3714SOL    HW122601   2.614   3.626   9.796 -0.2410 -1.3095  1.3410
 3714SOL    HW222602   2.591   3.473   9.785 -2.5358  1.6228  0.1149
 3715SOL     OW22603   4.639   0.573  15.586  0.6337  0.4778  0.3726
 3715SOL    HW122604   4.545   0.561  15.571  0.9640 -0.0798 -1.1671
 3715SOL    HW222605   4.651   0.515  15.662  0.2993 -1.6225 -1.1933
 3716SOL     OW22606   2.360   3.293   3.357 -0.0903  0.3450 -0.1533
 3716SOL    HW122607   2.349   3.360   3.425  0.5387 -0.0316  0.3155
 3716SOL    HW222608   2.436   3.243   3.388 -0.6396 -0.0429  0.5665
 3717SOL     OW22609   4.136   2.553   7.437 -0.0534 -0.6201 -0.6736
 3717SOL    HW122610   4.125   2.458   7.432  1.0985 -0.7881  0.0228
 3717SOL    HW222611   4.067   2.574   7.500 -0.8552 -0.9029 -1.4621
 3718SOL     OW22612   3.461   3.729   7.321 -0.0328 -0.2167 -0.5334
 3718SOL    HW122613   3.395   3.698   7.260 -1.7610  1.1955  0.5891
 3718SOL    HW222614   3.538   3.702   7.272  1.4621  2.1709  0.4992
 3719SOL     OW22615   2.567   2.015   9.368  0.3981 -0.4043  0.3569
 3719SOL    HW122616   2.631   2.038   9.436 -1.0202  2.1781  0.7992
 3719SOL    HW222617   2.494   2.067   9.400  1.0049  0.3881  0.4562
 3720SOL     OW22618   3.495   1.873   8.371  0.1477 -0.7557 -0.5182
 3720SOL    HW122619   3.534   1.785   8.365  0.0109 -0.7563 -1.4615
 3720SOL    HW222620   3.492   1.896   8.278  2.6365 -1.4511 -0.7502
 3721SOL     OW22621   2.471   0.321   2.609  0.1732  0.4740 -0.0986
 3721SOL    HW122622   2.546   0.316   2.549  0.5158 -0.4812  0.4012
 3721SOL    HW222623   2.431   0.236   2.593  0.6990 -0.1524  1.9648
 3722SOL     OW22624   4.507   0.303  11.432 -0.0220 -0.0340 -0.3762
 3722SOL    HW122625   4.595   0.297  11.469 -1.2175 -0.9242  2.3867
 3722SOL    HW222626   4.531   0.339  11.347 -0.6710 -0.1174 -0.5940
 3723SOL     OW22627   3.489   3.792   6.358 -0.2292  0.1611  0.1656
 3723SOL    HW122628   3.439   3.790   6.440  1.8176  1.8642  1.4558
 3723SOL    HW222629   3.551   3.864   6.370 -0.2308  0.1489  0.2514
 3724SOL     OW22630   3.606   2.536   4.087 -0.1504 -0.1198  0.0913
 3724SOL    HW122631   3.549   2.604   4.051  0.8589  0.5109 -0.3283
 3724SOL    HW222632   3.666   2.532   4.012  0.6522  1.8736  0.6197
 3725SOL     OW22633   3.115   2.012   6.287 -0.2574 -0.2027 -0.1298
 3725SOL    HW122634   3.071   2.081   6.337 -0.3620 -1.3290  1.3513
 3725SOL    HW222635   3.039   1.968   6.248 -0.9490  0.7767  0.1124
 3726SOL     OW22636   3.730   3.673   2.793 -0.4492 -0.0272  0.4449
 3726SOL    HW122637   3.729   3.577   2.803 -0.3663 -0.4048 -2.9833
 3726SOL    HW222638   3.636   3.680   2.776 -0.9077 -0.7791  2.5993
 3727SOL     OW22639   3.745   2.372   3.028 -0.3305 -0.2387 -0.3553
 3727SOL    HW122640   3.804   2.357   3.103  0.0767  0.8190 -0.4658
 3727SOL    HW222641   3.765   2.462   3.002  1.3979 -0.1670  1.2022
 3728SOL     OW22642   1.918   4.707   6.567  0.1147  0.2469 -0.2099
 3728SOL    HW122643   1.940   0.061   6.511 -0.4436  0.0282 -0.7151
 3728SOL    HW222644   1.892   4.648   6.496 -3.0680 -0.3089  1.4426
 3729SOL     OW22645   0.607   4.208   5.681  0.0828  0.2795  0.0560
 3729SOL    HW122646   0.555   4.270   5.732  0.9797  1.7534 -0.7937
 3729SOL    HW222647   0.564   4.126   5.707  1.2895 -0.9929 -2.0217
 3730SOL     OW22648   0.230   3.997   3.634  0.5926 -0.9320 -0.3198
 3730SOL    HW122649   0.313   4.027   3.670 -1.0308 -0.1450  2.7896
 3730SOL    HW222650   0.256   3.962   3.549  0.8590  0.2045 -0.7009
 3731SOL     OW22651   0.077   0.588  14.614  0.0938  0.2604 -0.2163
 3731SOL    HW122652   0.115   0.675  14.622 -2.4397  1.1509  1.9767
 3731SOL    HW222653   0.018   0.597  14.539  1.4081 -1.6317 -1.4616
 3732SOL     OW22654   2.872   4.443  13.321 -0.4800 -0.1004  0.1391
 3732SOL    HW122655   2.962   4.443  13.353 -0.0245  0.2825 -1.1784
 3732SOL    HW222656   2.828   4.365  13.357  0.5468  0.1929  2.0358
 3733SOL     OW22657   2.950   3.845   3.706 -0.0781  0.4418  0.1033
 3733SOL    HW122658   3.027   3.893   3.676 -0.2753  0.0600 -0.9996
 3733SOL    HW222659   2.956   3.764   3.656  0.6049  0.8334 -0.4383
 3734SOL     OW22660   0.551   1.217   6.997 -0.1382  0.1683  0.6389
 3734SOL    HW122661   0.614   1.166   7.048 -0.6447  0.8983  1.9808
 3734SOL    HW222662   0.593   1.302   7.000  0.9376 -0.3204 -0.2696
 3735SOL     OW22663   0.657   2.536   6.625 -0.6002 -0.2338 -0.4769
 3735SOL    HW122664   0.656   2.605   6.559 -1.5443  0.3876  0.1907
 3735SOL    HW222665   0.640   2.460   6.569 -1.3457  2.0800 -3.3673
 3736SOL     OW22666   0.905   1.737   4.174 -0.0441  0.0458 -0.4807
 3736SOL    HW122667   0.816   1.770   4.187 -0.5166 -1.8197  1.0444
 3736SOL    HW222668   0.944   1.809   4.123  0.3100  0.9488  1.0710
 3737SOL     OW22669   1.618   2.472   3.619  0.1794  0.0333 -0.5791
 3737SOL    HW122670   1.707   2.491   3.648  0.1781  0.4402 -0.8390
 3737SOL    HW222671   1.605   2.541   3.553  1.7093  0.5460 -0.3461
 3738SOL     OW22672   0.783   0.743  12.935  0.4608  0.3744  0.4586
 3738SOL    HW122673   0.780   0.824  12.883  0.8627 -1.1449 -1.8965
 3738SOL    HW222674   0.867   0.703  12.917  0.2333  0.3671 -0.5691
 3739SOL     OW22675   3.092   2.156  11.149 -0.2620 -0.1234 -0.0957
 3739SOL    HW122676   3.029   2.090  11.179 -1.7629  1.4529  0.2240
 3739SOL    HW222677   3.167   2.102  11.124 -1.3171 -1.2295 -0.8449
 3740SOL     OW22678   2.510   0.127   8.639  0.7450  0.7986 -0.0648
 3740SOL    HW122679   2.416   0.135   8.623  0.3817 -1.0913  1.2664
 3740SOL    HW222680   2.543   0.215   8.621  1.2773  0.7979  0.9651
 3741SOL     OW22681   2.156   3.172   6.622 -0.1788  0.1337  0.4865
 3741SOL    HW122682   2.187   3.172   6.531 -0.7019  0.7354  0.3079
 3741SOL    HW222683   2.128   3.082   6.643 -1.6480  0.5105  0.1302
 3742SOL     OW22684   2.924   2.647   1.873  0.9901  0.0876 -0.7434
 3742SOL    HW122685   2.829   2.640   1.878  0.9886  0.0020 -0.8972
 3742SOL    HW222686   2.951   2.557   1.853 -0.7068 -0.4367 -0.6923
 3743SOL     OW22687   3.203   0.716   2.523  0.4557 -0.2855  0.0817
 3743SOL    HW122688   3.256   0.640   2.550  0.4016 -1.1403 -2.2218
 3743SOL    HW222689   3.193   0.700   2.429  0.8191  0.1730 -0.0317
 3744SOL     OW22690   3.779   1.848   4.172  0.0698 -0.3439  0.1821
 3744SOL    HW122691   3.768   1.882   4.083 -0.1780 -0.7698  0.0512
 3744SOL    HW222692   3.812   1.927   4.214 -0.5067 -1.0424  1.9585
 3745SOL     OW22693   2.454   2.085  14.786  0.5225 -0.1451 -0.5898
 3745SOL    HW122694   2.507   2.142  14.842 -2.7142  0.6244  1.7032
 3745SOL    HW222695   2.515   2.014  14.764 -0.2039 -1.2286  0.8889
 3746SOL     OW22696   3.897   2.788   0.432  0.1927 -0.0945 -0.2448
 3746SOL    HW122697   3.927   2.775   0.342 -0.1330 -2.9960  0.0630
 3746SOL    HW222698   3.974   2.753   0.478  0.0778  1.6008  1.2425
 3747SOL     OW22699   3.267   3.905   3.297  0.1789 -0.1362  0.0944
 3747SOL    HW122700   3.312   3.975   3.344  0.6096 -0.1427 -0.3080
 3747SOL    HW222701   3.177   3.924   3.322  0.1212 -1.4845  0.8689
 3748SOL     OW22702   1.573   1.751   4.876 -0.2022 -0.0846 -0.4893
 3748SOL    HW122703   1.570   1.847   4.884  1.1352 -0.1775  1.1357
 3748SOL    HW222704   1.480   1.729   4.883 -0.0211 -1.1746 -1.4992
 3749SOL     OW22705   0.028   4.137   0.223  0.0599  0.2663  0.3062
 3749SOL    HW122706   0.024   4.081   0.146 -0.2572 -0.3083  0.7410
 3749SOL    HW222707   0.123   4.139   0.240  0.1447  0.9115 -0.2191
 3750SOL     OW22708   0.925   3.052   6.595  0.3946  0.4016 -0.2408
 3750SOL    HW122709   0.904   3.145   6.596 -0.9624  0.1034 -0.5291
 3750SOL    HW222710   0.995   3.044   6.659 -0.5127 -0.1786  0.6871
 3751SOL     OW22711   0.964   3.157  10.009  0.5243 -0.4992  0.0851
 3751SOL    HW122712   0.995   3.082  10.060  0.3501 -1.0711 -0.6514
 3751SOL    HW222713   1.047   3.204  10.002  0.6648 -0.8776 -0.8074
 3752SOL     OW22714   0.449   1.394  17.676 -0.1762 -0.2837 -0.0671
 3752SOL    HW122715   0.428   1.302  17.664 -2.4335  0.3751 -1.0600
 3752SOL    HW222716   0.528   1.391  17.621 -1.0987 -2.9882 -1.2633
 3753SOL     OW22717   3.919   1.121   3.869 -0.4467 -0.0098  0.1566
 3753SOL    HW122718   3.908   1.099   3.961 -0.9289  2.0008  0.5873
 3753SOL    HW222719   3.922   1.217   3.864  0.3492  0.0126  1.1581
 3754SOL     OW22720   1.036   2.484   0.896  0.1715 -0.0619 -0.5087
 3754SOL    HW122721   1.073   2.510   0.811  0.9730  0.0802 -0.1140
 3754SOL    HW222722   0.971   2.553   0.912 -0.4301 -0.6506 -0.4020
 3755SOL     OW22723   3.190   1.128  10.409 -0.3673 -0.8548 -0.0481
 3755SOL    HW122724   3.167   1.043  10.445  2.0024 -0.7474  1.7362
 3755SOL    HW222725   3.278   1.138  10.445 -0.2346  2.8422 -1.4486
 3756SOL     OW22726   0.392   0.755   2.798  0.2224 -0.0296 -0.3589
 3756SOL    HW122727   0.471   0.795   2.834 -0.6235 -0.7317  2.3160
 3756SOL    HW222728   0.392   0.684   2.863 -0.0319  1.5963  1.4271
 3757SOL     OW22729   3.711   3.084  16.936 -0.3542  0.1490 -0.3685
 3757SOL    HW122730   3.804   3.106  16.950 -0.5321  0.4785  0.3066
 3757SOL    HW222731   3.729   2.994  16.907  0.4677  0.3484 -0.4895
 3758SOL     OW22732   0.713   1.077   4.499 -0.3561 -0.3417  0.0742
 3758SOL    HW122733   0.643   1.025   4.539  0.2279 -0.5309  0.8678
 3758SOL    HW222734   0.776   1.078   4.572 -1.2934 -0.4792  0.8945
 3759SOL     OW22735   0.267   0.565   7.470 -0.1802  0.1921 -0.2533
 3759SOL    HW122736   0.277   0.654   7.437 -2.3823  0.2991 -0.6336
 3759SOL    HW222737   0.179   0.534   7.448  0.3112 -0.3076 -1.5598
 3760SOL     OW22738   1.544   2.471   5.091  0.2350 -0.3497 -0.3931
 3760SOL    HW122739   1.617   2.413   5.111  0.4318  0.7900  2.2445
 3760SOL    HW222740   1.491   2.421   5.028  1.7753 -1.7418 -0.5627
 3761SOL     OW22741   0.030   3.265   6.466  0.4306 -0.0143 -0.0316
 3761SOL    HW122742   0.024   3.244   6.373  0.0993 -1.8462  0.4157
 3761SOL    HW222743   0.005   3.358   6.465  3.4804  0.8205  0.9513
 3762SOL     OW22744   2.238   4.170  12.096  0.0893  0.9211 -0.0682
 3762SOL    HW122745   2.206   4.195  12.009 -1.3170 -0.0708  0.1700
 3762SOL    HW222746   2.328   4.159  12.066  0.6750  2.2254  1.2296
 3763SOL     OW22747   3.727   1.006  16.308 -0.3305 -0.2185 -0.8088
 3763SOL    HW122748   3.819   1.030  16.294 -0.5209  1.4677  0.8798
 3763SOL    HW222749   3.695   1.094  16.327  0.5572  0.0655 -0.5979
 3764SOL     OW22750   1.515   1.661   6.553  0.1631 -0.0953  0.4234
 3764SOL    HW122751   1.425   1.662   6.584  0.2661  0.7059  0.7139
 3764SOL    HW222752   1.556   1.731   6.605  0.0109  0.7868 -0.6552
 3765SOL     OW22753   0.333   1.692   5.139 -0.0969 -0.3740  0.0598
 3765SOL    HW122754   0.309   1.680   5.047  0.3124  0.1208 -0.1109
 3765SOL    HW222755   0.291   1.620   5.186  1.7168 -1.3725  0.1384
 3766SOL     OW22756   1.782   2.712  12.472  0.4450 -0.0420  0.1863
 3766SOL    HW122757   1.745   2.775  12.534  0.5339 -0.2907  0.4904
 3766SOL    HW222758   1.824   2.647  12.527 -1.6648 -1.5701 -0.0169
 3767SOL     OW22759   0.145   2.928  10.931  0.0433 -0.1348  0.3323
 3767SOL    HW122760   0.123   2.837  10.913  1.0383 -0.0252 -1.4164
 3767SOL    HW222761   0.118   2.948  11.021  1.5639  0.9723  0.5384
 3768SOL     OW22762   4.545   2.515   5.679 -0.7101 -0.2427  0.4061
 3768SOL    HW122763   4.545   2.426   5.714  0.6129 -0.9113 -1.3020
 3768SOL    HW222764   4.467   2.544   5.726 -0.1731  3.4637 -1.0185
 3769SOL     OW22765   3.695   3.610   7.717  0.1733  0.4221  0.2374
 3769SOL    HW122766   3.693   3.701   7.745 -0.0956  0.3229  0.5461
 3769SOL    HW222767   3.779   3.607   7.671  0.3436  0.0525  0.5676
 3770SOL     OW22768   0.102   1.749   3.664 -0.4691  0.2912 -0.1721
 3770SOL    HW122769   0.103   1.823   3.725 -1.4085 -0.1236  0.3471
 3770SOL    HW222770   0.182   1.699   3.680 -0.3517  0.4616 -0.2202
 3771SOL     OW22771   3.110   4.664   3.366  0.5283 -0.2598  0.4329
 3771SOL    HW122772   3.180   4.700   3.420 -0.0147 -1.3551  1.8669
 3771SOL    HW222773   3.148   4.706   3.289 -0.4698  2.3231  1.3685
 3772SOL     OW22774   0.389   0.112   9.695  0.0212 -0.2544  0.1198
 3772SOL    HW122775   0.300   0.124   9.728  0.3676 -1.2150  1.4155
 3772SOL    HW222776   0.433   0.097   9.779  0.8012 -0.3616 -0.3061
 3773SOL     OW22777   0.447   4.427   4.232 -0.2671 -0.3015  0.4258
 3773SOL    HW122778   0.366   4.380   4.251  0.5202 -1.1700  1.5970
 3773SOL    HW222779   0.495   4.366   4.175  0.0907  1.1928 -0.8664
 3774SOL     OW22780   3.741   4.566   6.033 -0.5810  0.1286 -0.2198
 3774SOL    HW122781   3.818   4.511   6.018  0.3837  0.8038  2.2960
 3774SOL    HW222782   3.681   4.495   6.056 -0.6478  0.1520 -0.3213
 3775SOL     OW22783   0.315   2.631  10.857  0.1090 -0.5557 -0.4274
 3775SOL    HW122784   0.349   2.712  10.818  1.3141 -0.1790  1.4409
 3775SOL    HW222785   0.390   2.575  10.875  0.5337 -0.7668 -2.7563
 3776SOL     OW22786   2.219   4.214   5.518  0.3183  0.1005 -0.2456
 3776SOL    HW122787   2.138   4.220   5.569  0.5039 -3.1035  0.4379
 3776SOL    HW222788   2.224   4.119   5.515  1.9436  0.2359 -1.6612
 3777SOL     OW22789   3.124   1.640   6.671  0.2896  0.0779 -0.2742
 3777SOL    HW122790   3.218   1.632   6.685  0.1888 -1.3328 -0.4500
 3777SOL    HW222791   3.096   1.651   6.762  0.8434  2.2755 -0.3644
 3778SOL     OW22792   4.647   1.959   4.813  0.2222 -0.6112  0.2305
 3778SOL    HW122793   4.699   1.963   4.733 -0.7954  0.5386 -0.3801
 3778SOL    HW222794   4.700   2.006   4.878 -1.9657  3.2361 -0.7440
 3779SOL     OW22795   0.490   0.433   7.220 -0.2589  0.4800  0.0262
 3779SOL    HW122796   0.399   0.431   7.191 -0.6266 -0.6070  1.2563
 3779SOL    HW222797   0.496   0.343   7.252 -0.8406  0.0434 -1.1077
 3780SOL     OW22798   2.087   4.658   2.304  0.1061 -0.5054  0.1652
 3780SOL    HW122799   2.076   0.031   2.287 -2.8421 -0.3772  2.7423
 3780SOL    HW222800   2.071   4.628   2.214  0.1448  0.1521 -0.0573
 3781SOL     OW22801   0.848   3.492  13.949  0.0414 -0.3914 -0.1336
 3781SOL    HW122802   0.811   3.483  13.861 -0.7627 -2.1801  0.3665
 3781SOL    HW222803   0.855   3.585  13.967  1.1014 -0.2348 -1.4035
 3782SOL     OW22804   4.085   2.657   4.068 -0.1272 -0.2846  0.1531
 3782SOL    HW122805   4.040   2.638   4.151  0.4767 -1.3597  0.2251
 3782SOL    HW222806   4.012   2.693   4.017 -0.4568 -0.8739  0.2131
 3783SOL     OW22807   1.420   1.204  10.294  0.0192  0.5303  0.2068
 3783SOL    HW122808   1.384   1.236  10.377  1.0422 -2.5344  1.8248
 3783SOL    HW222809   1.341   1.153  10.274  0.3268  1.3079 -3.0105
 3784SOL     OW22810   3.994   0.902  16.996  0.2155 -0.1767 -0.1031
 3784SOL    HW122811   4.027   0.832  17.053  1.2040  0.0854 -0.3529
 3784SOL    HW222812   3.985   0.975  17.057  1.1936 -0.1677  0.0299
 3785SOL     OW22813   0.184   1.576   7.261  0.3027  0.7291  0.8078
 3785SOL    HW122814   0.234   1.496   7.276 -0.9864  0.3426  3.1047
 3785SOL    HW222815   0.164   1.609   7.348 -0.8622  2.5711 -0.1430
 3786SOL     OW22816   2.088   2.474   3.969 -0.5580 -0.1965  0.7343
 3786SOL    HW122817   2.108   2.567   3.974  0.4852 -0.2382 -3.1137
 3786SOL    HW222818   1.992   2.478   3.969 -0.5505  0.1040 -2.3259
 3787SOL     OW22819   3.544   1.793   8.736 -0.4333  0.1185 -0.6638
 3787SOL    HW122820   3.503   1.720   8.782 -0.2245 -0.3120 -1.1614
 3787SOL    HW222821   3.485   1.785   8.661  0.4973 -0.6609 -1.3052
 3788SOL     OW22822   4.236   0.641   0.235  0.2133  0.3127  0.3821
 3788SOL    HW122823   4.202   0.578   0.172  1.3098 -1.3586  1.4685
 3788SOL    HW222824   4.266   0.720   0.190 -0.8313 -0.1977 -1.2097
 3789SOL     OW22825   4.030   2.596   1.213 -0.2030  0.3507 -0.4051
 3789SOL    HW122826   4.121   2.581   1.241 -0.8197 -0.1025  1.3769
 3789SOL    HW222827   4.029   2.689   1.191 -0.4064  0.5397  0.3856
 3790SOL     OW22828   4.455   2.080   8.974 -0.6376  0.0377 -0.6483
 3790SOL    HW122829   4.396   2.079   8.899 -1.3488 -0.7185 -0.0695
 3790SOL    HW222830   4.426   2.153   9.028 -0.6079 -0.7469  0.4176
 3791SOL     OW22831   4.040   1.152   2.984 -0.2296  0.3350 -0.0810
 3791SOL    HW122832   4.047   1.058   2.999 -2.6297  0.0532 -0.6594
 3791SOL    HW222833   4.043   1.202   3.066  0.7254  0.1455 -0.0069
 3792SOL     OW22834   0.342   3.155  14.169 -0.4104  0.2100  0.3719
 3792SOL    HW122835   0.372   3.227  14.115 -1.3032  0.3333  0.0436
 3792SOL    HW222836   0.322   3.090  14.102 -2.1702 -0.2345  1.3110
 3793SOL     OW22837   3.681   4.689   2.969  0.2901 -0.0146  1.0610
 3793SOL    HW122838   3.605   4.708   3.025 -1.3832 -1.7035 -0.6312
 3793SOL    HW222839   3.729   0.051   2.976  0.9982 -0.2874 -0.6918
 3794SOL     OW22840   4.278   3.290   5.729 -0.0620 -0.2422  0.3273
 3794SOL    HW122841   4.259   3.197   5.714  0.5991 -1.0636  4.6745
 3794SOL    HW222842   4.200   3.323   5.684 -1.5241 -0.2158  2.8660
 3795SOL     OW22843   1.240   4.572   4.610  0.0557  0.1704 -0.5602
 3795SOL    HW122844   1.150   4.547   4.592 -0.0231 -0.6995  1.0098
 3795SOL    HW222845   1.231   4.667   4.599  0.7423  0.1262 -1.5889
 3796SOL     OW22846   2.965   3.468   6.468  0.2730  0.2566 -0.4432
 3796SOL    HW122847   2.955   3.537   6.534  2.2911  3.3380 -3.3869
 3796SOL    HW222848   2.909   3.394   6.492 -0.9349  0.4155 -2.7726
 3797SOL     OW22849   0.883   3.774   5.211 -1.0061  0.2780 -0.3129
 3797SOL    HW122850   0.970   3.764   5.248 -1.1413  0.9914  0.1983
 3797SOL    HW222851   0.889   3.839   5.141  0.2007  0.3446 -0.1491
 3798SOL     OW22852   2.895   2.910   9.124 -0.4304 -0.2194 -0.1058
 3798SOL    HW122853   2.827   2.859   9.168 -1.4324 -0.0929 -1.4928
 3798SOL    HW222854   2.981   2.872   9.140 -1.0122 -2.5064 -2.3923
 3799SOL     OW22855   0.675   2.152   2.173 -0.3117  0.6132 -0.1184
 3799SOL    HW122856   0.658   2.238   2.136  0.2754  1.3415  1.3303
 3799SOL    HW222857   0.611   2.104   2.120  2.0628 -1.4380 -1.1686
 3800SOL     OW22858   1.263   3.538   4.147  0.4137 -0.8676 -0.0981
 3800SOL    HW122859   1.244   3.537   4.053 -0.9132  0.0661  0.1546
 3800SOL    HW222860   1.282   3.631   4.157 -0.0004 -0.6121 -1.6637
 3801SOL     OW22861   1.985   1.661   5.713  0.0807 -0.2023 -0.0875
 3801SOL    HW122862   1.995   1.582   5.661 -0.8882  0.2675 -0.9958
 3801SOL    HW222863   2.039   1.633   5.787  0.5603 -0.0486 -0.3752
 3802SOL     OW22864   1.894   2.120   1.503 -0.1860 -0.2682 -0.7887
 3802SOL    HW122865   1.804   2.106   1.475 -0.5453  0.7829 -0.1647
 3802SOL    HW222866   1.903   2.032   1.542 -2.2834 -1.1506 -2.3251
 3803SOL     OW22867   3.519   0.416   8.162  0.6453  0.1599  0.5228
 3803SOL    HW122868   3.428   0.444   8.147  0.7500 -1.4631 -3.0566
 3803SOL    HW222869   3.554   0.501   8.190 -0.5319  0.3575  1.4123
 3804SOL     OW22870   3.179   3.185  17.607  0.2899 -0.5786  0.0699
 3804SOL    HW122871   3.092   3.210  17.640  1.0819  0.2623  1.5128
 3804SOL    HW222872   3.194   3.099  17.645  0.7810 -0.3110  0.4855
 3805SOL     OW22873   0.066   2.187   4.923 -0.2048 -0.0189 -0.2189
 3805SOL    HW122874   0.012   2.245   4.869  0.1369 -0.7250 -1.3248
 3805SOL    HW222875   0.150   2.233   4.924 -0.1608 -0.1321  1.5497
 3806SOL     OW22876   2.026   3.082   0.769 -0.0747 -0.0651 -0.1450
 3806SOL    HW122877   1.949   3.137   0.783 -1.3642 -2.2425  1.1592
 3806SOL    HW222878   2.055   3.065   0.859 -1.5255  0.2810  0.3793
 3807SOL     OW22879   0.180   1.155   2.156  0.2740  0.1045 -0.4149
 3807SOL    HW122880   0.242   1.204   2.211 -0.5260 -0.5389  1.0506
 3807SOL    HW222881   0.206   1.169   2.064  0.3628 -1.5460 -0.6408
 3808SOL     OW22882   4.557   2.851   5.396 -0.3225 -0.4365 -0.1206
 3808SOL    HW122883   4.574   2.907   5.320 -1.2072  0.5141  0.3919
 3808SOL    HW222884   4.622   2.885   5.458  0.0009 -0.8102 -0.2536
 3809SOL     OW22885   1.714   4.529   4.657  0.4365  0.3739 -0.3784
 3809SOL    HW122886   1.650   4.541   4.587  0.4377 -2.4913 -0.8544
 3809SOL    HW222887   1.760   4.614   4.657  3.3580 -1.1871 -2.0783
 3810SOL     OW22888   3.001   4.554   5.587  0.2685  0.3844  1.1154
 3810SOL    HW122889   3.050   4.530   5.508  0.3481 -2.2321  1.9663
 3810SOL    HW222890   3.067   4.614   5.623  1.1083  0.1070  0.0585
 3811SOL     OW22891   1.388   0.502  16.732  0.5847  0.4786  0.0802
 3811SOL    HW122892   1.350   0.572  16.679 -1.8676 -1.6909 -0.9979
 3811SOL    HW222893   1.453   0.459  16.678  1.3067  1.6465  0.0198
 3812SOL     OW22894   4.038   1.042   4.367 -0.3003  0.3067 -0.1627
 3812SOL    HW122895   4.069   0.952   4.357 -0.7832  0.0756  0.4299
 3812SOL    HW222896   4.055   1.063   4.459 -3.1060  0.6464  0.2768
 3813SOL     OW22897   3.148   4.025  15.060  0.4215 -0.1448 -0.0864
 3813SOL    HW122898   3.132   3.941  15.104  0.5137  1.5087  3.1233
 3813SOL    HW222899   3.114   4.007  14.973  0.2064  0.9966 -0.2402
 3814SOL     OW22900   3.973   2.549  12.136  0.9016  0.1597  0.0649
 3814SOL    HW122901   4.036   2.592  12.194 -0.0453  0.4341  0.8955
 3814SOL    HW222902   3.890   2.559  12.183  2.2090  2.2895  1.8839
 3815SOL     OW22903   4.479   1.397   7.878 -0.2150 -0.4977 -0.6191
 3815SOL    HW122904   4.561   1.415   7.924 -0.0234 -1.7480 -0.4584
 3815SOL    HW222905   4.495   1.319   7.825 -0.1694  0.9483 -2.7502
 3816SOL     OW22906   3.511   2.113  12.920  0.1159 -0.1914 -0.1740
 3816SOL    HW122907   3.468   2.085  13.001  0.0216 -0.6838 -0.3953
 3816SOL    HW222908   3.572   2.174  12.961 -0.0219 -0.0095 -0.2383
 3817SOL     OW22909   3.527   2.499   1.993  0.0547 -0.1156 -0.6555
 3817SOL    HW122910   3.452   2.507   1.934 -1.2293  0.9248  1.1203
 3817SOL    HW222911   3.583   2.438   1.946  0.4404 -1.8800  2.0860
 3818SOL     OW22912   2.196   3.837   8.883 -0.4189  0.1626 -0.1194
 3818SOL    HW122913   2.154   3.804   8.963 -1.5275 -2.0791 -1.6222
 3818SOL    HW222914   2.170   3.767   8.823  2.1082  0.5744 -1.6777
 3819SOL     OW22915   2.075   3.827   3.829 -0.1229  0.4942 -0.4098
 3819SOL    HW122916   2.008   3.758   3.834  0.0433  0.3525 -0.1162
 3819SOL    HW222917   2.111   3.819   3.918  0.2627  1.0916 -0.5174
 3820SOL     OW22918   2.457   4.634   6.263  0.2804 -0.3012 -0.0271
 3820SOL    HW122919   2.510   4.714   6.266 -0.2950  0.1030 -0.8980
 3820SOL    HW222920   2.483   4.594   6.180  1.9186 -0.1791  0.4249
 3821SOL     OW22921   1.535   3.514  17.549  0.2952 -0.5601  0.4992
 3821SOL    HW122922   1.541   3.478  17.637 -0.3667  2.0037  1.5746
 3821SOL    HW222923   1.485   3.444  17.508  0.4685  0.1666 -0.9579
 3822SOL     OW22924   3.582   2.777  10.002  0.6187 -0.1194 -0.5628
 3822SOL    HW122925   3.522   2.774  10.076  0.4812  0.2766 -0.6573
 3822SOL    HW222926   3.613   2.687  10.000  1.1625  0.0334  0.7212
 3823SOL     OW22927   0.104   4.561  11.307 -0.0622 -0.7109 -0.0627
 3823SOL    HW122928   0.016   4.530  11.283 -0.5075 -0.4635  1.2629
 3823SOL    HW222929   0.160   4.484  11.304 -2.2615 -2.2803 -0.6111
 3824SOL     OW22930   1.752   2.815   1.921  0.6629 -0.0533  0.3932
 3824SOL    HW122931   1.717   2.834   1.834  0.8904  1.7802  0.7154
 3824SOL    HW222932   1.675   2.784   1.970 -0.1140 -0.2781 -0.9758
 3825SOL     OW22933   1.926   3.401   3.162  0.1415 -0.2891  0.3871
 3825SOL    HW122934   1.839   3.368   3.185  0.5973 -1.9781 -0.3131
 3825SOL    HW222935   1.977   3.324   3.187  0.6593 -0.1599 -0.2795
 3826SOL     OW22936   0.784   2.224   2.434  0.2232 -0.3686  0.0487
 3826SOL    HW122937   0.757   2.204   2.344 -2.7542 -0.3101  0.9300
 3826SOL    HW222938   0.850   2.291   2.415 -1.3400  1.1406 -0.0320
 3827SOL     OW22939   1.378   4.328  14.268  0.1455 -0.0314 -0.2956
 3827SOL    HW122940   1.451   4.297  14.321 -0.1293 -2.0446 -1.0839
 3827SOL    HW222941   1.302   4.289  14.312  0.7911  0.4624  1.2334
 3828SOL     OW22942   2.819   1.392   7.978 -0.0930 -0.1010  0.4444
 3828SOL    HW122943   2.876   1.467   7.966 -1.5199  0.8494 -0.3062
 3828SOL    HW222944   2.825   1.366   7.886 -2.0394 -1.4819  0.6969
 3829SOL     OW22945   1.035   0.046   9.633  0.2410  0.8699 -0.7348
 3829SOL    HW122946   1.114   0.037   9.687 -0.8338  0.9006  0.8475
 3829SOL    HW222947   0.980   0.102   9.687  0.4128  1.6782 -1.3822
 3830SOL     OW22948   1.684   3.823   4.054  0.7504  0.2453 -0.5694
 3830SOL    HW122949   1.704   3.785   4.140 -0.9088  1.8076  0.5077
 3830SOL    HW222950   1.707   3.752   3.995  0.0604  1.7564 -2.6317
 3831SOL     OW22951   4.718   2.560   0.812 -0.3289  0.2625  0.1885
 3831SOL    HW122952   0.070   2.614   0.842  1.7101 -1.8758 -0.9467
 3831SOL    HW222953   4.705   2.597   0.724  0.9190  2.2610  0.8450
 3832SOL     OW22954   3.902   3.171   7.656 -0.0985 -0.0105  0.4971
 3832SOL    HW122955   3.853   3.232   7.712  1.2601  0.6505  0.9766
 3832SOL    HW222956   3.839   3.121   7.605  1.3158 -2.5199  1.2047
 3833SOL     OW22957   1.075   3.196  14.936  0.4572 -0.4707  0.0217
 3833SOL    HW122958   1.042   3.129  14.996 -0.9042  2.4191  2.5286
 3833SOL    HW222959   1.028   3.267  14.980  0.9005 -0.0597 -0.1759
 3834SOL     OW22960   4.149   3.026  11.906  0.1059  0.4130 -0.0065
 3834SOL    HW122961   4.107   2.947  11.939  0.4930  0.5485  0.7999
 3834SOL    HW222962   4.081   3.093  11.917  1.7509  1.8249  1.5508
 3835SOL     OW22963   1.031   3.894   6.671  0.3290 -0.1584  0.6995
 3835SOL    HW122964   1.042   3.989   6.664 -0.7387  0.0290  1.5205
 3835SOL    HW222965   1.119   3.861   6.652 -0.5805  0.6397 -4.7659
 3836SOL     OW22966   3.830   0.730   3.713  0.0233  0.0734 -0.1479
 3836SOL    HW122967   3.796   0.737   3.802 -1.1665 -0.1915 -0.5761
 3836SOL    HW222968   3.770   0.790   3.669  0.0804 -1.6239 -2.5294
 3837SOL     OW22969   3.378   1.154   1.931 -0.1313 -0.2493  0.1381
 3837SOL    HW122970   3.326   1.086   1.973 -1.2801  0.2244 -0.5423
 3837SOL    HW222971   3.308   1.173   1.870 -0.3456  0.2380  0.5329
 3838SOL     OW22972   3.624   3.832   1.301 -0.1905 -0.0937 -0.1139
 3838SOL    HW122973   3.548   3.776   1.318  1.2197 -1.3229  2.2692
 3838SOL    HW222974   3.596   3.907   1.250  1.4575 -1.9728 -3.7680
 3839SOL     OW22975   3.375   2.318   9.985  0.3233 -0.1605 -0.8334
 3839SOL    HW122976   3.398   2.320   9.892 -3.5152  0.8655 -1.7565
 3839SOL    HW222977   3.279   2.308   9.989  0.2590  1.5133  2.1026
 3840SOL     OW22978   4.141   2.830   3.618 -0.2145 -0.2603  0.0924
 3840SOL    HW122979   4.072   2.769   3.642  0.0289 -0.9295 -0.8731
 3840SOL    HW222980   4.204   2.767   3.583 -1.8367 -1.0970 -1.2939
 3841SOL     OW22981   0.720   3.178  11.561 -0.0424  0.6921  0.6021
 3841SOL    HW122982   0.702   3.262  11.518 -0.1491  1.7885  2.8088
 3841SOL    HW222983   0.815   3.167  11.561 -0.2659 -1.2895 -0.8679
 3842SOL     OW22984   3.982   4.145  13.435 -0.1157 -0.4056 -0.2314
 3842SOL    HW122985   3.956   4.214  13.496  0.3656  0.4982 -1.0491
 3842SOL    HW222986   4.075   4.166  13.421  0.6717 -1.9969  2.6872
 3843SOL     OW22987   0.382   2.250   9.328  0.4262  0.2461 -0.2087
 3843SOL    HW122988   0.451   2.316   9.321  0.2575  0.1442 -2.8971
 3843SOL    HW222989   0.407   2.214   9.413 -0.9421  1.5018  0.7319
 3844SOL     OW22990   2.383   3.012   1.394 -0.2248 -0.5444  0.1797
 3844SOL    HW122991   2.288   3.005   1.383 -0.3648 -0.5188  1.3752
 3844SOL    HW222992   2.395   2.967   1.478  1.6953  1.3617  0.9058
 3845SOL     OW22993   2.531   3.014   8.324 -0.3611 -0.4179 -0.1545
 3845SOL    HW122994   2.531   3.049   8.413 -2.5157 -1.1685  0.1534
 3845SOL    HW222995   2.558   3.093   8.279 -0.0723 -0.3312  0.1770
 3846SOL     OW22996   3.235   2.088   3.611 -0.2071  0.0836 -0.2862
 3846SOL    HW122997   3.232   2.157   3.546  1.4320 -1.2789 -1.8234
 3846SOL    HW222998   3.290   2.134   3.675  1.0036 -1.1326 -0.4572
 3847SOL     OW22999   2.877   4.585   8.983  0.1559  0.0875 -0.4634
 3847SOL    HW123000   2.813   4.655   8.996 -0.8609 -0.5437 -2.0100
 3847SOL    HW223001   2.940   4.615   9.047 -0.8146  0.3749  0.3531
 3848SOL     OW23002   1.923   4.242  16.697  0.1002 -0.0796  0.4513
 3848SOL    HW123003   1.868   4.314  16.728  1.2764 -0.0575  2.4507
 3848SOL    HW223004   1.863   4.216  16.628 -1.7550  2.0671  1.2598
 3849SOL     OW23005   1.782   2.104   6.814 -0.3138 -0.2524  0.7620
 3849SOL    HW123006   1.803   2.027   6.866  1.9726  0.2628  0.6239
 3849SOL    HW223007   1.867   2.127   6.775  0.3658 -0.5971  2.0429
 3850SOL     OW23008   2.811   0.198   3.436 -0.1182 -0.2368  0.1803
 3850SOL    HW123009   2.829   0.231   3.348 -0.6500 -4.1700 -1.3925
 3850SOL    HW223010   2.901   0.181   3.464  0.0592 -1.0222 -0.8657
 3851SOL     OW23011   4.598   0.099  11.058 -0.3544  0.4347  0.0985
 3851SOL    HW123012   4.507   0.114  11.085 -0.2893  0.5274  0.2677
 3851SOL    HW223013   4.650   0.106  11.138 -0.1237  2.4274 -0.2245
 3852SOL     OW23014   1.440   1.697  14.897  0.3200 -0.5897 -0.2677
 3852SOL    HW123015   1.359   1.747  14.907  0.7992  0.2501 -0.6261
 3852SOL    HW223016   1.423   1.625  14.835 -0.3674 -0.1623 -0.5764
 3853SOL     OW23017   4.563   4.009   3.393 -0.1455  0.7592 -0.2419
 3853SOL    HW123018   4.647   4.042   3.428 -0.4406  0.3890  0.8194
 3853SOL    HW223019   4.585   3.927   3.349  0.3019  0.1602  1.1136
 3854SOL     OW23020   4.706   0.244   2.291  0.2924 -0.4502 -0.1188
 3854SOL    HW123021   0.031   0.328   2.293 -2.5633  1.1015 -0.2456
 3854SOL    HW223022   4.720   0.219   2.199  1.1255  1.9606 -0.6278
 3855SOL     OW23023   0.726   3.792   4.562  0.0038 -0.5137  0.2755
 3855SOL    HW123024   0.802   3.735   4.577  1.2107  1.3377  1.2255
 3855SOL    HW223025   0.661   3.722   4.573 -1.1098  1.1048  3.7144
 3856SOL     OW23026   0.700   1.923   9.255  0.1797  0.3244 -0.2383
 3856SOL    HW123027   0.615   1.899   9.291  0.6495 -2.1985 -0.8068
 3856SOL    HW223028   0.701   1.880   9.170 -2.4924 -0.5599  0.1882
 3857SOL     OW23029   4.044   2.114   0.288  0.2997 -0.1381  0.2039
 3857SOL    HW123030   3.971   2.171   0.310  1.3448  1.0952  0.4961
 3857SOL    HW223031   4.105   2.115   0.362  0.4959  1.5178  0.0101
 3858SOL     OW23032   1.052   4.269   5.546  0.4364 -0.0358 -0.1443
 3858SOL    HW123033   1.023   4.360   5.553 -0.9893 -0.5585  0.6322
 3858SOL    HW223034   0.968   4.223   5.542  0.2515  0.4176 -1.5690
 3859SOL     OW23035   3.967   1.493   6.744 -0.2282 -0.0985  0.3813
 3859SOL    HW123036   4.039   1.522   6.688 -0.7059  1.2432  0.4766
 3859SOL    HW223037   3.891   1.528   6.699  0.3070  2.1552  1.2380
 3860SOL     OW23038   1.578   3.058   6.553  0.0886 -0.3081  0.1446
 3860SOL    HW123039   1.666   3.073   6.519  0.4526 -1.1984  0.6796
 3860SOL    HW223040   1.540   3.014   6.477  1.4084  0.8716 -1.1998
 3861SOL     OW23041   3.008   4.002  16.543 -0.3677 -0.2782  0.2219
 3861SOL    HW123042   3.090   3.957  16.565  0.8056  1.0797 -1.3232
 3861SOL    HW223043   3.016   4.061  16.618 -1.2751  2.2861 -1.7007
 3862SOL     OW23044   2.974   2.006   2.589 -0.4427  0.1622 -0.0748
 3862SOL    HW123045   3.010   1.917   2.583  0.7647  0.6487  0.0143
 3862SOL    HW223046   3.054   2.057   2.584 -0.4587  0.1067 -0.8376
 3863SOL     OW23047   1.549   3.528  10.478 -0.1137 -0.4440 -0.2403
 3863SOL    HW123048   1.633   3.538  10.523  0.9378  0.2662 -2.4124
 3863SOL    HW223049   1.533   3.442  10.519  0.9132  0.1934  1.5087
 3864SOL     OW23050   2.432   1.170   4.279  0.2845 -0.1509 -0.5743
 3864SOL    HW123051   2.420   1.078   4.299 -0.3187  0.1608  0.5190
 3864SOL    HW223052   2.381   1.215   4.346 -1.1353 -0.7491 -1.2687
 3865SOL     OW23053   0.212   3.115   5.400  0.1017 -0.4557 -0.4100
 3865SOL    HW123054   0.247   3.026   5.410  0.4996 -0.2187  0.3035
 3865SOL    HW223055   0.295   3.163   5.393 -0.0367  0.1179  1.7685
 3866SOL     OW23056   1.317   0.953   8.775  0.3943 -0.2489  0.8369
 3866SOL    HW123057   1.401   0.929   8.814 -0.0257 -1.4327  1.0395
 3866SOL    HW223058   1.263   0.950   8.854 -2.9364  1.3113 -1.3885
 3867SOL     OW23059   1.135   2.728   6.289  0.4577 -0.0355  0.0689
 3867SOL    HW123060   1.089   2.713   6.372  1.5605  1.9234  1.0376
 3867SOL    HW223061   1.223   2.743   6.321  0.4137 -2.5813  1.3685
 3868SOL     OW23062   2.791   0.189   6.737  0.3415  0.6012 -0.5410
 3868SOL    HW123063   2.804   0.254   6.806 -0.2268 -0.1143  0.2505
 3868SOL    HW223064   2.721   0.233   6.688 -0.3694 -2.4808 -2.3150
 3869SOL     OW23065   2.994   4.326   6.479 -0.2033 -0.3673  0.2887
 3869SOL    HW123066   2.966   4.251   6.532  1.2217 -1.0146  0.1161
 3869SOL    HW223067   3.018   4.282   6.398 -0.3461 -0.1042  0.1046
 3870SOL     OW23068   2.281   1.293   9.400  0.2207  0.4754  0.0065
 3870SOL    HW123069   2.360   1.271   9.450 -0.6513 -1.4636  0.5097
 3870SOL    HW223070   2.225   1.337   9.464 -0.1079  0.1826 -0.0861
 3871SOL     OW23071   1.544   1.099  13.947 -0.6417 -0.2389  0.1708
 3871SOL    HW123072   1.448   1.091  13.944 -0.6890  0.4020  0.0747
 3871SOL    HW223073   1.572   1.155  13.875 -2.3939 -1.1303 -1.2337
 3872SOL     OW23074   0.674   3.529   2.731 -0.6602  0.5411 -0.2504
 3872SOL    HW123075   0.738   3.468   2.768 -0.2173  1.3224  0.2704
 3872SOL    HW223076   0.616   3.534   2.806  0.3289 -0.1093  0.5439
 3873SOL     OW23077   0.079   3.942   7.123 -0.0205  0.3378 -0.1125
 3873SOL    HW123078   4.713   3.982   7.115  0.0543  0.2553 -1.2965
 3873SOL    HW223079   0.104   3.990   7.202 -0.8531  0.0222  0.3378
 3874SOL     OW23080   2.448   3.580   4.421 -0.3827 -0.1550  0.2287
 3874SOL    HW123081   2.491   3.661   4.449  0.1594 -0.1115 -0.7222
 3874SOL    HW223082   2.376   3.614   4.368 -0.4194  2.4388  1.9332
 3875SOL     OW23083   4.263   4.409   8.038  0.2440  0.1843 -0.1069
 3875SOL    HW123084   4.322   4.407   7.963  0.2100 -0.6712 -0.1113
 3875SOL    HW223085   4.265   4.313   8.048 -2.1932 -0.0888 -2.4766
 3876SOL     OW23086   2.924   1.398   7.302 -0.1844 -0.0918  0.5864
 3876SOL    HW123087   2.995   1.371   7.360 -0.0932  1.1200  1.0406
 3876SOL    HW223088   2.884   1.468   7.353  0.3864 -0.4332  1.4933
 3877SOL     OW23089   1.949   2.529   7.174  0.0177  0.2911  0.2675
 3877SOL    HW123090   1.855   2.541   7.171 -0.0154 -0.2863 -1.1040
 3877SOL    HW223091   1.941   2.437   7.149 -0.7801  0.2014  0.8754
 3878SOL     OW23092   2.335   0.487  16.098  0.2076  0.0792 -0.1247
 3878SOL    HW123093   2.257   0.539  16.119  0.4577  0.9593 -1.3192
 3878SOL    HW223094   2.369   0.538  16.024 -0.8059  0.3604 -0.3951
 3879SOL     OW23095   3.503   3.025  11.516 -0.2671 -0.0419 -0.6257
 3879SOL    HW123096   3.561   3.091  11.477  1.0771  0.2396  1.7979
 3879SOL    HW223097   3.484   3.067  11.600  0.1618 -0.6745 -0.2095
 3880SOL     OW23098   0.827   4.391   5.896  0.3703  0.3926  0.1276
 3880SOL    HW123099   0.920   4.410   5.885  0.3888 -0.4221 -0.9892
 3880SOL    HW223100   0.830   4.297   5.877  2.2459  0.3374  0.7259
 3881SOL     OW23101   1.793   1.792   4.535  0.4926  0.1204 -0.4486
 3881SOL    HW123102   1.813   1.723   4.472 -0.5910 -0.3190 -0.3130
 3881SOL    HW223103   1.800   1.744   4.618 -1.7159 -2.3225 -1.6979
 3882SOL     OW23104   2.226   1.873   5.697  0.1011  0.0131  0.1208
 3882SOL    HW123105   2.196   1.951   5.744 -2.0039 -0.0163 -1.1981
 3882SOL    HW223106   2.204   1.803   5.759 -2.1963 -0.4512 -1.2464
 3883SOL     OW23107   2.927   0.956  12.255 -0.6204  0.1179 -0.5197
 3883SOL    HW123108   2.842   0.932  12.218 -1.2728 -1.4970  2.0826
 3883SOL    HW223109   2.972   0.876  12.227 -3.3436 -1.1136 -1.4293
 3884SOL     OW23110   1.362   3.984  14.240 -0.0430 -0.2707 -0.7127
 3884SOL    HW123111   1.304   4.022  14.307  0.6852 -1.4727  0.5947
 3884SOL    HW223112   1.305   3.967  14.165 -1.9875 -1.2838  1.0083
 3885SOL     OW23113   0.937   2.939   2.259  0.1121  0.5739 -0.1381
 3885SOL    HW123114   0.865   2.900   2.309  1.0496  1.7867  2.1492
 3885SOL    HW223115   0.999   2.866   2.251  1.7117  2.1738 -2.3836
 3886SOL     OW23116   1.509   4.169   5.727  0.3308  0.2469  0.3889
 3886SOL    HW123117   1.589   4.136   5.686  0.4614  3.4293 -1.8962
 3886SOL    HW223118   1.474   4.224   5.657  0.3437 -0.8715 -0.4894
 3887SOL     OW23119   1.673   4.308  11.927 -0.4155  0.5774  0.0657
 3887SOL    HW123120   1.732   4.236  11.947  0.5883  1.0237 -1.3464
 3887SOL    HW223121   1.728   4.372  11.882  0.3514  0.7651  1.2831
 3888SOL     OW23122   0.319   1.377  14.420  0.3600  0.1566 -0.1649
 3888SOL    HW123123   0.256   1.432  14.467  0.2431 -0.5805  0.5429
 3888SOL    HW223124   0.271   1.375  14.337  0.0424 -0.5456  0.0278
 3889SOL     OW23125   2.704   0.724  16.313  0.0819 -0.1435 -0.0696
 3889SOL    HW123126   2.716   0.819  16.317  0.6719 -0.3895  3.5983
 3889SOL    HW223127   2.614   0.706  16.339  0.8588 -1.8969  1.3449
 3890SOL     OW23128   0.355   0.204   7.233 -0.5590 -0.0346  0.2029
 3890SOL    HW123129   0.326   0.147   7.303  2.7057 -2.0948 -0.1194
 3890SOL    HW223130   0.288   0.208   7.165 -0.8978 -0.2081  0.5297
 3891SOL     OW23131   4.221   2.586   8.110  0.7561 -0.2533  0.4792
 3891SOL    HW123132   4.297   2.578   8.168  0.5606 -2.7510  0.4112
 3891SOL    HW223133   4.236   2.673   8.073 -2.1470  1.2181  2.7816
 3892SOL     OW23134   0.752   0.990  14.904 -0.5178 -0.7153  0.1682
 3892SOL    HW123135   0.709   0.982  14.819  2.2671  0.2826 -1.3039
 3892SOL    HW223136   0.674   0.997  14.960 -1.5088  1.2681 -1.4744
 3893SOL     OW23137   1.677   4.462   6.485 -0.4077  0.2985 -0.4183
 3893SOL    HW123138   1.649   4.399   6.551 -0.4851  0.9886  0.2036
 3893SOL    HW223139   1.742   4.411   6.436  0.2352  1.3679 -0.6906
 3894SOL     OW23140   3.362   1.050   3.330 -0.0552 -0.1853 -0.3413
 3894SOL    HW123141   3.333   0.985   3.394  2.0933  0.3466  1.1548
 3894SOL    HW223142   3.456   1.030   3.322  0.5251  2.0769  0.8588
 3895SOL     OW23143   1.918   2.680   6.077  0.1489  0.0235  0.5743
 3895SOL    HW123144   1.872   2.598   6.093  0.9310 -0.0764  2.3461
 3895SOL    HW223145   1.851   2.748   6.077  1.2953  1.1501 -0.5184
 3896SOL     OW23146   3.891   2.140   6.465 -0.3764  0.2455  0.0330
 3896SOL    HW123147   3.890   2.134   6.370 -3.2662 -0.9650  0.1534
 3896SOL    HW223148   3.968   2.086   6.485 -1.0386 -0.7089 -0.0091
 3897SOL     OW23149   4.549   0.459   4.314  0.0225  0.1356 -0.5111
 3897SOL    HW123150   4.454   0.469   4.324  0.2541  1.9717 -0.1945
 3897SOL    HW223151   4.578   0.453   4.406  0.8873  0.0271 -0.7928
 3898SOL     OW23152   1.238   1.740  13.566  0.3897  0.1287  0.1483
 3898SOL    HW123153   1.195   1.785  13.639  1.3889 -1.3055  1.6251
 3898SOL    HW223154   1.163   1.697  13.524  1.3028 -0.7071 -0.6339
 3899SOL     OW23155   1.420   1.744   2.654  0.1531  0.1572 -0.6343
 3899SOL    HW123156   1.388   1.728   2.565  0.0295  1.1968 -0.7751
 3899SOL    HW223157   1.502   1.696   2.667  0.0180 -0.0947 -0.7164
 3900SOL     OW23158   4.184   1.716   5.389  0.2364  0.2917  0.1240
 3900SOL    HW123159   4.132   1.793   5.409 -1.0898 -0.0239 -2.0953
 3900SOL    HW223160   4.248   1.710   5.460  1.3167 -1.2177 -0.9550
 3901SOL     OW23161   0.072   3.993   6.841 -0.7631  0.6160 -0.1368
 3901SOL    HW123162   0.068   3.963   6.932 -2.7761 -3.1462 -1.4352
 3901SOL    HW223163   0.067   4.088   6.848  1.2243  0.7957 -1.1058
 3902SOL     OW23164   2.063   1.190   2.559 -0.4038  0.2956 -0.6757
 3902SOL    HW123165   2.137   1.238   2.522 -1.0315  0.8614 -1.1915
 3902SOL    HW223166   2.108   1.154   2.636 -1.1379 -2.3294 -1.4725
 3903SOL     OW23167   3.827   2.651   3.306  0.4296 -0.4908 -0.1605
 3903SOL    HW123168   3.784   2.722   3.258 -1.8593 -1.4853  0.4156
 3903SOL    HW223169   3.756   2.600   3.344 -1.2481  3.2673  1.7348
 3904SOL     OW23170   0.508   2.486   2.785 -0.5580  0.3354 -0.2258
 3904SOL    HW123171   0.449   2.467   2.857 -1.7569  1.3855 -0.9281
 3904SOL    HW223172   0.470   2.432   2.716  0.1679 -0.4935  0.0261
 3905SOL     OW23173   2.294   3.860   8.107  0.3355 -0.4880  0.1461
 3905SOL    HW123174   2.370   3.916   8.108  0.3038 -0.4083 -1.5826
 3905SOL    HW223175   2.287   3.832   8.199 -2.3892 -0.8034 -0.1476
 3906SOL     OW23176   1.169   1.351   5.534  0.4518 -0.1249 -0.5238
 3906SOL    HW123177   1.151   1.259   5.513 -4.0821  0.7324 -0.3923
 3906SOL    HW223178   1.201   1.341   5.624  0.8151 -2.6265 -0.9416
 3907SOL     OW23179   1.997   4.719   5.170 -1.2055  0.2195  0.6252
 3907SOL    HW123180   1.997   0.077   5.225 -1.1918  0.8461 -0.2870
 3907SOL    HW223181   1.929   0.022   5.107  1.9013 -0.8774 -3.1274
 3908SOL     OW23182   4.256   1.364   8.540  0.2685 -0.0566 -0.2360
 3908SOL    HW123183   4.312   1.441   8.545  2.0733 -1.4719  1.6332
 3908SOL    HW223184   4.207   1.381   8.620  1.6320  0.9858  0.3694
 3909SOL     OW23185   3.742   2.468  10.952 -0.2423 -0.2015 -0.1835
 3909SOL    HW123186   3.652   2.480  10.980 -1.2195 -0.3831 -3.2797
 3909SOL    HW223187   3.758   2.536  10.886  0.8108 -1.8494 -1.6524
 3910SOL     OW23188   0.497   3.465   6.135 -0.9470 -0.0072  0.3089
 3910SOL    HW123189   0.461   3.461   6.047 -2.7761  0.7052  1.0280
 3910SOL    HW223190   0.517   3.557   6.149  2.2025 -0.5808 -0.3759
 3911SOL     OW23191   2.294   2.369   8.510 -0.5037  0.4211  0.0694
 3911SOL    HW123192   2.258   2.413   8.586 -1.6735  0.9957 -0.8193
 3911SOL    HW223193   2.330   2.290   8.549  2.1676  0.4981 -2.2183
 3912SOL     OW23194   0.263   0.238   8.659  0.7707 -0.1691 -0.5489
 3912SOL    HW123195   0.278   0.175   8.730 -1.6581 -0.4344 -0.2588
 3912SOL    HW223196   0.292   0.324   8.688  0.5132  0.5561 -2.4692
 3913SOL     OW23197   0.107   0.429   4.452 -0.3296 -0.2992  0.3004
 3913SOL    HW123198   0.122   0.343   4.491  1.2946 -0.2280 -0.1836
 3913SOL    HW223199   0.046   0.413   4.380  0.4591  0.7918 -0.6053
 3914SOL     OW23200   3.031   1.592   6.243 -0.0483  0.1230  0.8326
 3914SOL    HW123201   3.102   1.545   6.201 -1.0308  0.7116 -1.4821
 3914SOL    HW223202   2.967   1.520   6.240  1.7569 -1.4900  1.2508
 3915SOL     OW23203   2.106   3.754  16.857  0.0619 -0.2163  0.6662
 3915SOL    HW123204   2.058   3.686  16.811 -0.9649 -0.9686  2.8362
 3915SOL    HW223205   2.191   3.711  16.865  0.4915  0.6246  0.5938
 3916SOL     OW23206   3.319   4.623   2.126  0.4303 -0.0627  0.6495
 3916SOL    HW123207   3.372   4.686   2.174  1.4337 -0.1182 -0.4128
 3916SOL    HW223208   3.249   4.680   2.096  1.1605  0.0053 -0.9007
 3917SOL     OW23209   4.102   2.895   6.651  1.0555 -0.9335 -0.3101
 3917SOL    HW123210   4.091   2.880   6.557 -1.6066  2.2577 -0.4912
 3917SOL    HW223211   4.086   2.989   6.640  0.5711 -1.0181 -0.2950
 3918SOL     OW23212   2.943   3.687   7.297  0.2267  0.1830  0.0047
 3918SOL    HW123213   2.929   3.781   7.296  0.5130  0.2494  1.4746
 3918SOL    HW223214   2.938   3.674   7.203 -1.1913  0.4153  0.0572
 3919SOL     OW23215   2.790   4.129  14.804 -0.0421  0.0889  0.0003
 3919SOL    HW123216   2.811   4.211  14.850  0.6656 -0.1029  0.0172
 3919SOL    HW223217   2.695   4.135  14.804  0.1354  3.0319  1.4455
 3920SOL     OW23218   3.582   1.581   7.062 -0.2851 -0.3309  0.1677
 3920SOL    HW123219   3.653   1.607   7.120 -1.8017  0.5347  1.6321
 3920SOL    HW223220   3.553   1.499   7.100  1.6990  0.0830  2.5751
 3921SOL     OW23221   2.495   2.056   4.780 -0.1686  0.0743 -0.3732
 3921SOL    HW123222   2.494   2.152   4.776  3.3034  0.0918 -0.1480
 3921SOL    HW223223   2.570   2.032   4.727 -0.4404  0.9356 -1.1402
 3922SOL     OW23224   2.000   3.688   5.567  0.5652 -0.3107 -0.9314
 3922SOL    HW123225   2.079   3.662   5.613 -0.0039 -1.4660 -0.6082
 3922SOL    HW223226   1.950   3.619   5.610 -1.2230  1.9162  0.5678
 3923SOL     OW23227   2.636   4.198   8.485 -0.0625  0.8075 -0.3063
 3923SOL    HW123228   2.644   4.170   8.576 -1.1158  3.7597  0.7028
 3923SOL    HW223229   2.692   4.128   8.451  0.0281 -0.8822  3.2998
 3924SOL     OW23230   2.211   2.553   7.052 -0.0063 -0.1343 -0.0321
 3924SOL    HW123231   2.282   2.603   7.091 -1.3712  3.4420 -2.1001
 3924SOL    HW223232   2.147   2.541   7.123 -0.5953 -0.1236 -0.5557
 3925SOL     OW23233   0.138   0.351  12.624 -0.1854  0.0358 -0.2555
 3925SOL    HW123234   0.103   0.352  12.713  1.1527  0.5224  0.2703
 3925SOL    HW223235   0.203   0.417  12.648 -1.2534  0.2399  2.0450
 3926SOL     OW23236   1.186   2.267   6.346 -0.0707 -0.1722  0.0397
 3926SOL    HW123237   1.218   2.177   6.337  0.6210  0.3975 -3.3790
 3926SOL    HW223238   1.176   2.295   6.437 -4.1419  0.1710 -0.5300
 3927SOL     OW23239   4.488   1.276   5.269  0.1348 -0.0386  0.5551
 3927SOL    HW123240   4.412   1.307   5.220 -0.4925  0.1220  1.6515
 3927SOL    HW223241   4.513   1.204   5.211 -2.6582 -0.6421  0.1029
 3928SOL     OW23242   0.351   3.267   4.778 -0.1659 -0.3397 -0.0397
 3928SOL    HW123243   0.258   3.288   4.769  0.2997  1.8191  0.0004
 3928SOL    HW223244   0.345   3.202   4.848  2.0299  1.2336  1.6388
 3929SOL     OW23245   4.435   0.130   4.448  0.1717  0.7039 -0.5418
 3929SOL    HW123246   4.365   0.189   4.476  0.1596  0.1913  0.4976
 3929SOL    HW223247   4.379   0.078   4.391  0.4398  0.4415 -0.5690
 3930SOL     OW23248   0.798   3.863   8.449 -0.6567  0.2042  0.1137
 3930SOL    HW123249   0.736   3.814   8.502 -0.1660  0.0557  0.5514
 3930SOL    HW223250   0.747   3.879   8.370  0.5330  1.1399 -0.4629
 3931SOL     OW23251   2.362   0.399  10.041 -0.5141  0.1817  0.4657
 3931SOL    HW123252   2.280   0.449  10.044  0.5138  1.7952  1.7579
 3931SOL    HW223253   2.410   0.470  10.083  1.6309 -1.9215  1.5497
 3932SOL     OW23254   4.049   2.968   2.554 -0.3483  0.1163  0.3499
 3932SOL    HW123255   4.001   3.022   2.492 -0.3135  1.5770  1.5834
 3932SOL    HW223256   4.126   2.951   2.500  1.2058 -1.2009  2.9551
 3933SOL     OW23257   0.250   0.378  15.931 -0.7172 -0.0916 -0.4901
 3933SOL    HW123258   0.264   0.427  16.012 -0.7946  1.4908 -1.4369
 3933SOL    HW223259   0.308   0.419  15.866  0.1206 -0.5770 -0.0549
 3934SOL     OW23260   4.229   3.620  10.266 -0.3615  0.5320 -0.5109
 3934SOL    HW123261   4.185   3.660  10.191 -1.1312 -1.8651 -1.3200
 3934SOL    HW223262   4.299   3.684  10.283 -2.2785  2.2450  0.9302
 3935SOL     OW23263   0.358   3.555   9.275 -0.1981 -0.1531 -0.7528
 3935SOL    HW123264   0.413   3.581   9.349 -0.1532 -0.2554 -0.7500
 3935SOL    HW223265   0.277   3.534   9.320  0.7742  1.7973  1.8948
 3936SOL     OW23266   0.904   2.495   7.216  0.0591  0.5555 -0.4201
 3936SOL    HW123267   0.914   2.589   7.233  0.4296 -0.0193  2.5005
 3936SOL    HW223268   0.812   2.480   7.194 -0.5362 -0.3033  2.5770
 3937SOL     OW23269   4.092   4.645   6.082 -0.4519  0.1256 -0.2871
 3937SOL    HW123270   4.178   4.687   6.079  0.6205 -2.0872 -0.7266
 3937SOL    HW223271   4.114   4.552   6.089 -0.5840  0.1536  0.5265
 3938SOL     OW23272   2.748   0.392   6.920 -0.4317 -0.4323  0.0716
 3938SOL    HW123273   2.758   0.359   7.010  1.6523 -0.5065 -0.2087
 3938SOL    HW223274   2.804   0.468   6.910 -3.3930  1.6621 -0.4188
 3939SOL     OW23275   0.723   0.670   0.077 -0.0952 -0.1430 -0.0140
 3939SOL    HW123276   0.689   0.598   0.023 -0.6970  1.0717 -1.2704
 3939SOL    HW223277   0.804   0.634   0.112  0.6328  0.3543 -1.1622
 3940SOL     OW23278   0.701   2.138   5.840  0.1942  0.3975  0.3189
 3940SOL    HW123279   0.752   2.192   5.779 -1.4805 -0.2101 -1.6071
 3940SOL    HW223280   0.664   2.075   5.779  1.5646 -0.1189  0.0085
 3941SOL     OW23281   3.321   1.396  15.810  0.3492  0.5811  0.0924
 3941SOL    HW123282   3.387   1.332  15.837  2.2871  3.2676  1.6872
 3941SOL    HW223283   3.365   1.481  15.806 -2.1982  1.9634  1.5785
 3942SOL     OW23284   4.629   1.794   3.450 -0.8816 -0.2401  0.1643
 3942SOL    HW123285   4.713   1.763   3.485 -2.1383 -0.5787  2.8690
 3942SOL    HW223286   4.614   1.883   3.482  2.0728  0.8675 -1.5551
 3943SOL     OW23287   0.234   0.254  10.604 -0.0921 -0.0455 -0.7675
 3943SOL    HW123288   0.261   0.178  10.656  0.7441 -0.2049 -1.4388
 3943SOL    HW223289   0.140   0.241  10.614 -0.3373  2.3327  0.0058
 3944SOL     OW23290   2.901   4.004   4.022 -0.0661  0.0537 -0.0634
 3944SOL    HW123291   2.956   4.036   4.094 -0.5487 -0.7876  0.6712
 3944SOL    HW223292   2.912   4.081   3.966  1.1632  0.0532  0.1692
 3945SOL     OW23293   2.503   0.384   4.406  0.0779  0.0445  0.0203
 3945SOL    HW123294   2.500   0.288   4.402 -3.1059  0.1134  0.1617
 3945SOL    HW223295   2.589   0.408   4.438 -0.2614 -1.7590  2.3022
 3946SOL     OW23296   3.384   1.257   2.961  1.2092 -0.0138 -0.0663
 3946SOL    HW123297   3.361   1.188   2.897 -3.0147  0.6618  0.7398
 3946SOL    HW223298   3.311   1.317   2.966  2.7098  1.7828  0.2044
 3947SOL     OW23299   1.147   0.099   8.012 -0.0168 -0.4835 -0.3851
 3947SOL    HW123300   1.143   0.039   8.087 -2.1281  1.4642  1.0624
 3947SOL    HW223301   1.217   0.154   8.048 -2.3874  2.1954  0.1257
 3948SOL     OW23302   4.183   3.412  17.050 -0.6210 -0.6694 -0.0856
 3948SOL    HW123303   4.214   3.405  17.140 -0.2450 -0.8732 -0.2329
 3948SOL    HW223304   4.166   3.505  17.032  0.8117 -0.7388 -1.8486
 3949SOL     OW23305   4.683   2.265  15.964  0.0650  0.0450  0.2760
 3949SOL    HW123306   4.615   2.324  15.932 -1.4484 -0.4067  2.6708
 3949SOL    HW223307   4.637   2.180  15.967 -1.2651  0.7722  0.3507
 3950SOL     OW23308   2.457   3.734  16.463 -0.0919 -0.4196 -0.0984
 3950SOL    HW123309   2.382   3.736  16.404 -0.1024 -0.2392 -0.0808
 3950SOL    HW223310   2.526   3.755  16.401 -2.2495  2.7736 -1.4040
 3951SOL     OW23311   2.289   0.761   4.121 -0.1922  0.2236  0.3076
 3951SOL    HW123312   2.197   0.787   4.134 -0.2397  0.1015  0.2132
 3951SOL    HW223313   2.296   0.676   4.164  5.1183 -0.6775 -2.3274
 3952SOL     OW23314   4.577   4.084   7.038  0.1024 -0.1663 -0.0582
 3952SOL    HW123315   4.590   4.103   6.946  0.5505 -2.8790 -0.5499
 3952SOL    HW223316   4.491   4.042   7.039  0.2263 -0.4216 -1.0472
 3953SOL     OW23317   2.498   1.841  16.758  0.2399 -0.1044 -0.5392
 3953SOL    HW123318   2.553   1.913  16.728  1.1371 -0.1915  0.9055
 3953SOL    HW223319   2.497   1.867  16.850 -1.5375 -2.5374  0.1441
 3954SOL     OW23320   2.513   1.767   5.873 -0.9014  0.2854  0.4857
 3954SOL    HW123321   2.587   1.788   5.930 -1.3429 -0.3834  1.3115
 3954SOL    HW223322   2.495   1.850   5.829 -3.0686  0.1904  1.1597
 3955SOL     OW23323   2.744   2.239   3.251  0.3360  0.1906 -0.1347
 3955SOL    HW123324   2.827   2.193   3.263  0.4442  0.4717  0.1998
 3955SOL    HW223325   2.759   2.319   3.302 -0.7987  0.1119  0.3145
 3956SOL     OW23326   1.301   3.249   7.420 -0.7083  0.0177  0.0309
 3956SOL    HW123327   1.263   3.169   7.383  0.8578 -0.1895 -1.0740
 3956SOL    HW223328   1.219   3.293   7.444 -0.2010  0.6798  0.5742
 3957SOL     OW23329   1.426   0.081   8.353 -0.0732  0.0545  0.8364
 3957SOL    HW123330   1.450   0.103   8.443  0.9128 -2.4626  1.1847
 3957SOL    HW223331   1.375   0.159   8.329 -2.0668 -1.2554  0.8212
 3958SOL     OW23332   3.730   1.201   5.054  0.9367  0.1676  0.0375
 3958SOL    HW123333   3.717   1.121   5.003  1.7632 -0.5939  1.0234
 3958SOL    HW223334   3.706   1.272   4.994  0.6459 -0.2535 -0.3462
 3959SOL     OW23335   1.145   4.288   5.273 -0.1045 -0.0320  0.7972
 3959SOL    HW123336   1.091   4.284   5.352 -0.7879  1.5048  0.4064
 3959SOL    HW223337   1.163   4.381   5.264 -0.9613 -0.0886 -1.5414
 3960SOL     OW23338   0.521   1.600   4.848  0.3703 -0.3117  0.1745
 3960SOL    HW123339   0.494   1.527   4.903 -1.4141  0.6999  0.6452
 3960SOL    HW223340   0.550   1.668   4.908 -2.7022 -0.2933  1.6337
 3961SOL     OW23341   3.914   3.812   4.828 -0.3657 -0.0564  0.1829
 3961SOL    HW123342   3.823   3.786   4.814  0.1549 -2.4883  1.3475
 3961SOL    HW223343   3.947   3.733   4.871 -1.8247 -0.3448  0.7596
 3962SOL     OW23344   1.251   4.693   9.754  0.0330  0.2136 -0.4108
 3962SOL    HW123345   1.339   4.706   9.790 -0.0355 -0.2325 -0.0803
 3962SOL    HW223346   1.226   4.602   9.769  2.2402 -0.3846 -0.3782
 3963SOL     OW23347   0.934   1.102   8.838 -0.2502  0.3624 -0.0007
 3963SOL    HW123348   0.942   1.070   8.748  0.4228  0.9717 -0.1654
 3963SOL    HW223349   0.969   1.024   8.881  1.3032  0.2502 -1.4437
 3964SOL     OW23350   3.840   4.168   5.991  0.5647  0.2224 -0.3150
 3964SOL    HW123351   3.920   4.178   5.940 -0.3063  3.5130 -1.0267
 3964SOL    HW223352   3.864   4.105   6.058  2.3495 -0.0080 -1.1962
 3965SOL     OW23353   0.191   0.061   4.156 -0.5252 -0.3534 -0.4614
 3965SOL    HW123354   0.242   0.140   4.137  1.5959 -1.1847  1.6804
 3965SOL    HW223355   0.103   0.100   4.161 -1.4632 -2.5697  0.4473
 3966SOL     OW23356   1.935   2.700   6.588  0.2012  0.2858  0.4636
 3966SOL    HW123357   1.906   2.688   6.678  2.0809 -2.0774  0.7874
 3966SOL    HW223358   2.008   2.759   6.606 -0.2792  1.0380 -0.0668
 3967SOL     OW23359   4.238   0.913   8.900 -0.1989 -0.4447 -0.2023
 3967SOL    HW123360   4.164   0.859   8.926 -2.1782  2.2519 -0.2255
 3967SOL    HW223361   4.294   0.839   8.877  0.8059  0.3352 -0.2730
 3968SOL     OW23362   0.840   2.861  12.810 -0.7629 -0.5944  0.3765
 3968SOL    HW123363   0.807   2.836  12.896 -0.3790 -2.1447  0.0782
 3968SOL    HW223364   0.828   2.955  12.820 -0.7423 -0.5088 -0.4101
 3969SOL     OW23365   4.464   3.907   1.129 -0.5779 -0.5847  0.4243
 3969SOL    HW123366   4.404   3.941   1.196 -0.6312 -2.1555  1.1932
 3969SOL    HW223367   4.510   3.841   1.181  0.5378  0.9842  1.3953
 3970SOL     OW23368   1.579   2.944   0.821  0.1246 -0.2649 -0.4666
 3970SOL    HW123369   1.529   2.869   0.855 -3.4246  2.4636  0.3978
 3970SOL    HW223370   1.662   2.946   0.869 -0.7536 -0.6973  1.0619
 3971SOL     OW23371   0.952   3.756  14.660  0.5353 -0.2691  0.8250
 3971SOL    HW123372   0.862   3.785  14.651  0.4541 -0.2119  1.7843
 3971SOL    HW223373   0.937   3.675  14.709 -1.5357 -0.3790 -0.0080
 3972SOL     OW23374   4.315   4.690   6.337  0.2288  0.4175 -0.1621
 3972SOL    HW123375   4.270   4.612   6.369  1.0770 -0.2640 -0.6307
 3972SOL    HW223376   4.392   4.698   6.393 -0.3128  0.3783  0.5944
 3973SOL     OW23377   2.183   3.586   8.153 -0.2608 -0.2701 -0.1757
 3973SOL    HW123378   2.106   3.595   8.096  1.2329  3.4954 -1.6051
 3973SOL    HW223379   2.152   3.640   8.226 -0.1535 -1.0880  0.4672
 3974SOL     OW23380   0.846   1.120  10.541  0.2125 -0.1617 -0.1430
 3974SOL    HW123381   0.804   1.076  10.615 -1.2628  1.6546  0.1103
 3974SOL    HW223382   0.937   1.121  10.568  0.2923  0.9125 -0.4196
 3975SOL     OW23383   1.279   1.745  10.401  0.3002  0.1293 -0.7460
 3975SOL    HW123384   1.254   1.832  10.369 -1.4445 -1.4272 -3.5579
 3975SOL    HW223385   1.358   1.764  10.451  0.1464 -1.3790  0.0769
 3976SOL     OW23386   0.595   2.537  11.164  1.0493  0.1227  0.2053
 3976SOL    HW123387   0.689   2.543  11.181  0.9577  2.9490 -0.3170
 3976SOL    HW223388   0.556   2.575  11.243 -1.5790  0.1028 -1.0565
 3977SOL     OW23389   3.053   4.315  14.222 -0.5226 -0.2853 -0.7231
 3977SOL    HW123390   2.979   4.254  14.221 -0.7835 -0.0832  4.7686
 3977SOL    HW223391   3.122   4.270  14.272 -1.6495 -1.3432 -0.1259
 3978SOL     OW23392   0.148   2.372  12.948  0.1142 -0.0005  0.0109
 3978SOL    HW123393   0.069   2.375  12.894 -0.2183  2.3005  0.6163
 3978SOL    HW223394   0.197   2.450  12.922 -1.7982  0.9478 -0.7085
 3979SOL     OW23395   1.216   3.309   8.437 -0.4945  0.2101  0.0628
 3979SOL    HW123396   1.210   3.324   8.532 -0.4138  1.1633 -0.0782
 3979SOL    HW223397   1.190   3.218   8.421 -0.4033  0.1864  0.0532
 3980SOL     OW23398   2.861   2.941  13.631  0.2277 -0.3842  0.4231
 3980SOL    HW123399   2.943   2.923  13.585  0.7806 -1.3201  1.7609
 3980SOL    HW223400   2.838   2.854  13.665  3.4261 -0.3422  2.7590
 3981SOL     OW23401   3.947   0.532   8.333 -0.6432 -0.0519  0.1460
 3981SOL    HW123402   3.873   0.582   8.366  0.1802  0.9749  0.4628
 3981SOL    HW223403   3.992   0.604   8.288 -0.1330 -0.6971 -0.3717
 3982SOL     OW23404   1.221   2.160   3.310 -0.3652 -0.0629 -0.1566
 3982SOL    HW123405   1.282   2.213   3.258 -1.2323  1.9557  0.8963
 3982SOL    HW223406   1.221   2.081   3.257 -3.0281 -0.0939 -0.1162
 3983SOL     OW23407   3.500   4.045  10.998 -0.0351  0.2782 -0.5017
 3983SOL    HW123408   3.412   4.078  10.980 -1.3538 -2.4029  0.9767
 3983SOL    HW223409   3.485   3.950  10.999  0.4753  0.2018 -0.0221
 3984SOL     OW23410   0.070   1.600   4.638  0.0420  0.6488 -0.1494
 3984SOL    HW123411   4.702   1.633   4.656  0.7439  1.7429  1.1793
 3984SOL    HW223412   0.091   1.620   4.547  1.1902 -1.8440 -0.4473
 3985SOL     OW23413   3.858   3.463   7.315 -0.7922  0.1378 -0.0793
 3985SOL    HW123414   3.847   3.558   7.309 -0.9414  0.0361 -1.3740
 3985SOL    HW223415   3.820   3.434   7.232 -1.0700 -3.2819  1.2466
 3986SOL     OW23416   2.702   0.221   5.984  0.1512 -0.3390 -0.0417
 3986SOL    HW123417   2.792   0.244   5.962  0.6332  0.8502  3.0790
 3986SOL    HW223418   2.687   0.147   5.926  0.6744 -1.2365  0.9796
 3987SOL     OW23419   3.372   1.863   5.277 -0.3690 -0.2121  0.4469
 3987SOL    HW123420   3.324   1.910   5.209 -0.9830  2.0908  2.5019
 3987SOL    HW223421   3.448   1.919   5.286 -0.6296  0.2973 -0.5254
 3988SOL     OW23422   0.037   1.566   9.631 -0.1233 -0.1378  0.3491
 3988SOL    HW123423   0.121   1.527   9.605  0.7908  2.6022 -0.7654
 3988SOL    HW223424   0.032   1.549   9.725 -1.1652  2.3166  0.7351
 3989SOL     OW23425   2.793   3.302   8.008  0.2699 -0.0113  0.0149
 3989SOL    HW123426   2.853   3.353   8.063  2.0378  0.8175 -2.6845
 3989SOL    HW223427   2.856   3.243   7.967 -1.0442 -1.7022  0.4192
 3990SOL     OW23428   1.977   2.222   9.084 -0.3879  0.7282 -0.2691
 3990SOL    HW123429   1.921   2.264   9.150 -0.2452  0.0545  0.2717
 3990SOL    HW223430   2.016   2.152   9.136 -1.7416  1.0177  1.1371
 3991SOL     OW23431   3.753   2.542   9.933 -0.1359  0.1927  0.1191
 3991SOL    HW123432   3.759   2.474  10.000  0.0405  0.0617 -0.0286
 3991SOL    HW223433   3.697   2.500   9.869 -1.5488  2.8570 -0.3985
 3992SOL     OW23434   2.924   2.330  11.952 -0.0950  0.2393 -0.4868
 3992SOL    HW123435   3.011   2.345  11.915  0.3939  1.8415  1.3000
 3992SOL    HW223436   2.876   2.394  11.900 -3.3264 -0.6948  1.3041
 3993SOL     OW23437   0.102   4.398   3.121  0.2707 -0.5684  0.1089
 3993SOL    HW123438   0.146   4.363   3.199 -0.0739  0.4558  0.7715
 3993SOL    HW223439   0.164   4.466   3.097  0.7012 -0.4763  1.4868
 3994SOL     OW23440   4.158   3.805   6.457 -0.1615 -0.4973  0.3271
 3994SOL    HW123441   4.232   3.764   6.500  0.0208 -0.4959  0.0085
 3994SOL    HW223442   4.192   3.894   6.447 -2.3107  0.2916 -0.1062
 3995SOL     OW23443   4.441   3.989  13.466 -0.4732 -0.2483  0.2510
 3995SOL    HW123444   4.496   3.911  13.476  1.1381  0.5276 -2.4268
 3995SOL    HW223445   4.354   3.956  13.443 -0.9977  2.2414 -1.3993
 3996SOL     OW23446   4.704   0.910   2.080  0.1400  0.2260  0.0529
 3996SOL    HW123447   0.047   0.927   2.011 -0.5605 -1.1395 -0.9439
 3996SOL    HW223448   4.679   0.818   2.070  1.7797 -0.2144  0.0425
 3997SOL     OW23449   1.873   4.639   8.779  0.0731 -0.2449 -0.4488
 3997SOL    HW123450   1.818   4.683   8.842  0.7772  0.8917 -0.6299
 3997SOL    HW223451   1.864   4.545   8.797  0.8657 -0.1318  0.5584
 3998SOL     OW23452   3.212   2.479  10.839 -0.4494 -0.2106 -0.3212
 3998SOL    HW123453   3.165   2.397  10.850 -1.7254  0.1179 -3.3270
 3998SOL    HW223454   3.298   2.439  10.824  0.3582  1.3530  0.1415
 3999SOL     OW23455   0.080   1.209  10.432 -0.1112  0.3025 -0.2628
 3999SOL    HW123456   0.113   1.142  10.492  1.0234  0.6267 -0.5187
 3999SOL    HW223457   0.165   1.244  10.403  0.0795 -0.3854 -0.5494
 4000SOL     OW23458   2.354   3.459   6.540  0.2504  0.1472 -0.2121
 4000SOL    HW123459   2.417   3.519   6.500  0.3601  0.6677  0.7607
 4000SOL    HW223460   2.277   3.468   6.484 -0.4027  1.0837  0.8420
 4001SOL     OW23461   1.478   2.025   5.413 -0.5909 -0.3345  0.1191
 4001SOL    HW123462   1.504   1.934   5.423  0.3720 -0.0350  0.3074
 4001SOL    HW223463   1.561   2.067   5.391 -0.2227  0.1065  2.4126
 4002SOL     OW23464   3.025   3.334   1.843  0.1305  0.0691  0.2336
 4002SOL    HW123465   3.080   3.258   1.859 -0.7769 -0.4744  0.7827
 4002SOL    HW223466   2.954   3.288   1.799  0.8841 -3.3279  2.6092
 4003SOL     OW23467   0.346   1.233   4.234  0.0711 -0.0075 -0.1103
 4003SOL    HW123468   0.327   1.218   4.326 -0.5180  2.6609  0.1954
 4003SOL    HW223469   0.331   1.143   4.203  0.0501  0.3048 -1.0276
 4004SOL     OW23470   3.054   1.396   1.879 -0.9107  0.3492  0.9269
 4004SOL    HW123471   2.985   1.336   1.907 -0.8783  0.0412  0.3409
 4004SOL    HW223472   3.088   1.338   1.811 -0.7238 -0.1571  1.4443
 4005SOL     OW23473   4.713   2.644  13.163 -0.1668  0.2138 -0.2560
 4005SOL    HW123474   4.690   2.702  13.091  0.4922  1.9141  0.8937
 4005SOL    HW223475   0.038   2.705  13.221 -1.1086  1.2912 -0.6709
 4006SOL     OW23476   4.289   2.820  10.853  0.4295 -0.2006 -0.0295
 4006SOL    HW123477   4.262   2.730  10.835  1.7548 -0.7832  0.8890
 4006SOL    HW223478   4.376   2.813  10.893 -0.8511  0.0416  2.7707
 4007SOL     OW23479   2.190   0.901   7.094 -0.0417 -0.5622  0.2197
 4007SOL    HW123480   2.125   0.971   7.098 -0.0537 -0.4840 -1.2177
 4007SOL    HW223481   2.276   0.936   7.070  0.7580 -1.5879  1.5733
 4008SOL     OW23482   3.731   0.306   2.766 -0.5104 -0.1879 -0.1111
 4008SOL    HW123483   3.647   0.276   2.731 -1.4963  1.2649  1.0120
 4008SOL    HW223484   3.708   0.399   2.778 -2.4533 -0.6757 -0.0131
 4009SOL     OW23485   3.170   3.289   3.776 -0.1141 -0.8795 -0.2839
 4009SOL    HW123486   3.177   3.196   3.754 -0.9798 -1.4094  1.6509
 4009SOL    HW223487   3.176   3.327   3.689  0.3301 -2.4901 -0.9599
 4010SOL     OW23488   0.215   1.284   5.838  0.5157 -0.2226 -0.3142
 4010SOL    HW123489   0.212   1.243   5.924 -0.2323  0.9699  0.2244
 4010SOL    HW223490   0.308   1.288   5.815 -0.1959  0.3587 -3.2043
 4011SOL     OW23491   0.535   0.087  13.868 -0.2608 -0.5951  0.6360
 4011SOL    HW123492   0.543   0.051  13.956  0.9000  0.0518  0.7965
 4011SOL    HW223493   0.586   0.167  13.885  0.6481 -1.1212  0.3821
 4012SOL     OW23494   2.301   3.329   6.794 -0.0115 -0.0394 -0.1050
 4012SOL    HW123495   2.241   3.262   6.763  0.4129 -0.5970  0.2825
 4012SOL    HW223496   2.324   3.362   6.706  0.3041 -0.3519 -0.1405
 4013SOL     OW23497   1.300   4.358   8.712 -0.4445 -0.3223 -0.3293
 4013SOL    HW123498   1.336   4.376   8.799 -1.0936  0.2892 -0.1940
 4013SOL    HW223499   1.211   4.392   8.710 -1.0793 -2.0302 -2.1393
 4014SOL     OW23500   1.406   4.646   9.512 -0.3098  0.1708  0.0937
 4014SOL    HW123501   1.475   4.711   9.496 -1.0318  1.1959  1.1170
 4014SOL    HW223502   1.448   4.569   9.475  1.1720  0.3476  1.4209
 4015SOL     OW23503   1.057   2.112   1.737 -0.4404 -0.4710 -0.0730
 4015SOL    HW123504   1.110   2.182   1.700  0.8931 -1.1624  0.5180
 4015SOL    HW223505   0.981   2.159   1.771 -0.9434 -1.2655 -0.0914
 4016SOL     OW23506   3.775   1.927  16.357 -0.1158  0.6173 -0.1168
 4016SOL    HW123507   3.861   1.939  16.315  0.1891  0.0645  0.3576
 4016SOL    HW223508   3.797   1.908  16.448 -2.1464  1.8872  0.6362
 4017SOL     OW23509   4.341   3.245   3.680 -0.4157 -0.7762  1.2285
 4017SOL    HW123510   4.370   3.333   3.704  0.9593 -0.5442 -1.3180
 4017SOL    HW223511   4.282   3.274   3.611  1.9059 -1.3425 -0.9974
 4018SOL     OW23512   2.503   4.253  13.591 -0.6574  0.2557 -0.6186
 4018SOL    HW123513   2.428   4.196  13.575 -0.5114 -0.3503  0.8844
 4018SOL    HW223514   2.464   4.340  13.602  0.8578  0.7358  0.8826
 4019SOL     OW23515   1.129   4.348   3.679 -0.2293  0.2259 -0.2192
 4019SOL    HW123516   1.046   4.389   3.704  0.0513  0.7848 -0.2078
 4019SOL    HW223517   1.098   4.259   3.695 -0.3940 -0.0431 -2.0089
 4020SOL     OW23518   4.458   1.967   0.120  0.3386  0.1704 -0.7481
 4020SOL    HW123519   4.467   2.040   0.181 -0.7672  0.4617 -0.9368
 4020SOL    HW223520   4.368   1.990   0.097  0.2110  1.3798  0.9710
 4021SOL     OW23521   4.487   3.094  17.140 -0.5652  0.1479  0.5450
 4021SOL    HW123522   4.495   3.175  17.088 -0.5584 -0.0657  0.2133
 4021SOL    HW223523   4.486   3.136  17.226  2.4224 -1.4354  1.3601
 4022SOL     OW23524   4.469   3.524  16.626 -0.9293  0.2614  0.3694
 4022SOL    HW123525   4.476   3.439  16.670 -1.2502 -0.9400 -1.8767
 4022SOL    HW223526   4.553   3.563  16.651 -0.0073 -1.9277  0.6425
 4023SOL     OW23527   4.343   2.235   2.364 -0.2776  0.1502  0.3804
 4023SOL    HW123528   4.305   2.323   2.353 -2.9480 -1.1118 -0.4351
 4023SOL    HW223529   4.400   2.230   2.441  0.9596 -1.9115 -0.6738
 4024SOL     OW23530   0.453   0.488  15.807  0.1270  0.5352 -0.2668
 4024SOL    HW123531   0.470   0.561  15.747 -0.7919  1.4664  0.5965
 4024SOL    HW223532   0.473   0.411  15.755 -1.4375  0.5696 -0.9215
 4025SOL     OW23533   3.783   0.013   0.971  0.1243 -0.8088  0.1440
 4025SOL    HW123534   3.839   0.087   0.996  2.1228 -3.3206  2.9602
 4025SOL    HW223535   3.780   4.694   1.058 -2.2602  0.8583  0.8170
 4026SOL     OW23536   3.836   2.425   1.325 -0.2572  0.2068 -0.3401
 4026SOL    HW123537   3.842   2.338   1.286 -0.0602  0.4954 -0.9391
 4026SOL    HW223538   3.907   2.472   1.282 -0.1444  1.1906  0.9247
 4027SOL     OW23539   0.963   1.601   7.571  0.0947  0.1965  0.4524
 4027SOL    HW123540   0.960   1.680   7.625 -1.2858  0.7797 -0.4786
 4027SOL    HW223541   1.016   1.632   7.498 -0.5037  0.4272  0.1147
 4028SOL     OW23542   3.720   1.454   9.161 -0.0521  0.4098 -0.0801
 4028SOL    HW123543   3.775   1.395   9.110 -0.1669  0.7820 -0.6348
 4028SOL    HW223544   3.722   1.532   9.106  1.9729 -0.9240 -1.9014
 4029SOL     OW23545   0.492   0.192  12.592 -0.0542  0.0009  0.2530
 4029SOL    HW123546   0.531   0.163  12.674  1.3489 -0.8773 -0.7363
 4029SOL    HW223547   0.568   0.241  12.560 -0.8147  0.5801 -0.6840
 4030SOL     OW23548   4.128   4.600   2.964 -0.8211  0.2404  0.4120
 4030SOL    HW123549   4.077   4.554   2.897 -3.1058  1.5460  1.2421
 4030SOL    HW223550   4.079   4.579   3.044 -1.5402  2.7863  0.6314
 4031SOL     OW23551   4.185   4.338   4.712  0.0889 -0.3325 -0.2905
 4031SOL    HW123552   4.225   4.418   4.678  1.4178 -0.8581  0.0590
 4031SOL    HW223553   4.091   4.353   4.720  0.1113 -0.7517  0.7403
 4032SOL     OW23554   1.476   1.844   6.333  0.9004 -0.6465  0.1169
 4032SOL    HW123555   1.480   1.774   6.398 -1.1855 -1.6402 -0.8169
 4032SOL    HW223556   1.562   1.827   6.294  1.8555  1.8541  1.1244
 4033SOL     OW23557   3.270   4.420   2.844 -0.8746  0.7565  0.0927
 4033SOL    HW123558   3.365   4.419   2.850 -0.8560  0.8617 -0.1966
 4033SOL    HW223559   3.269   4.404   2.750 -0.6639 -1.2142  0.4129
 4034SOL     OW23560   1.631   2.988   7.078  0.0165  0.2445 -0.4033
 4034SOL    HW123561   1.697   2.922   7.100 -0.2500 -0.1512 -0.7922
 4034SOL    HW223562   1.682   3.047   7.023 -2.6989  1.7717 -1.2957
 4035SOL     OW23563   4.100   2.783   6.372 -0.0221 -0.1449  0.2442
 4035SOL    HW123564   4.150   2.859   6.344 -2.1928  0.5765 -1.6953
 4035SOL    HW223565   4.021   2.792   6.318 -1.7038 -1.7642  2.3991
 4036SOL     OW23566   1.218   3.593   3.093 -0.3938  0.2942  0.1926
 4036SOL    HW123567   1.234   3.533   3.166 -2.4340 -0.4238  0.0620
 4036SOL    HW223568   1.196   3.668   3.149  0.0463  0.6664 -0.1368
 4037SOL     OW23569   1.752   3.727   0.914 -0.6689  0.5809  0.1740
 4037SOL    HW123570   1.775   3.660   0.849 -0.1246 -0.9847  1.9634
 4037SOL    HW223571   1.769   3.801   0.856 -0.7373 -0.4983 -1.2266
 4038SOL     OW23572   1.945   2.902   0.292 -0.3238  0.1109 -0.0114
 4038SOL    HW123573   2.020   2.932   0.241 -0.0062  0.0041  0.3946
 4038SOL    HW223574   1.890   2.867   0.222 -2.3194  1.0759  1.0586
 4039SOL     OW23575   3.039   3.790   8.841 -0.2577 -0.0597  0.0221
 4039SOL    HW123576   3.071   3.864   8.893  0.6320 -0.9834  0.7955
 4039SOL    HW223577   3.124   3.768   8.804 -0.5127 -1.9805  0.5657
 4040SOL     OW23578   0.528   3.500  12.744 -0.2723 -0.3657  0.2245
 4040SOL    HW123579   0.553   3.415  12.709 -2.3895 -1.0655  0.4193
 4040SOL    HW223580   0.608   3.547  12.719 -1.5500  1.0350 -1.3413
 4041SOL     OW23581   3.190   1.293  14.204 -0.2448  0.0867 -0.5017
 4041SOL    HW123582   3.286   1.288  14.204 -0.1449  1.7639 -0.6455
 4041SOL    HW223583   3.179   1.386  14.223 -0.1308 -0.0808  0.3828
 4042SOL     OW23584   3.038   4.388   7.564 -0.1161  0.4944 -0.4722
 4042SOL    HW123585   2.995   4.394   7.479 -2.9241  0.2562  0.9154
 4042SOL    HW223586   3.115   4.441   7.545  1.0272 -0.9723  0.0550
 4043SOL     OW23587   2.600   4.100   2.888 -0.4257 -0.3011 -0.4254
 4043SOL    HW123588   2.554   4.173   2.848 -2.5790 -0.4990  1.7301
 4043SOL    HW223589   2.689   4.136   2.890 -0.7968  0.7337 -2.8771
 4044SOL     OW23590   0.051   1.304   0.251  0.0565  0.1292  0.3220
 4044SOL    HW123591   0.102   1.370   0.202  0.9254  0.4154  1.6207
 4044SOL    HW223592   4.691   1.335   0.210  0.5963 -0.5590 -1.2897
 4045SOL     OW23593   2.549   2.795   9.662 -0.3271 -0.1063  0.1413
 4045SOL    HW123594   2.475   2.792   9.722 -1.5425  2.0816 -1.2135
 4045SOL    HW223595   2.540   2.718   9.606 -2.1594  0.0807  0.1686
 4046SOL     OW23596   1.034   0.483   4.984 -0.1196 -0.2139  0.1945
 4046SOL    HW123597   0.998   0.489   5.073 -1.8158 -1.9597 -0.3938
 4046SOL    HW223598   0.971   0.544   4.946  0.2812  1.2315  1.8376
 4047SOL     OW23599   3.637   4.480   4.822 -0.2500  0.2007 -0.3642
 4047SOL    HW123600   3.701   4.431   4.771  0.8088  0.9626  0.2347
 4047SOL    HW223601   3.688   4.556   4.851 -2.0484  0.6199  1.7208
 4048SOL     OW23602   2.716   1.083   4.242  0.0760  0.5423 -0.2724
 4048SOL    HW123603   2.697   1.002   4.194  0.2854  0.5713 -0.4036
 4048SOL    HW223604   2.633   1.109   4.281 -0.4346 -2.5857  0.7118
 4049SOL     OW23605   0.496   1.482   3.111 -0.6108 -0.1979 -0.2780
 4049SOL    HW123606   0.492   1.396   3.070  1.1138  0.0444 -1.0030
 4049SOL    HW223607   0.405   1.505   3.130 -0.9185  0.6278 -2.7046
 4050SOL     OW23608   1.752   1.053  14.562 -0.3023  0.4879  0.5915
 4050SOL    HW123609   1.712   1.136  14.535  0.2397  0.6463  0.2855
 4050SOL    HW223610   1.786   1.013  14.482  0.5370  3.4047 -0.5332
 4051SOL     OW23611   1.858   3.783   6.562  0.1119 -0.7554 -0.1565
 4051SOL    HW123612   1.906   3.853   6.519  1.0242 -0.8729  0.6622
 4051SOL    HW223613   1.796   3.759   6.493 -0.8759  2.3090 -0.3286
 4052SOL     OW23614   2.907   2.606   7.078 -0.0647  0.1237 -0.3534
 4052SOL    HW123615   2.928   2.566   7.162 -1.1300  0.1583 -0.0649
 4052SOL    HW223616   2.981   2.573   7.027  0.1790  1.6829 -0.9929
 4053SOL     OW23617   4.375   1.764  17.251  0.5329  0.5817 -0.1811
 4053SOL    HW123618   4.423   1.846  17.242  1.3050  0.4844  3.0987
 4053SOL    HW223619   4.440   1.696  17.231  0.1872 -0.4553  2.1929
 4054SOL     OW23620   3.146   1.256   8.181  0.0602  0.4118  0.0024
 4054SOL    HW123621   3.106   1.287   8.263 -4.4087 -1.5766 -1.4075
 4054SOL    HW223622   3.160   1.341   8.138  0.2171 -0.4608 -1.6652
 4055SOL     OW23623   3.095   2.097  14.465 -0.2972 -0.9506 -0.3022
 4055SOL    HW123624   3.097   2.053  14.380  0.0531  0.1815 -0.8687
 4055SOL    HW223625   3.127   2.025  14.519 -1.1803 -1.0261  0.1307
 4056SOL     OW23626   3.900   2.905   2.223  0.6112  0.0558 -0.8887
 4056SOL    HW123627   3.899   2.990   2.267  2.0680  0.0376 -0.8360
 4056SOL    HW223628   3.974   2.863   2.267 -0.2725 -2.6264 -1.9332
 4057SOL     OW23629   4.711   3.196  17.666  0.4388  0.1467  0.1617
 4057SOL    HW123630   0.055   3.232   0.042  1.5729  0.0548 -0.9934
 4057SOL    HW223631   4.670   3.130   0.037 -0.6946  0.2236 -0.5995
 4058SOL     OW23632   3.611   4.170   7.371 -0.2839 -0.4212  0.1559
 4058SOL    HW123633   3.659   4.224   7.434  1.6628 -0.4540 -1.2951
 4058SOL    HW223634   3.653   4.189   7.287  0.9523  0.0072  0.8722
 4059SOL     OW23635   2.838   3.641   2.290  0.2361  0.0898  0.3115
 4059SOL    HW123636   2.800   3.726   2.312  1.1975  0.6018 -0.0383
 4059SOL    HW223637   2.924   3.665   2.255  0.5571 -0.2368  0.8698
 4060SOL     OW23638   1.910   2.945   3.884  0.2804  0.0725 -0.5812
 4060SOL    HW123639   1.962   2.865   3.882 -1.5838 -1.1313 -1.3908
 4060SOL    HW223640   1.881   2.937   3.975  0.2704 -0.7301 -0.6502
 4061SOL     OW23641   3.151   2.774  14.433  0.1593 -0.7476 -0.5460
 4061SOL    HW123642   3.195   2.819  14.505  1.9466 -0.4863 -1.8154
 4061SOL    HW223643   3.128   2.692  14.478 -0.0137  0.3765  1.3864
 4062SOL     OW23644   3.974   2.949   6.146  0.4619 -0.4631  0.7178
 4062SOL    HW123645   3.905   3.014   6.158  2.3991  1.1398  3.1939
 4062SOL    HW223646   4.053   2.987   6.185  0.5953  0.4317 -0.4295
 4063SOL     OW23647   4.581   0.291   1.062 -0.6171 -0.0781 -0.2000
 4063SOL    HW123648   4.587   0.348   0.985 -1.7593 -2.0125 -1.7046
 4063SOL    HW223649   4.672   0.266   1.078 -1.1660 -1.2618  0.9937
 4064SOL     OW23650   4.459   2.757  16.157  0.3060 -0.4440 -0.0281
 4064SOL    HW123651   4.553   2.751  16.172  0.2510 -2.2527 -0.4218
 4064SOL    HW223652   4.415   2.739  16.240 -1.1805 -1.0265 -0.9431
 4065SOL     OW23653   2.243   1.228   8.766  0.0779 -0.0322  0.3746
 4065SOL    HW123654   2.214   1.261   8.681  1.0446 -0.8463 -0.2558
 4065SOL    HW223655   2.169   1.171   8.788  1.9873 -1.9383  1.8307
 4066SOL     OW23656   3.090   1.368  10.006  0.3223  0.1599  0.6076
 4066SOL    HW123657   3.090   1.274  10.024  1.7608 -0.2195 -1.4067
 4066SOL    HW223658   3.176   1.386   9.969 -1.2682  2.3918 -2.0422
 4067SOL     OW23659   3.361   4.266   7.374  0.0786  0.0582 -0.5716
 4067SOL    HW123660   3.444   4.218   7.372 -1.4587 -2.6274  0.0278
 4067SOL    HW223661   3.392   4.356   7.383 -0.2369  0.2620 -1.4539
 4068SOL     OW23662   4.329   2.056   6.485 -0.3302  0.5500 -0.0612
 4068SOL    HW123663   4.384   2.120   6.531 -1.9340  1.9496 -0.0670
 4068SOL    HW223664   4.384   1.978   6.490  0.8839  1.3962 -0.1663
 4069SOL     OW23665   4.473   1.467   5.610  0.3927 -0.0297  0.3080
 4069SOL    HW123666   4.396   1.415   5.637 -0.3275  0.7526 -0.2327
 4069SOL    HW223667   4.532   1.401   5.574 -0.2126  0.5497 -1.7863
 4070SOL     OW23668   2.853   3.016   7.580  0.2926 -0.2278  0.5357
 4070SOL    HW123669   2.829   3.004   7.672  0.7968 -0.1876  0.6712
 4070SOL    HW223670   2.771   3.044   7.540 -0.9023 -0.7356  2.6399
 4071SOL     OW23671   3.228   2.406   2.940  0.5019  0.0251 -0.1369
 4071SOL    HW123672   3.144   2.360   2.935  0.5289 -0.3237  3.0507
 4071SOL    HW223673   3.221   2.453   3.023  1.2779  0.2003 -0.1751
 4072SOL     OW23674   1.563   1.789   2.374 -0.0709  0.3486  0.0345
 4072SOL    HW123675   1.577   1.776   2.280  0.6537 -4.2271  0.7729
 4072SOL    HW223676   1.471   1.765   2.386  0.2803 -0.9977  0.1103
 4073SOL     OW23677   4.406   0.742   6.566  0.0213 -0.9905 -0.2846
 4073SOL    HW123678   4.332   0.682   6.563 -0.0627 -0.8582 -0.7823
 4073SOL    HW223679   4.446   0.723   6.481  0.8038 -1.8591  0.2738
 4074SOL     OW23680   4.530   3.336  14.851  0.1999  0.0792 -0.4991
 4074SOL    HW123681   4.619   3.342  14.886 -0.2744 -2.0437  1.1117
 4074SOL    HW223682   4.529   3.334  14.756  0.6734  0.6894 -0.5160
 4075SOL     OW23683   2.800   2.261  16.906 -0.3086 -0.0068  0.1789
 4075SOL    HW123684   2.752   2.318  16.966 -1.5946 -0.9816  0.0720
 4075SOL    HW223685   2.887   2.252  16.947 -0.1546 -3.1586 -0.8536
 4076SOL     OW23686   2.013   2.143   6.665  0.2042  1.0450  0.6249
 4076SOL    HW123687   2.082   2.096   6.712  0.4733  0.6596 -0.1723
 4076SOL    HW223688   2.024   2.110   6.576 -0.2443  0.5239  0.7634
 4077SOL     OW23689   4.136   3.551  10.746  0.1447 -0.1427 -0.0150
 4077SOL    HW123690   4.152   3.531  10.654 -0.1373  2.4190 -0.6412
 4077SOL    HW223691   4.130   3.460  10.775 -1.7398  0.0302  0.1638
 4078SOL     OW23692   0.198   1.776   9.911 -0.0611 -0.0228  0.3419
 4078SOL    HW123693   0.274   1.770   9.970 -0.7186  2.1073  1.4242
 4078SOL    HW223694   0.231   1.739   9.829 -1.1804 -0.8540  0.2705
 4079SOL     OW23695   2.160   2.162   7.748  0.1500  0.0985  0.1798
 4079SOL    HW123696   2.245   2.194   7.779  0.0105  0.4287  0.2251
 4079SOL    HW223697   2.109   2.168   7.828 -1.7999  2.4023 -1.2267
 4080SOL     OW23698   4.530   0.546   9.219 -0.0022 -0.1382  0.2500
 4080SOL    HW123699   4.607   0.556   9.276 -0.4824 -0.1940  0.9158
 4080SOL    HW223700   4.471   0.608   9.263  0.9306 -0.4225  1.9300
 4081SOL     OW23701   0.100   4.321   9.148 -0.4584 -0.7377  0.1432
 4081SOL    HW123702   0.012   4.341   9.178 -0.2971  0.4426 -0.1331
 4081SOL    HW223703   0.147   4.371   9.215  0.9753 -1.9630  0.0509
 4082SOL     OW23704   1.801   2.989  13.083  0.7501 -0.5184  0.2962
 4082SOL    HW123705   1.860   2.997  13.009 -0.9575  1.6575 -0.8112
 4082SOL    HW223706   1.756   2.908  13.060  1.4750 -0.1341 -2.4029
 4083SOL     OW23707   2.541   3.528  11.501  0.3421 -0.3847  0.1814
 4083SOL    HW123708   2.446   3.538  11.502  0.3998  0.1543  0.1640
 4083SOL    HW223709   2.554   3.465  11.431  0.0807  0.8620 -0.9786
 4084SOL     OW23710   4.612   0.737   6.821  0.0609  0.0375  0.4200
 4084SOL    HW123711   4.655   0.685   6.753 -1.5380 -2.3779  1.2499
 4084SOL    HW223712   4.689   0.770   6.866 -0.1575 -1.6782  2.0536
 4085SOL     OW23713   2.396   4.275   2.536  0.1119  0.0507  0.4308
 4085SOL    HW123714   2.328   4.341   2.523  0.2166  0.0879  0.0586
 4085SOL    HW223715   2.354   4.196   2.571  0.2210  0.5077  1.5698
 4086SOL     OW23716   2.378   0.573   6.815 -0.2707 -1.0650  0.0870
 4086SOL    HW123717   2.397   0.487   6.853  3.6499  0.3839  1.3777
 4086SOL    HW223718   2.457   0.594   6.766 -1.6390  0.7139 -1.3426
 4087SOL     OW23719   0.801   1.871   2.388  0.2147 -0.2851  0.7167
 4087SOL    HW123720   0.768   1.950   2.345 -0.2504 -0.4066  0.8447
 4087SOL    HW223721   0.733   1.853   2.453 -1.2213  1.6632 -0.2399
 4088SOL     OW23722   1.345   1.974  16.647 -0.3139 -0.1146  0.0132
 4088SOL    HW123723   1.369   1.892  16.690  1.3759  0.0257 -0.6367
 4088SOL    HW223724   1.372   1.954  16.557  0.2613 -1.1251  0.4121
 4089SOL     OW23725   0.708   0.109   0.337 -0.4404 -0.0203 -0.5817
 4089SOL    HW123726   0.794   0.083   0.304 -0.9320 -1.9652 -0.3002
 4089SOL    HW223727   0.649   0.041   0.305  0.8623 -0.0589 -2.8893
 4090SOL     OW23728   0.301   2.691   4.646 -0.1177 -0.2153 -0.3661
 4090SOL    HW123729   0.316   2.758   4.714 -0.7586  0.9315 -1.3491
 4090SOL    HW223730   0.300   2.744   4.567  3.0071  0.5447  0.1277
 4091SOL     OW23731   3.698   2.961  11.752 -0.2582  0.3655 -0.1386
 4091SOL    HW123732   3.687   2.868  11.729 -0.0232  0.9260 -2.4704
 4091SOL    HW223733   3.787   2.965  11.786 -0.4280  0.6865  0.2660
 4092SOL     OW23734   3.405   3.546   2.237  0.0408  0.4182 -0.4423
 4092SOL    HW123735   3.345   3.535   2.311 -0.8496 -0.8188 -1.3438
 4092SOL    HW223736   3.408   3.457   2.202  2.7981 -0.0464  0.9677
 4093SOL     OW23737   2.993   1.128   1.488 -0.1633 -0.2514  0.4250
 4093SOL    HW123738   2.984   1.223   1.493 -0.7440 -0.2362 -0.7555
 4093SOL    HW223739   2.899   1.110   1.490  0.3039 -2.8341 -0.7377
 4094SOL     OW23740   4.461   1.673   0.458  0.3303 -0.0251 -0.1064
 4094SOL    HW123741   4.450   1.650   0.365  1.1415  0.6739 -0.3787
 4094SOL    HW223742   4.389   1.736   0.454  0.1286 -0.3426 -1.6444
 4095SOL     OW23743   1.152   0.308  13.580 -0.4891 -0.1560  0.3036
 4095SOL    HW123744   1.205   0.334  13.505  2.8139 -0.5381  2.4646
 4095SOL    HW223745   1.110   0.230  13.543  0.8675 -1.9423  2.4546
 4096SOL     OW23746   2.874   2.903   7.189 -0.3085  0.1654  0.1283
 4096SOL    HW123747   2.873   2.835   7.257 -0.9584  1.1707  1.1385
 4096SOL    HW223748   2.946   2.870   7.135 -1.8149 -1.3876 -0.9270
 4097SOL     OW23749   0.725   3.263   8.367 -0.8287 -0.2770 -0.1665
 4097SOL    HW123750   0.799   3.320   8.389 -0.4720 -1.0090  0.5164
 4097SOL    HW223751   0.683   3.234   8.448 -1.5620  2.9777  0.6320
 4098SOL     OW23752   3.457   2.873   2.435 -0.6402 -0.4802  0.2994
 4098SOL    HW123753   3.475   2.932   2.508  0.3422 -0.7047  0.2470
 4098SOL    HW223754   3.544   2.837   2.418  0.5415  2.4785  0.0167
 4099SOL     OW23755   2.973   1.689  11.787 -0.1605 -0.7342 -0.6547
 4099SOL    HW123756   2.893   1.733  11.760 -0.5170  0.0905  1.7704
 4099SOL    HW223757   3.017   1.756  11.839 -0.4929 -0.5979 -0.5486
 4100SOL     OW23758   0.932   0.607   9.225  0.5843  0.1133 -0.4562
 4100SOL    HW123759   0.850   0.650   9.201  0.1623 -0.0235  0.7558
 4100SOL    HW223760   0.907   0.517   9.246 -0.1330  0.4184 -0.0179
 4101SOL     OW23761   4.514   1.247  15.050 -0.2372  0.1333  0.2775
 4101SOL    HW123762   4.525   1.321  14.990  0.8793 -0.3003 -0.0599
 4101SOL    HW223763   4.452   1.274  15.118  0.2899 -0.5155  1.0147
 4102SOL     OW23764   0.331   0.041  11.328 -0.4166  0.7424 -0.3065
 4102SOL    HW123765   0.384   0.075  11.256  0.4717 -2.1943 -1.0246
 4102SOL    HW223766   0.282   4.695  11.279 -1.0367  0.0608  1.2448
 4103SOL     OW23767   3.247   3.900  16.961  0.0971  0.4125  0.4293
 4103SOL    HW123768   3.216   3.838  17.027 -1.3189 -0.4650 -1.0425
 4103SOL    HW223769   3.341   3.886  16.967  0.1236 -0.3471 -1.5925
 4104SOL     OW23770   4.597   1.184  13.980  0.3577  0.0123  0.0849
 4104SOL    HW123771   4.627   1.101  13.942  0.5107  0.2662 -0.3505
 4104SOL    HW223772   4.661   1.205  14.048 -0.6955 -1.4188  1.4952
 4105SOL     OW23773   2.410   4.518  13.626 -0.1816  0.1938  0.3887
 4105SOL    HW123774   2.329   4.564  13.604 -1.4935 -1.9892  0.5853
 4105SOL    HW223775   2.423   4.546  13.716  3.7786 -2.4852  0.6375
 4106SOL     OW23776   4.409   2.183   4.224  0.1206  0.1769  0.2510
 4106SOL    HW123777   4.349   2.145   4.289  0.5177 -0.7168  0.0957
 4106SOL    HW223778   4.474   2.113   4.224 -0.9303 -0.8167  0.2910
 4107SOL     OW23779   2.036   0.687   9.070  0.2577  0.7589 -0.0529
 4107SOL    HW123780   2.067   0.597   9.084 -1.6223  0.1753  0.3809
 4107SOL    HW223781   2.005   0.687   8.979  5.1902  0.8019 -1.7178
 4108SOL     OW23782   1.462   3.003   2.891  0.5305  0.1120 -0.2403
 4108SOL    HW123783   1.509   2.955   2.958  0.6424 -0.4939 -0.7509
 4108SOL    HW223784   1.507   2.969   2.813 -0.0370 -2.7897  0.7166
 4109SOL     OW23785   3.480   2.301   7.093 -0.1600 -0.3042  0.5379
 4109SOL    HW123786   3.478   2.395   7.115 -0.3387 -0.2380  0.2255
 4109SOL    HW223787   3.575   2.298   7.080 -0.3134  1.0339 -0.8661
 4110SOL     OW23788   2.958   1.648   2.816  0.0531 -0.2345  1.0403
 4110SOL    HW123789   2.942   1.556   2.797 -1.2499  0.1345  0.3564
 4110SOL    HW223790   2.949   1.697   2.735  0.5231  1.0463  1.7642
 4111SOL     OW23791   4.094   2.393   6.059  0.0239  0.2430 -0.4954
 4111SOL    HW123792   4.188   2.398   6.075  0.2048  0.3628 -1.5579
 4111SOL    HW223793   4.067   2.469   6.110 -2.0743  0.6190 -2.1750
 4112SOL     OW23794   2.423   1.765   4.386 -0.3035  0.2103 -0.5736
 4112SOL    HW123795   2.507   1.799   4.416 -0.3352  1.2808 -1.7371
 4112SOL    HW223796   2.426   1.669   4.380  0.6136  0.3774 -2.6320
 4113SOL     OW23797   2.278   0.370   3.883 -0.0337  0.0216  0.2919
 4113SOL    HW123798   2.232   0.454   3.889 -0.6319 -0.5110  3.1159
 4113SOL    HW223799   2.324   0.375   3.966  0.6231 -1.2567  0.0030
 4114SOL     OW23800   0.576   4.533  11.239  0.2451  0.5944  0.7578
 4114SOL    HW123801   0.486   4.507  11.258  0.3734 -1.2161 -1.1787
 4114SOL    HW223802   0.599   4.452  11.194  0.8732  1.1006  0.1793
 4115SOL     OW23803   2.165   2.901   6.608 -0.0962 -0.5027 -0.1615
 4115SOL    HW123804   2.156   2.922   6.515  1.7375 -0.9461 -0.4488
 4115SOL    HW223805   2.245   2.849   6.613 -0.2191 -0.7277 -0.4791
 4116SOL     OW23806   2.279   2.453   2.552  0.3817  0.1745 -0.5067
 4116SOL    HW123807   2.284   2.388   2.482 -0.4186 -0.2653 -0.1597
 4116SOL    HW223808   2.365   2.495   2.558 -0.1700  0.7973  2.9435
 4117SOL     OW23809   4.459   2.485   4.226  0.2493 -0.4365  0.0862
 4117SOL    HW123810   4.391   2.434   4.183  1.1451 -1.1872 -0.4316
 4117SOL    HW223811   4.402   2.548   4.270  1.2763  0.6291 -0.0928
 4118SOL     OW23812   3.924   1.065   5.805 -0.1249  0.7401 -0.1117
 4118SOL    HW123813   3.944   1.059   5.711 -0.1709  1.9342 -0.1969
 4118SOL    HW223814   3.830   1.077   5.792  0.0350 -1.8400 -3.8990
 4119SOL     OW23815   0.196   3.184  17.051 -0.3411 -0.4909 -0.5496
 4119SOL    HW123816   0.119   3.241  17.057 -0.5810 -0.7484 -1.1524
 4119SOL    HW223817   0.165   3.110  17.104  3.5181 -1.5960  0.1820
 4120SOL     OW23818   2.678   0.979  11.099 -0.2274 -0.1190 -0.0607
 4120SOL    HW123819   2.635   1.040  11.159  0.4260  0.2449  0.0451
 4120SOL    HW223820   2.629   0.901  11.123  0.2057 -0.2548  0.3877
 4121SOL     OW23821   1.897   0.695   9.356 -0.5835 -0.0321  0.1062
 4121SOL    HW123822   1.932   0.670   9.271  0.7230  2.3966 -0.0925
 4121SOL    HW223823   1.962   0.762   9.378 -0.1684 -0.1541 -0.7404
 4122SOL     OW23824   1.929   1.010   0.989  0.4577 -0.7374 -0.1312
 4122SOL    HW123825   2.021   1.030   0.974  0.2709 -1.1104 -1.7779
 4122SOL    HW223826   1.930   0.921   0.953 -1.6180 -1.0523  0.5964
 4123SOL     OW23827   3.206   2.716   6.837  0.1993 -0.3202  0.0251
 4123SOL    HW123828   3.289   2.714   6.884 -0.4148  1.1203  1.1574
 4123SOL    HW223829   3.176   2.626   6.850 -0.2663  0.0283  1.3310
 4124SOL     OW23830   2.730   2.901   3.505 -0.3037 -0.3217 -0.0417
 4124SOL    HW123831   2.754   2.932   3.418 -1.4011  0.0978 -0.1861
 4124SOL    HW223832   2.818   2.877   3.537  0.0979 -0.5712 -1.3398
 4125SOL     OW23833   2.748   4.229  16.854  0.0427 -0.1290  0.0224
 4125SOL    HW123834   2.655   4.248  16.866  0.0914  0.4802 -0.5897
 4125SOL    HW223835   2.753   4.215  16.759 -0.4910  0.4284 -0.0916
 4126SOL     OW23836   3.422   2.573   4.393 -0.5742 -0.3063  0.0525
 4126SOL    HW123837   3.387   2.487   4.418 -1.2998  0.4780  1.7480
 4126SOL    HW223838   3.351   2.608   4.340 -1.6741  0.5183  2.0581
 4127SOL     OW23839   1.553   4.525   8.965  0.1096 -0.6526 -0.4642
 4127SOL    HW123840   1.459   4.529   8.947  0.3953  0.1971 -1.7599
 4127SOL    HW223841   1.577   4.450   8.910  0.7938 -0.8202  0.0731
 4128SOL     OW23842   4.121   0.011   3.679 -0.3406  0.3692  0.3030
 4128SOL    HW123843   4.173   4.666   3.725  0.5816  0.3953 -0.7160
 4128SOL    HW223844   4.040   4.684   3.660  0.8250 -1.4424 -0.0023
 4129SOL     OW23845   2.484   0.555   7.850  0.0603  0.4332 -0.0717
 4129SOL    HW123846   2.467   0.646   7.874 -1.0807  0.2164 -0.0424
 4129SOL    HW223847   2.478   0.546   7.754  1.3802  1.8052 -0.2826
 4130SOL     OW23848   0.661   3.380   4.477  0.4301 -0.0793  0.0452
 4130SOL    HW123849   0.602   3.323   4.527  0.0461  0.6835  0.4483
 4130SOL    HW223850   0.687   3.327   4.402  0.4133 -2.0916  1.4397
 4131SOL     OW23851   3.204   0.151  13.316  0.3054 -0.2159 -0.2752
 4131SOL    HW123852   3.159   0.116  13.239 -0.3489 -2.0259  0.9502
 4131SOL    HW223853   3.293   0.145  13.282  0.7800  0.0551  0.9383
 4132SOL     OW23854   3.454   3.582  16.856  0.1656  0.6799 -0.1865
 4132SOL    HW123855   3.384   3.586  16.921  0.7320  1.5218  0.3741
 4132SOL    HW223856   3.528   3.541  16.901  1.0884  2.3809 -0.1330
 4133SOL     OW23857   2.495   3.040  14.753 -0.3836  0.5531  0.2869
 4133SOL    HW123858   2.481   2.972  14.686  0.1348  0.8147 -0.0906
 4133SOL    HW223859   2.494   3.124  14.707  1.2525 -0.2231 -1.1869
 4134SOL     OW23860   4.250   4.428  15.945 -0.6278 -0.3416  0.2899
 4134SOL    HW123861   4.273   4.518  15.968  0.8772 -0.7025  0.1381
 4134SOL    HW223862   4.216   4.434  15.856 -0.8489 -0.4536  0.3679
 4135SOL     OW23863   0.328   4.045   9.728 -0.0507  0.5346  0.0052
 4135SOL    HW123864   0.255   4.004   9.776  0.7674  0.0981  0.8696
 4135SOL    HW223865   0.272   4.073   9.656 -0.1059  1.5459  0.4345
 4136SOL     OW23866   3.790   0.747   5.726  0.1401  0.5008  0.0774
 4136SOL    HW123867   3.867   0.755   5.781 -1.5581 -1.5052  2.7186
 4136SOL    HW223868   3.800   0.819   5.663  1.0131  0.4803  0.2050
 4137SOL     OW23869   1.833   3.737   8.291 -0.2877 -0.0580  0.0492
 4137SOL    HW123870   1.808   3.704   8.204 -2.5883  1.8128  0.0179
 4137SOL    HW223871   1.751   3.707   8.331  0.0387 -0.2090  0.6029
 4138SOL     OW23872   4.542   4.111  13.256 -0.0336 -0.1270  0.3952
 4138SOL    HW123873   4.566   4.188  13.307 -1.0187  0.4066  0.0559
 4138SOL    HW223874   4.514   4.060  13.332 -1.3236  0.6764  0.4652
 4139SOL     OW23875   4.346   1.017   4.883  0.9022  0.5391  0.0164
 4139SOL    HW123876   4.349   1.113   4.873 -0.0499  0.5622 -0.0458
 4139SOL    HW223877   4.399   1.000   4.961  0.4582  1.2221  0.4708
 4140SOL     OW23878   4.666   4.413   6.087 -0.2311  0.1912  0.1054
 4140SOL    HW123879   4.675   4.488   6.028 -0.3952 -0.5825 -0.8974
 4140SOL    HW223880   0.010   4.360   6.040 -0.2342  0.4090 -0.1387
 4141SOL     OW23881   4.457   0.689   5.301  0.1531 -0.0435 -0.0465
 4141SOL    HW123882   4.380   0.686   5.244  0.9248 -1.2244 -1.0204
 4141SOL    HW223883   4.435   0.606   5.343  1.7927  0.5234  1.9304
 4142SOL     OW23884   1.526   3.815  10.423  0.1091 -0.5778  0.3501
 4142SOL    HW123885   1.600   3.805  10.363  0.9708 -0.9793  1.4678
 4142SOL    HW223886   1.530   3.735  10.475 -1.1235 -1.3300 -0.7110
 4143SOL     OW23887   1.141   4.170  16.899 -0.0210 -0.1289  0.0930
 4143SOL    HW123888   1.066   4.230  16.898 -1.2832 -1.6905  0.7435
 4143SOL    HW223889   1.130   4.127  16.984  1.4016 -1.1830 -0.2606
 4144SOL     OW23890   4.544   2.660   2.072  0.0186 -0.2882 -0.4329
 4144SOL    HW123891   4.584   2.579   2.104 -0.1075 -1.0934 -2.3292
 4144SOL    HW223892   4.465   2.641   2.021  0.9418 -0.9344 -1.6299
 4145SOL     OW23893   3.474   1.617  13.138 -0.0912  0.0329 -0.1135
 4145SOL    HW123894   3.553   1.671  13.150 -0.2372  0.0024  0.9926
 4145SOL    HW223895   3.477   1.565  13.058 -1.4609  1.0856 -0.8284
 4146SOL     OW23896   0.219   2.693   9.226  0.3446  0.2139 -0.2136
 4146SOL    HW123897   0.273   2.753   9.277  0.8109  0.1904 -0.6822
 4146SOL    HW223898   0.283   2.667   9.160  2.8259 -0.5568  2.5417
 4147SOL     OW23899   4.685   1.912   2.386 -0.3893  0.2833 -0.4398
 4147SOL    HW123900   4.629   1.975   2.432 -0.7309 -1.1672  1.1268
 4147SOL    HW223901   4.617   1.851   2.360 -0.9222  1.6104 -2.1211
 4148SOL     OW23902   0.613   4.348   4.687 -0.1599  0.5374 -0.0208
 4148SOL    HW123903   0.601   4.347   4.592 -1.4867 -2.4437  0.1685
 4148SOL    HW223904   0.548   4.416   4.705  0.1155  0.9575 -0.6137
 4149SOL     OW23905   0.912   1.355   8.497  0.3758 -0.2800 -0.3784
 4149SOL    HW123906   0.910   1.297   8.422 -0.8965  0.5528 -0.9890
 4149SOL    HW223907   0.993   1.321   8.534  0.6609  0.3769 -0.3935
 4150SOL     OW23908   0.120   0.289  17.119  0.1150 -0.4970  0.1006
 4150SOL    HW123909   0.033   0.323  17.138 -0.4123 -1.4747 -0.5615
 4150SOL    HW223910   0.127   0.315  17.027  1.5714 -0.3444  0.2501
 4151SOL     OW23911   1.517   0.430   4.966  0.2218 -0.1608 -0.3491
 4151SOL    HW123912   1.450   0.447   4.900 -0.2834  2.7964  0.9050
 4151SOL    HW223913   1.488   0.349   5.007 -0.0940 -0.1434 -0.5350
 4152SOL     OW23914   0.035   0.953   0.820 -0.4645  0.1559  0.3537
 4152SOL    HW123915   4.681   1.010   0.841 -0.4373  0.8145 -1.2765
 4152SOL    HW223916   0.098   1.021   0.798  1.1369 -0.6421  2.5957
 4153SOL     OW23917   3.736   2.091   8.750 -0.0635  0.0024 -0.3893
 4153SOL    HW123918   3.774   2.034   8.817 -0.1787  1.5493  1.0002
 4153SOL    HW223919   3.644   2.064   8.753  0.1687 -0.8549 -1.1992
 4154SOL     OW23920   2.049   0.321  17.657 -0.3912  0.8768  0.6342
 4154SOL    HW123921   1.967   0.339  17.612 -0.3200 -1.1253 -0.2886
 4154SOL    HW223922   2.022   0.331   0.064 -0.3859 -2.6421  1.0055
 4155SOL     OW23923   3.861   2.121   5.116 -0.1857  1.0016  0.4190
 4155SOL    HW123924   3.880   2.187   5.049  2.2951  1.1368  1.2337
 4155SOL    HW223925   3.853   2.040   5.066  0.2996  0.0349  1.8854
 4156SOL     OW23926   2.136   0.330  13.639 -0.3393 -0.6938 -0.0789
 4156SOL    HW123927   2.214   0.349  13.587  0.6455  1.6255  2.2316
 4156SOL    HW223928   2.106   0.257  13.584 -3.0586  0.8246 -0.6076
 4157SOL     OW23929   2.090   3.761   8.379 -0.2492  0.6927  0.3994
 4157SOL    HW123930   2.094   3.766   8.475 -0.9261  0.6673  0.4258
 4157SOL    HW223931   1.997   3.757   8.360 -0.4186 -0.1760  1.3928
 4158SOL     OW23932   2.837   3.520   0.126 -0.2816 -0.1068 -0.8358
 4158SOL    HW123933   2.780   3.571   0.184  2.8044  1.9263  0.4043
 4158SOL    HW223934   2.917   3.571   0.133 -0.8000  0.5209  0.6259
 4159SOL     OW23935   4.403   0.184   1.842 -0.1903  0.0645  0.1070
 4159SOL    HW123936   4.366   0.193   1.930  0.3644 -0.5611  0.4070
 4159SOL    HW223937   4.469   0.254   1.838 -1.8558  1.5933 -0.4408
 4160SOL     OW23938   1.869   1.476   8.719  0.0207  0.0377 -0.2802
 4160SOL    HW123939   1.918   1.558   8.716  1.4727 -0.8435 -0.8465
 4160SOL    HW223940   1.890   1.444   8.807  0.0032  0.9428  0.0474
 4161SOL     OW23941   1.333   4.163  17.128 -0.1221  0.0160 -0.0189
 4161SOL    HW123942   1.252   4.118  17.152 -0.2657  0.2257 -0.1105
 4161SOL    HW223943   1.307   4.201  17.044  0.0433 -0.0160 -0.0838
 4162SOL     OW23944   2.418   4.711   6.849 -0.3470 -0.2720 -0.0980
 4162SOL    HW123945   2.381   0.071   6.811  1.0946 -0.3335 -1.6263
 4162SOL    HW223946   2.368   4.710   6.931 -1.7930 -1.6737 -1.0087
 4163SOL     OW23947   4.450   1.939   9.327  0.7522 -0.7151 -0.2133
 4163SOL    HW123948   4.416   1.870   9.383  1.5563  0.9049  2.2750
 4163SOL    HW223949   4.459   2.012   9.389  0.1635  0.6775 -1.7611
 4164SOL     OW23950   2.062   4.384   1.340 -0.1534  0.2545  0.4817
 4164SOL    HW123951   2.136   4.324   1.330 -1.0907 -0.2547 -3.1388
 4164SOL    HW223952   1.991   4.326   1.313 -0.2800  0.2110  0.9035
 4165SOL     OW23953   1.519   1.217   7.491 -0.0966 -0.2876 -0.0018
 4165SOL    HW123954   1.540   1.124   7.493 -3.0398 -0.9793 -0.5364
 4165SOL    HW223955   1.608   1.251   7.480  0.3570 -1.1189  1.2250
 4166SOL     OW23956   2.068   2.646   7.392  0.2423  0.3967  0.3054
 4166SOL    HW123957   2.027   2.573   7.345  2.5231 -2.2679  2.4687
 4166SOL    HW223958   2.119   2.594   7.454  0.7931  0.8882  0.2615
 4167SOL     OW23959   0.793   4.598   8.190 -0.4835 -0.0785  0.1150
 4167SOL    HW123960   0.835   4.580   8.274 -0.2295  1.4388  0.3143
 4167SOL    HW223961   0.800   4.693   8.187 -1.4085 -0.0359 -0.6990
 4168SOL     OW23962   1.122   2.261   2.723  0.5992 -0.1586 -0.2664
 4168SOL    HW123963   1.029   2.276   2.705  0.0667 -0.4704  2.1933
 4168SOL    HW223964   1.140   2.190   2.662  2.4211  0.4608 -0.4277
 4169SOL     OW23965   0.196   1.652   1.928 -0.2057 -0.3708  0.1160
 4169SOL    HW123966   0.229   1.564   1.944  0.7339 -0.3662 -1.7103
 4169SOL    HW223967   0.183   1.652   1.833 -3.1355  0.6331  0.5266
 4170SOL     OW23968   0.461   2.073   6.157  0.1799 -0.4070  0.2227
 4170SOL    HW123969   0.534   2.082   6.219  0.2445  0.1268  0.0750
 4170SOL    HW223970   0.435   2.164   6.143  1.0454 -0.2121 -0.1173
 4171SOL     OW23971   1.521   1.110  10.568 -0.4002 -0.2164 -0.3019
 4171SOL    HW123972   1.476   1.193  10.551 -1.0453 -1.1904 -3.2589
 4171SOL    HW223973   1.455   1.048  10.538 -0.3277  1.1185 -3.1620
 4172SOL     OW23974   4.108   1.759   5.936  0.0057  0.0735  0.6561
 4172SOL    HW123975   4.055   1.826   5.894 -1.8754 -2.1821 -0.6077
 4172SOL    HW223976   4.065   1.758   6.022 -1.5554 -2.0154 -0.1668
 4173SOL     OW23977   0.462   1.589   8.325  0.5295 -0.2134 -0.0668
 4173SOL    HW123978   0.534   1.539   8.289  1.0780 -0.8916  1.9559
 4173SOL    HW223979   0.384   1.534   8.319  0.3770 -0.1615  1.3448
 4174SOL     OW23980   3.459   0.168  13.174 -0.0004 -0.5980 -0.1210
 4174SOL    HW123981   3.464   0.157  13.079  0.9246 -0.5184 -0.0885
 4174SOL    HW223982   3.546   0.144  13.206 -0.1823  1.4620  1.9448
 4175SOL     OW23983   2.840   2.897   5.624  0.4383  0.4321 -0.0910
 4175SOL    HW123984   2.818   2.927   5.536  0.5313  0.0579 -0.2389
 4175SOL    HW223985   2.877   2.812   5.600 -1.3759 -0.7853  1.3385
 4176SOL     OW23986   2.794   2.895  16.097  0.1421  0.7895 -0.6537
 4176SOL    HW123987   2.814   2.986  16.074  0.2370  1.4076  1.9024
 4176SOL    HW223988   2.823   2.902  16.188 -0.6674  1.5344 -0.4528
 4177SOL     OW23989   1.840   4.200   1.595  0.3396 -0.0144  0.0711
 4177SOL    HW123990   1.901   4.127   1.585 -0.1040 -0.4074  0.1985
 4177SOL    HW223991   1.815   4.205   1.502 -1.5391  0.3507  0.5826
 4178SOL     OW23992   3.609   0.246   9.972  0.3687  0.0133  0.3147
 4178SOL    HW123993   3.541   0.302  10.011  1.3830 -0.7298  3.1296
 4178SOL    HW223994   3.678   0.312   9.980  0.9539 -0.5830  0.1463
 4179SOL     OW23995   4.117   2.284   6.721  0.1498  0.2889 -0.3428
 4179SOL    HW123996   4.110   2.223   6.795  0.7870 -0.5548 -0.9688
 4179SOL    HW223997   4.095   2.231   6.644  0.6714 -2.3183  1.2870
 4180SOL     OW23998   1.627   0.353   2.728  0.5865  0.3292 -0.4857
 4180SOL    HW123999   1.696   0.369   2.663  0.1441 -0.8887 -1.2486
 4180SOL    HW224000   1.680   0.367   2.806 -1.9946  1.0906  1.1207
 4181SOL     OW24001   0.564   1.867  11.085  0.1311  0.1063 -0.1185
 4181SOL    HW124002   0.517   1.947  11.109 -0.3004  0.2859 -1.5681
 4181SOL    HW224003   0.648   1.900  11.053  0.3761  0.1300  0.5398
 4182SOL     OW24004   2.596   2.880   6.085 -0.3188 -0.4385  0.0980
 4182SOL    HW124005   2.596   2.935   6.006 -0.9471  0.8499  0.9878
 4182SOL    HW224006   2.686   2.846   6.084  0.7816  2.4750 -0.4906
 4183SOL     OW24007   2.077   2.229   2.604 -0.0776  0.4680 -0.3635
 4183SOL    HW124008   2.110   2.256   2.518  1.3567 -1.5287 -0.4466
 4183SOL    HW224009   1.984   2.211   2.590  0.0140 -0.5838  0.3798
 4184SOL     OW24010   3.317   2.313  15.448 -0.2247  0.5285  0.6485
 4184SOL    HW124011   3.359   2.392  15.483 -0.6627  1.0354  0.0266
 4184SOL    HW224012   3.231   2.343  15.417 -0.8635 -0.6718  1.2459
 4185SOL     OW24013   1.777   3.574   9.084 -0.1991  0.2216  0.2718
 4185SOL    HW124014   1.750   3.543   9.170 -0.4190  0.9945  0.4829
 4185SOL    HW224015   1.697   3.613   9.051  1.8686  1.9905 -2.6467
 4186SOL     OW24016   3.172   2.295   3.441  0.5665  0.0329 -0.0269
 4186SOL    HW124017   3.111   2.338   3.500  1.3075 -1.8835  2.1792
 4186SOL    HW224018   3.112   2.291   3.366 -0.7999  0.7710  1.0341
 4187SOL     OW24019   2.180   1.250   8.286  0.3633 -0.3681 -0.0280
 4187SOL    HW124020   2.196   1.274   8.377  0.8922 -0.8595  0.0049
 4187SOL    HW224021   2.155   1.337   8.253  0.6193 -0.1730  0.2975
 4188SOL     OW24022   2.079   4.469   8.546  0.1523  0.1033  0.1737
 4188SOL    HW124023   2.139   4.476   8.620 -0.3767  0.8232  0.5424
 4188SOL    HW224024   1.996   4.453   8.592 -1.0374  2.8050 -0.9976
 4189SOL     OW24025   1.621   3.229   5.493  0.0363 -0.0558 -0.3215
 4189SOL    HW124026   1.605   3.135   5.492 -1.4113  0.1894 -0.7693
 4189SOL    HW224027   1.660   3.237   5.580  1.2941 -1.1620 -0.7748
 4190SOL     OW24028   2.425   3.448  16.069  0.4540  0.1410 -0.3743
 4190SOL    HW124029   2.371   3.369  16.070 -0.7595  0.9996  3.4656
 4190SOL    HW224030   2.421   3.478  15.978  0.7153  1.3864  0.0286
 4191SOL     OW24031   0.977   3.685   7.622 -0.1956  0.3144  0.2155
 4191SOL    HW124032   1.011   3.596   7.622 -0.6297  0.1448 -0.3247
 4191SOL    HW224033   1.054   3.740   7.639  1.1310 -1.3693 -0.4008
 4192SOL     OW24034   1.356   3.248   2.693 -0.2932  0.0511 -0.0216
 4192SOL    HW124035   1.321   3.329   2.731 -1.2897  0.6930 -2.3286
 4192SOL    HW224036   1.413   3.231   2.768  1.0367  1.2299 -0.7702
 4193SOL     OW24037   1.414   4.203   0.276 -0.3471  0.7709  0.1806
 4193SOL    HW124038   1.446   4.272   0.333  0.2055  2.6966 -2.4645
 4193SOL    HW224039   1.412   4.129   0.337  0.8672  0.6968  0.1303
 4194SOL     OW24040   3.492   2.738  16.555  0.3563  0.9443  0.5330
 4194SOL    HW124041   3.518   2.723  16.464 -0.0800  1.2348  0.3657
 4194SOL    HW224042   3.564   2.799  16.569  2.2748 -1.2121  0.1409
 4195SOL     OW24043   3.417   0.910   1.724  0.1561 -0.6364  0.1652
 4195SOL    HW124044   3.454   0.856   1.794 -0.3995 -1.4237 -0.1551
 4195SOL    HW224045   3.464   0.992   1.739  0.1467 -0.4098 -1.0725
 4196SOL     OW24046   3.144   4.497   2.499 -0.8738 -0.3357 -0.3191
 4196SOL    HW124047   3.229   4.518   2.537  0.0120 -3.9461 -0.3475
 4196SOL    HW224048   3.175   4.443   2.426  1.4832 -0.3234  0.6793
 4197SOL     OW24049   0.987   0.725   0.880 -0.2434 -0.2259  0.6600
 4197SOL    HW124050   1.018   0.670   0.951 -2.5929 -0.6821  1.3454
 4197SOL    HW224051   0.908   0.676   0.857 -0.2104 -0.5226  1.2100
 4198SOL     OW24052   1.709   1.945  10.716 -0.5424  0.4610  0.2148
 4198SOL    HW124053   1.785   1.894  10.688 -1.6676 -0.9279 -0.3169
 4198SOL    HW224054   1.750   2.028  10.738 -0.3581  0.7434 -1.1926
 4199SOL     OW24055   4.223   2.824  14.774 -0.1917  0.0089  0.1847
 4199SOL    HW124056   4.175   2.889  14.722 -1.2165  0.0034  1.1402
 4199SOL    HW224057   4.154   2.762  14.794 -0.4087  0.4432  0.7860
 4200SOL     OW24058   3.505   3.814  14.394  1.0765  1.2010  0.0055
 4200SOL    HW124059   3.579   3.763  14.428 -0.0791 -0.7562 -0.4803
 4200SOL    HW224060   3.462   3.841  14.475 -0.9848 -0.9320 -0.4057
 4201SOL     OW24061   0.930   1.467   5.373  0.6894 -0.0363  0.3320
 4201SOL    HW124062   0.882   1.420   5.305  1.0324  0.0230  0.0476
 4201SOL    HW224063   0.988   1.399   5.406 -0.2962 -1.6474 -1.2919
 4202SOL     OW24064   0.649   3.730   4.160 -0.3691  0.5749 -0.3615
 4202SOL    HW124065   0.666   3.745   4.067  0.9998 -1.0260 -0.3853
 4202SOL    HW224066   0.733   3.709   4.200 -1.2253 -1.7390  0.1982
 4203SOL     OW24067   2.341   3.208   0.075  0.2676  0.1673 -0.1874
 4203SOL    HW124068   2.369   3.298   0.062 -1.1458 -0.0991 -5.1425
 4203SOL    HW224069   2.303   3.196  17.673 -0.8846 -1.0278  0.4812
 4204SOL     OW24070   4.457   3.862   7.646  0.3353 -0.1619  0.1156
 4204SOL    HW124071   4.443   3.917   7.569 -0.2321 -1.9678 -1.0638
 4204SOL    HW224072   4.375   3.814   7.640  0.3187 -0.1142 -0.0276
 4205SOL     OW24073   0.823   2.806   4.547  0.2516 -0.3014 -0.2818
 4205SOL    HW124074   0.822   2.897   4.518 -0.1546 -0.9888 -2.4256
 4205SOL    HW224075   0.915   2.796   4.570  0.7103  2.5147 -0.9939
 4206SOL     OW24076   3.000   2.513   6.617  0.2595  0.0636  0.6408
 4206SOL    HW124077   2.920   2.541   6.659 -0.1765 -1.2172  0.6707
 4206SOL    HW224078   3.021   2.433   6.666 -0.3414 -0.0168  0.7593
 4207SOL     OW24079   1.938   4.375   9.852 -0.4884 -0.6038 -0.0105
 4207SOL    HW124080   1.955   4.365   9.759 -3.3776 -1.6010 -0.4524
 4207SOL    HW224081   1.895   4.461   9.851 -1.7005 -1.2027 -0.2496
 4208SOL     OW24082   4.283   4.242   2.163 -0.0216 -0.4581 -0.1376
 4208SOL    HW124083   4.258   4.311   2.102 -0.1548 -1.0128 -0.7132
 4208SOL    HW224084   4.231   4.262   2.241 -0.7357  0.0022 -0.7351
 4209SOL     OW24085   4.522   2.898   0.355  0.1027 -0.4666 -0.2303
 4209SOL    HW124086   4.501   2.923   0.445  1.1071 -0.5475  0.0290
 4209SOL    HW224087   4.443   2.850   0.331  0.5824 -2.0265  1.2924
 4210SOL     OW24088   2.353   2.895   7.400  0.2680 -0.1505  0.3499
 4210SOL    HW124089   2.383   2.970   7.348  1.3895 -0.7613  0.1217
 4210SOL    HW224090   2.418   2.825   7.395 -0.5035 -0.8385 -0.1897
 4211SOL     OW24091   4.224   0.147   3.219  0.3708  0.0618  0.0634
 4211SOL    HW124092   4.136   0.118   3.194  0.6332 -0.6312 -0.0564
 4211SOL    HW224093   4.200   0.173   3.308  2.4378 -0.8248  0.8840
 4212SOL     OW24094   3.673   0.427   7.133 -0.7651 -0.6973 -0.2478
 4212SOL    HW124095   3.594   0.392   7.092 -0.1990  0.0256 -1.9620
 4212SOL    HW224096   3.701   0.493   7.070  0.0637 -1.3168 -0.5250
 4213SOL     OW24097   4.445   1.144   6.637  0.5643 -0.3848  0.5344
 4213SOL    HW124098   4.498   1.065   6.624  0.3575 -0.6198  1.1231
 4213SOL    HW224099   4.410   1.146   6.548 -2.4947  1.3509  1.8123
 4214SOL     OW24100   4.180   2.195  11.684  0.0877 -0.2241 -0.6132
 4214SOL    HW124101   4.107   2.247  11.716  2.1736  3.0370 -1.2191
 4214SOL    HW224102   4.147   2.174  11.597  0.6528 -0.9461 -0.6585
 4215SOL     OW24103   0.414   4.687   3.403 -0.1632 -0.6445 -0.3726
 4215SOL    HW124104   0.330   0.011   3.413 -0.0949 -1.2601  2.9239
 4215SOL    HW224105   0.423   4.640   3.486  0.7280 -1.4945 -0.9477
 4216SOL     OW24106   3.943   1.969   7.762 -0.0358  0.0835  0.1741
 4216SOL    HW124107   4.011   2.014   7.813 -0.6099  1.1182  0.0364
 4216SOL    HW224108   3.949   2.017   7.680  2.8281  0.7265  0.7386
 4217SOL     OW24109   0.249   2.639   3.207  0.0098  0.3438 -0.0648
 4217SOL    HW124110   0.230   2.545   3.202  3.1982 -0.2119 -2.2864
 4217SOL    HW224111   0.345   2.646   3.210  0.1852 -1.8398 -0.3202
 4218SOL     OW24112   0.970   1.440  10.660  0.4845 -0.2110  0.4826
 4218SOL    HW124113   0.902   1.431  10.727 -0.2384 -1.1469 -0.3812
 4218SOL    HW224114   0.921   1.459  10.580 -0.2951  1.0902  1.2685
 4219SOL     OW24115   1.174   3.100  11.364  0.2696 -0.6408 -0.0150
 4219SOL    HW124116   1.228   3.061  11.295 -0.6762 -0.9803 -0.5649
 4219SOL    HW224117   1.215   3.040  11.426  1.5949  0.8148  0.4916
 4220SOL     OW24118   2.843   0.102   7.290  0.1458 -0.0050  0.3557
 4220SOL    HW124119   2.816   0.024   7.242 -0.6642 -0.5431  1.6923
 4220SOL    HW224120   2.791   0.099   7.370  2.2842 -0.6103  1.7462
 4221SOL     OW24121   2.860   2.608   4.489  0.0330 -0.0695 -0.1024
 4221SOL    HW124122   2.825   2.520   4.479 -1.3909  0.5558 -0.6890
 4221SOL    HW224123   2.781   2.656   4.515 -0.8692 -2.0626  0.8122
 4222SOL     OW24124   4.093   1.142   9.794 -0.1036  0.0002 -0.2722
 4222SOL    HW124125   4.048   1.225   9.775  1.0421  0.6255 -0.2374
 4222SOL    HW224126   4.088   1.089   9.715 -0.7541  0.4564 -0.5424
 4223SOL     OW24127   1.130   1.071   1.939 -0.0099  0.3003  0.3501
 4223SOL    HW124128   1.174   1.156   1.935  0.9769 -0.1579  1.4845
 4223SOL    HW224129   1.043   1.107   1.921 -0.3656  0.0321  1.5315
 4224SOL     OW24130   3.574   2.031   0.400 -0.3198 -0.3041 -0.1942
 4224SOL    HW124131   3.552   1.944   0.368 -1.5570  0.2549 -0.8632
 4224SOL    HW224132   3.608   1.995   0.482 -1.0918  0.7371  0.5877
 4225SOL     OW24133   1.332   3.883   1.213  0.3112 -0.2061  0.1374
 4225SOL    HW124134   1.404   3.939   1.243 -0.5849  0.6535  0.6988
 4225SOL    HW224135   1.261   3.910   1.272  0.2608 -0.0442  0.0018
 4226SOL     OW24136   2.681   3.675   9.369  0.2569 -0.3352 -0.1695
 4226SOL    HW124137   2.724   3.678   9.284  2.6491 -2.1116  0.9919
 4226SOL    HW224138   2.740   3.726   9.424  0.4476 -1.5253  0.7188
 4227SOL     OW24139   4.403   4.668   6.865  0.0006  0.0733 -0.2513
 4227SOL    HW124140   4.466   4.643   6.932  0.9837 -0.3777 -1.3343
 4227SOL    HW224141   4.321   4.634   6.901 -0.4723  0.1696 -1.2255
 4228SOL     OW24142   4.232   3.740   3.616 -0.7595  0.2557  0.1705
 4228SOL    HW124143   4.282   3.720   3.695  0.4926  0.4403 -0.5642
 4228SOL    HW224144   4.301   3.729   3.551  1.1108  1.5522  1.9309
 4229SOL     OW24145   0.793   3.624  12.752  0.3282 -0.4137 -0.1065
 4229SOL    HW124146   0.814   3.533  12.774 -0.8902 -0.0380  2.6060
 4229SOL    HW224147   0.875   3.671  12.766 -0.1698  0.0140  1.3409
 4230SOL     OW24148   3.852   2.872  13.124 -0.1498 -0.7634 -0.5055
 4230SOL    HW124149   3.945   2.875  13.145 -0.7804  3.8666  1.8763
 4230SOL    HW224150   3.827   2.964  13.135  1.7776  0.1264 -3.6201
 4231SOL     OW24151   3.424   1.508   1.972 -0.2489 -0.1561 -0.4566
 4231SOL    HW124152   3.351   1.469   2.019  0.2690  1.1549  1.4188
 4231SOL    HW224153   3.495   1.480   2.031 -0.1309  1.2221  0.0449
 4232SOL     OW24154   2.938   2.272  12.282 -0.4854 -0.0561 -0.0491
 4232SOL    HW124155   3.002   2.307  12.219  2.9405 -2.2913  2.1652
 4232SOL    HW224156   2.963   2.330  12.355  1.9135 -0.1892 -0.7590
 4233SOL     OW24157   3.412   2.300   5.918  0.2454 -0.3658  0.1875
 4233SOL    HW124158   3.325   2.261   5.917  0.3154 -0.5365  0.5560
 4233SOL    HW224159   3.407   2.374   5.978  0.5331 -0.8025  0.7532
 4234SOL     OW24160   0.958   1.302   1.739 -0.2948 -0.3291  0.1116
 4234SOL    HW124161   0.888   1.264   1.792 -2.2745  0.7674 -1.7556
 4234SOL    HW224162   0.923   1.298   1.651  0.2751  0.2783 -0.1449
 4235SOL     OW24163   3.065   1.247   5.432  0.2577 -0.6471  0.4438
 4235SOL    HW124164   3.055   1.342   5.428  1.5989 -0.4381  2.6118
 4235SOL    HW224165   3.156   1.220   5.441  0.1933 -0.6926  0.9466
 4236SOL     OW24166   2.619   2.488  10.351 -0.0143  0.7866 -0.1951
 4236SOL    HW124167   2.624   2.406  10.402 -1.3230  0.1340 -1.0910
 4236SOL    HW224168   2.523   2.491  10.358  0.0663 -0.7120  1.6640
 4237SOL     OW24169   3.104   0.231   8.149  0.1126  0.5405  0.1468
 4237SOL    HW124170   3.031   0.191   8.195  0.0595  0.8679  0.3451
 4237SOL    HW224171   3.129   0.301   8.210 -1.4890 -1.5444  3.1578
 4238SOL     OW24172   2.479   2.308   2.704  0.2512  0.2252 -0.7785
 4238SOL    HW124173   2.488   2.255   2.625  1.5631 -1.1628  0.2950
 4238SOL    HW224174   2.392   2.295   2.741  0.6484  2.3108  0.9074
 4239SOL     OW24175   1.477   1.137   8.011  0.2313 -0.0631  0.2112
 4239SOL    HW124176   1.408   1.087   8.055  0.1989  0.3038  0.5790
 4239SOL    HW224177   1.440   1.137   7.923 -0.3603 -1.6025  0.4747
 4240SOL     OW24178   1.123   2.822   0.872 -0.0153 -0.1303 -0.0881
 4240SOL    HW124179   1.075   2.773   0.938 -0.7278  0.6969  0.0099
 4240SOL    HW224180   1.050   2.884   0.862 -0.1589 -0.1125  1.1229
 4241SOL     OW24181   0.873   3.771   1.816 -0.5357 -0.3073 -0.6635
 4241SOL    HW124182   0.790   3.805   1.784  0.5577  2.0865 -0.9956
 4241SOL    HW224183   0.860   3.774   1.911 -1.7706 -0.9040 -0.8087
 4242SOL     OW24184   0.830   0.150   8.236  0.0429  0.2472 -0.4100
 4242SOL    HW124185   0.858   0.175   8.324  1.0069 -1.5137 -0.2431
 4242SOL    HW224186   0.881   0.210   8.182  0.0349  1.1876  0.6150
 4243SOL     OW24187   3.094   3.097   4.377 -0.2222  0.2288 -0.0471
 4243SOL    HW124188   3.100   3.178   4.327  0.0446  1.7603  2.4656
 4243SOL    HW224189   3.004   3.069   4.360  0.7568 -2.1944 -1.3273
 4244SOL     OW24190   0.099   2.005   6.574 -0.3533  0.2546  0.2330
 4244SOL    HW124191   0.174   2.054   6.541  0.8749 -0.6150  1.7047
 4244SOL    HW224192   0.116   2.009   6.669 -1.6446 -0.9494  0.5061
 4245SOL     OW24193   1.282   1.486  12.037  0.1802  0.4230 -0.4582
 4245SOL    HW124194   1.249   1.476  12.126 -1.6779 -0.3999 -1.2413
 4245SOL    HW224195   1.282   1.394  12.011  3.9382 -0.3686  2.3480
 4246SOL     OW24196   2.594   0.055   7.898  0.8815 -0.5491 -0.0538
 4246SOL    HW124197   2.602   0.131   7.957 -1.9080  0.2335 -0.6713
 4246SOL    HW224198   2.500   0.055   7.881  1.2105 -0.4061 -1.8391
 4247SOL     OW24199   1.925   4.342   2.698  0.5184  0.4180  0.2276
 4247SOL    HW124200   1.966   4.329   2.612  0.3929  0.7960  0.1089
 4247SOL    HW224201   1.908   4.436   2.703 -2.3338 -0.1085  0.3463
 4248SOL     OW24202   3.943   0.044   5.897 -0.5480  0.0842 -0.0982
 4248SOL    HW124203   3.998   4.720   5.962 -2.0555  0.9502  1.7937
 4248SOL    HW224204   3.997   0.047   5.818 -1.7427 -2.5220 -1.0341
 4249SOL     OW24205   0.152   4.665   9.129 -0.4554  0.7993  0.0526
 4249SOL    HW124206   0.099   4.699   9.201 -0.2028 -0.5584  0.8889
 4249SOL    HW224207   0.223   4.620   9.176 -1.2223 -1.9533 -1.4178
 4250SOL     OW24208   0.859   2.282   5.000 -0.0638  0.2968 -0.2045
 4250SOL    HW124209   0.904   2.220   4.942 -1.8428 -1.0162 -0.1896
 4250SOL    HW224210   0.828   2.328   4.922  2.0711 -2.1126 -2.4854
 4251SOL     OW24211   2.470   0.625   3.218 -0.0907  0.1530 -0.0407
 4251SOL    HW124212   2.548   0.622   3.163  0.5428  1.0454  0.8044
 4251SOL    HW224213   2.401   0.622   3.152  2.3093 -0.1511 -2.5434
 4252SOL     OW24214   3.755   4.255   0.736  0.5977 -0.4301  0.0480
 4252SOL    HW124215   3.820   4.205   0.785 -0.3855  1.3506  3.1688
 4252SOL    HW224216   3.770   4.343   0.770  0.8476 -0.9370  1.2468
 4253SOL     OW24217   1.369   3.286   5.676  0.0615 -0.0369 -0.4215
 4253SOL    HW124218   1.376   3.194   5.648  0.4504  0.1335 -0.8866
 4253SOL    HW224219   1.447   3.326   5.639 -1.8715  1.8211 -2.4663
 4254SOL     OW24220   1.874   1.280   5.512  0.6407  0.5050 -0.2867
 4254SOL    HW124221   1.898   1.207   5.454 -0.0396  0.8919 -1.0582
 4254SOL    HW224222   1.799   1.240   5.556  0.0510  2.3540  0.3595
 4255SOL     OW24223   3.878   4.667   8.453  0.1032  0.4788 -0.3495
 4255SOL    HW124224   3.964   4.642   8.487 -0.2255 -1.2435 -0.7540
 4255SOL    HW224225   3.870   4.622   8.369 -1.0979 -0.1789  0.1232
 4256SOL     OW24226   2.069   1.056   7.760 -0.2890 -0.4521  0.9891
 4256SOL    HW124227   2.127   0.988   7.726  1.1428 -0.0434  2.5972
 4256SOL    HW224228   2.046   1.107   7.683  0.4350  2.2966  2.5752
 4257SOL     OW24229   1.569   3.320   4.778  0.3411  0.2032 -0.9302
 4257SOL    HW124230   1.547   3.230   4.752  1.6346 -0.3660 -0.0919
 4257SOL    HW224231   1.551   3.319   4.872  0.0871  2.0896 -0.9574
 4258SOL     OW24232   0.493   4.405  17.327 -0.3199 -0.0753 -0.4916
 4258SOL    HW124233   0.400   4.399  17.304  0.0177 -0.2298 -1.8443
 4258SOL    HW224234   0.520   4.316  17.306  0.6548  0.4687 -1.5381
 4259SOL     OW24235   1.786   1.799   5.123  0.0221 -0.5813  0.1908
 4259SOL    HW124236   1.874   1.763   5.115  1.3924  2.1824  2.4482
 4259SOL    HW224237   1.771   1.849   5.043  0.0140  1.7206  1.6085
 4260SOL     OW24238   4.327   0.506   0.951 -0.1408  0.2707  0.3608
 4260SOL    HW124239   4.369   0.526   0.867  2.4166 -1.8049  1.1337
 4260SOL    HW224240   4.250   0.465   0.912  0.2745 -1.1765  1.0535
 4261SOL     OW24241   4.491   0.385   8.756 -1.0236 -0.5214 -0.1088
 4261SOL    HW124242   4.568   0.329   8.767 -0.4965 -0.0406 -1.3164
 4261SOL    HW224243   4.490   0.395   8.660 -0.7410  1.1704  0.0610
 4262SOL     OW24244   2.314   0.231   6.219 -0.0726 -0.1352 -0.0828
 4262SOL    HW124245   2.346   0.167   6.283  1.8161  0.4238 -0.4449
 4262SOL    HW224246   2.390   0.289   6.227 -0.8502  1.1013 -1.6395
 4263SOL     OW24247   0.840   1.494  10.407 -0.5296  0.2239 -0.3339
 4263SOL    HW124248   0.816   1.401  10.411  0.0752  0.0832 -0.0440
 4263SOL    HW224249   0.804   1.515  10.320  0.3442  0.2325 -0.6910
 4264SOL     OW24250   1.551   3.298   2.901 -0.1391  0.5680  0.2997
 4264SOL    HW124251   1.621   3.302   2.836  0.5974 -2.1892  0.9037
 4264SOL    HW224252   1.603   3.302   2.982 -0.4327 -3.8787  0.7294
 4265SOL     OW24253   4.239   1.236   5.523 -0.3363  0.0746 -0.1011
 4265SOL    HW124254   4.197   1.167   5.471 -0.3261  0.2473 -0.3388
 4265SOL    HW224255   4.289   1.275   5.452 -0.9238  1.2456  0.1277
 4266SOL     OW24256   0.149   1.822  17.454  0.1106 -0.4569 -0.2530
 4266SOL    HW124257   0.064   1.857  17.480  1.4103  2.5345  0.0012
 4266SOL    HW224258   0.167   1.887  17.386  2.0931 -0.2340  0.4964
 4267SOL     OW24259   2.468   1.147   4.782 -0.4660 -0.5474 -0.2064
 4267SOL    HW124260   2.495   1.152   4.690 -2.5301  0.4625 -0.7783
 4267SOL    HW224261   2.396   1.084   4.787 -0.7019 -0.3003 -0.4443
 4268SOL     OW24262   0.064   4.017   7.727 -0.4749 -0.1228 -0.2156
 4268SOL    HW124263   0.101   3.955   7.664  2.1957  0.2057  1.0261
 4268SOL    HW224264   0.140   4.070   7.753 -0.4195  0.3953 -1.4068
 4269SOL     OW24265   3.075   0.404   4.436  0.5920  0.0357  0.0370
 4269SOL    HW124266   3.142   0.358   4.386 -0.5961 -2.2609  0.5669
 4269SOL    HW224267   3.047   0.343   4.505  0.6200  1.2401  1.1112
 4270SOL     OW24268   1.401   2.827  17.256 -0.3587  0.0598  0.4440
 4270SOL    HW124269   1.437   2.841  17.168 -3.1592 -0.3714 -0.7534
 4270SOL    HW224270   1.383   2.733  17.247 -1.1388  0.3347 -0.8341
 4271SOL     OW24271   0.861   4.043   4.451  0.2179 -0.5832  0.3649
 4271SOL    HW124272   0.929   3.976   4.463  1.4935  0.6952  0.3298
 4271SOL    HW224273   0.830   4.041   4.542  1.5197  0.7970  0.8441
 4272SOL     OW24274   1.928   4.634   3.541 -0.5394  0.5184  0.0800
 4272SOL    HW124275   1.923   4.628   3.446  0.7916 -0.1354  0.0617
 4272SOL    HW224276   1.943   4.543   3.566 -0.3255  1.2285  2.5293
 4273SOL     OW24277   0.723   2.528   9.553 -0.7717  0.3323 -0.0430
 4273SOL    HW124278   0.794   2.495   9.608 -1.1623  0.8100  0.7582
 4273SOL    HW224279   0.751   2.615   9.523 -1.5873 -0.1101 -2.0736
 4274SOL     OW24280   0.756   2.088   2.696  0.4892 -0.7225 -0.2086
 4274SOL    HW124281   0.759   2.134   2.613 -0.9193  0.0573  0.1782
 4274SOL    HW224282   0.671   2.044   2.689  0.4845 -0.5393 -1.2595
 4275SOL     OW24283   4.033   0.935  11.457  0.2257  0.6537 -0.1151
 4275SOL    HW124284   4.032   0.923  11.362  1.9229  1.3909 -0.2283
 4275SOL    HW224285   4.056   0.846  11.483 -1.2819  0.1199 -0.6494
 4276SOL     OW24286   0.647   1.618   3.959  0.1017  0.1080  0.0603
 4276SOL    HW124287   0.611   1.706   3.975 -2.5034 -0.5404 -2.1111
 4276SOL    HW224288   0.576   1.568   3.999 -0.4276  0.4297 -0.4715
 4277SOL     OW24289   0.323   4.418   1.477 -0.0862  0.6206 -0.6207
 4277SOL    HW124290   0.293   4.508   1.469  1.5635  1.1083 -1.4791
 4277SOL    HW224291   0.238   4.376   1.486  0.3475 -0.6618 -2.4391
 4278SOL     OW24292   0.788   2.644   4.049  0.2776 -0.3149 -0.0880
 4278SOL    HW124293   0.789   2.552   4.078 -0.8340  0.0548  1.1440
 4278SOL    HW224294   0.723   2.683   4.108 -0.3104  1.1446 -1.7174
 4279SOL     OW24295   0.066   2.773   6.284 -1.0499  0.2977  0.4744
 4279SOL    HW124296   4.697   2.776   6.318 -1.4435  1.2619 -0.6267
 4279SOL    HW224297   0.117   2.798   6.361 -1.5817 -0.3043  1.0285
 4280SOL     OW24298   0.187   2.066   3.361  0.1767 -0.3547 -0.0406
 4280SOL    HW124299   0.251   2.001   3.331 -1.6225 -2.1967  0.1276
 4280SOL    HW224300   0.109   2.016   3.386  0.0770 -1.0093 -1.6906
 4281SOL     OW24301   2.332   4.070   8.901 -0.3526 -0.2061 -0.0810
 4281SOL    HW124302   2.393   4.044   8.970  1.4761 -2.1710 -2.4005
 4281SOL    HW224303   2.274   3.995   8.898 -0.5117 -0.1671  2.2796
 4282SOL     OW24304   1.630   1.246   5.839  0.0902  0.0942 -0.1150
 4282SOL    HW124305   1.695   1.196   5.790 -1.5712 -0.7003 -1.5032
 4282SOL    HW224306   1.604   1.310   5.773  0.0821 -1.5691 -1.7326
 4283SOL     OW24307   2.209   4.234   7.825  0.7198 -0.7671 -0.2208
 4283SOL    HW124308   2.278   4.178   7.789  0.2016 -0.8190 -1.1167
 4283SOL    HW224309   2.140   4.219   7.760  0.1323  0.8478  0.0160
 4284SOL     OW24310   4.026   2.285   9.298  0.8544 -0.3676  0.2402
 4284SOL    HW124311   4.110   2.239   9.292  1.8305  1.2793  1.2676
 4284SOL    HW224312   4.028   2.333   9.215  2.2821  0.8017  0.9474
 4285SOL     OW24313   4.246   0.139  13.212 -0.1774 -0.4059  0.7025
 4285SOL    HW124314   4.302   0.180  13.146 -0.5853 -0.2105  0.4786
 4285SOL    HW224315   4.193   0.091  13.149 -1.5830  1.6479  0.3150
 4286SOL     OW24316   0.938   3.445   8.438  0.0686  0.0714  0.5261
 4286SOL    HW124317   0.921   3.446   8.532 -1.4552  0.6588  0.2382
 4286SOL    HW224318   1.024   3.403   8.430 -0.3168 -0.5320 -0.4502
 4287SOL     OW24319   2.493   3.164  14.053  0.0419 -0.8656 -0.0170
 4287SOL    HW124320   2.408   3.133  14.024 -0.7494 -0.5572  2.0313
 4287SOL    HW224321   2.548   3.118  13.989  0.5989  0.6188 -0.6021
 4288SOL     OW24322   2.104   0.533  13.371  0.0931 -0.2610  0.5183
 4288SOL    HW124323   2.120   0.575  13.456  0.0672 -2.3598  1.5818
 4288SOL    HW224324   2.014   0.565  13.362 -0.0301 -0.6718  0.3168
 4289SOL     OW24325   0.590   1.466   5.934 -0.3280  0.2115 -0.0323
 4289SOL    HW124326   0.565   1.381   5.899 -0.2908  1.2262 -2.5537
 4289SOL    HW224327   0.618   1.443   6.023 -0.5281 -0.9764 -0.2788
 4290SOL     OW24328   1.518   3.540   5.679  0.3649  0.3662  0.5309
 4290SOL    HW124329   1.486   3.560   5.767  0.0445  0.9608  0.2786
 4290SOL    HW224330   1.475   3.614   5.636  2.3955  1.0702 -0.3016
 4291SOL     OW24331   0.795   1.101   0.043 -0.4891  0.2850  0.2462
 4291SOL    HW124332   0.836   1.127   0.126  0.0327  0.3363 -0.0276
 4291SOL    HW224333   0.752   1.184   0.028 -0.8062  0.0592 -0.0864
 4292SOL     OW24334   2.246   1.792   5.156 -0.0865  0.9918 -0.0421
 4292SOL    HW124335   2.223   1.763   5.245 -0.3688 -0.0196 -0.4446
 4292SOL    HW224336   2.168   1.840   5.129 -0.1554  0.1864 -1.2679
 4293SOL     OW24337   3.941   2.718  10.802 -0.3959  0.1986 -0.8727
 4293SOL    HW124338   3.851   2.751  10.806 -1.7247 -3.7745  1.5468
 4293SOL    HW224339   3.955   2.707  10.896  2.3657  2.9973 -0.9537
 4294SOL     OW24340   0.835   0.969  12.719 -0.2453 -0.5851  0.3502
 4294SOL    HW124341   0.820   0.930  12.633  0.2178 -0.4206  0.1944
 4294SOL    HW224342   0.926   0.942  12.733  0.2886  0.3727 -1.1766
 4295SOL     OW24343   1.448   4.099   9.106  0.9416  0.3040  0.0975
 4295SOL    HW124344   1.433   4.031   9.172 -0.7871 -0.0713 -0.6799
 4295SOL    HW224345   1.375   4.089   9.044 -0.1726 -0.7610  1.5837
 4296SOL     OW24346   1.809   1.865  13.024  0.1232  0.4116  0.4590
 4296SOL    HW124347   1.726   1.902  12.993 -1.1330 -2.7036  0.1191
 4296SOL    HW224348   1.845   1.949  13.052 -0.6933  1.0668 -0.4306
 4297SOL     OW24349   4.079   4.312   3.562  0.0030  0.0460  0.3439
 4297SOL    HW124350   4.018   4.249   3.523 -1.2844  1.7419 -0.3892
 4297SOL    HW224351   4.161   4.265   3.578 -0.8252 -1.2622  0.6763
 4298SOL     OW24352   2.026   1.130   1.989  0.2279  0.0859  0.7776
 4298SOL    HW124353   2.098   1.111   1.928 -0.2151  1.1495 -0.0924
 4298SOL    HW224354   1.971   1.052   1.992 -0.4626  0.5744  0.9206
 4299SOL     OW24355   2.205   4.419   3.311  0.9718  0.1452  0.1181
 4299SOL    HW124356   2.197   4.458   3.224 -1.2941 -1.9989 -0.6451
 4299SOL    HW224357   2.257   4.489   3.351  0.8906  0.4821 -0.3647
 4300SOL     OW24358   0.631   2.035   6.424  0.0780 -0.4669  0.4885
 4300SOL    HW124359   0.679   2.005   6.347  3.1456  0.5189  2.0515
 4300SOL    HW224360   0.624   1.954   6.475  1.0071 -1.6232 -1.2142
 4301SOL     OW24361   1.171   3.891   4.954 -0.0546  0.0606 -0.6407
 4301SOL    HW124362   1.253   3.915   4.912 -0.1584  1.4547 -0.0477
 4301SOL    HW224363   1.183   3.951   5.028 -0.7856 -0.3910 -0.1533
 4302SOL     OW24364   2.059   2.340  14.948 -0.0928 -0.0441  0.0178
 4302SOL    HW124365   2.033   2.290  15.026  0.6265  0.9195  0.8795
 4302SOL    HW224366   2.011   2.300  14.875  1.8689 -1.1739 -0.6531
 4303SOL     OW24367   2.082   0.371   6.687  0.5840 -0.1146 -0.1620
 4303SOL    HW124368   2.126   0.441   6.639  1.7846 -0.5196  0.3505
 4303SOL    HW224369   2.021   0.419   6.744 -0.9473 -1.1659 -0.8908
 4304SOL     OW24370   2.371   0.934   5.280  0.0761 -0.2124  0.3894
 4304SOL    HW124371   2.312   0.889   5.340 -0.1223 -0.6824 -0.1659
 4304SOL    HW224372   2.422   0.863   5.241 -0.6283 -1.3070  1.4854
 4305SOL     OW24373   3.108   2.238  12.678  0.1599  0.0904 -0.2924
 4305SOL    HW124374   3.053   2.183  12.622 -1.5485 -1.4168  2.8546
 4305SOL    HW224375   3.138   2.305  12.617 -1.2566  1.1822  0.2219
 4306SOL     OW24376   0.859   3.396   7.915 -0.0893 -0.0845  0.1202
 4306SOL    HW124377   0.824   3.481   7.942  1.6868  1.3497 -2.0371
 4306SOL    HW224378   0.940   3.402   7.965 -0.9097 -0.7569  1.5276
 4307SOL     OW24379   0.806   3.980  16.985  0.6446 -0.2621 -0.0643
 4307SOL    HW124380   0.776   4.054  16.932  0.9065 -0.2907 -0.2488
 4307SOL    HW224381   0.828   4.035  17.061  0.6296 -1.7982  1.0507
 4308SOL     OW24382   2.500   0.087   5.022 -0.0757  0.4301 -0.9151
 4308SOL    HW124383   2.522   4.718   5.048 -3.0818 -0.3614 -1.0009
 4308SOL    HW224384   2.405   0.088   5.038 -0.0578 -1.1390 -0.6446
 4309SOL     OW24385   0.616   0.207   3.279 -0.1087  0.1355 -0.0502
 4309SOL    HW124386   0.560   0.190   3.203 -0.8155 -0.9706  0.7069
 4309SOL    HW224387   0.542   0.257   3.315  0.1665  0.9037 -0.5495
 4310SOL     OW24388   1.385   1.220   4.204 -0.2461 -0.3144 -0.2028
 4310SOL    HW124389   1.369   1.282   4.133 -0.3559 -0.0398  0.0634
 4310SOL    HW224390   1.377   1.135   4.160  3.1385 -1.0031  0.5047
 4311SOL     OW24391   0.084   4.084   5.066 -0.4094 -0.1286 -0.4214
 4311SOL    HW124392   0.168   4.112   5.029  0.0651  1.3855  1.7907
 4311SOL    HW224393   0.065   3.999   5.028  0.4567 -0.3925 -0.2688
 4312SOL     OW24394   2.949   4.097   7.672  0.2565  0.3150 -0.0602
 4312SOL    HW124395   2.865   4.061   7.643 -0.4772  1.5349  0.5602
 4312SOL    HW224396   2.994   4.012   7.669  0.5755  0.4939 -0.4021
 4313SOL     OW24397   3.387   4.651   5.717  0.0654 -0.1846  0.2870
 4313SOL    HW124398   3.407   4.636   5.624 -1.7025  1.0893 -0.3105
 4313SOL    HW224399   3.471   4.687   5.743  0.5329 -2.7419  2.2956
 4314SOL     OW24400   0.884   1.661   8.896 -0.1068  0.6405 -0.2640
 4314SOL    HW124401   0.910   1.668   8.988  1.9207 -1.1168 -0.6848
 4314SOL    HW224402   0.968   1.628   8.863 -0.3196 -0.2452  0.0544
 4315SOL     OW24403   3.741   3.752   2.110  0.6697 -0.3122  0.0689
 4315SOL    HW124404   3.770   3.699   2.036  0.3713 -0.8630  0.3485
 4315SOL    HW224405   3.818   3.805   2.132  1.0439 -0.0669 -1.7790
 4316SOL     OW24406   2.515   1.104   9.043  0.1205  0.6079 -0.0647
 4316SOL    HW124407   2.447   1.072   8.983 -0.1853 -1.6349  1.4645
 4316SOL    HW224408   2.474   1.098   9.129 -0.9115 -1.5020 -0.6828
 4317SOL     OW24409   4.246   2.545   4.449  0.9666 -0.0553 -0.0369
 4317SOL    HW124410   4.214   2.492   4.522  2.0616  0.6412  0.9590
 4317SOL    HW224411   4.164   2.584   4.418  1.2675  1.7380  1.4175
 4318SOL     OW24412   4.305   1.603   2.839  0.0016  0.6134 -0.1031
 4318SOL    HW124413   4.307   1.577   2.747  1.4935  1.4550 -0.3035
 4318SOL    HW224414   4.389   1.565   2.866  0.2230  1.3021  0.1943
 4319SOL     OW24415   2.638   0.473  17.114  0.4378  0.2286 -0.0378
 4319SOL    HW124416   2.684   0.412  17.056  0.3743 -0.6258  0.8130
 4319SOL    HW224417   2.671   0.452  17.201  0.0243 -0.2946 -0.0121
 4320SOL     OW24418   1.009   4.272  12.819 -0.0952  0.2554  0.2497
 4320SOL    HW124419   1.073   4.298  12.885  0.3409  3.2924 -1.3609
 4320SOL    HW224420   1.049   4.306  12.739 -0.4182 -0.3085 -0.1485
 4321SOL     OW24421   3.919   2.241  11.710  0.2525  0.3971 -0.0233
 4321SOL    HW124422   3.896   2.301  11.781  0.4860 -1.7147  1.8345
 4321SOL    HW224423   3.850   2.175  11.712  0.0273  0.6983  2.3490
 4322SOL     OW24424   4.277   1.328   2.971  0.3123 -0.3540 -0.1980
 4322SOL    HW124425   4.324   1.330   2.888 -1.3106  1.7072 -1.0308
 4322SOL    HW224426   4.184   1.333   2.952  0.1527 -0.7249  0.4463
 4323SOL     OW24427   4.652   1.101   0.361 -0.4799 -0.7202 -0.8319
 4323SOL    HW124428   4.675   1.169   0.297 -0.8371 -0.1304 -0.3351
 4323SOL    HW224429   4.561   1.127   0.372 -0.5534 -1.8802  1.2959
 4324SOL     OW24430   3.306   1.385   6.941 -0.5381 -0.2184 -0.0972
 4324SOL    HW124431   3.220   1.356   6.972 -0.5771 -2.6159 -2.5167
 4324SOL    HW224432   3.298   1.477   6.967  0.0442 -0.7255  1.8949
 4325SOL     OW24433   0.139   2.857   7.837  0.0668  0.1542 -0.1225
 4325SOL    HW124434   0.136   2.918   7.764 -0.8553  0.1561 -0.0730
 4325SOL    HW224435   0.049   2.862   7.867  0.4877 -1.6960  1.5081
 4326SOL     OW24436   2.737   4.671   6.862  0.4704  0.1148 -0.1796
 4326SOL    HW124437   2.775   0.029   6.822  0.3978  0.7653  1.0260
 4326SOL    HW224438   2.644   4.689   6.844  0.4817  0.1241 -0.2289
 4327SOL     OW24439   2.851   4.684   3.124 -0.2418 -0.0395  0.3312
 4327SOL    HW124440   2.925   4.632   3.092  0.2163  1.7626 -1.5529
 4327SOL    HW224441   2.826   4.639   3.205 -1.4121 -1.0267 -0.5768
 4328SOL     OW24442   2.853   4.607   4.193 -0.1564 -0.0711 -1.3982
 4328SOL    HW124443   2.901   4.600   4.275 -0.1418  3.2537 -1.1065
 4328SOL    HW224444   2.927   4.594   4.133  1.5880 -0.9751  0.9839
 4329SOL     OW24445   0.646   2.438  16.779 -0.4088 -0.2096  0.3404
 4329SOL    HW124446   0.599   2.394  16.849 -1.4925  0.6377  0.1463
 4329SOL    HW224447   0.732   2.463  16.813  0.3252 -2.6451  0.2600
 4330SOL     OW24448   4.427   4.688   6.582 -0.3912  0.1631  0.0070
 4330SOL    HW124449   4.368   4.662   6.653 -0.5654  2.3485  0.6692
 4330SOL    HW224450   4.507   4.677   6.633 -1.3559 -0.0196  1.4847
 4331SOL     OW24451   4.475   0.658  12.039 -0.1727 -0.2204 -0.2531
 4331SOL    HW124452   4.481   0.745  12.078 -1.5555 -0.2649  0.0636
 4331SOL    HW224453   4.523   0.681  11.959 -1.2891  0.3899 -0.7514
 4332SOL     OW24454   1.497   4.541   4.491 -0.6812 -0.2156 -0.1675
 4332SOL    HW124455   1.414   4.563   4.533 -1.5392  0.0304 -1.9959
 4332SOL    HW224456   1.472   4.496   4.410 -3.0491  1.2632 -0.2597
 4333SOL     OW24457   3.966   3.517   8.425 -0.3112  0.3995  0.3372
 4333SOL    HW124458   3.939   3.534   8.335 -1.3077 -2.3963  0.1244
 4333SOL    HW224459   3.950   3.426   8.448  0.3147 -0.0959 -1.1738
 4334SOL     OW24460   3.459   0.774   4.966  0.2440  0.2189  0.0605
 4334SOL    HW124461   3.399   0.702   4.986 -1.7571  1.5182 -1.2348
 4334SOL    HW224462   3.431   0.841   5.028 -0.6446 -2.4358  2.5223
 4335SOL     OW24463   4.127   2.198   2.585 -0.0729 -0.3285 -0.5670
 4335SOL    HW124464   4.038   2.179   2.554 -0.8448  0.8564  0.9246
 4335SOL    HW224465   4.144   2.282   2.543  3.0084 -0.1553  1.0418
 4336SOL     OW24466   4.050   2.260   3.124 -0.1067 -0.6284 -0.0430
 4336SOL    HW124467   4.054   2.308   3.206  0.2280 -2.2713  0.9056
 4336SOL    HW224468   4.071   2.172   3.156 -2.5169 -2.0389 -2.2784
 4337SOL     OW24469   4.341   2.149   3.932 -0.2906 -0.0947 -0.2337
 4337SOL    HW124470   4.396   2.136   4.010 -0.6975 -3.0463 -0.4648
 4337SOL    HW224471   4.257   2.166   3.977  0.1837 -1.2031  1.0702
 4338SOL     OW24472   0.006   1.781   0.150 -0.5036  0.6588  0.3446
 4338SOL    HW124473   0.054   1.843   0.205 -0.1756  1.9982 -1.4736
 4338SOL    HW224474   0.078   1.761   0.090 -1.2942 -1.4309  0.0871
 4339SOL     OW24475   3.218   1.746   3.701 -0.3422 -0.1011 -0.0361
 4339SOL    HW124476   3.141   1.739   3.646 -0.6189  1.3562  0.1864
 4339SOL    HW224477   3.184   1.825   3.744  1.1845  1.2231 -1.2689
 4340SOL     OW24478   0.160   3.108   4.586  0.3314  0.0311 -0.3024
 4340SOL    HW124479   0.208   3.026   4.575  2.2923  1.1406  0.0829
 4340SOL    HW224480   0.177   3.144   4.499 -1.1266  1.1946 -0.1063
 4341SOL     OW24481   4.085   1.736   7.508 -0.2893 -0.2501 -0.2551
 4341SOL    HW124482   4.136   1.670   7.461  0.9949  1.1920 -0.9184
 4341SOL    HW224483   4.148   1.778   7.567 -0.5677 -0.9040  0.4963
 4342SOL     OW24484   0.980   0.208   4.503 -0.4435 -0.2103  0.2716
 4342SOL    HW124485   0.886   0.195   4.501 -0.2515 -1.7976  2.0425
 4342SOL    HW224486   1.003   0.173   4.417 -0.1709  1.5904 -0.4003
 4343SOL     OW24487   3.535   1.149   1.620  0.3814 -1.1559  0.0182
 4343SOL    HW124488   3.499   1.237   1.606  2.5682 -0.4404 -1.2599
 4343SOL    HW224489   3.535   1.113   1.531 -1.6293 -0.0178 -0.4433
 4344SOL     OW24490   1.183   0.331   5.496 -0.0226 -0.4054 -0.3689
 4344SOL    HW124491   1.154   0.418   5.524 -1.8373 -0.8404 -0.8955
 4344SOL    HW224492   1.182   0.280   5.577  0.0554 -0.5366 -0.4499
 4345SOL     OW24493   1.855   2.573   1.657  0.0296  0.5696 -0.3642
 4345SOL    HW124494   1.869   2.501   1.595  1.5114  1.5233 -1.1225
 4345SOL    HW224495   1.833   2.637   1.589 -0.3847  1.3280  0.4851
 4346SOL     OW24496   2.382   2.234   3.956 -0.3878 -0.5082  0.0675
 4346SOL    HW124497   2.371   2.174   4.030 -1.1718 -1.4072 -0.7726
 4346SOL    HW224498   2.294   2.238   3.918 -1.0758 -0.1642  1.7304
 4347SOL     OW24499   0.286   4.444   2.876  0.2850 -0.3149 -0.5231
 4347SOL    HW124500   0.342   4.369   2.894  0.8447  0.6283  1.7463
 4347SOL    HW224501   0.302   4.504   2.949 -0.8478  0.6802 -1.0800
 4348SOL     OW24502   3.068   3.610   4.289 -0.1406 -0.7100 -0.3116
 4348SOL    HW124503   3.030   3.554   4.221 -0.6310 -0.4256 -0.2741
 4348SOL    HW224504   3.099   3.542   4.349  1.0086  0.3937  0.3612
 4349SOL     OW24505   2.271   1.411   4.727  0.2013 -0.4478 -0.2793
 4349SOL    HW124506   2.202   1.345   4.733 -1.2404  1.1508  0.6376
 4349SOL    HW224507   2.235   1.471   4.793 -1.0196 -1.3248 -0.1596
 4350SOL     OW24508   1.644   2.784   8.037  0.5183  0.0657 -0.4878
 4350SOL    HW124509   1.640   2.700   7.991  0.9771 -0.5120  0.5383
 4350SOL    HW224510   1.692   2.755   8.115  0.7838  1.1450 -0.2565
 4351SOL     OW24511   1.211   3.803   5.230 -0.0970 -0.1053 -0.1728
 4351SOL    HW124512   1.259   3.760   5.159  0.5016 -1.1531  0.8548
 4351SOL    HW224513   1.228   3.895   5.214  1.1879 -0.0203  1.5895
 4352SOL     OW24514   0.954   4.021   6.223 -0.5702  0.3903  0.4323
 4352SOL    HW124515   0.877   4.066   6.189  0.1527  0.5399 -0.9811
 4352SOL    HW224516   0.922   4.005   6.312 -0.4145 -2.6791 -0.0509
 4353SOL     OW24517   2.373   0.766  11.967 -0.1322  0.3330  1.5453
 4353SOL    HW124518   2.340   0.801  12.050  1.0488 -0.9006  2.5407
 4353SOL    HW224519   2.453   0.818  11.957  1.0612 -1.8322  0.0278
 4354SOL     OW24520   4.526   0.923   3.434 -0.5900  0.1899 -0.5671
 4354SOL    HW124521   4.479   0.943   3.515 -1.2629 -1.1359 -0.6475
 4354SOL    HW224522   4.552   0.834   3.456 -1.7972  0.3268  1.4137
 4355SOL     OW24523   4.047   3.844   7.595  0.3203 -0.5221  0.5617
 4355SOL    HW124524   3.967   3.884   7.560 -1.3059 -2.4141  2.0883
 4355SOL    HW224525   4.022   3.799   7.676 -2.2301 -3.1264 -1.7133
 4356SOL     OW24526   1.291   4.342  16.755  0.1229 -0.5167 -0.2314
 4356SOL    HW124527   1.248   4.270  16.801  1.9445 -1.6971 -0.3814
 4356SOL    HW224528   1.335   4.299  16.682 -0.8078 -0.6206 -0.7352
 4357SOL     OW24529   0.406   0.347   0.038  0.1316 -0.2022 -0.3018
 4357SOL    HW124530   0.474   0.318  17.662 -0.5203 -2.7043  0.1595
 4357SOL    HW224531   0.412   0.443   0.038 -3.0735 -0.0100 -1.4708
 4358SOL     OW24532   1.555   2.977   5.447  0.2199 -0.2993  0.2374
 4358SOL    HW124533   1.464   2.973   5.417 -0.3859 -1.3101  2.2219
 4358SOL    HW224534   1.561   2.933   5.532  0.7142 -0.7275 -0.0180
 4359SOL     OW24535   4.359   2.137   3.484  0.3007  0.2992 -0.5734
 4359SOL    HW124536   4.313   2.064   3.526  1.5648  0.2280  0.6820
 4359SOL    HW224537   4.358   2.116   3.391 -0.9405  2.1229 -0.9961
 4360SOL     OW24538   0.527   3.959   3.226 -0.1938 -0.6486  0.1951
 4360SOL    HW124539   0.593   4.021   3.195  0.5399 -1.1104  0.8360
 4360SOL    HW224540   0.460   3.977   3.160 -1.3317 -0.6500  1.3731
 4361SOL     OW24541   2.914   1.857   4.213 -0.1900 -0.4981 -0.0863
 4361SOL    HW124542   3.005   1.884   4.223 -0.8717  2.7279 -2.6035
 4361SOL    HW224543   2.925   1.781   4.155  0.8400  0.2725 -0.8970
 4362SOL     OW24544   1.437   1.596  16.520 -0.2905 -0.0339 -0.3541
 4362SOL    HW124545   1.491   1.527  16.559  0.2872  0.8807  0.4476
 4362SOL    HW224546   1.469   1.677  16.558  0.8048 -0.0731 -1.1965
 4363SOL     OW24547   1.030   1.949   9.800  0.6994 -0.1431 -0.0065
 4363SOL    HW124548   1.033   1.985   9.888  0.1600 -2.3286  0.8912
 4363SOL    HW224549   1.087   1.872   9.803  0.3066 -0.4045  0.6482
 4364SOL     OW24550   1.775   0.147   4.277 -0.3519 -0.0035  0.5912
 4364SOL    HW124551   1.698   0.167   4.224  1.2250  0.2997 -1.5759
 4364SOL    HW224552   1.779   0.216   4.343  0.0832  0.9317 -0.4099
 4365SOL     OW24553   4.362   1.648   8.915  0.4956  0.3249  0.0843
 4365SOL    HW124554   4.415   1.710   8.967 -0.1700 -0.1264  1.2916
 4365SOL    HW224555   4.297   1.711   8.884 -0.1848  0.0903  1.0405
 4366SOL     OW24556   2.537   1.985   3.292  0.0904  0.8646 -0.4246
 4366SOL    HW124557   2.567   1.929   3.221 -0.5953  0.2377 -0.2204
 4366SOL    HW224558   2.594   2.062   3.289 -0.2498  1.1208 -0.3068
 4367SOL     OW24559   2.607   2.986   1.248  0.3390 -0.1329  0.6020
 4367SOL    HW124560   2.534   3.008   1.306  0.1149  0.5206  0.0784
 4367SOL    HW224561   2.562   2.965   1.167  2.2846  0.0969 -0.5419
 4368SOL     OW24562   4.215   0.145   8.485  1.0121 -0.0854  0.0994
 4368SOL    HW124563   4.168   0.195   8.552  1.6129  0.8803 -0.1954
 4368SOL    HW224564   4.182   0.058   8.505  0.5181 -0.1245 -0.8707
 4369SOL     OW24565   0.419   3.134   7.735  0.7830 -0.0623 -0.3890
 4369SOL    HW124566   0.464   3.129   7.820 -0.7720 -1.1932  0.3626
 4369SOL    HW224567   0.374   3.216   7.753  0.4748  0.1303 -2.0742
 4370SOL     OW24568   2.401   3.584   6.185 -0.1311 -0.4361 -0.0063
 4370SOL    HW124569   2.317   3.542   6.205 -0.4136 -0.0064 -0.2998
 4370SOL    HW224570   2.363   3.669   6.160 -0.7544 -0.9782 -0.9031
 4371SOL     OW24571   3.684   2.056   2.148 -0.5313  0.4354  0.0742
 4371SOL    HW124572   3.606   2.007   2.121  0.0088 -1.0538  1.2718
 4371SOL    HW224573   3.736   2.051   2.068 -0.4248 -1.7833  0.2822
 4372SOL     OW24574   3.922   3.182  11.878  0.2023 -0.7358 -0.3571
 4372SOL    HW124575   3.889   3.256  11.929  1.1063 -0.4214 -0.2319
 4372SOL    HW224576   3.889   3.217  11.795  1.6080 -0.7604 -0.9344
 4373SOL     OW24577   0.176   1.782   8.089  0.1094 -0.5482  0.6516
 4373SOL    HW124578   0.130   1.796   8.006 -0.1622  0.4712  0.9741
 4373SOL    HW224579   0.193   1.873   8.114  1.2845 -0.8545  0.9661
 4374SOL     OW24580   2.026   2.570   2.478  0.7456 -0.0724 -0.2477
 4374SOL    HW124581   1.980   2.507   2.422 -0.5677  0.2882  0.4148
 4374SOL    HW224582   2.101   2.522   2.512 -1.0100 -2.5506  0.1885
 4375SOL     OW24583   2.293   1.295   4.481  0.0309  0.0913  0.1827
 4375SOL    HW124584   2.319   1.315   4.571 -0.4254  1.3597  0.0383
 4375SOL    HW224585   2.210   1.250   4.494  1.3069 -2.4967 -0.7172
 4376SOL     OW24586   2.931   1.821  12.709  0.1196  0.1966  0.5642
 4376SOL    HW124587   2.956   1.888  12.774  0.5165 -0.8802  1.5139
 4376SOL    HW224588   2.871   1.861  12.647  2.4429  1.4893 -0.8674
 4377SOL     OW24589   1.404   2.906   1.276  0.1979  0.2794  0.4953
 4377SOL    HW124590   1.400   2.937   1.185 -0.1709 -2.4365 -0.4094
 4377SOL    HW224591   1.336   2.840   1.283  0.7516 -0.4432 -0.8759
 4378SOL     OW24592   0.493   0.367   6.552  0.2252 -0.4450 -0.1526
 4378SOL    HW124593   0.528   0.394   6.467 -1.2700 -1.1605 -1.0105
 4378SOL    HW224594   0.494   0.451   6.597  0.1655  0.1178 -1.2030
 4379SOL     OW24595   0.797   0.866   9.486 -0.3963  0.1189  0.0153
 4379SOL    HW124596   0.857   0.927   9.444 -0.8908  0.7903  0.2867
 4379SOL    HW224597   0.808   0.783   9.439 -1.2757  0.3785 -0.6551
 4380SOL     OW24598   3.448   0.526   2.769  0.0039  0.7309  0.7134
 4380SOL    HW124599   3.538   0.531   2.800  0.5040 -0.4436 -0.5134
 4380SOL    HW224600   3.424   0.441   2.807  2.6322 -0.6991 -0.7733
 4381SOL     OW24601   4.020   3.350  14.973 -0.4758  0.3545  0.1250
 4381SOL    HW124602   3.975   3.273  15.008 -0.4619  0.9107  1.3594
 4381SOL    HW224603   3.960   3.388  14.910  0.5391 -1.3105 -1.8452
 4382SOL     OW24604   3.674   1.402   2.101  0.2397 -0.0165  0.2485
 4382SOL    HW124605   3.768   1.384   2.113  0.8952  2.9618 -0.5317
 4382SOL    HW224606   3.647   1.315   2.070  1.5441  0.2071 -1.5252
 4383SOL     OW24607   1.256   2.349  15.764 -0.5796 -0.2484  0.0920
 4383SOL    HW124608   1.187   2.293  15.727  0.7956 -1.0958 -1.1952
 4383SOL    HW224609   1.292   2.401  15.692  0.0645 -0.2910  0.3871
 4384SOL     OW24610   2.730   2.040  17.187 -0.3976  0.2948 -0.6712
 4384SOL    HW124611   2.700   1.950  17.172 -3.3338  1.1106  0.1754
 4384SOL    HW224612   2.825   2.031  17.178 -0.4047 -0.6041  0.0711
 4385SOL     OW24613   2.767   3.242   5.571 -0.1552  0.0247  0.5216
 4385SOL    HW124614   2.766   3.164   5.516 -0.7241 -0.6734  1.5252
 4385SOL    HW224615   2.807   3.306   5.512  1.7302 -2.1127 -0.4968
 4386SOL     OW24616   3.088   4.262  15.884  0.2967  0.3418 -0.2920
 4386SOL    HW124617   3.067   4.270  15.978 -0.2788 -0.0369 -0.3905
 4386SOL    HW224618   2.999   4.244  15.854  0.2042 -1.5112  1.0713
 4387SOL     OW24619   2.752   3.888   2.740  0.2308 -0.2284 -0.2486
 4387SOL    HW124620   2.798   3.958   2.693  1.0926 -1.2278 -0.8898
 4387SOL    HW224621   2.711   3.917   2.821 -0.8779  2.8550 -1.9200
 4388SOL     OW24622   4.556   1.171   7.728 -0.0259 -0.2299  0.0735
 4388SOL    HW124623   4.564   1.176   7.633 -0.0203  2.0334  0.2067
 4388SOL    HW224624   4.487   1.105   7.734  0.3786 -0.7097 -0.5399
 4389SOL     OW24625   2.160   0.357   4.241 -0.9527 -0.2295  0.5102
 4389SOL    HW124626   2.240   0.406   4.257  0.3001 -1.4617 -1.8923
 4389SOL    HW224627   2.099   0.421   4.205 -0.2062  0.0736 -0.2356
 4390SOL     OW24628   0.387   0.044   4.576  0.0376  0.4619 -0.2839
 4390SOL    HW124629   0.413   0.008   4.492  0.9326  0.5686 -0.0531
 4390SOL    HW224630   0.303   0.085   4.555 -0.0527  0.5256  0.2051
 4391SOL     OW24631   0.524   0.870   0.183 -0.3434 -0.0617 -0.0435
 4391SOL    HW124632   0.462   0.801   0.157  0.6367 -0.2108 -1.9607
 4391SOL    HW224633   0.604   0.824   0.160 -0.5264  0.6066 -2.0679
 4392SOL     OW24634   3.255   3.905   6.980 -0.3922 -0.6553 -0.2246
 4392SOL    HW124635   3.205   3.986   6.970  0.5277 -0.3585 -2.4593
 4392SOL    HW224636   3.276   3.909   7.073  0.3818  0.4413 -0.4417
 4393SOL     OW24637   1.799   2.061   5.713 -0.1635  0.3129  0.2954
 4393SOL    HW124638   1.890   2.081   5.732 -0.6001 -0.8543  3.6576
 4393SOL    HW224639   1.785   1.975   5.753 -2.0633  0.0628 -0.9119
 4394SOL     OW24640   2.498   3.325  11.242  0.1695 -0.3722 -0.6406
 4394SOL    HW124641   2.514   3.231  11.249  0.3282 -0.2713  0.3438
 4394SOL    HW224642   2.580   3.355  11.203  0.0650 -1.6563 -1.8484
 4395SOL     OW24643   4.580   3.957   1.651 -0.0736  0.1682 -0.0514
 4395SOL    HW124644   4.485   3.971   1.644 -0.4381 -1.5017  1.3867
 4395SOL    HW224645   4.602   4.030   1.708  2.6533  0.0048 -0.8953
 4396SOL     OW24646   2.371   3.922   6.593  0.3862  0.0923  0.3471
 4396SOL    HW124647   2.353   4.010   6.560  1.2262  0.5018  0.9671
 4396SOL    HW224648   2.330   3.869   6.525  3.4500 -0.2960 -1.1749
 4397SOL     OW24649   1.690   4.532   8.464 -0.2152  0.4951 -0.1459
 4397SOL    HW124650   1.620   4.563   8.521  0.2311  1.5633 -0.1868
 4397SOL    HW224651   1.757   4.599   8.478  0.2121 -0.0871  0.6244
 4398SOL     OW24652   2.485   0.194  10.808  0.3088  0.0451 -0.5733
 4398SOL    HW124653   2.507   0.105  10.832  0.3759  0.2428  0.0884
 4398SOL    HW224654   2.513   0.247  10.883  0.6064 -1.1225  0.1296
 4399SOL     OW24655   2.046   2.897   6.325 -0.5575  0.0691 -1.0316
 4399SOL    HW124656   2.040   2.921   6.232  0.8664  0.8762 -0.9224
 4399SOL    HW224657   1.955   2.892   6.354 -0.3253  2.4819  0.1574
 4400SOL     OW24658   1.304   3.539   3.366 -0.6576  0.7207  0.2679
 4400SOL    HW124659   1.233   3.482   3.338 -0.1136  0.1220  0.1032
 4400SOL    HW224660   1.367   3.472   3.393  1.0131  0.9196 -3.0837
 4401SOL     OW24661   4.293   2.298   7.878  0.6017  0.1605 -0.5834
 4401SOL    HW124662   4.215   2.350   7.898  0.8107  1.3493 -2.8798
 4401SOL    HW224663   4.318   2.281   7.969 -1.9933  0.9241  0.2829
 4402SOL     OW24664   1.642   3.403   8.744 -0.4806  0.4324  0.6618
 4402SOL    HW124665   1.735   3.381   8.739 -0.1396  2.0588 -0.2102
 4402SOL    HW224666   1.600   3.317   8.749 -0.6753  0.4562 -0.5520
 4403SOL     OW24667   1.825   1.210   6.955 -0.6971 -0.2764  0.2989
 4403SOL    HW124668   1.807   1.170   6.870 -1.0198 -1.8113  1.1071
 4403SOL    HW224669   1.755   1.275   6.961 -2.2995 -1.8923 -0.9212
 4404SOL     OW24670   4.642   0.646   2.065 -0.1338  0.1771 -0.8998
 4404SOL    HW124671   4.673   0.609   1.982  0.7734  1.3376 -1.0731
 4404SOL    HW224672   4.548   0.631   2.054 -0.7188  2.3254  1.1441
 4405SOL     OW24673   4.039   4.217   3.135  0.2105 -0.0465 -0.0272
 4405SOL    HW124674   4.130   4.199   3.108 -0.0561 -2.3456  0.5691
 4405SOL    HW224675   4.014   4.128   3.161  0.4195  0.6158  2.4481
 4406SOL     OW24676   3.422   1.603  17.290  0.2409 -0.0539 -0.0631
 4406SOL    HW124677   3.366   1.606  17.212  0.2149 -2.5423 -0.1254
 4406SOL    HW224678   3.500   1.651  17.263 -0.1714  0.0267 -1.0982
 4407SOL     OW24679   1.957   1.054   7.140 -0.2233  0.4180  0.4001
 4407SOL    HW124680   1.914   0.969   7.134 -2.0611  1.3590  0.2785
 4407SOL    HW224681   1.921   1.100   7.064 -1.1511 -1.1022 -0.0739
 4408SOL     OW24682   1.881   3.271  13.966  0.1068  0.1283  0.2310
 4408SOL    HW124683   1.845   3.251  14.052 -0.9227 -0.4243 -0.3320
 4408SOL    HW224684   1.955   3.210  13.966  0.3166  0.3770 -0.3545
 4409SOL     OW24685   0.279   2.134   3.008 -0.1333  0.2435 -0.1567
 4409SOL    HW124686   0.292   2.102   2.919 -0.4007  1.4732 -0.6276
 4409SOL    HW224687   0.369   2.160   3.026 -0.1516 -0.7445  1.3806
 4410SOL     OW24688   1.170   0.517   2.534 -0.4426  0.5215  0.3608
 4410SOL    HW124689   1.179   0.522   2.439 -0.7569  0.5650  0.3345
 4410SOL    HW224690   1.108   0.445   2.533 -0.8624  0.9933 -5.3126
 4411SOL     OW24691   3.094   0.229   0.003  0.0407  0.8861  0.0981
 4411SOL    HW124692   3.058   0.159  17.633  0.2903  0.3833  0.5769
 4411SOL    HW224693   3.014   0.274   0.031 -1.0352  0.8977 -2.9741
 4412SOL     OW24694   0.107   4.625   7.326  0.5168  0.3524 -0.6033
 4412SOL    HW124695   0.167   4.633   7.400  0.1544  1.3836 -0.4206
 4412SOL    HW224696   0.042   4.692   7.352 -1.0479 -0.7606 -1.6380
 4413SOL     OW24697   0.981   2.310   7.632 -0.8823 -0.3454 -0.2134
 4413SOL    HW124698   1.058   2.348   7.674 -2.1430  3.8681 -1.6786
 4413SOL    HW224699   0.926   2.388   7.630 -0.2598  0.0369 -2.3854
 4414SOL     OW24700   0.229   1.145   0.748  0.2178  0.0100 -0.1710
 4414SOL    HW124701   0.207   1.152   0.655  1.1009  0.5067 -0.3448
 4414SOL    HW224702   0.324   1.151   0.738  0.5053 -0.4868  2.4082
 4415SOL     OW24703   1.735   1.819  17.397 -1.0438 -0.2196  0.0188
 4415SOL    HW124704   1.795   1.852  17.330 -1.5370  0.3206 -0.1524
 4415SOL    HW224705   1.730   1.897  17.453 -0.7494 -0.1200 -0.0945
 4416SOL     OW24706   4.319   4.216   4.981 -0.1481  0.4241  0.8181
 4416SOL    HW124707   4.349   4.296   4.936  1.5631  0.0993  1.3905
 4416SOL    HW224708   4.240   4.204   4.927  2.0791 -0.9158 -2.1404
 4417SOL     OW24709   4.051   0.016  15.088  0.1554  0.0047 -0.3397
 4417SOL    HW124710   4.016   0.043  15.172 -1.0126 -1.4415 -0.3650
 4417SOL    HW224711   3.977   0.022  15.028 -1.4834 -3.5101  1.3113
 4418SOL     OW24712   4.495   2.182  11.366  0.4065  0.2575 -0.1360
 4418SOL    HW124713   4.501   2.158  11.459  5.4719  0.4086 -0.3849
 4418SOL    HW224714   4.400   2.171  11.362  0.2414  1.9801 -0.7564
 4419SOL     OW24715   4.123   0.899  11.199 -0.4398 -0.4386 -0.4034
 4419SOL    HW124716   4.052   0.885  11.136 -0.4815  1.1880 -0.7122
 4419SOL    HW224717   4.178   0.837  11.150  0.9271 -0.6398  1.3851
 4420SOL     OW24718   1.275   2.061   6.623  0.2233 -0.3071  0.0901
 4420SOL    HW124719   1.290   2.155   6.633  0.0889 -0.3289  0.4590
 4420SOL    HW224720   1.257   2.034   6.712  0.9564  0.5163  0.4900
 4421SOL     OW24721   1.487   3.058  15.081 -0.1539  0.1733 -0.1397
 4421SOL    HW124722   1.534   3.011  15.012 -0.6861 -0.6149  0.0314
 4421SOL    HW224723   1.471   3.145  15.045 -1.7029  0.2795  0.7872
 4422SOL     OW24724   0.146   3.703  15.157 -0.1492 -0.1209 -0.5388
 4422SOL    HW124725   0.139   3.705  15.061 -0.7448 -0.7550 -0.5073
 4422SOL    HW224726   0.055   3.718  15.182 -0.1466 -1.1782  0.0917
 4423SOL     OW24727   4.693   1.731   8.528 -0.1648 -0.2717  0.4091
 4423SOL    HW124728   0.027   1.730   8.606 -1.3689 -1.7544  1.2330
 4423SOL    HW224729   0.036   1.751   8.459  1.1346 -0.6650  1.4861
 4424SOL     OW24730   3.870   2.207  10.424 -0.3038  0.6586 -0.3965
 4424SOL    HW124731   3.874   2.258  10.343  2.7483  1.0613  0.0155
 4424SOL    HW224732   3.958   2.229  10.455 -0.6576 -1.5693  2.1801
 4425SOL     OW24733   1.919   3.812  12.850 -0.0916 -0.2886  0.0777
 4425SOL    HW124734   1.967   3.763  12.783 -1.5209  0.5009 -1.5168
 4425SOL    HW224735   1.890   3.743  12.910 -0.3168  0.1665  0.4847
 4426SOL     OW24736   0.402   2.364   3.257  0.0078  0.6254 -0.3904
 4426SOL    HW124737   0.460   2.321   3.194  0.9226  0.6802  0.4092
 4426SOL    HW224738   0.438   2.453   3.256 -0.9057  0.9862 -0.7140
 4427SOL     OW24739   4.133   3.531   4.349  0.8661  0.6518  0.0030
 4427SOL    HW124740   4.073   3.477   4.400  1.1444  1.5269  1.2708
 4427SOL    HW224741   4.132   3.478   4.270 -0.7383  0.3998  0.1906
 4428SOL     OW24742   2.939   0.595   2.283  0.0293  0.0829  0.1503
 4428SOL    HW124743   2.965   0.537   2.354  1.1628  0.6636  0.2135
 4428SOL    HW224744   3.020   0.646   2.276 -1.0258  1.7677  0.2102
 4429SOL     OW24745   1.773   0.998   1.627 -0.3481  0.0559 -0.0424
 4429SOL    HW124746   1.751   0.906   1.644  1.3977 -0.0841  1.4709
 4429SOL    HW224747   1.868   1.003   1.635 -0.4626  3.3865 -0.7728
 4430SOL     OW24748   4.352   3.352   7.962  0.6215 -0.0112  0.1001
 4430SOL    HW124749   4.384   3.424   8.016 -0.6298  0.9116 -0.3939
 4430SOL    HW224750   4.314   3.394   7.886  2.1372 -1.7405 -1.6082
 4431SOL     OW24751   1.510   1.216   8.901  0.2478 -0.4358  0.3099
 4431SOL    HW124752   1.470   1.253   8.823  0.6610 -0.1300  0.2436
 4431SOL    HW224753   1.458   1.258   8.970  0.0936  0.7520 -0.5360
 4432SOL     OW24754   2.547   3.105   7.496 -0.2286 -0.2272  0.0028
 4432SOL    HW124755   2.519   3.119   7.405 -0.9723 -1.4053  0.0453
 4432SOL    HW224756   2.518   3.016   7.517  2.3909 -0.8328  1.0310
 4433SOL     OW24757   4.645   2.450   7.100 -0.0263 -0.4137 -0.1493
 4433SOL    HW124758   0.004   2.496   7.130  2.8012 -3.4552 -2.9893
 4433SOL    HW224759   4.672   2.439   7.009 -1.2902 -0.1646 -0.5488
 4434SOL     OW24760   1.879   1.903   7.486  0.1675  0.2001  0.8634
 4434SOL    HW124761   1.839   1.955   7.556  0.2543 -1.3372  2.0666
 4434SOL    HW224762   1.909   1.824   7.532  1.6895  0.8526  1.0063
 4435SOL     OW24763   4.258   1.390  16.687 -0.6475 -0.0324 -0.0786
 4435SOL    HW124764   4.263   1.306  16.733 -0.3123 -0.8605 -1.6289
 4435SOL    HW224765   4.322   1.385  16.616  0.4087  0.3567  0.8471
 4436SOL     OW24766   4.139   0.910  15.091 -0.7128  0.6903 -0.2592
 4436SOL    HW124767   4.155   1.003  15.081  1.3027  0.4434  0.7005
 4436SOL    HW224768   4.133   0.907  15.186  2.5374  1.2206 -0.0135
 4437SOL     OW24769   1.457   0.870   5.009 -0.5098 -0.2853  0.1915
 4437SOL    HW124770   1.374   0.846   4.969 -0.2446  0.5869 -0.8839
 4437SOL    HW224771   1.459   0.965   4.993  0.5856 -0.1321  1.2343
 4438SOL     OW24772   3.489   0.509   9.438 -0.8999 -0.3765  0.0187
 4438SOL    HW124773   3.483   0.448   9.512  0.1821  2.1945  2.1949
 4438SOL    HW224774   3.399   0.530   9.412  0.6227  2.1550 -3.0662
 4439SOL     OW24775   3.294   2.365   7.369 -0.0318  0.0232 -0.7138
 4439SOL    HW124776   3.223   2.424   7.396  1.4966  0.8449  1.5484
 4439SOL    HW224777   3.364   2.401   7.423 -1.3890  1.0843  0.3540
 4440SOL     OW24778   4.670   3.877   2.624  0.0637  0.4025  0.1247
 4440SOL    HW124779   0.033   3.903   2.664 -0.0529  0.1304  0.5524
 4440SOL    HW224780   4.666   3.937   2.549  0.1243  2.7507  1.9698
 4441SOL     OW24781   4.317   1.441   1.867 -0.6430 -0.1778  0.4660
 4441SOL    HW124782   4.249   1.392   1.822 -0.8548  0.4468  0.1079
 4441SOL    HW224783   4.273   1.524   1.887 -1.2862 -0.5308  0.4931
 4442SOL     OW24784   1.176   3.365  11.317 -0.1246  0.1607 -0.5524
 4442SOL    HW124785   1.171   3.270  11.322 -0.5054  0.2590  0.9910
 4442SOL    HW224786   1.269   3.385  11.310 -0.1056  1.0310  1.9351
 4443SOL     OW24787   3.664   0.334   4.001  0.0810  0.0415  0.1207
 4443SOL    HW124788   3.722   0.326   4.077 -0.8819 -0.1164  0.8335
 4443SOL    HW224789   3.717   0.313   3.924 -0.4640 -1.0548  0.0443
 4444SOL     OW24790   3.043   1.814   7.208  0.6699  0.6043 -0.0528
 4444SOL    HW124791   3.135   1.801   7.232  0.6814  0.2774 -0.2824
 4444SOL    HW224792   3.032   1.909   7.221  0.6150  0.5669  0.1839
 4445SOL     OW24793   4.512   4.307   3.840  0.3000  0.3104 -0.6779
 4445SOL    HW124794   4.544   4.307   3.750  1.2659 -0.4423 -0.3324
 4445SOL    HW224795   4.597   4.316   3.883  0.2737 -2.1056 -0.1449
 4446SOL     OW24796   3.231   2.776   9.497 -0.9262  0.0876  0.8239
 4446SOL    HW124797   3.214   2.699   9.441  2.1785  0.5604 -0.7699
 4446SOL    HW224798   3.192   2.842   9.440  1.2165  0.0667 -0.6777
 4447SOL     OW24799   0.419   3.268  10.660  0.4503 -0.3321 -0.1150
 4447SOL    HW124800   0.457   3.349  10.626  0.0899 -0.2329 -0.2767
 4447SOL    HW224801   0.493   3.248  10.718  1.1168 -0.4125 -0.9945
 4448SOL     OW24802   2.881   2.019  10.590 -0.2743  0.1673  0.4541
 4448SOL    HW124803   2.824   1.960  10.639 -0.0997  0.0988  0.5712
 4448SOL    HW224804   2.947   1.955  10.565 -0.1414  0.4017  0.2030
 4449SOL     OW24805   2.585   4.553   4.196  1.0328 -0.4263  0.2157
 4449SOL    HW124806   2.680   4.563   4.193  1.2272 -2.3905 -0.0734
 4449SOL    HW224807   2.584   4.515   4.108 -0.1159 -2.0904  0.9509
 4450SOL     OW24808   3.698   3.923  15.270  0.1456  0.2801 -0.2357
 4450SOL    HW124809   3.644   3.854  15.232  0.2298 -0.3047  0.7219
 4450SOL    HW224810   3.679   3.917  15.363  0.1275  0.3771 -0.2328
 4451SOL     OW24811   3.554   0.832  16.174 -0.5859  0.4662 -0.5238
 4451SOL    HW124812   3.537   0.757  16.231  0.5168  1.3641  0.9747
 4451SOL    HW224813   3.612   0.890  16.223  0.8024 -0.7812 -0.6907
 4452SOL     OW24814   3.411   2.799   4.881 -0.2600  0.3628 -0.1453
 4452SOL    HW124815   3.461   2.864   4.831 -1.9422  0.9948 -0.9773
 4452SOL    HW224816   3.480   2.732   4.882 -1.0395 -0.4215  1.6214
 4453SOL     OW24817   0.456   1.257   5.721 -0.0704 -0.3811 -0.1346
 4453SOL    HW124818   0.513   1.202   5.667  2.3885  3.2582 -1.2081
 4453SOL    HW224819   0.463   1.339   5.671  2.8130 -1.0305 -0.8196
 4454SOL     OW24820   1.945   3.600   2.950 -0.0831  0.2114  0.4119
 4454SOL    HW124821   2.032   3.569   2.924 -1.2443 -0.7042 -2.3378
 4454SOL    HW224822   1.932   3.537   3.021 -2.0598  1.0530  0.7921
 4455SOL     OW24823   2.658   2.499   7.127  0.5813  0.0655  0.6683
 4455SOL    HW124824   2.751   2.513   7.111  0.1701  1.1333 -0.7854
 4455SOL    HW224825   2.647   2.434   7.058  0.4594  1.3009 -0.4725
 4456SOL     OW24826   3.367   0.454  16.557  0.2669  0.7072 -0.7075
 4456SOL    HW124827   3.283   0.476  16.516  0.0930  1.6983  0.1593
 4456SOL    HW224828   3.428   0.475  16.487  1.3556 -0.7615 -0.1895
 4457SOL     OW24829   3.508   2.774  10.253  0.5448 -0.5010 -0.2678
 4457SOL    HW124830   3.556   2.707  10.301 -1.9380 -2.2067 -0.1258
 4457SOL    HW224831   3.418   2.745  10.271 -0.8441  4.1286  0.4276
 4458SOL     OW24832   0.733   4.412   0.582 -0.2272 -0.4126  0.2487
 4458SOL    HW124833   0.739   4.389   0.674  0.7404 -2.5405 -0.3466
 4458SOL    HW224834   0.705   4.330   0.541  1.0587 -0.2088 -1.0325
 4459SOL     OW24835   3.486   1.847  10.496  0.2541  0.1094  0.3957
 4459SOL    HW124836   3.414   1.783  10.497  0.1153  0.2566 -0.1309
 4459SOL    HW224837   3.561   1.794  10.523 -1.4508 -2.1808  0.6674
 4460SOL     OW24838   0.074   4.401   0.299  0.2047  0.3844 -0.2439
 4460SOL    HW124839   0.033   4.317   0.280 -1.4424  1.0140  0.4192
 4460SOL    HW224840   0.009   4.455   0.253  0.5737  1.0812  0.0611
 4461SOL     OW24841   1.271   0.630   2.283 -0.9261  0.0559  0.5021
 4461SOL    HW124842   1.251   0.721   2.304  1.4094  0.7844 -0.5095
 4461SOL    HW224843   1.324   0.635   2.203 -1.6068  0.2558  0.0589
 4462SOL     OW24844   4.315   4.110   4.667  0.1749 -0.1614  0.4820
 4462SOL    HW124845   4.283   4.193   4.703  0.7154 -0.6796  2.1636
 4462SOL    HW224846   4.240   4.056   4.692  0.5463 -0.2944  1.3111
 4463SOL     OW24847   0.689   2.861  13.061  0.1245  0.2809  0.5319
 4463SOL    HW124848   0.711   2.948  13.093  0.5602 -0.4069  2.1261
 4463SOL    HW224849   0.747   2.813  13.120  2.1299  0.8744 -0.9782
 4464SOL     OW24850   3.176   3.828  17.380  0.9814  0.2580 -0.1158
 4464SOL    HW124851   3.259   3.869  17.404  0.7196  0.1041  1.0693
 4464SOL    HW224852   3.138   3.901  17.330 -1.0897 -1.6692 -1.3608
 4465SOL     OW24853   4.219   1.185  10.028  0.1519 -0.4793  0.6692
 4465SOL    HW124854   4.131   1.217  10.050 -0.0796 -1.8600  1.7767
 4465SOL    HW224855   4.215   1.171   9.933 -0.3242 -0.5036  0.6931
 4466SOL     OW24856   0.675   2.253   4.638 -0.3038  0.2176 -0.1931
 4466SOL    HW124857   0.702   2.226   4.550 -0.9392 -1.1595  0.0300
 4466SOL    HW224858   0.712   2.341   4.645 -2.2847  1.0387 -0.0817
 4467SOL     OW24859   3.873   3.754   8.135 -0.3245 -0.1980 -0.8958
 4467SOL    HW124860   3.930   3.733   8.209  0.2914  0.5692 -1.1436
 4467SOL    HW224861   3.783   3.760   8.167 -0.4275  0.3749 -1.2811
 4468SOL     OW24862   4.325   2.046   3.239 -0.1801 -0.0587 -0.0656
 4468SOL    HW124863   4.362   1.959   3.222 -1.8014 -0.5178 -1.1928
 4468SOL    HW224864   4.239   2.046   3.197 -0.0405 -2.8532 -0.3688
 4469SOL     OW24865   3.739   4.279   2.438 -0.4870 -0.7901 -0.2454
 4469SOL    HW124866   3.801   4.260   2.367  1.0356 -2.4655  1.5195
 4469SOL    HW224867   3.713   4.367   2.412  1.9679  0.3124  1.0512
 4470SOL     OW24868   1.021   2.190   6.105  0.3149  0.1811  0.0167
 4470SOL    HW124869   1.022   2.161   6.197  0.3050 -1.2158 -0.4245
 4470SOL    HW224870   1.050   2.280   6.116 -0.6713  0.2406  2.1308
 4471SOL     OW24871   0.177   3.490   8.058  0.3520 -0.2156  0.0316
 4471SOL    HW124872   0.115   3.442   8.114  0.1719 -0.2459 -0.1942
 4471SOL    HW224873   0.190   3.564   8.118  3.5458 -1.3320  0.7211
 4472SOL     OW24874   1.026   1.118   3.350  0.0302 -0.0499  0.0287
 4472SOL    HW124875   0.997   1.207   3.370 -0.5100 -0.0843 -0.6022
 4472SOL    HW224876   1.020   1.079   3.437  0.0573 -0.1431 -0.0114
 4473SOL     OW24877   0.039   0.052  15.785  0.2134 -0.2308 -0.1473
 4473SOL    HW124878   4.702   4.697  15.796 -0.4501  0.5461  1.6494
 4473SOL    HW224879   0.038   0.058  15.689 -1.0455  0.9457 -0.0606
 4474SOL     OW24880   1.564   3.136   4.232  0.5185 -0.0459 -0.1273
 4474SOL    HW124881   1.473   3.163   4.245  1.2951  2.0250  0.9667
 4474SOL    HW224882   1.564   3.120   4.138  1.1567  0.9170 -0.2881
 4475SOL     OW24883   0.209   3.929  10.380  0.3203 -0.0027  0.0795
 4475SOL    HW124884   0.290   3.931  10.430  0.8704 -0.0721 -0.8048
 4475SOL    HW224885   0.167   4.009  10.412  0.3342 -0.2691  0.7500
 4476SOL     OW24886   3.671   0.159  15.763  0.1099  0.0915 -0.3064
 4476SOL    HW124887   3.595   0.171  15.820  0.5510 -2.6225  0.8611
 4476SOL    HW224888   3.635   0.091  15.707  1.3653 -0.7508 -0.0989
 4477SOL     OW24889   0.809   3.322  16.962  0.2669  0.4760 -0.2151
 4477SOL    HW124890   0.791   3.413  16.935  1.9396  1.0663  0.6610
 4477SOL    HW224891   0.862   3.326  17.042  2.0763  1.5248 -1.4758
 4478SOL     OW24892   4.329   4.651   0.668 -0.3976  0.3423  0.3935
 4478SOL    HW124893   4.313   0.024   0.682  1.3275  0.6225  0.4307
 4478SOL    HW224894   4.258   4.605   0.712 -0.8736  1.1569  0.4725
 4479SOL     OW24895   0.644   3.692   4.876 -0.0729  0.6397 -0.4373
 4479SOL    HW124896   0.736   3.718   4.883 -0.4821  1.7748  0.7078
 4479SOL    HW224897   0.603   3.754   4.937  0.9727  1.2798 -0.3824
 4480SOL     OW24898   2.014   3.974   6.459 -0.0199  0.0443  0.8518
 4480SOL    HW124899   2.040   4.051   6.409 -0.1409 -0.6832 -0.3484
 4480SOL    HW224900   1.978   4.022   6.533 -3.3736  0.4809 -1.0819
 4481SOL     OW24901   2.108   2.029   4.171  0.5835  0.0522  0.2802
 4481SOL    HW124902   2.154   2.022   4.087 -1.1092  0.2476 -0.6783
 4481SOL    HW224903   2.029   1.977   4.159  0.0899  0.8430  0.0836
 4482SOL     OW24904   2.788   2.248   4.969 -0.3705  0.4715 -0.5281
 4482SOL    HW124905   2.713   2.271   4.915 -0.7622  0.0221 -0.1762
 4482SOL    HW224906   2.847   2.323   4.958 -1.0350  0.8653 -1.3083
 4483SOL     OW24907   3.577   4.538  16.768  0.4325  0.5393 -0.1853
 4483SOL    HW124908   3.585   4.504  16.679  1.2740 -0.1656  0.1617
 4483SOL    HW224909   3.485   4.563  16.771  0.7491  1.4290  2.0167
 4484SOL     OW24910   4.309   2.359   4.989  0.5028 -0.5334 -0.2425
 4484SOL    HW124911   4.378   2.419   5.019 -0.2393 -0.0782  0.5749
 4484SOL    HW224912   4.244   2.359   5.060 -0.4466 -0.0357 -1.1082
 4485SOL     OW24913   2.562   1.591   3.596 -0.3549  0.3316  0.3226
 4485SOL    HW124914   2.645   1.563   3.633 -2.0133 -0.1702  3.6241
 4485SOL    HW224915   2.531   1.659   3.656 -1.6819 -1.1817  1.3288
 4486SOL     OW24916   2.399   3.017   2.163  0.0603  0.1648  0.0652
 4486SOL    HW124917   2.405   2.945   2.225 -0.4210  0.3813  0.3616
 4486SOL    HW224918   2.308   3.040   2.181  0.0502  1.1041 -1.1307
 4487SOL     OW24919   3.175   2.621   1.422  0.1789 -0.0064 -0.3529
 4487SOL    HW124920   3.104   2.684   1.431  1.8393  1.5604  1.7492
 4487SOL    HW224921   3.131   2.563   1.360 -0.0782 -0.4567  0.2620
 4488SOL     OW24922   0.736   2.940   2.742  0.1167  0.3868 -0.3234
 4488SOL    HW124923   0.775   3.010   2.795  0.0771 -0.0418  0.2598
 4488SOL    HW224924   0.712   2.876   2.808 -0.2944  1.4566  0.5518
 4489SOL     OW24925   4.031   4.502   9.060  0.0170 -0.2058 -0.2423
 4489SOL    HW124926   3.955   4.537   9.107 -0.1473  0.0503 -0.7035
 4489SOL    HW224927   4.036   4.415   9.100  1.5951 -0.3109 -0.6738
 4490SOL     OW24928   3.539   3.434   6.196  0.0743 -0.2900 -0.5746
 4490SOL    HW124929   3.473   3.476   6.140  0.6730  1.5347  0.0896
 4490SOL    HW224930   3.547   3.352   6.148 -1.2711 -0.4950 -0.4450
 4491SOL     OW24931   1.573   1.411   3.637  0.0209  0.4176 -0.3690
 4491SOL    HW124932   1.577   1.504   3.657 -0.3956  0.2171  0.6206
 4491SOL    HW224933   1.648   1.407   3.577 -1.0337 -0.0413 -1.6717
 4492SOL     OW24934   2.807   1.896  14.951 -0.0072  0.1744 -0.2507
 4492SOL    HW124935   2.801   1.819  15.008 -0.3019 -0.6034 -1.3290
 4492SOL    HW224936   2.732   1.878  14.895 -0.1120  0.5343 -0.2275
 4493SOL     OW24937   1.377   2.906  11.769 -0.3511  0.3173 -0.2290
 4493SOL    HW124938   1.465   2.885  11.801 -0.0966 -0.5328 -1.4591
 4493SOL    HW224939   1.323   2.910  11.848 -1.1211  0.5314 -0.7589
 4494SOL     OW24940   3.570   3.498   6.487 -0.5965  0.2067 -0.6356
 4494SOL    HW124941   3.572   3.446   6.407 -3.2984 -0.1100 -0.5024
 4494SOL    HW224942   3.524   3.578   6.459 -1.1474  0.2753  0.4707
 4495SOL     OW24943   0.876   3.410   4.783  0.2647 -0.2342  0.6031
 4495SOL    HW124944   0.892   3.316   4.775 -1.9996 -0.5042 -0.6014
 4495SOL    HW224945   0.797   3.420   4.836  0.0353 -0.8145  0.3699
 4496SOL     OW24946   0.457   1.098  10.599 -0.5940 -0.1846 -0.1725
 4496SOL    HW124947   0.451   1.174  10.541  0.1228  0.0858  0.1067
 4496SOL    HW224948   0.428   1.126  10.686 -0.0247 -0.6937  0.1778
 4497SOL     OW24949   2.522   3.822   7.898  0.3806 -0.2047 -0.0075
 4497SOL    HW124950   2.526   3.870   7.980 -0.4681 -0.7403  0.3424
 4497SOL    HW224951   2.440   3.779   7.920 -0.3248 -0.0532 -2.3424
 4498SOL     OW24952   3.988   3.683  15.489 -0.5449  0.6746 -0.2121
 4498SOL    HW124953   3.921   3.673  15.421  0.8752  0.1007 -1.5164
 4498SOL    HW224954   4.063   3.703  15.434 -0.2490  0.5933  0.1669
 4499SOL     OW24955   2.458   1.081   2.729 -0.5710 -0.3836 -0.1152
 4499SOL    HW124956   2.481   0.995   2.695 -1.1636 -0.5746 -0.0418
 4499SOL    HW224957   2.368   1.090   2.697 -0.7143 -1.7068 -0.0765
 4500SOL     OW24958   1.508   3.805   2.865  0.5533 -0.4343 -0.0151
 4500SOL    HW124959   1.447   3.878   2.872  0.1978 -0.7615  0.3606
 4500SOL    HW224960   1.463   3.735   2.817  0.1700  0.8951 -1.5598
 4501SOL     OW24961   4.559   0.703   3.584 -0.3056 -0.5266  0.0085
 4501SOL    HW124962   4.523   0.633   3.528 -5.4254  0.4223  2.1309
 4501SOL    HW224963   4.562   0.655   3.666 -0.0749  1.6172  1.2434
 4502SOL     OW24964   1.853   1.243   2.724  0.4911 -0.0315  0.5807
 4502SOL    HW124965   1.929   1.225   2.669 -0.2424 -0.8567 -0.1720
 4502SOL    HW224966   1.835   1.334   2.703 -1.2670 -0.8548 -1.5692
 4503SOL     OW24967   0.472   1.712  16.604  0.2731  0.0627  0.2155
 4503SOL    HW124968   0.535   1.756  16.661  0.7456 -0.7092  0.2861
 4503SOL    HW224969   0.472   1.777  16.534  0.4261 -0.4066 -0.2267
 4504SOL     OW24970   0.446   1.473   2.148  0.0583  0.1655  0.5555
 4504SOL    HW124971   0.397   1.456   2.228 -0.8427 -2.0975 -0.4836
 4504SOL    HW224972   0.379   1.460   2.081 -0.3371 -3.8652  1.7712
 4505SOL     OW24973   1.637   3.623   6.751  0.4463  0.5467 -0.6484
 4505SOL    HW124974   1.720   3.671   6.757 -0.0381  1.4726 -1.3355
 4505SOL    HW224975   1.643   3.540   6.798  0.0755  1.0159  0.2475
 4506SOL     OW24976   0.535   0.358   1.652  0.1203 -0.4011  0.4255
 4506SOL    HW124977   0.625   0.367   1.682 -0.4883  1.2942  1.7612
 4506SOL    HW224978   0.491   0.435   1.688 -0.8991 -0.5208 -0.5896
 4507SOL     OW24979   3.518   1.678   9.552 -0.4241 -0.4257  0.7769
 4507SOL    HW124980   3.428   1.649   9.567 -0.7559  1.1902  1.9294
 4507SOL    HW224981   3.563   1.641   9.629  0.2038  0.1610  0.6851
 4508SOL     OW24982   4.453   2.773   9.083 -0.3395 -0.4015 -0.1616
 4508SOL    HW124983   4.490   2.748   8.998 -2.0422 -0.3711 -0.9184
 4508SOL    HW224984   4.528   2.763   9.141 -1.0009  3.0132  1.3280
 4509SOL     OW24985   0.259   1.430   4.722  0.1399  0.0422 -0.1232
 4509SOL    HW124986   0.200   1.490   4.676  0.2635  1.2179  1.2453
 4509SOL    HW224987   0.242   1.458   4.812 -1.0144 -1.6341  0.1881
 4510SOL     OW24988   2.459   0.676   6.324  0.0135 -0.1666 -0.1395
 4510SOL    HW124989   2.554   0.677   6.336  0.1141  0.3754 -0.9659
 4510SOL    HW224990   2.465   0.706   6.233  0.4574 -0.6453 -0.2657
 4511SOL     OW24991   0.418   2.870  14.258  0.4235  0.1181 -0.3334
 4511SOL    HW124992   0.466   2.813  14.198 -2.2899  0.3027 -2.6591
 4511SOL    HW224993   0.373   2.927  14.196  1.4438 -0.8400 -1.9617
 4512SOL     OW24994   3.166   1.097  10.014 -0.1777  0.0567  0.0438
 4512SOL    HW124995   3.204   1.013   9.986  4.0866  1.9451  0.0744
 4512SOL    HW224996   3.095   1.065  10.070 -1.5600 -0.4856 -2.0394
 4513SOL     OW24997   1.444   4.003   4.096 -0.7752 -0.1860  0.1014
 4513SOL    HW124998   1.515   3.942   4.116  3.2297  2.8171 -5.0715
 4513SOL    HW224999   1.381   3.994   4.168  0.8993 -1.7569  1.3599
 4514SOL     OW25000   3.619   1.390  11.299  0.3533 -0.0873 -0.5483
 4514SOL    HW125001   3.656   1.307  11.330 -0.2195 -0.6499 -1.3384
 4514SOL    HW225002   3.681   1.411  11.229  0.4672 -1.6545 -0.9219
 4515SOL     OW25003   0.407   4.373   2.165  0.7099  0.0095  0.0403
 4515SOL    HW125004   0.501   4.375   2.179  0.6449  3.5127 -0.0420
 4515SOL    HW225005   0.393   4.348   2.074 -1.2129  1.2275 -0.0097
 4516SOL     OW25006   1.316   0.678   1.811 -0.0691  0.4208  0.0229
 4516SOL    HW125007   1.237   0.624   1.819 -1.1503  1.9257 -0.4039
 4516SOL    HW225008   1.345   0.657   1.722 -1.2505  0.0299 -0.2699
 4517SOL     OW25009   3.086   4.205   2.969 -1.0086 -0.4401  0.5784
 4517SOL    HW125010   2.996   4.211   2.938 -0.0429 -0.6974 -2.3009
 4517SOL    HW225011   3.117   4.294   2.949  2.6140 -1.4005  1.8690
 4518SOL     OW25012   0.983   4.713   4.024 -0.7335  0.0335 -0.3200
 4518SOL    HW125013   0.964   4.624   3.998 -0.4026  0.1883 -1.0709
 4518SOL    HW225014   1.064   0.016   3.979 -0.4488 -1.2981 -0.4768
 4519SOL     OW25015   2.989   1.119   4.178  0.3410  0.3141  0.1149
 4519SOL    HW125016   2.987   1.031   4.140 -0.3267  0.6323 -0.5704
 4519SOL    HW225017   2.896   1.121   4.201  0.6187 -1.0826  1.3718
 4520SOL     OW25018   4.114   2.225   3.719 -0.1024 -0.0067  0.2141
 4520SOL    HW125019   4.206   2.223   3.747 -0.0730 -1.7094 -0.0275
 4520SOL    HW225020   4.082   2.281   3.790  0.4279  0.1386  0.3403
 4521SOL     OW25021   1.830   1.825   6.905  1.0143 -0.2380  0.0639
 4521SOL    HW125022   1.754   1.774   6.932  0.6498  1.2607  1.8357
 4521SOL    HW225023   1.905   1.769   6.922  1.0354 -0.8470 -2.0376
 4522SOL     OW25024   1.870   2.320   8.253 -0.0538 -0.2847  0.7695
 4522SOL    HW125025   1.838   2.251   8.195  1.8293  0.1912 -0.8145
 4522SOL    HW225026   1.851   2.391   8.193 -1.2202 -1.1649  0.0888
 4523SOL     OW25027   3.967   3.904  13.203  0.1106 -0.2316 -0.4218
 4523SOL    HW125028   4.001   3.866  13.122 -3.1181 -2.5098 -0.7167
 4523SOL    HW225029   3.996   3.850  13.276 -0.3201  1.9207  1.3448
 4524SOL     OW25030   2.580   4.284   4.508  0.1769 -0.3595 -0.3197
 4524SOL    HW125031   2.529   4.357   4.473  1.6911  0.5409 -0.6588
 4524SOL    HW225032   2.564   4.219   4.439 -1.4204  1.9586 -2.1383
 4525SOL     OW25033   4.371   1.366  11.408 -0.5260 -0.1435 -0.0997
 4525SOL    HW125034   4.412   1.403  11.486 -1.3036  0.4660  0.0170
 4525SOL    HW225035   4.430   1.397  11.339 -0.8707 -2.3623 -1.3971
 4526SOL     OW25036   0.806   4.138   5.517 -0.0990  0.1560  0.1028
 4526SOL    HW125037   0.757   4.185   5.585 -0.1693  1.3526 -0.7698
 4526SOL    HW225038   0.745   4.071   5.488  1.3705 -0.9374 -0.4440
 4527SOL     OW25039   3.254   0.217  16.696 -0.0169 -0.7030  0.0038
 4527SOL    HW125040   3.296   0.154  16.754  0.6748  1.4881  1.8978
 4527SOL    HW225041   3.167   0.179  16.707 -1.3747  2.2582 -0.3777
 4528SOL     OW25042   1.916   2.776   0.741  0.1881 -0.3098  0.0775
 4528SOL    HW125043   1.847   2.788   0.676 -0.6403 -1.0477  0.8234
 4528SOL    HW225044   1.973   2.852   0.730  1.1735 -1.0473  0.0436
 4529SOL     OW25045   0.059   2.724   9.711  0.7720  0.2456 -0.1391
 4529SOL    HW125046   0.056   2.635   9.746 -0.1225  1.0533  1.8360
 4529SOL    HW225047   0.099   2.770   9.785  1.3256 -3.5242  1.9362
 4530SOL     OW25048   0.748   2.395  14.025 -0.0534 -0.4934 -0.0632
 4530SOL    HW125049   0.707   2.313  14.052  0.5519 -0.7055  0.2265
 4530SOL    HW225050   0.804   2.418  14.100 -1.2746  0.9753  0.3835
 4531SOL     OW25051   3.675   2.074   3.169 -0.1955  0.3742 -0.0383
 4531SOL    HW125052   3.643   2.107   3.085 -0.1167 -0.4780 -0.4057
 4531SOL    HW225053   3.732   2.143   3.202 -1.3394  0.6718  1.3632
 4532SOL     OW25054   2.033   3.824   7.137  0.4917 -0.0714  0.2676
 4532SOL    HW125055   2.090   3.765   7.187  0.6023  0.0141  0.2426
 4532SOL    HW225056   1.961   3.837   7.198 -0.5520  1.1056 -1.1919
 4533SOL     OW25057   2.664   3.809   5.471 -0.5225 -0.8774  0.0743
 4533SOL    HW125058   2.644   3.732   5.418  0.0172 -1.6506  1.0004
 4533SOL    HW225059   2.593   3.870   5.451 -1.1025 -1.5559  0.0684
 4534SOL     OW25060   3.556   3.302   2.182 -0.9866  0.3793 -0.0353
 4534SOL    HW125061   3.562   3.238   2.253  0.6623 -1.0108 -1.4305
 4534SOL    HW225062   3.515   3.248   2.114  0.0053  0.4698 -0.7004
 4535SOL     OW25063   4.210   2.979   0.315  0.2997  0.3242 -0.1312
 4535SOL    HW125064   4.209   3.068   0.280 -0.2428  0.5158  0.3693
 4535SOL    HW225065   4.171   2.988   0.402 -1.1303 -0.7241 -0.6723
 4536SOL     OW25066   1.500   3.516   9.911 -0.4226 -0.9961  0.2974
 4536SOL    HW125067   1.476   3.604   9.939 -0.7884 -1.8776  2.7257
 4536SOL    HW225068   1.439   3.466   9.965 -2.1690 -1.0410 -1.6809
 4537SOL     OW25069   2.438   4.118   5.225 -0.3732 -0.0645  0.1526
 4537SOL    HW125070   2.418   4.210   5.247  0.1494  0.4701 -1.6529
 4537SOL    HW225071   2.428   4.121   5.130 -1.4239  0.5211  0.2772
 4538SOL     OW25072   3.485   0.167   7.821  0.0191 -0.6032 -0.3537
 4538SOL    HW125073   3.394   0.167   7.790 -0.1215 -1.6508  0.0548
 4538SOL    HW225074   3.513   0.256   7.799 -0.1799 -0.5917 -0.5678
 4539SOL     OW25075   4.431   1.802   7.307 -0.0664  0.2832 -0.8133
 4539SOL    HW125076   4.516   1.838   7.282  0.3736 -0.3848 -0.2903
 4539SOL    HW225077   4.437   1.791   7.402 -2.3505  0.8203 -0.6228
 4540SOL     OW25078   4.605   1.635   4.993 -0.0631 -0.1841 -0.3794
 4540SOL    HW125079   4.526   1.686   4.973 -0.1386 -0.5656 -1.0672
 4540SOL    HW225080   4.605   1.557   4.938 -0.6559 -1.6528  1.7174
 4541SOL     OW25081   0.325   1.922   4.722 -0.0379 -0.2606 -0.7687
 4541SOL    HW125082   0.367   2.008   4.727 -2.7067  1.0199  0.1830
 4541SOL    HW225083   0.300   1.912   4.814  0.6618  0.7624 -0.4688
 4542SOL     OW25084   3.569   4.706   8.034 -0.4391 -0.5860 -0.2021
 4542SOL    HW125085   3.543   0.042   7.961 -0.6907  1.6938  1.6209
 4542SOL    HW225086   3.647   4.668   7.994 -0.3326 -1.6654  1.0536
 4543SOL     OW25087   3.119   0.404   8.600 -0.0794 -0.2756  0.2889
 4543SOL    HW125088   3.184   0.474   8.608 -0.0800 -0.0331 -1.8859
 4543SOL    HW225089   3.171   0.324   8.608  0.4566 -0.2706 -3.1281
 4544SOL     OW25090   3.453   4.608   5.467 -0.3257  0.2693 -0.4046
 4544SOL    HW125091   3.495   4.563   5.394 -0.6299  2.1285 -1.7290
 4544SOL    HW225092   3.508   4.686   5.475  2.0308 -1.1981 -2.1544
 4545SOL     OW25093   2.161   4.330   3.673  0.0855  0.5931  0.4465
 4545SOL    HW125094   2.121   4.261   3.726 -0.1509 -1.1638 -2.0137
 4545SOL    HW225095   2.131   4.305   3.585  0.9486 -0.1000  0.3537
 4546SOL     OW25096   2.049   1.560  11.178 -0.2134 -0.4627 -0.3591
 4546SOL    HW125097   2.042   1.656  11.181  0.9053 -0.3822 -0.2620
 4546SOL    HW225098   2.032   1.551  11.085 -2.2829  0.0965 -0.0307
 4547SOL     OW25099   1.653   3.486   4.325 -0.3401 -0.1793  0.0042
 4547SOL    HW125100   1.576   3.431   4.310 -0.9799  0.0890  2.3657
 4547SOL    HW225101   1.715   3.443   4.267 -0.6486 -0.3731 -0.1826
 4548SOL     OW25102   1.317   2.448   7.415 -0.0513  0.1548 -0.6357
 4548SOL    HW125103   1.413   2.446   7.412 -0.0137 -1.2514  1.1162
 4548SOL    HW225104   1.304   2.541   7.436 -0.3261  0.1373 -0.7362
 4549SOL     OW25105   4.531   2.707  14.689 -0.8257  0.0418 -0.3166
 4549SOL    HW125106   4.505   2.623  14.650  0.4837 -0.2863 -0.4874
 4549SOL    HW225107   4.563   2.754  14.612  0.8515 -1.0564 -0.2803
 4550SOL     OW25108   4.027   3.018   0.047 -0.3418  0.0546 -0.1860
 4550SOL    HW125109   4.032   3.064   0.131 -1.7794  0.4230 -0.2979
 4550SOL    HW225110   3.956   3.066   0.002 -2.3372 -2.4777  0.2544
 4551SOL     OW25111   2.004   0.727   8.399 -0.3569 -0.6029 -0.4511
 4551SOL    HW125112   1.913   0.755   8.413 -0.0639 -0.3933  1.0015
 4551SOL    HW225113   2.048   0.801   8.358 -0.8505 -0.6648 -1.0964
 4552SOL     OW25114   3.801   0.872  14.646 -0.1796  0.6212 -0.3601
 4552SOL    HW125115   3.784   0.911  14.561 -1.4805 -1.4740 -1.0555
 4552SOL    HW225116   3.847   0.791  14.624 -0.7530 -0.4793  2.4068
 4553SOL     OW25117   0.601   2.387   4.003  0.6841  0.3166 -0.5128
 4553SOL    HW125118   0.537   2.371   3.933 -0.2802 -2.7497  1.0808
 4553SOL    HW225119   0.564   2.392   4.091  2.1728  0.9983  0.0744
 4554SOL     OW25120   3.885   0.881   8.048  0.2885  0.1807 -0.1387
 4554SOL    HW125121   3.960   0.940   8.057  0.0315  0.5504 -0.4162
 4554SOL    HW225122   3.905   0.835   8.129  1.1194 -0.0602 -0.4851
 4555SOL     OW25123   2.588   2.388   2.367  0.3849 -0.2785 -0.0225
 4555SOL    HW125124   2.549   2.302   2.384  0.7219 -0.0682  1.7822
 4555SOL    HW225125   2.551   2.442   2.436  1.0710  0.8449 -0.5427
 4556SOL     OW25126   1.907   2.975   5.949 -0.2232 -0.0874  0.0616
 4556SOL    HW125127   1.870   2.915   5.885 -3.2184  1.9536 -0.0914
 4556SOL    HW225128   1.999   2.963   5.926 -0.2185  2.6470 -1.2687
 4557SOL     OW25129   3.429   0.492   4.957 -0.2452 -0.2565  0.4688
 4557SOL    HW125130   3.421   0.411   4.906 -1.1520 -0.0513  0.2815
 4557SOL    HW225131   3.493   0.527   4.895 -1.4968 -1.5255 -1.5631
 4558SOL     OW25132   2.343   2.854   0.371  0.1547  0.2882 -0.3402
 4558SOL    HW125133   2.311   2.820   0.288 -0.3376  0.7774 -0.3527
 4558SOL    HW225134   2.407   2.784   0.374 -1.4240 -1.2030 -1.5519
 4559SOL     OW25135   1.786   3.565  10.648  0.3533 -0.1081  0.3224
 4559SOL    HW125136   1.880   3.555  10.630  0.5372  2.4144 -0.1709
 4559SOL    HW225137   1.782   3.657  10.675 -1.3922 -0.6350  1.8751
 4560SOL     OW25138   3.449   0.947  10.254  0.8072 -0.2467  0.5501
 4560SOL    HW125139   3.449   0.989  10.340 -0.9204  1.0176 -0.0728
 4560SOL    HW225140   3.419   0.857  10.264  0.6763 -0.2076  0.4980
 4561SOL     OW25141   3.755   2.846   0.766 -0.6555 -0.5593 -0.0576
 4561SOL    HW125142   3.675   2.837   0.819  0.7734  2.0595  2.5308
 4561SOL    HW225143   3.800   2.918   0.809  1.0620 -2.1677  0.8307
 4562SOL     OW25144   4.083   0.614   4.395  0.3236  0.4411  0.1243
 4562SOL    HW125145   4.030   0.657   4.462 -0.3493  1.1322 -0.8631
 4562SOL    HW225146   4.022   0.587   4.327  1.0209  1.5649 -0.9458
 4563SOL     OW25147   0.515   2.457  10.925 -0.0350 -0.3136 -0.2028
 4563SOL    HW125148   0.596   2.500  10.897  0.2256  0.3004  1.4946
 4563SOL    HW225149   0.523   2.478  11.018  1.0966  1.0316 -0.6101
 4564SOL     OW25150   0.391   3.352   4.158 -0.4842  0.0398  0.2760
 4564SOL    HW125151   0.434   3.341   4.073 -1.4737 -2.0885  0.0284
 4564SOL    HW225152   0.433   3.427   4.200 -2.8662  2.2940 -1.3455
 4565SOL     OW25153   2.853   1.803   3.890 -0.5146 -0.5374  0.2081
 4565SOL    HW125154   2.941   1.779   3.919 -1.3789 -1.3503  2.1310
 4565SOL    HW225155   2.829   1.717   3.857  0.5743 -0.4250 -0.8790
 4566SOL     OW25156   3.955   2.981   5.852 -0.0083 -0.0112  0.3812
 4566SOL    HW125157   3.944   2.965   5.946  0.7835  1.2379  0.6833
 4566SOL    HW225158   3.931   2.891   5.829 -0.9451  0.4547 -0.4718
 4567SOL     OW25159   3.331   3.051   2.233  0.2399  0.3881  0.3793
 4567SOL    HW125160   3.398   3.069   2.168 -0.1535 -0.6698 -0.3109
 4567SOL    HW225161   3.360   2.967   2.271 -0.9188 -0.3452 -0.3532
 4568SOL     OW25162   4.170   1.639   6.562  0.4203  0.1046  0.9249
 4568SOL    HW125163   4.237   1.671   6.502  0.5620 -1.1428  0.4079
 4568SOL    HW225164   4.231   1.625   6.634  0.1865 -1.0341  0.8978
 4569SOL     OW25165   2.420   3.712   9.549  0.0234  0.4630 -0.4646
 4569SOL    HW125166   2.493   3.689   9.608 -0.0585  0.4724 -0.3602
 4569SOL    HW225167   2.339   3.680   9.588  0.5392  0.2522  0.4410
 4570SOL     OW25168   0.832   0.091   1.392 -0.1807 -0.1696 -0.1185
 4570SOL    HW125169   0.763   0.031   1.421 -0.3626  0.2544  0.3276
 4570SOL    HW225170   0.861   0.042   1.315  0.4435 -0.6890  0.4519
 4571SOL     OW25171   2.554   2.783  16.339  0.0338  0.3365 -0.5375
 4571SOL    HW125172   2.557   2.690  16.314 -1.3484 -0.1611  1.0999
 4571SOL    HW225173   2.642   2.781  16.376 -0.5883 -1.1736  0.9027
 4572SOL     OW25174   1.272   2.850   2.505 -0.2089 -0.1421 -0.0952
 4572SOL    HW125175   1.233   2.891   2.582 -0.9358 -1.4944  0.2640
 4572SOL    HW225176   1.310   2.929   2.467 -1.9301  0.1696 -1.1312
 4573SOL     OW25177   0.946   3.009   0.796  0.2797 -0.4342 -0.1738
 4573SOL    HW125178   0.879   2.955   0.755  2.0026 -3.7719  1.3982
 4573SOL    HW225179   0.894   3.084   0.827 -0.3926  0.2755 -3.0713
 4574SOL     OW25180   1.100   2.588   2.821  0.2685 -0.2484 -0.2008
 4574SOL    HW125181   1.038   2.657   2.797 -1.1608 -2.0967 -1.8356
 4574SOL    HW225182   1.165   2.587   2.751  1.2809 -0.2613  0.7364
 4575SOL     OW25183   0.971   0.243   1.562 -0.0578  0.1108 -0.3686
 4575SOL    HW125184   0.900   0.287   1.610  0.8596  1.3772 -0.1561
 4575SOL    HW225185   0.920   0.177   1.516 -1.7223  0.3075  1.2138
 4576SOL     OW25186   1.501   0.571   6.808 -0.0063 -0.3549 -0.4049
 4576SOL    HW125187   1.418   0.539   6.773 -1.0833  2.9502 -0.9383
 4576SOL    HW225188   1.561   0.504   6.777  3.5393  2.3125  0.7844
 4577SOL     OW25189   4.256   2.636  16.019 -0.3317  0.2320  0.2215
 4577SOL    HW125190   4.214   2.627  16.104  1.8312 -1.6708  1.0804
 4577SOL    HW225191   4.334   2.687  16.040  0.5026  0.2738 -2.9568
 4578SOL     OW25192   0.185   0.721   1.755  0.1348 -0.5459 -0.1432
 4578SOL    HW125193   0.144   0.679   1.831 -0.2831  0.0338 -0.0428
 4578SOL    HW225194   0.170   0.813   1.779 -0.9104 -0.9148  0.6211
 4579SOL     OW25195   2.965   2.813   2.084  0.0590  0.5072 -0.1004
 4579SOL    HW125196   2.964   2.761   2.004 -1.2450 -1.2731  1.0651
 4579SOL    HW225197   3.007   2.893   2.054 -2.0637  1.6037 -0.2061
 4580SOL     OW25198   4.676   3.049   5.234  0.9237 -0.8249  0.5006
 4580SOL    HW125199   0.037   3.087   5.268 -0.9191  3.5648  0.0294
 4580SOL    HW225200   4.698   3.042   5.141 -0.6716 -2.3275  0.2524
 4581SOL     OW25201   0.153   3.033   5.858  0.1382  0.0138 -0.2241
 4581SOL    HW125202   0.075   3.005   5.810 -0.1057 -0.2969  0.3547
 4581SOL    HW225203   0.111   3.095   5.919  3.1550  0.8405  0.9955
 4582SOL     OW25204   0.323   2.674   7.554 -0.3989  0.0526 -0.0106
 4582SOL    HW125205   0.269   2.753   7.547 -0.3771 -0.0454 -1.2782
 4582SOL    HW225206   0.409   2.715   7.565  0.5581 -2.4008  1.5452
 4583SOL     OW25207   4.714   4.068  10.544  0.0256  0.3603  0.1004
 4583SOL    HW125208   4.648   4.126  10.508  0.3509  0.0946 -0.9034
 4583SOL    HW225209   4.692   3.987  10.497  0.9817  0.5726 -0.7048
 4584SOL     OW25210   2.314   2.480  10.108  0.1270 -0.0214 -0.9449
 4584SOL    HW125211   2.318   2.423  10.185 -0.6093  1.8565  0.4999
 4584SOL    HW225212   2.338   2.565  10.146 -0.1584 -0.7554  0.8950
 4585SOL     OW25213   1.802   3.345  11.086 -0.1379 -0.4658 -0.0124
 4585SOL    HW125214   1.713   3.343  11.052 -1.1477  1.3742  2.4707
 4585SOL    HW225215   1.780   3.347  11.180  0.7114  0.7595  0.1532
 4586SOL     OW25216   0.922   0.446   5.238 -0.0528  0.7351 -0.3979
 4586SOL    HW125217   0.834   0.479   5.217 -1.2118 -1.0967  1.5853
 4586SOL    HW225218   0.931   0.500   5.316  2.0577 -0.8198  0.4219
 4587SOL     OW25219   1.674   3.711  15.127 -0.1669  0.0932  0.3451
 4587SOL    HW125220   1.727   3.668  15.059  1.5015  2.2019  0.3123
 4587SOL    HW225221   1.749   3.753  15.169 -0.0859 -0.2568  0.5467
 4588SOL     OW25222   3.494   1.536   5.366  0.6282  0.1938 -0.4013
 4588SOL    HW125223   3.554   1.556   5.295  2.7501 -0.1474  1.3115
 4588SOL    HW225224   3.432   1.608   5.358  0.3063 -0.1887 -1.2740
 4589SOL     OW25225   1.961   2.749   4.262  0.5147 -0.2699  0.8836
 4589SOL    HW125226   1.872   2.759   4.229  0.6797 -1.3074  0.1205
 4589SOL    HW225227   1.953   2.769   4.355  0.1253  1.5273  0.4589
 4590SOL     OW25228   0.230   3.098   2.607  1.0737 -0.0532  0.2731
 4590SOL    HW125229   0.181   3.180   2.608 -2.0706 -1.9789  0.9496
 4590SOL    HW225230   0.159   3.039   2.585  1.2107 -0.4536  0.9059
 4591SOL     OW25231   3.799   3.313   6.717  0.2908 -0.1053  0.3643
 4591SOL    HW125232   3.721   3.344   6.762  0.9634  0.3358  1.2185
 4591SOL    HW225233   3.770   3.337   6.629  0.5595  1.0479  0.5951
 4592SOL     OW25234   1.177   0.658   7.367  0.0368  0.2636  0.2970
 4592SOL    HW125235   1.133   0.605   7.300 -0.2224 -0.5817  1.1399
 4592SOL    HW225236   1.148   0.607   7.443  0.9856 -0.5554  0.1114
 4593SOL     OW25237   2.790   1.046   7.063  0.2790  0.7400  0.4391
 4593SOL    HW125238   2.753   0.959   7.078  0.8964  0.1067 -1.7171
 4593SOL    HW225239   2.747   1.077   6.984  1.7562 -0.6602 -0.9271
 4594SOL     OW25240   2.893   3.697   7.558  0.1166  0.3517  0.7645
 4594SOL    HW125241   2.924   3.694   7.468 -0.1273 -0.4608  0.7116
 4594SOL    HW225242   2.938   3.631   7.611 -1.1921  0.4283  2.0042
 4595SOL     OW25243   4.437   1.541  14.758  0.3828 -0.6670  0.2797
 4595SOL    HW125244   4.509   1.562  14.699  0.3891 -1.0007  0.1691
 4595SOL    HW225245   4.486   1.519  14.837 -0.5270 -0.2620  0.9600
 4596SOL     OW25246   4.368   2.758   2.256 -0.3211  0.3954 -0.6128
 4596SOL    HW125247   4.439   2.745   2.319 -0.5162 -2.1424 -0.9110
 4596SOL    HW225248   4.423   2.747   2.179  0.8122 -1.3600  0.4553
 4597SOL     OW25249   1.867   4.335   6.332 -0.1468  0.0369  0.3806
 4597SOL    HW125250   1.813   4.262   6.301  1.2160 -0.5249 -0.6674
 4597SOL    HW225251   1.949   4.289   6.348  1.1297  2.3969  0.6403
 4598SOL     OW25252   0.355   3.332   3.440  0.5445  0.4363  0.0236
 4598SOL    HW125253   0.318   3.333   3.352 -3.0402 -0.7922  1.5598
 4598SOL    HW225254   0.292   3.272   3.479  1.5038 -0.3667  0.3548
 4599SOL     OW25255   1.313   3.280   5.933  0.2510 -0.6967 -0.3024
 4599SOL    HW125256   1.347   3.365   5.959  1.1469 -0.8064 -1.0919
 4599SOL    HW225257   1.354   3.270   5.847 -0.6758  0.9574 -0.9333
 4600SOL     OW25258   0.438   2.302  16.172 -0.1852  0.0583 -0.2888
 4600SOL    HW125259   0.435   2.247  16.094 -0.6319  0.2560 -0.4097
 4600SOL    HW225260   0.344   2.314  16.187  0.0526  1.3225  0.2105
 4601SOL     OW25261   4.125   0.665  14.931  0.4102 -0.3031 -0.3779
 4601SOL    HW125262   4.141   0.697  14.842  2.0847  0.4013  0.1837
 4601SOL    HW225263   4.113   0.749  14.977  1.2717 -0.1696 -0.3989
 4602SOL     OW25264   2.574   4.102  16.355  0.2210 -0.6214  0.2779
 4602SOL    HW125265   2.592   4.046  16.279 -1.0640  0.2301 -0.6422
 4602SOL    HW225266   2.498   4.061  16.397  0.5566  1.7129  3.1655
 4603SOL     OW25267   0.431   2.166   7.029 -0.2248 -0.1977 -0.0333
 4603SOL    HW125268   0.387   2.226   7.090 -3.5321 -1.6517 -0.9818
 4603SOL    HW225269   0.454   2.098   7.092  1.4424  0.3357 -0.0635
 4604SOL     OW25270   2.854   0.990   6.030  0.1159  0.3523 -0.2131
 4604SOL    HW125271   2.892   1.078   6.031  0.0734  0.3559  1.2139
 4604SOL    HW225272   2.921   0.938   6.073  0.2911  0.5603 -0.2344
 4605SOL     OW25273   4.184   3.032   5.698 -0.0194  1.0502  0.9340
 4605SOL    HW125274   4.118   3.018   5.765  0.1762 -1.4079  0.6286
 4605SOL    HW225275   4.138   2.999   5.621  0.9125  1.7273  0.0822
 4606SOL     OW25276   2.131   2.946   1.293 -0.0624  0.1218 -0.1515
 4606SOL    HW125277   2.048   2.968   1.336 -0.0237 -0.8916  0.4553
 4606SOL    HW225278   2.117   2.977   1.204  0.2386 -0.4170 -0.3851
 4607SOL     OW25279   0.899   1.294   4.495 -0.7213 -0.5297 -0.0254
 4607SOL    HW125280   0.818   1.257   4.531 -1.2211 -1.1158 -1.7651
 4607SOL    HW225281   0.904   1.378   4.541  2.5235 -0.7472 -0.0092
 4608SOL     OW25282   0.881   4.018   9.952  0.0088  0.2702  0.0634
 4608SOL    HW125283   0.863   4.099   9.905 -0.1722 -0.8059 -1.7223
 4608SOL    HW225284   0.856   4.051  10.038 -0.8737  0.4099 -0.2440
 4609SOL     OW25285   4.191   2.867   4.212 -0.4621  0.3602  0.0698
 4609SOL    HW125286   4.166   2.938   4.153 -0.8469  0.0967 -0.0793
 4609SOL    HW225287   4.176   2.791   4.156  1.6474 -0.2452  0.3364
 4610SOL     OW25288   3.549   1.213  15.800 -0.3743 -0.0870  0.4032
 4610SOL    HW125289   3.626   1.188  15.850 -1.6194 -1.7665  1.4738
 4610SOL    HW225290   3.565   1.159  15.723 -0.9933  0.4913 -0.1384
 4611SOL     OW25291   3.613   1.105   5.833 -0.0603 -0.5579  0.3430
 4611SOL    HW125292   3.596   1.024   5.882 -0.5575  0.2354  1.4793
 4611SOL    HW225293   3.567   1.173   5.883  0.6534  0.0766  0.1360
 4612SOL     OW25294   2.399   0.007  16.428 -0.2341 -0.1125  0.4036
 4612SOL    HW125295   2.451   0.056  16.491 -1.3540 -0.1107  1.3396
 4612SOL    HW225296   2.314   0.050  16.417  0.3066  0.1718 -2.8599
 4613SOL     OW25297   1.100   2.686   0.415 -0.1275 -0.5683  0.0793
 4613SOL    HW125298   1.122   2.758   0.474 -0.0570  0.8149 -1.6297
 4613SOL    HW225299   1.118   2.613   0.474  1.7057 -1.7661 -1.9682
 4614SOL     OW25300   3.053   4.249  16.708  0.2377  0.4292 -0.4334
 4614SOL    HW125301   3.147   4.262  16.712  0.5680 -2.1838  0.3405
 4614SOL    HW225302   3.019   4.324  16.757  2.2902 -1.0211  3.1476
 4615SOL     OW25303   3.415   1.977  17.124 -0.5041  0.0646  0.4358
 4615SOL    HW125304   3.379   1.984  17.036  0.3316 -0.9119  0.0185
 4615SOL    HW225305   3.368   2.046  17.171 -0.0260  0.7538 -0.1026
 4616SOL     OW25306   0.060   3.755   9.567  0.1450 -0.3252  0.8452
 4616SOL    HW125307   0.082   3.791   9.653  0.7149 -0.0795  0.6027
 4616SOL    HW225308   0.048   3.833   9.512 -1.2095 -0.1081  1.4523
 4617SOL     OW25309   1.311   3.354   7.170  0.4422  0.1330  0.0897
 4617SOL    HW125310   1.232   3.394   7.206 -0.9861 -1.1777 -1.6200
 4617SOL    HW225311   1.353   3.329   7.252  1.2490 -1.3610 -0.7792
 4618SOL     OW25312   0.695   2.300   6.189  0.1758 -0.0658 -0.5427
 4618SOL    HW125313   0.754   2.375   6.200 -0.0782 -0.1933  1.7267
 4618SOL    HW225314   0.686   2.306   6.094 -1.9617 -1.0192 -0.3919
 4619SOL     OW25315   3.747   1.275   9.585  0.1646 -0.5123  0.2280
 4619SOL    HW125316   3.695   1.204   9.623 -1.8426  2.1635  2.5424
 4619SOL    HW225317   3.835   1.254   9.615  0.5489 -0.6657 -1.0065
 4620SOL     OW25318   3.648   3.575  13.128 -0.2929  0.1016 -0.5711
 4620SOL    HW125319   3.666   3.483  13.147  0.2234  0.0524 -1.3207
 4620SOL    HW225320   3.617   3.579  13.038  1.6078 -0.0284 -1.2248
 4621SOL     OW25321   1.414   0.790   7.717 -0.4738 -0.4905  0.3451
 4621SOL    HW125322   1.334   0.750   7.753 -0.7815  0.7574  1.0318
 4621SOL    HW225323   1.464   0.808   7.797  0.9192 -0.3609 -0.5705
 4622SOL     OW25324   0.071   3.307   2.603 -0.1184 -0.0525 -0.2789
 4622SOL    HW125325   0.031   3.276   2.522  0.1591 -0.2663 -0.3324
 4622SOL    HW225326   0.031   3.394   2.609 -1.0083 -0.4074 -1.0656
 4623SOL     OW25327   1.746   3.823   2.973  0.5722 -0.0430 -0.2785
 4623SOL    HW125328   1.788   3.738   2.961  0.5088 -0.2947  1.3856
 4623SOL    HW225329   1.652   3.806   2.962  0.9994 -1.3529 -1.8712
 4624SOL     OW25330   2.181   3.325   7.498  0.3720 -0.2011 -0.7903
 4624SOL    HW125331   2.157   3.249   7.551  1.3139  0.6170  0.8237
 4624SOL    HW225332   2.096   3.350   7.462  0.9707 -0.5212 -2.3998
 4625SOL     OW25333   0.848   1.235   2.496  0.2972 -0.3577 -0.1837
 4625SOL    HW125334   0.901   1.239   2.575  2.2796 -0.1771 -1.5065
 4625SOL    HW225335   0.795   1.156   2.508  0.6010 -0.3463  1.1542
 4626SOL     OW25336   4.503   2.467  16.187  0.0486  0.2670 -0.3429
 4626SOL    HW125337   4.507   2.468  16.092  0.0422  0.4027 -0.3417
 4626SOL    HW225338   4.425   2.518  16.208 -0.6111 -0.2078 -1.6478
 4627SOL     OW25339   0.943   0.454   0.008 -0.5891  0.3715  0.4186
 4627SOL    HW125340   0.931   0.498   0.092 -1.8469  1.8608 -0.5390
 4627SOL    HW225341   0.884   0.379   0.021 -0.3893 -0.1996 -2.0167
 4628SOL     OW25342   1.225   1.805  12.896 -0.0919 -0.2605 -0.4320
 4628SOL    HW125343   1.177   1.796  12.978  1.1046  0.9948  0.4292
 4628SOL    HW225344   1.159   1.800  12.827 -0.5222 -0.3430 -0.0083
 4629SOL     OW25345   0.293   1.977   5.005  0.7760  0.1505 -0.2012
 4629SOL    HW125346   0.285   2.071   5.022 -2.5287 -0.4971  1.8566
 4629SOL    HW225347   0.202   1.948   5.011  0.5809  0.7144 -0.4265
 4630SOL     OW25348   1.418   2.313  12.618 -0.1158  0.3471 -0.0484
 4630SOL    HW125349   1.370   2.327  12.700  1.2470 -2.0487  1.1524
 4630SOL    HW225350   1.445   2.404  12.611  0.8614  0.1287  0.9058
 4631SOL     OW25351   1.518   4.408   5.305  0.1264 -0.4036  0.2322
 4631SOL    HW125352   1.501   4.492   5.347  0.7199  0.6359 -1.5662
 4631SOL    HW225353   1.553   4.436   5.220 -0.4843  0.8239  0.3876
 4632SOL     OW25354   1.907   2.211   2.083 -0.1848  0.1175  0.4709
 4632SOL    HW125355   1.881   2.129   2.124 -0.5071  0.5836  1.2016
 4632SOL    HW225356   1.936   2.173   2.001  0.3597 -0.6766  1.0247
 4633SOL     OW25357   0.751   1.205  12.848  0.6800  0.1240  0.1880
 4633SOL    HW125358   0.757   1.258  12.768 -1.3795  1.3349  0.8077
 4633SOL    HW225359   0.777   1.115  12.829  1.9781  1.0138 -2.2439
 4634SOL     OW25360   0.895   0.800   4.416  0.1593 -0.0213  0.7806
 4634SOL    HW125361   0.971   0.781   4.471  1.0372  0.6141 -0.2145
 4634SOL    HW225362   0.821   0.761   4.463 -0.1152  0.5215  0.8016
 4635SOL     OW25363   3.290   2.038  12.211  0.3705 -0.4735 -0.5998
 4635SOL    HW125364   3.303   2.070  12.300 -1.1211  0.5020 -0.7327
 4635SOL    HW225365   3.339   1.957  12.215 -1.4945 -1.5363  0.6666
 4636SOL     OW25366   3.753   3.591  15.355 -0.1889 -0.0718  1.3078
 4636SOL    HW125367   3.679   3.572  15.297  1.0567  2.1952 -1.0193
 4636SOL    HW225368   3.713   3.582  15.441 -0.4028  2.2656  1.4503
 4637SOL     OW25369   0.567   4.277   3.821 -0.0173 -0.0342  0.6375
 4637SOL    HW125370   0.568   4.184   3.797 -2.6462 -0.3310  1.6520
 4637SOL    HW225371   0.622   4.316   3.753 -1.2748  0.3140 -0.1799
 4638SOL     OW25372   2.922   0.082   3.843 -0.3207 -0.6164 -0.4631
 4638SOL    HW125373   2.943   0.120   3.758 -0.5030  2.1662  0.7431
 4638SOL    HW225374   2.991   0.015   3.848  1.7302  1.6469  2.1785
 4639SOL     OW25375   4.625   2.635   8.512  0.3086 -0.0873  0.0998
 4639SOL    HW125376   4.674   2.684   8.578 -1.7869  0.0824  1.5348
 4639SOL    HW225377   4.558   2.700   8.489 -0.6261 -0.2711  2.2609
 4640SOL     OW25378   0.633   0.741  16.844  0.7016  0.0249  1.0697
 4640SOL    HW125379   0.541   0.755  16.863  0.5377 -0.4212  0.6111
 4640SOL    HW225380   0.678   0.760  16.926 -2.3764  3.1389  2.0044
 4641SOL     OW25381   0.735   1.256   3.179  0.5476 -0.2031  0.4620
 4641SOL    HW125382   0.692   1.309   3.112 -0.0928 -0.3058  0.7816
 4641SOL    HW225383   0.802   1.218   3.123 -0.0859 -2.2634  1.0661
 4642SOL     OW25384   0.524   3.863   8.949  0.2140  0.2744 -0.2461
 4642SOL    HW125385   0.555   3.774   8.932 -2.5775 -0.3273 -2.2624
 4642SOL    HW225386   0.586   3.878   9.020  0.2632  1.4288 -0.5240
 4643SOL     OW25387   1.694   3.714   3.615 -0.3239 -0.4024 -0.0166
 4643SOL    HW125388   1.618   3.698   3.559  1.4664 -2.3374 -1.9218
 4643SOL    HW225389   1.758   3.757   3.559 -0.4724  0.6534  0.6230
 4644SOL     OW25390   3.869   1.790   8.145 -0.3028 -0.0057 -0.0610
 4644SOL    HW125391   3.952   1.836   8.156 -0.2997  0.2865 -1.2081
 4644SOL    HW225392   3.818   1.862   8.106 -0.5910 -0.5456 -0.6780
 4645SOL     OW25393   3.466   2.015  17.517  0.4773  0.0449  0.0714
 4645SOL    HW125394   3.486   2.068  17.440  0.4608 -0.4491 -0.2720
 4645SOL    HW225395   3.405   1.957  17.472 -2.1789  2.2555  0.8556
 4646SOL     OW25396   1.440   4.225   5.048  0.5006 -0.0782 -0.2582
 4646SOL    HW125397   1.466   4.187   4.964  2.8044  0.7089  0.0953
 4646SOL    HW225398   1.408   4.311   5.020 -1.1546 -0.8291 -0.6620
 4647SOL     OW25399   3.681   0.984  13.940 -0.1906  0.0176 -0.3220
 4647SOL    HW125400   3.613   0.973  14.007  0.2508  0.2012  0.1565
 4647SOL    HW225401   3.643   0.936  13.866 -0.3820 -0.2890 -0.0289
 4648SOL     OW25402   0.404   4.639   6.373  0.5003 -0.3575 -0.1571
 4648SOL    HW125403   0.384   4.580   6.300  0.8239 -0.0224 -0.5139
 4648SOL    HW225404   0.404   0.002   6.327  1.1689  0.4472  1.3070
 4649SOL     OW25405   4.695   3.098   8.875 -0.2019 -0.2092  0.3011
 4649SOL    HW125406   0.002   3.034   8.940 -0.7053  1.3090  2.0084
 4649SOL    HW225407   0.056   3.121   8.831 -0.0697 -1.6724 -0.2069
 4650SOL     OW25408   2.372   2.362  14.447 -0.4908  0.4329 -0.4192
 4650SOL    HW125409   2.339   2.273  14.434  0.9721  0.0374 -1.4396
 4650SOL    HW225410   2.382   2.369  14.542 -0.4274  0.8691 -0.4556
 4651SOL     OW25411   4.309   0.241   0.743 -0.7416  0.1173  0.0467
 4651SOL    HW125412   4.404   0.249   0.745 -0.8765  1.0947  1.8653
 4651SOL    HW225413   4.267   0.326   0.757 -0.8104  0.1206 -0.1772
 4652SOL     OW25414   2.025   3.921   4.150 -0.3063 -0.3629  0.2034
 4652SOL    HW125415   1.982   3.872   4.220 -0.1116  1.0634  1.3332
 4652SOL    HW225416   1.970   3.997   4.131 -1.0831 -0.4593  2.0772
 4653SOL     OW25417   2.954   3.361   3.212  0.5504  0.2220 -0.5858
 4653SOL    HW125418   2.992   3.447   3.227  2.3392 -0.0504 -3.5778
 4653SOL    HW225419   2.889   3.353   3.282  1.1374  0.8359  0.0277
 4654SOL     OW25420   1.405   2.038  11.422 -0.0211 -0.2282 -0.2037
 4654SOL    HW125421   1.454   2.113  11.457 -1.6542  1.1251 -0.8413
 4654SOL    HW225422   1.348   2.085  11.361 -0.3154 -0.1722  0.1191
 4655SOL     OW25423   0.883   0.310  11.383  0.0189 -0.6086  0.2138
 4655SOL    HW125424   0.879   0.227  11.431 -0.4755 -1.1230 -0.7223
 4655SOL    HW225425   0.788   0.322  11.380  0.1081 -0.3150 -1.3290
 4656SOL     OW25426   4.585   3.445   1.990  0.5224 -0.0490 -0.0983
 4656SOL    HW125427   4.528   3.453   1.914 -0.3624 -0.8897  0.4718
 4656SOL    HW225428   4.546   3.387   2.055  0.1163  0.5701  0.2049
 4657SOL     OW25429   2.223   1.989  14.003  0.3090 -0.5989 -0.2956
 4657SOL    HW125430   2.212   1.947  13.918 -0.1736  0.5674 -0.8101
 4657SOL    HW225431   2.254   2.078  13.989  1.4792 -1.1026 -0.8978
 4658SOL     OW25432   4.690   1.403  13.846  0.4702 -0.3570 -0.0831
 4658SOL    HW125433   4.634   1.328  13.864  0.4856 -0.8555 -2.2077
 4658SOL    HW225434   4.633   1.443  13.781  0.4373  0.3072  0.3472
 4659SOL     OW25435   2.729   0.960  13.178  0.2896  0.2997 -0.4808
 4659SOL    HW125436   2.787   0.909  13.122 -2.1237 -0.8106 -1.9676
 4659SOL    HW225437   2.700   1.030  13.120 -0.9847  0.5947  0.4911
 4660SOL     OW25438   1.768   1.577  10.351  0.1594  0.0716  0.1303
 4660SOL    HW125439   1.758   1.579  10.446 -1.4444  1.6800 -0.0661
 4660SOL    HW225440   1.816   1.660  10.346  0.0186  0.1650  0.3000
 4661SOL     OW25441   3.956   3.620   8.672 -0.2101  0.1322  0.2422
 4661SOL    HW125442   3.981   3.590   8.585  0.2124 -0.4569  0.5677
 4661SOL    HW225443   3.862   3.605   8.673 -0.0064 -1.2387 -1.7214
 4662SOL     OW25444   3.110   2.204  16.887 -0.1630 -0.0262  0.4891
 4662SOL    HW125445   3.180   2.266  16.906  1.8490 -1.4990 -2.0458
 4662SOL    HW225446   3.093   2.237  16.799  5.7976 -1.1041 -1.1302
 4663SOL     OW25447   0.254   0.746  10.304 -0.2001  0.1566 -0.4229
 4663SOL    HW125448   0.262   0.752  10.209  1.0118 -1.4544 -0.4242
 4663SOL    HW225449   0.159   0.741  10.306 -0.3223  2.3367 -1.5000
 4664SOL     OW25450   3.372   3.153  14.889 -0.1457 -0.1618 -0.6411
 4664SOL    HW125451   3.396   3.118  14.804  0.9906 -1.6220  0.2855
 4664SOL    HW225452   3.458   3.178  14.923  0.7428 -0.3750 -2.7773
 4665SOL     OW25453   0.238   3.538  17.577 -0.5250  0.1720 -0.0699
 4665SOL    HW125454   0.297   3.558  17.505 -1.4223 -0.7861 -1.0741
 4665SOL    HW225455   0.176   3.476  17.538 -0.5151 -0.9490  1.7062
 4666SOL     OW25456   4.447   3.745   5.221 -0.3909 -0.5213 -0.0449
 4666SOL    HW125457   4.353   3.725   5.220 -0.4981  0.1077 -1.4014
 4666SOL    HW225458   4.481   3.735   5.132  0.0097 -0.5076  0.1075
 4667SOL     OW25459   1.700   3.269   3.819 -0.1379  0.3286 -0.1520
 4667SOL    HW125460   1.743   3.269   3.733 -1.4509  0.3288 -0.8158
 4667SOL    HW225461   1.614   3.309   3.804  0.5603  1.2905 -1.6014
 4668SOL     OW25462   2.987   3.733  12.136  0.5436  0.6157  0.7104
 4668SOL    HW125463   2.935   3.711  12.214  2.9333  2.1021  2.7293
 4668SOL    HW225464   3.031   3.816  12.153  1.4804  0.2376  0.1253
 4669SOL     OW25465   2.281   3.485  11.475  0.0484 -0.1906  1.2887
 4669SOL    HW125466   2.270   3.396  11.506 -1.6921 -0.4029  0.0741
 4669SOL    HW225467   2.232   3.486  11.393  2.6799  0.4572 -0.2755
 4670SOL     OW25468   3.631   4.288   7.898 -0.0907 -0.1154 -0.4552
 4670SOL    HW125469   3.560   4.247   7.947  1.2669 -2.3154 -0.3460
 4670SOL    HW225470   3.594   4.278   7.810 -1.3083 -2.8126  0.3767
 4671SOL     OW25471   4.010   1.374   8.342  0.8793  0.2277 -0.6650
 4671SOL    HW125472   3.966   1.454   8.370  1.2507  0.5351 -0.9611
 4671SOL    HW225473   4.088   1.378   8.397  0.7070 -2.9144 -0.2144
 4672SOL     OW25474   3.926   3.866  15.721 -0.2918 -0.1616  0.3350
 4672SOL    HW125475   3.881   3.816  15.788 -0.5501 -0.7502 -0.2753
 4672SOL    HW225476   3.905   3.813  15.644  1.2848 -0.0536 -0.1748
 4673SOL     OW25477   1.909   3.028   1.439 -0.2363  0.4260  0.1996
 4673SOL    HW125478   1.827   3.072   1.460 -0.6782 -1.0208  1.5029
 4673SOL    HW225479   1.969   3.098   1.464  2.4721 -1.7082 -0.2840
 4674SOL     OW25480   3.027   2.073   7.164  0.0777 -0.3433 -0.1400
 4674SOL    HW125481   2.963   2.110   7.224 -1.4483 -4.5979  0.8765
 4674SOL    HW225482   3.075   2.153   7.146  0.5284 -0.5478  0.1360
 4675SOL     OW25483   3.327   1.086   6.833  0.1753  0.2438 -0.3179
 4675SOL    HW125484   3.251   1.141   6.816  0.0452  1.3053  3.8550
 4675SOL    HW225485   3.385   1.127   6.769  0.9143  1.6693  1.2903
 4676SOL     OW25486   1.154   1.255  17.198  0.4584  0.6764 -0.0486
 4676SOL    HW125487   1.115   1.223  17.117  2.2118 -0.9172 -0.2876
 4676SOL    HW225488   1.108   1.338  17.197  0.5244  0.7339  1.5534
 4677SOL     OW25489   4.593   4.391   6.400  0.3483 -0.2633 -0.0945
 4677SOL    HW125490   4.621   4.411   6.311  0.6414 -0.9338 -0.1549
 4677SOL    HW225491   4.663   4.339   6.440  1.0391  0.1722 -0.7588
 4678SOL     OW25492   3.590   3.714   2.324  0.3011  0.3875 -0.3782
 4678SOL    HW125493   3.622   3.743   2.239  0.6709 -1.0693 -0.7238
 4678SOL    HW225494   3.539   3.639   2.294 -0.4827  0.6761  0.2368
 4679SOL     OW25495   3.695   2.872   6.966  0.2441  0.5519  0.2757
 4679SOL    HW125496   3.750   2.943   6.933  1.5965 -0.8661 -0.5385
 4679SOL    HW225497   3.764   2.808   6.985  0.2272  0.2847 -0.5570
 4680SOL     OW25498   0.481   2.241   5.185 -0.0512  0.1828 -0.4652
 4680SOL    HW125499   0.575   2.223   5.194 -0.0921 -0.2250 -0.8678
 4680SOL    HW225500   0.462   2.267   5.275 -0.0068  1.8511 -0.9375
 4681SOL     OW25501   1.717   3.540   2.232 -0.1420  0.2374 -0.0751
 4681SOL    HW125502   1.729   3.451   2.198  0.2342  1.5134 -3.2608
 4681SOL    HW225503   1.772   3.584   2.168  0.7889  1.4796  1.5817
 4682SOL     OW25504   1.827   2.931   0.546  0.1946 -0.3904  0.1572
 4682SOL    HW125505   1.772   2.992   0.497 -0.6090 -1.7187 -0.5988
 4682SOL    HW225506   1.886   2.900   0.477 -0.4889  2.4533 -1.7182
 4683SOL     OW25507   2.004   4.574   6.785 -0.2381 -0.0397  0.3728
 4683SOL    HW125508   2.061   4.542   6.715  0.1906  1.1223  0.1893
 4683SOL    HW225509   1.950   4.635   6.735 -1.7964 -0.4028  1.6095
 4684SOL     OW25510   3.712   2.810  15.141  0.0924  0.3160  0.1743
 4684SOL    HW125511   3.751   2.731  15.179  1.6138  1.3891  0.8059
 4684SOL    HW225512   3.718   2.869  15.216 -0.1075 -0.3764  0.7344
 4685SOL     OW25513   1.514   1.442   1.962  0.2403  0.1524 -0.2503
 4685SOL    HW125514   1.585   1.422   1.901 -0.1642 -1.6180 -0.1410
 4685SOL    HW225515   1.438   1.416   1.910  0.8363  1.1901 -1.6234
 4686SOL     OW25516   3.319   0.921   4.303  0.1108  0.0148  0.1818
 4686SOL    HW125517   3.348   1.011   4.316  1.5006 -0.4602  0.3561
 4686SOL    HW225518   3.238   0.915   4.354  0.2065  1.6218  0.5189
 4687SOL     OW25519   2.294   1.639   8.526  0.4093  0.4040 -0.0909
 4687SOL    HW125520   2.312   1.605   8.613 -1.9187 -0.0396  0.2225
 4687SOL    HW225521   2.253   1.722   8.549  2.1625  0.5184  2.6072
 4688SOL     OW25522   2.125   1.905   2.536  0.1549  0.0308  0.3362
 4688SOL    HW125523   2.037   1.913   2.573 -1.1952  0.1903 -2.8423
 4688SOL    HW225524   2.153   1.825   2.580  2.2276 -0.4673 -1.9097
 4689SOL     OW25525   0.322   4.697  13.467 -0.2919  0.4766 -0.0012
 4689SOL    HW125526   0.356   0.031  13.396 -0.4577 -0.6467 -0.9493
 4689SOL    HW225527   0.257   4.649  13.416 -1.0115  0.5381  0.8669
 4690SOL     OW25528   4.233   4.200  16.066  0.0469  0.0006 -0.2516
 4690SOL    HW125529   4.238   4.286  16.024  1.2405  0.0118 -0.0684
 4690SOL    HW225530   4.224   4.219  16.159 -2.6544  0.0600 -0.5286
 4691SOL     OW25531   2.651   2.324  11.789 -0.3396  0.2351  0.2305
 4691SOL    HW125532   2.605   2.389  11.735 -2.2559 -1.6399 -0.3818
 4691SOL    HW225533   2.689   2.263  11.727  0.8640  1.0380  0.1760
 4692SOL     OW25534   2.463   1.783   0.983  0.3775  0.2228 -0.1956
 4692SOL    HW125535   2.376   1.778   1.022 -0.4054 -1.1204 -2.1055
 4692SOL    HW225536   2.439   1.823   0.899  0.4977  1.8408  0.5601
 4693SOL     OW25537   3.064   0.949   6.796  0.4626 -0.5453  0.3058
 4693SOL    HW125538   3.048   0.933   6.889  0.8571  0.9712  0.6466
 4693SOL    HW225539   3.074   1.045   6.793 -0.2050 -0.4913 -0.2585
 4694SOL     OW25540   4.030   3.299   1.025 -0.1634  0.1743  0.5390
 4694SOL    HW125541   4.103   3.361   1.017  1.5288 -1.7262  1.1925
 4694SOL    HW225542   4.021   3.280   1.118 -0.6790 -1.4815  0.1517
 4695SOL     OW25543   0.280   2.769  17.611  0.2406  0.3417 -0.1459
 4695SOL    HW125544   0.313   2.829  17.677  0.5552 -0.7757  0.7151
 4695SOL    HW225545   0.338   2.695  17.631 -0.6934  0.2253  2.1107
 4696SOL     OW25546   1.780   1.591   7.978 -0.2785  0.0014 -0.1974
 4696SOL    HW125547   1.796   1.533   8.052  0.4077  1.9955  1.2215
 4696SOL    HW225548   1.694   1.560   7.950 -0.9224  0.9859  0.6838
 4697SOL     OW25549   4.685   2.122   9.259  0.4148 -0.4936  0.0395
 4697SOL    HW125550   4.629   2.057   9.218  1.1215 -1.6228  0.8399
 4697SOL    HW225551   4.667   2.111   9.353 -1.8525 -0.6895 -0.4391
 4698SOL     OW25552   1.894   2.740  17.556 -0.1624  0.0542  0.0434
 4698SOL    HW125553   1.930   2.668  17.608  1.8372  1.0240 -0.0142
 4698SOL    HW225554   1.972   2.791  17.537 -0.4860  0.3931 -0.3782
 4699SOL     OW25555   3.004   4.528  16.886  0.2196 -0.0753  0.2213
 4699SOL    HW125556   2.984   4.513  16.978  0.9407  0.1136  0.4034
 4699SOL    HW225557   2.921   4.543  16.841 -0.2493  0.8040  1.3918
 4700SOL     OW25558   3.003   3.713   9.205  0.1274 -0.4403  0.5187
 4700SOL    HW125559   3.054   3.632   9.203 -2.6497 -2.2331  1.6584
 4700SOL    HW225560   2.916   3.680   9.180  0.0022  1.0776 -1.0824
 4701SOL     OW25561   2.305   1.313   6.456 -0.3868 -0.0253 -0.3526
 4701SOL    HW125562   2.268   1.251   6.393 -2.0483 -0.6719  1.2627
 4701SOL    HW225563   2.393   1.318   6.419 -0.8725  2.2539 -1.2336
 4702SOL     OW25564   4.620   2.856   7.972  0.3717 -0.1194 -0.0156
 4702SOL    HW125565   4.622   2.933   8.029 -2.4020  1.0488 -1.4788
 4702SOL    HW225566   4.677   2.797   8.021 -0.5405 -2.9256 -2.3046
 4703SOL     OW25567   0.567   3.994  15.788 -0.3250  0.0504  0.5378
 4703SOL    HW125568   0.519   4.052  15.729 -1.6556 -1.3906  0.1960
 4703SOL    HW225569   0.532   3.907  15.769  2.1596 -0.7985 -0.1442
 4704SOL     OW25570   2.158   3.426   2.963  0.0762 -0.2822 -0.0557
 4704SOL    HW125571   2.167   3.380   2.879  0.6992  0.6867 -0.5170
 4704SOL    HW225572   2.137   3.351   3.019 -0.6175 -0.3048 -0.3337
 4705SOL     OW25573   3.871   0.073   6.739  0.4039  0.2414 -0.2165
 4705SOL    HW125574   3.812   0.145   6.759 -2.5658 -1.6159 -2.2190
 4705SOL    HW225575   3.805   0.005   6.725 -0.1186  0.4350  1.2938
 4706SOL     OW25576   2.279   0.877   2.365 -0.3991 -0.1861  0.0147
 4706SOL    HW125577   2.319   0.807   2.314 -0.8062  0.1452 -0.7452
 4706SOL    HW225578   2.333   0.955   2.354  1.7342 -1.7006 -0.1077
 4707SOL     OW25579   1.517   0.108   6.168  0.1287 -0.0301 -0.2312
 4707SOL    HW125580   1.594   0.132   6.116 -0.0081 -0.3808 -0.5896
 4707SOL    HW225581   1.566   0.075   6.243 -0.4484 -1.1122 -0.3337
 4708SOL     OW25582   1.850   2.279  17.593  0.1000 -0.0824  0.0147
 4708SOL    HW125583   1.936   2.317  17.611 -1.1296  4.1678 -2.9622
 4708SOL    HW225584   1.825   2.329  17.514 -0.1409  0.8921  0.7060
 4709SOL     OW25585   1.601   4.325  13.983  0.3518 -0.2729 -0.4437
 4709SOL    HW125586   1.509   4.307  14.003 -0.2642  1.5617 -1.5922
 4709SOL    HW225587   1.642   4.241  14.001  1.4282  0.4475  0.4961
 4710SOL     OW25588   2.059   3.112   7.621 -0.3408  0.5903  0.8749
 4710SOL    HW125589   2.108   3.064   7.688 -0.9033  1.7729  2.1401
 4710SOL    HW225590   1.990   3.153   7.674 -0.9475  0.6114  0.0552
 4711SOL     OW25591   1.802   0.566   2.078  0.0965 -0.0185 -0.0237
 4711SOL    HW125592   1.864   0.585   2.148 -1.4787  1.9229  0.8741
 4711SOL    HW225593   1.779   0.659   2.067  0.5595  0.1400  0.3481
 4712SOL     OW25594   0.746   2.042  17.558 -0.2765 -0.1643 -0.7413
 4712SOL    HW125595   0.739   2.055  17.653  0.5213  0.5416 -0.7813
 4712SOL    HW225596   0.693   2.111  17.519  0.2246 -0.7191 -2.3761
 4713SOL     OW25597   4.677   1.989  16.003  0.6119  0.0420 -0.6820
 4713SOL    HW125598   0.051   1.981  16.012  0.4020 -1.6789 -0.0881
 4713SOL    HW225599   4.652   1.976  16.095  0.2337  0.8309 -0.6675
 4714SOL     OW25600   1.482   3.927   3.256  0.1548  0.2753  0.0291
 4714SOL    HW125601   1.542   4.000   3.270  1.3867 -0.9864  1.3972
 4714SOL    HW225602   1.449   3.964   3.174  0.3642 -0.3019 -0.3131
 4715SOL     OW25603   1.972   2.829  12.876  0.5967 -0.5756 -0.2375
 4715SOL    HW125604   1.986   2.752  12.822  0.0300 -1.5636  1.0194
 4715SOL    HW225605   1.901   2.800  12.933  1.9475  0.4356  1.9909
 4716SOL     OW25606   3.930   4.432   2.083  0.7439  0.6324 -0.2917
 4716SOL    HW125607   3.941   4.360   2.145  1.1011  1.2713  0.3766
 4716SOL    HW225608   4.022   4.437   2.056  1.0900  0.5848  0.8957
 4717SOL     OW25609   3.146   2.674  12.380  0.2990 -0.4123 -0.1264
 4717SOL    HW125610   3.129   2.668  12.286  2.8000 -0.0560 -0.6151
 4717SOL    HW225611   3.061   2.705  12.413  0.4268 -0.5006  0.2912
 4718SOL     OW25612   1.732   3.613   8.074  0.1141  0.4876  0.1667
 4718SOL    HW125613   1.645   3.573   8.080 -0.5480  2.3134  2.5872
 4718SOL    HW225614   1.768   3.586   7.989 -1.5725  1.2122 -0.7669
 4719SOL     OW25615   0.421   2.660  13.322  0.5664 -0.0724 -0.0616
 4719SOL    HW125616   0.402   2.569  13.344  1.0333  0.4901  2.7677
 4719SOL    HW225617   0.509   2.652  13.286  0.2992 -2.9721 -0.0433
 4720SOL     OW25618   1.482   4.539   8.636  0.1641  0.2428 -0.2392
 4720SOL    HW125619   1.411   4.590   8.676 -0.0439  1.0373 -1.6084
 4720SOL    HW225620   1.429   4.461   8.622 -0.4860  0.2370  2.3609
 4721SOL     OW25621   1.169   3.686   4.407  0.3408 -0.1011 -0.5851
 4721SOL    HW125622   1.262   3.665   4.415 -0.2450 -1.9185  1.3988
 4721SOL    HW225623   1.116   3.613   4.374 -1.7551  0.3922  1.7132
 4722SOL     OW25624   2.384   0.905   1.061 -0.2698 -0.2739  0.4100
 4722SOL    HW125625   2.361   0.819   1.098  2.9624 -1.2480  0.1760
 4722SOL    HW225626   2.468   0.887   1.017 -0.2837 -0.6454  0.5362
 4723SOL     OW25627   4.033   1.864  17.521 -0.2070  0.1984  0.1319
 4723SOL    HW125628   4.086   1.918  17.579 -0.9527  1.6920 -0.5764
 4723SOL    HW225629   3.958   1.924  17.515 -0.9815 -0.7109  0.8610
 4724SOL     OW25630   4.610   0.133  12.363  0.2179  0.1086  0.8339
 4724SOL    HW125631   4.664   0.148  12.285  0.8659 -0.8417  1.1105
 4724SOL    HW225632   4.634   0.046  12.392  1.8808  1.2479  2.8402
 4725SOL     OW25633   3.848   1.096  11.953  0.9848  0.3702 -0.1884
 4725SOL    HW125634   3.911   1.119  11.885 -0.4978  1.2775 -1.2810
 4725SOL    HW225635   3.786   1.169  11.950 -0.1682 -0.6023 -0.1950
 4726SOL     OW25636   3.433   0.120  17.517  0.3036 -0.3970  0.2330
 4726SOL    HW125637   3.517   0.076  17.504  0.0066 -1.2729  1.2738
 4726SOL    HW225638   3.370   0.049  17.501  1.0473 -1.2101  0.9187
 4727SOL     OW25639   2.465   3.807   1.678  0.2367 -0.0939  0.5977
 4727SOL    HW125640   2.470   3.879   1.615 -1.0326 -0.5216  0.0117
 4727SOL    HW225641   2.409   3.849   1.743  1.8522  3.9761 -0.6844
 4728SOL     OW25642   3.074   1.276   3.811  0.2544  0.3424 -0.3263
 4728SOL    HW125643   3.158   1.317   3.791 -0.9894  2.7243 -0.5902
 4728SOL    HW225644   3.084   1.273   3.906  2.3980  1.1914 -0.5336
 4729SOL     OW25645   4.648   2.235  10.912 -0.8180 -0.1715 -0.2524
 4729SOL    HW125646   4.709   2.167  10.887 -0.5702  0.0914 -0.3622
 4729SOL    HW225647   4.612   2.205  10.996  0.5170  0.6594  0.6219
 4730SOL     OW25648   0.323   3.680  14.874  0.7032  0.5964  0.2596
 4730SOL    HW125649   0.325   3.745  14.943  0.5525  1.1266 -0.2381
 4730SOL    HW225650   0.387   3.720  14.814 -0.5133  1.3565 -0.5265
 4731SOL     OW25651   1.870   2.580   3.695  0.4977  0.4696  0.4722
 4731SOL    HW125652   1.955   2.535   3.690 -0.2309 -0.5339 -2.6561
 4731SOL    HW225653   1.853   2.568   3.788 -1.6922 -1.3817 -0.1693
 4732SOL     OW25654   3.145   2.358   8.242 -0.1813 -0.4353  0.2495
 4732SOL    HW125655   3.069   2.400   8.282 -0.1111 -3.7843  4.0306
 4732SOL    HW225656   3.102   2.273   8.255 -1.4540  0.0440 -0.8753
 4733SOL     OW25657   3.341   0.536   3.189 -0.0702 -0.0206 -0.5828
 4733SOL    HW125658   3.371   0.622   3.162 -0.1571 -0.1800 -1.1771
 4733SOL    HW225659   3.289   0.563   3.265 -1.0426 -0.3313 -1.1408
 4734SOL     OW25660   4.708   3.415   3.281 -0.1132 -0.4317 -0.1194
 4734SOL    HW125661   4.643   3.404   3.212 -0.3585 -2.1927  0.3953
 4734SOL    HW225662   4.671   3.485   3.334  0.2411 -0.1330 -0.2612
 4735SOL     OW25663   4.530   1.318  10.472 -0.3783 -0.2932 -0.2178
 4735SOL    HW125664   4.598   1.261  10.437 -0.5027 -0.5005 -0.1161
 4735SOL    HW225665   4.471   1.326  10.397 -0.0922  1.3972 -0.2761
 4736SOL     OW25666   3.023   4.558   0.318 -0.3310  0.1375  0.0593
 4736SOL    HW125667   3.072   4.624   0.367  0.1060  0.7394 -1.1938
 4736SOL    HW225668   2.959   4.541   0.387 -0.5954  0.7076 -0.0442
 4737SOL     OW25669   4.271   3.342   5.372 -0.1033  0.2240 -0.3591
 4737SOL    HW125670   4.208   3.320   5.440 -0.0941  1.5041  0.0626
 4737SOL    HW225671   4.321   3.412   5.415 -1.5187  1.5647 -0.8915
 4738SOL     OW25672   3.450   2.495  11.009  0.0768 -0.8879  0.3642
 4738SOL    HW125673   3.365   2.526  11.042  0.6158 -0.7929  1.6821
 4738SOL    HW225674   3.478   2.437  11.080  0.2082  0.3003  1.2868
 4739SOL     OW25675   4.375   3.901   2.396 -0.4500  0.5161 -0.3347
 4739SOL    HW125676   4.385   3.912   2.301  2.6193 -0.4443 -0.1263
 4739SOL    HW225677   4.447   3.958   2.423 -0.6397  1.3561 -1.5913
 4740SOL     OW25678   1.722   3.636   1.827 -0.0014  0.0139 -0.2301
 4740SOL    HW125679   1.775   3.636   1.907 -0.9069  1.7177  0.3573
 4740SOL    HW225680   1.697   3.728   1.824 -0.9345 -0.2537 -0.4418
 4741SOL     OW25681   1.920   2.197  15.443  0.0482 -0.2978 -0.0846
 4741SOL    HW125682   1.899   2.117  15.492 -0.3495  0.7239  1.4324
 4741SOL    HW225683   1.860   2.260  15.483  1.1872  1.6119 -1.4292
 4742SOL     OW25684   4.176   0.883   3.431 -0.6324  0.0737 -0.3174
 4742SOL    HW125685   4.211   0.949   3.371  1.9024 -0.4168  0.5968
 4742SOL    HW225686   4.190   0.920   3.518  1.7561  0.8984 -1.0402
 4743SOL     OW25687   0.543   0.281   9.548  0.0142  0.0731  0.1848
 4743SOL    HW125688   0.472   0.319   9.495 -0.7365  0.0612  1.1761
 4743SOL    HW225689   0.494   0.213   9.594  0.0737  0.0790  0.2563
 4744SOL     OW25690   1.923   3.884   3.175 -0.2223  0.1952 -0.9472
 4744SOL    HW125691   1.883   3.878   3.088  0.4496 -4.7132 -0.9157
 4744SOL    HW225692   1.955   3.795   3.188 -0.7172  0.0822 -0.5188
 4745SOL     OW25693   2.408   2.773   8.240  0.1350  0.3441  0.2156
 4745SOL    HW125694   2.422   2.716   8.316  0.5202  0.2750  0.0895
 4745SOL    HW225695   2.452   2.855   8.261  1.9296 -0.2155 -1.4034
 4746SOL     OW25696   2.585   3.245   8.167  0.2707  0.2772  0.3971
 4746SOL    HW125697   2.574   3.339   8.153  3.6264  0.4082 -1.1683
 4746SOL    HW225698   2.668   3.232   8.123 -1.0990 -1.1058 -1.7878
 4747SOL     OW25699   1.420   1.109   2.063  0.5785 -0.5659 -0.1216
 4747SOL    HW125700   1.394   1.024   2.029 -0.6427  0.2675 -1.2780
 4747SOL    HW225701   1.502   1.116   2.013  0.4263 -1.3203 -0.4708
 4748SOL     OW25702   2.390   0.812   8.724  0.0349  0.0112 -0.5023
 4748SOL    HW125703   2.444   0.733   8.720 -0.7157 -0.6385  1.9303
 4748SOL    HW225704   2.380   0.828   8.631 -0.2182 -0.2984 -0.5295
 4749SOL     OW25705   2.015   0.475  11.719  0.2514  0.5027 -0.2507
 4749SOL    HW125706   2.012   0.567  11.694 -1.8976 -0.3293 -3.0430
 4749SOL    HW225707   2.081   0.472  11.789  0.4244 -1.8772 -0.5237
 4750SOL     OW25708   2.280   0.206  11.491 -0.0686  0.0695  0.1429
 4750SOL    HW125709   2.248   0.116  11.484 -0.8331  0.5936 -3.0322
 4750SOL    HW225710   2.202   0.261  11.479 -2.1803 -2.2537  3.1956
 4751SOL     OW25711   0.290   0.339   4.915 -0.3740 -0.3835 -0.1661
 4751SOL    HW125712   0.207   0.292   4.905 -0.9541  1.1331 -2.6938
 4751SOL    HW225713   0.328   0.262   4.956  0.4054  0.8137  1.3460
 4752SOL     OW25714   4.477   2.540   5.108  0.2063 -0.1789 -0.8605
 4752SOL    HW125715   4.554   2.553   5.054  1.0198 -0.4184  0.2497
 4752SOL    HW225716   4.512   2.521   5.195 -1.2700 -1.5099 -0.5399
 4753SOL     OW25717   1.000   2.832   7.432 -0.0361 -0.1015  0.0431
 4753SOL    HW125718   0.965   2.894   7.496  1.1522  0.6222 -0.0057
 4753SOL    HW225719   0.934   2.805   7.369 -0.7212  2.4470 -0.3093
 4754SOL     OW25720   2.680   1.774  11.982  0.1743  0.4438  0.0230
 4754SOL    HW125721   2.588   1.759  11.958 -0.1291 -1.3893  2.3464
 4754SOL    HW225722   2.716   1.694  11.942  1.3437  0.2371  1.5026
 4755SOL     OW25723   2.464   0.489  11.958  0.3402 -0.3064 -0.0001
 4755SOL    HW125724   2.431   0.579  11.948 -0.5172 -0.5373  0.7100
 4755SOL    HW225725   2.446   0.444  11.876  0.3846  1.5124 -1.0257
 4756SOL     OW25726   4.378   0.842   4.671 -0.1298 -0.7849 -1.2508
 4756SOL    HW125727   4.361   0.878   4.758  3.1010 -0.8102 -0.6014
 4756SOL    HW225728   4.301   0.878   4.626  1.2944  0.5992 -2.5926
 4757SOL     OW25729   3.376   3.864   3.723  0.0117  0.5124  0.0373
 4757SOL    HW125730   3.363   3.783   3.772 -2.5020  0.5207 -0.6289
 4757SOL    HW225731   3.443   3.924   3.756  0.8369 -0.2821 -0.2055
 4758SOL     OW25732   3.671   2.605   6.070  0.4761  0.4078  0.1721
 4758SOL    HW125733   3.698   2.532   6.014  1.3672  1.8897 -1.3301
 4758SOL    HW225734   3.707   2.580   6.155 -2.0913 -0.3919  1.0158
 4759SOL     OW25735   2.412   2.714   3.245 -0.1738  0.2728 -0.5258
 4759SOL    HW125736   2.396   2.807   3.262 -1.1595  0.0205 -0.0858
 4759SOL    HW225737   2.451   2.727   3.159 -1.0759  1.4430 -0.7574
 4760SOL     OW25738   4.207   0.537   3.017 -0.1182 -0.1826 -0.5430
 4760SOL    HW125739   4.130   0.592   3.000 -0.7065 -0.6855  0.5237
 4760SOL    HW225740   4.179   0.466   2.959 -1.2774  0.9655 -1.4158
 4761SOL     OW25741   0.749   2.456  12.219  0.7226  0.5141 -0.0395
 4761SOL    HW125742   0.680   2.522  12.218 -1.9066 -2.2444  0.2309
 4761SOL    HW225743   0.779   2.475  12.130  2.4551 -0.3802  0.3534
 4762SOL     OW25744   1.028   0.855   8.127 -0.0752 -0.2485  0.9526
 4762SOL    HW125745   1.033   0.935   8.075 -2.9945  0.4074  1.6936
 4762SOL    HW225746   0.966   0.802   8.077  0.5673  0.8502 -1.0215
 4763SOL     OW25747   3.279   0.349   7.748 -1.1544  0.1226  0.5378
 4763SOL    HW125748   3.309   0.439   7.734 -1.5003  0.1846  0.2122
 4763SOL    HW225749   3.187   0.364   7.769 -1.6374 -1.9484 -0.0933
 4764SOL     OW25750   3.621   3.488   9.147  0.4660 -0.1377 -0.2587
 4764SOL    HW125751   3.705   3.442   9.142  0.3022 -0.8567  3.8152
 4764SOL    HW225752   3.650   3.575   9.176 -1.9610  0.8136 -0.7090
 4765SOL     OW25753   2.834   3.611   5.761 -0.4365  0.6121  0.2312
 4765SOL    HW125754   2.887   3.558   5.703  0.8356  0.6320  1.3687
 4765SOL    HW225755   2.859   3.697   5.728 -1.8782  1.2003  0.6308
 4766SOL     OW25756   3.310   0.073   6.843  0.1198  0.8421 -0.4391
 4766SOL    HW125757   3.221   0.091   6.811 -0.7843 -2.4348  0.2602
 4766SOL    HW225758   3.282   0.035   6.926 -0.5223 -0.3377 -1.1878
 4767SOL     OW25759   4.615   1.670   6.388 -0.0077  0.4228 -0.3195
 4767SOL    HW125760   4.633   1.604   6.456 -2.4223  1.4483  1.3230
 4767SOL    HW225761   4.609   1.621   6.306 -1.1057  0.3644 -0.2066
 4768SOL     OW25762   3.409   0.539   4.514 -0.0903  0.4234  0.5277
 4768SOL    HW125763   3.432   0.606   4.578  1.2367  1.1248 -0.6796
 4768SOL    HW225764   3.424   0.589   4.433  1.6598 -0.3069  0.4101
 4769SOL     OW25765   0.573   3.420   4.878  0.4239  0.6108 -0.1339
 4769SOL    HW125766   0.490   3.400   4.834 -1.0358  3.2565  1.3713
 4769SOL    HW225767   0.584   3.513   4.858 -0.6388  0.8316  0.3248
 4770SOL     OW25768   2.421   4.135   0.251  0.3093 -0.1585  0.3451
 4770SOL    HW125769   2.450   4.149   0.161  0.0379 -0.7513  0.1646
 4770SOL    HW225770   2.366   4.056   0.249  2.1012 -1.3971 -0.1791
 4771SOL     OW25771   0.189   0.155  10.255 -0.2508 -0.1312 -0.0328
 4771SOL    HW125772   0.188   0.074  10.205 -0.1858  0.3762 -0.8687
 4771SOL    HW225773   0.278   0.161  10.289 -0.8793  2.3226  1.2511
 4772SOL     OW25774   3.711   4.054   4.306  0.2506 -0.3259 -0.2823
 4772SOL    HW125775   3.730   4.097   4.223  0.8460 -1.5727 -0.7980
 4772SOL    HW225776   3.786   3.995   4.312  0.5925 -0.0487 -1.6788
 4773SOL     OW25777   1.233   3.234   4.686 -0.2395 -0.3022 -0.4926
 4773SOL    HW125778   1.221   3.252   4.779  0.6707  1.2679 -0.6898
 4773SOL    HW225779   1.306   3.173   4.692  1.0224  1.3727  1.2376
 4774SOL     OW25780   3.490   2.083   6.332 -0.4095 -0.5512  0.0354
 4774SOL    HW125781   3.430   2.153   6.307  0.5114  0.4998  0.7720
 4774SOL    HW225782   3.561   2.141   6.359  0.6353 -1.0071 -1.6676
 4775SOL     OW25783   2.830   0.765   8.360 -0.4365  0.2301 -0.7598
 4775SOL    HW125784   2.809   0.857   8.341 -0.1151  0.9303  2.3074
 4775SOL    HW225785   2.924   0.774   8.376 -0.4041 -0.3666 -0.6388
 4776SOL     OW25786   1.852   2.489   4.413  0.3253  0.2049 -0.5156
 4776SOL    HW125787   1.871   2.464   4.323 -1.4460  1.1693 -1.1588
 4776SOL    HW225788   1.756   2.488   4.415  0.3190  0.2211 -0.8889
 4777SOL     OW25789   2.664   2.531  11.562  0.1803 -0.4065  0.2113
 4777SOL    HW125790   2.700   2.513  11.475 -0.5656  0.7726 -0.3418
 4777SOL    HW225791   2.579   2.562  11.532 -0.1838 -1.5108  0.1205
 4778SOL     OW25792   0.317   0.856   6.270 -0.1027 -0.0735 -0.4769
 4778SOL    HW125793   0.388   0.893   6.324 -0.3859  2.4769 -1.8578
 4778SOL    HW225794   0.303   0.772   6.313  1.1430 -0.1885 -0.2978
 4779SOL     OW25795   0.599   0.112   1.096  0.0355 -0.4769  0.2603
 4779SOL    HW125796   0.632   0.187   1.045 -0.7909 -0.0328  0.3874
 4779SOL    HW225797   0.595   0.144   1.186 -0.8794 -0.7835  0.3211
 4780SOL     OW25798   2.069   0.280   3.411  0.6031  0.2705 -0.1306
 4780SOL    HW125799   2.027   0.205   3.453 -1.8329  1.4940 -0.3575
 4780SOL    HW225800   2.120   0.321   3.481  2.0600 -1.7947 -0.0013
 4781SOL     OW25801   1.608   0.657   3.583  0.4899 -0.5409 -0.1016
 4781SOL    HW125802   1.684   0.707   3.553 -0.0810 -0.9725 -2.2608
 4781SOL    HW225803   1.543   0.725   3.600 -0.1065 -0.3002 -3.4316
 4782SOL     OW25804   3.658   3.289   7.461  0.2951  0.0134  0.1575
 4782SOL    HW125805   3.700   3.373   7.444  1.0618 -0.9728 -2.8049
 4782SOL    HW225806   3.581   3.317   7.510 -0.0795 -1.7163  0.5742
 4783SOL     OW25807   4.092   1.631   3.064 -0.4955  0.0475 -0.5143
 4783SOL    HW125808   4.019   1.571   3.077  0.3046  0.0203  3.8675
 4783SOL    HW225809   4.118   1.615   2.973  1.1998 -0.4986  0.0626
 4784SOL     OW25810   1.257   1.641   1.752 -0.1300  0.3807  0.0265
 4784SOL    HW125811   1.211   1.668   1.672 -1.1617  2.3924  1.3097
 4784SOL    HW225812   1.247   1.545   1.750 -3.2170  0.6734  1.1840
 4785SOL     OW25813   3.760   0.687   7.386  0.4991 -0.1935  0.2922
 4785SOL    HW125814   3.689   0.715   7.328  0.2007 -0.2289  0.6453
 4785SOL    HW225815   3.783   0.601   7.350 -0.0181 -0.3434  0.3235
 4786SOL     OW25816   3.278   3.892   5.256 -0.1155 -0.3395  0.4219
 4786SOL    HW125817   3.200   3.875   5.202  0.4339 -0.2305 -0.4127
 4786SOL    HW225818   3.339   3.925   5.190  0.3409  1.4272  1.7311
 4787SOL     OW25819   4.560   3.246   3.022  0.1112 -0.3254 -0.9762
 4787SOL    HW125820   4.633   3.196   2.986 -0.4134 -1.0283 -1.0591
 4787SOL    HW225821   4.545   3.183   3.092  3.8450  0.8983  0.9654
 4788SOL     OW25822   0.427   1.301   7.911  0.1351 -0.5343 -0.3038
 4788SOL    HW125823   0.365   1.374   7.914  0.2218 -0.5274  1.4026
 4788SOL    HW225824   0.486   1.322   7.983  0.6947 -0.8654 -0.6691
 4789SOL     OW25825   3.527   2.965  11.976  0.0509 -0.0231 -0.0338
 4789SOL    HW125826   3.443   3.010  11.968  1.3221  1.9253 -2.2177
 4789SOL    HW225827   3.569   2.982  11.892  1.9047  1.2254  1.1433
 4790SOL     OW25828   3.260   2.164   4.258  0.2089  0.4464  0.6080
 4790SOL    HW125829   3.174   2.203   4.272 -0.0338 -0.0793  0.5611
 4790SOL    HW225830   3.314   2.192   4.333  0.5341  2.9979 -0.5608
 4791SOL     OW25831   0.643   1.733   6.482 -0.5124  0.4036 -0.1067
 4791SOL    HW125832   0.687   1.701   6.561 -1.2395 -1.1299 -0.3133
 4791SOL    HW225833   0.571   1.669   6.478  0.5630 -0.6475 -2.2923
 4792SOL     OW25834   0.929   1.078   1.260  0.1935  0.2470 -0.1989
 4792SOL    HW125835   1.006   1.112   1.215 -0.7850 -1.1566 -2.9224
 4792SOL    HW225836   0.895   0.998   1.219 -1.0886  1.1881 -0.9573
 4793SOL     OW25837   0.635   2.810   5.130 -0.8862 -0.6138 -0.0239
 4793SOL    HW125838   0.718   2.766   5.110  0.5108  2.2538 -0.5406
 4793SOL    HW225839   0.590   2.741   5.178  2.8953 -2.6655  0.5480
 4794SOL     OW25840   2.963   4.264   1.854 -0.1330 -0.0210 -0.3139
 4794SOL    HW125841   2.959   4.202   1.927  0.1871  0.0982 -0.1938
 4794SOL    HW225842   3.048   4.303   1.874 -0.5433  0.2430  0.8979
 4795SOL     OW25843   2.986   1.467   3.084 -0.0811 -0.7695 -0.6288
 4795SOL    HW125844   3.011   1.395   3.142  0.4940  0.0903  0.1977
 4795SOL    HW225845   3.067   1.469   3.033  0.5124  0.0061  0.3425
 4796SOL     OW25846   1.575   1.984   2.555 -0.1367  0.0363  0.4350
 4796SOL    HW125847   1.561   1.911   2.495 -1.9411  2.7791 -2.5545
 4796SOL    HW225848   1.494   1.984   2.607  0.9444  1.3712  2.1131
 4797SOL     OW25849   1.162   1.800   6.625  0.3338  0.1515  0.1242
 4797SOL    HW125850   1.234   1.862   6.615  2.3730 -2.2520 -0.0919
 4797SOL    HW225851   1.174   1.733   6.557  1.1025  0.9667 -0.5534
 4798SOL     OW25852   2.165   1.117   4.157  0.8374 -0.1894 -0.1495
 4798SOL    HW125853   2.118   1.039   4.125  0.6137 -0.8071  1.6817
 4798SOL    HW225854   2.241   1.085   4.204  1.2327 -1.1531 -1.4354
 4799SOL     OW25855   2.676   1.142  12.993 -0.1059  0.3878  0.3024
 4799SOL    HW125856   2.669   1.224  12.944 -0.8115  0.8060  1.1109
 4799SOL    HW225857   2.772   1.142  12.996 -0.0784  1.6690 -0.6141
 4800SOL     OW25858   4.586   3.686   6.024 -0.0391 -0.0411  1.0340
 4800SOL    HW125859   4.504   3.698   6.072  0.3859  4.5839  0.5801
 4800SOL    HW225860   4.568   3.743   5.949 -1.4523 -0.4909  1.0209
 4801SOL     OW25861   1.433   4.450   4.890 -0.0035 -0.0060 -0.2895
 4801SOL    HW125862   1.489   4.522   4.918 -0.6730 -0.1517  1.3974
 4801SOL    HW225863   1.469   4.439   4.802  0.1063  0.9875 -0.3631
 4802SOL     OW25864   3.723   0.559   2.783 -0.0215  0.1320  0.4604
 4802SOL    HW125865   3.747   0.632   2.840  2.4858 -0.4867  0.1882
 4802SOL    HW225866   3.730   0.598   2.696  0.0598  0.2678  0.5285
 4803SOL     OW25867   2.450   2.573   4.395 -0.4721  0.1673  0.0932
 4803SOL    HW125868   2.487   2.584   4.307  0.5275  2.4608  0.7961
 4803SOL    HW225869   2.358   2.600   4.390 -0.6253 -0.4727 -0.4709
 4804SOL     OW25870   3.838   1.987  12.218  0.3225 -0.2452 -0.1133
 4804SOL    HW125871   3.847   1.892  12.209  1.9525 -0.1926  0.7916
 4804SOL    HW225872   3.869   1.988  12.309  0.5691  1.3716 -0.2059
 4805SOL     OW25873   2.622   0.222   2.871  0.0604 -0.2538  0.4903
 4805SOL    HW125874   2.600   0.199   2.961 -1.5259  3.1374  0.9522
 4805SOL    HW225875   2.586   0.309   2.854  1.6349  0.4549  0.7250
 4806SOL     OW25876   4.443   0.543   0.712  0.7435  0.3856 -0.5094
 4806SOL    HW125877   4.413   0.537   0.621  1.7926 -0.3228 -0.8089
 4806SOL    HW225878   4.535   0.568   0.702  1.3913 -2.3032 -1.4242
 4807SOL     OW25879   0.115   1.467   6.698 -0.6455  0.3501 -1.2694
 4807SOL    HW125880   0.148   1.546   6.655 -1.2130 -1.5441 -5.1414
 4807SOL    HW225881   0.037   1.445   6.647 -1.4097  0.6271 -0.2375
 4808SOL     OW25882   1.161   4.704   5.759  0.2584  0.4825  0.4062
 4808SOL    HW125883   1.128   4.638   5.820  0.4910  0.0498  0.0624
 4808SOL    HW225884   1.248   4.666   5.749 -0.0989 -0.6048  1.4667
 4809SOL     OW25885   3.085   3.768  10.965  0.0610 -0.0926  0.4866
 4809SOL    HW125886   3.067   3.796  11.054  0.0956  0.9635  0.1595
 4809SOL    HW225887   3.163   3.712  10.956 -0.2061 -0.5150  0.8055
 4810SOL     OW25888   2.792   0.358   7.196  0.1946  0.7049 -0.0597
 4810SOL    HW125889   2.809   0.265   7.209 -2.8918  0.1858  0.3085
 4810SOL    HW225890   2.748   0.375   7.279 -1.1917 -1.4557 -0.3655
 4811SOL     OW25891   4.394   2.926   0.587  0.7569  0.1258  0.4301
 4811SOL    HW125892   4.365   2.873   0.661  3.6846 -0.9586  0.7760
 4811SOL    HW225893   4.320   2.987   0.580  0.0332 -1.1934 -3.9055
 4812SOL     OW25894   2.129   2.219   3.855 -0.1270  0.0527  0.6027
 4812SOL    HW125895   2.151   2.239   3.764 -3.1052 -2.2083 -0.6302
 4812SOL    HW225896   2.110   2.309   3.881 -0.0146  0.7215 -1.6422
 4813SOL     OW25897   1.619   3.844   2.489  0.2645 -0.3998 -0.1201
 4813SOL    HW125898   1.628   3.929   2.446  2.2951 -1.6769 -2.2342
 4813SOL    HW225899   1.551   3.803   2.436  2.1789 -3.5988 -0.0930
 4814SOL     OW25900   4.096   3.325   6.371 -0.0004  0.0387 -0.2157
 4814SOL    HW125901   4.036   3.344   6.299 -0.3921  0.9368  0.3604
 4814SOL    HW225902   4.160   3.395   6.356  1.3740 -0.9428  0.9580
 4815SOL     OW25903   1.799   4.352   9.157  0.8261  0.1350  0.2085
 4815SOL    HW125904   1.889   4.355   9.123  0.0098 -0.0797 -2.0105
 4815SOL    HW225905   1.814   4.407   9.234  2.6777  1.1533 -0.8773
 4816SOL     OW25906   4.423   2.385   0.002  0.1625  0.0082  0.6037
 4816SOL    HW125907   4.385   2.431  17.612  1.0526  0.4336  0.4107
 4816SOL    HW225908   4.348   2.364   0.057  1.1741 -0.6616  1.7444
 4817SOL     OW25909   0.824   1.643   0.705 -0.6786 -0.2755 -0.7151
 4817SOL    HW125910   0.751   1.607   0.755  1.7140 -2.9120  0.8330
 4817SOL    HW225911   0.814   1.593   0.624 -3.6388 -0.2726 -0.3442
 4818SOL     OW25912   1.978   3.437   7.352  0.1604  0.4642  0.4620
 4818SOL    HW125913   2.046   3.493   7.314 -1.9342  1.5182 -1.7116
 4818SOL    HW225914   1.908   3.424   7.289 -0.5147  0.3140  1.2397
 4819SOL     OW25915   4.037   2.822   3.243  0.0254  0.0333 -0.3648
 4819SOL    HW125916   4.008   2.883   3.175  0.0052 -0.7428 -1.0454
 4819SOL    HW225917   3.965   2.760   3.255  0.7427 -0.6346  0.5232
 4820SOL     OW25918   3.940   4.270   4.825 -0.6144  0.4915  0.1091
 4820SOL    HW125919   3.856   4.245   4.864 -0.0836 -0.9390  0.3133
 4820SOL    HW225920   3.997   4.198   4.849 -0.2835  0.0719 -1.9121
 4821SOL     OW25921   1.807   2.999   4.207  0.1263 -0.4237  0.3100
 4821SOL    HW125922   1.733   3.060   4.208 -0.0346 -0.6153 -0.2015
 4821SOL    HW225923   1.873   3.043   4.261  1.1185 -1.7790  0.1965
 4822SOL     OW25924   1.040   4.081   2.801  0.4382 -0.2769  0.0258
 4822SOL    HW125925   1.110   4.146   2.790  0.5140 -0.0517  1.8408
 4822SOL    HW225926   1.029   4.044   2.714 -2.8982  0.8350 -0.0266
 4823SOL     OW25927   2.234   0.999   4.734 -0.0498  0.0561 -0.2025
 4823SOL    HW125928   2.206   0.938   4.802 -3.1004  0.3962 -1.1655
 4823SOL    HW225929   2.209   0.961   4.650 -0.4936  0.1911 -0.1300
 4824SOL     OW25930   4.678   1.979  12.605 -0.6438  0.2555 -0.2205
 4824SOL    HW125931   0.029   1.956  12.664 -0.7370 -2.4793 -1.2040
 4824SOL    HW225932   4.663   1.892  12.569 -1.8634  1.3812 -2.4568
 4825SOL     OW25933   3.976   1.706   4.306 -0.1729  0.3504 -0.3607
 4825SOL    HW125934   3.929   1.705   4.390 -0.3015  3.6631 -0.3760
 4825SOL    HW225935   3.915   1.715   4.233  0.6910  3.1453 -0.7473
 4826SOL     OW25936   1.376   1.136   4.710  0.7252 -0.1715 -0.0787
 4826SOL    HW125937   1.375   1.152   4.805  0.0543  2.4632 -0.5381
 4826SOL    HW225938   1.310   1.198   4.679  0.0515 -0.7635  0.1838
 4827SOL     OW25939   3.734   1.278   0.593  0.2434  0.2902  0.2950
 4827SOL    HW125940   3.784   1.309   0.518 -0.5611  1.0415  0.0703
 4827SOL    HW225941   3.720   1.189   0.560  2.3739  0.5498 -1.2820
 4828SOL     OW25942   3.213   4.433   6.191  0.1297  0.2164 -0.1994
 4828SOL    HW125943   3.152   4.504   6.174  0.0730  0.2067 -0.0397
 4828SOL    HW225944   3.287   4.478   6.151  0.6694  0.3861  0.9800
 4829SOL     OW25945   0.711   4.377   7.720 -0.2243  0.2813  0.3517
 4829SOL    HW125946   0.794   4.371   7.671 -0.7386 -2.3564 -0.1901
 4829SOL    HW225947   0.664   4.419   7.647 -0.2637 -1.5938 -0.7051
 4830SOL     OW25948   0.446   4.356   8.875 -0.1188 -0.1458  0.5142
 4830SOL    HW125949   0.499   4.393   8.946  0.1387  1.5807 -0.5756
 4830SOL    HW225950   0.493   4.275   8.855 -0.6200 -0.4005  0.3798
 4831SOL     OW25951   1.171   3.420   5.237  0.4130  0.1424 -0.0660
 4831SOL    HW125952   1.191   3.335   5.277 -1.0140  1.2336  3.0071
 4831SOL    HW225953   1.245   3.478   5.253  0.7533  0.1817 -1.8437
 4832SOL     OW25954   0.502   2.835   6.641  0.3485 -0.0590 -1.0426
 4832SOL    HW125955   0.527   2.800   6.555 -1.5198  0.5742 -1.8434
 4832SOL    HW225956   0.583   2.841   6.691  0.6217 -1.1072 -1.3479
 4833SOL     OW25957   0.044   1.338   9.025  0.6000  0.2247  0.0159
 4833SOL    HW125958   0.015   1.256   9.065  0.5962  0.4443  0.4562
 4833SOL    HW225959   4.688   1.344   8.968  2.8773  1.8105 -2.8764
 4834SOL     OW25960   0.185   3.138   7.390 -0.2519 -0.3735 -0.0340
 4834SOL    HW125961   0.153   3.107   7.305  0.3608 -0.0594 -0.3765
 4834SOL    HW225962   0.255   3.198   7.364 -0.3347  0.8841  2.6095
 4835SOL     OW25963   0.938   2.081   7.131 -0.3209 -0.2322  0.5245
 4835SOL    HW125964   0.958   2.039   7.047 -1.6186  0.3863 -0.0947
 4835SOL    HW225965   1.011   2.143   7.140  0.4663 -1.1341  0.3162
 4836SOL     OW25966   1.598   1.386   7.189 -0.4907 -0.2481 -0.1624
 4836SOL    HW125967   1.517   1.430   7.215 -0.3207 -0.8330  1.3827
 4836SOL    HW225968   1.555   1.320   7.135  0.9001 -2.7021  1.7265
 4837SOL     OW25969   2.109   2.398   4.936 -0.1932  0.0934 -0.2938
 4837SOL    HW125970   2.163   2.373   5.011  2.5984  1.8073 -1.7365
 4837SOL    HW225971   2.110   2.318   4.884  0.5483  0.2010 -0.4480
 4838SOL     OW25972   2.240   3.422  11.208 -0.3314  0.2255 -0.2296
 4838SOL    HW125973   2.273   3.468  11.131 -1.1144  0.3425 -0.4956
 4838SOL    HW225974   2.318   3.376  11.238 -0.0738  1.2458  0.6907
 4839SOL     OW25975   3.244   1.682  14.027 -0.6906 -0.0175  0.2895
 4839SOL    HW125976   3.181   1.753  14.019  1.1923  1.5718 -0.1961
 4839SOL    HW225977   3.320   1.706  13.975  0.0185 -1.0863  0.8098
 4840SOL     OW25978   3.216   3.925   7.268 -0.0775  0.4479  0.2237
 4840SOL    HW125979   3.145   3.987   7.285 -0.3177 -0.0734  1.1458
 4840SOL    HW225980   3.262   3.925   7.352 -0.7952 -1.7169  0.6297
 4841SOL     OW25981   4.302   0.512   3.847  0.2510 -0.5180 -0.8108
 4841SOL    HW125982   4.265   0.550   3.926  0.1672 -1.3617 -0.4452
 4841SOL    HW225983   4.260   0.563   3.777  0.6844 -0.4265 -0.9993
 4842SOL     OW25984   0.791   2.942  12.295  0.0806 -0.2741 -0.3157
 4842SOL    HW125985   0.763   3.004  12.228  1.2059 -1.2113 -1.6526
 4842SOL    HW225986   0.856   2.994  12.342  0.4583 -0.2964 -0.8138
 4843SOL     OW25987   3.225   4.645   4.322  0.2479 -0.2102 -0.4560
 4843SOL    HW125988   3.316   4.627   4.297  0.7693 -0.4894  1.6213
 4843SOL    HW225989   3.204   4.585   4.394 -1.5350  2.5200  1.2684
 4844SOL     OW25990   1.959   4.099   6.697  0.7169  0.1042 -0.0023
 4844SOL    HW125991   2.026   4.165   6.715 -0.0205  0.5551  1.0443
 4844SOL    HW225992   1.959   4.039   6.772 -1.0894 -0.0877 -0.1718
 4845SOL     OW25993   1.113   3.095   7.023 -0.8128 -0.1565 -0.8378
 4845SOL    HW125994   1.124   3.082   6.928  1.3701 -0.5232 -0.5459
 4845SOL    HW225995   1.102   3.006   7.055 -0.5447  0.8146  1.9677
 4846SOL     OW25996   0.635   1.527   3.401 -0.3232  0.2225 -0.0081
 4846SOL    HW125997   0.723   1.545   3.368 -0.8196  2.1199 -0.2538
 4846SOL    HW225998   0.584   1.521   3.321 -0.9808 -1.6148  0.5540
 4847SOL     OW25999   0.403   3.642   4.214 -0.3269  0.1081 -0.6441
 4847SOL    HW126000   0.336   3.653   4.147 -1.0650  2.6272  0.5077
 4847SOL    HW226001   0.490   3.672   4.186  0.6774 -1.7860  0.4201
 4848SOL     OW26002   3.068   2.450   6.945 -0.1798 -0.1672 -0.1024
 4848SOL    HW126003   3.104   2.398   7.016  1.7810  0.0061 -0.9753
 4848SOL    HW226004   3.069   2.377   6.882  0.7313 -0.4214  0.2089
 4849SOL     OW26005   1.932   3.371   5.947 -0.5726  0.0471  0.1656
 4849SOL    HW126006   1.854   3.354   5.998 -0.7123  0.9826  0.2446
 4849SOL    HW226007   1.940   3.288   5.899  0.9550  1.4913 -2.1157
 4850SOL     OW26008   4.555   3.475   4.686 -0.5922  0.1374 -0.6543
 4850SOL    HW126009   4.600   3.482   4.601  1.2063  2.4089  0.5044
 4850SOL    HW226010   4.466   3.474   4.651 -1.2153  0.9918  0.9284
 4851SOL     OW26011   1.451   2.258   3.714  0.1413 -0.1772 -0.0997
 4851SOL    HW126012   1.367   2.304   3.711  1.4461  2.0878 -1.2703
 4851SOL    HW226013   1.521   2.317   3.688 -1.0543  0.2164 -2.3317
 4852SOL     OW26014   2.733   3.393   3.400  0.5202 -0.2263  0.2622
 4852SOL    HW126015   2.669   3.421   3.334 -0.5502 -2.3047  0.4092
 4852SOL    HW226016   2.713   3.442   3.480 -2.4428 -2.1501  0.7300
 4853SOL     OW26017   3.200   4.152   7.554 -0.1762  0.1268  0.0882
 4853SOL    HW126018   3.113   4.185   7.576 -0.7647 -0.3045 -1.6135
 4853SOL    HW226019   3.218   4.213   7.483 -0.8538  1.1895  0.8161
 4854SOL     OW26020   0.355   2.870   4.214  0.2245  0.2298  0.1213
 4854SOL    HW126021   0.331   2.931   4.145  1.4157 -2.2009 -2.4394
 4854SOL    HW226022   0.292   2.799   4.199 -1.0152  1.4098 -0.2045
 4855SOL     OW26023   1.177   4.189   4.475  0.4228  0.3313 -0.3745
 4855SOL    HW126024   1.086   4.165   4.494  0.1936  1.1569 -0.3936
 4855SOL    HW226025   1.211   4.113   4.428  1.1035  1.6973 -2.0728
 4856SOL     OW26026   2.544   3.459   3.213 -0.1143  0.2961  0.2825
 4856SOL    HW126027   2.506   3.510   3.141 -2.7135 -1.4880  0.3857
 4856SOL    HW226028   2.476   3.393   3.222 -0.6162  1.0334  1.8161
 4857SOL     OW26029   1.847   0.827   3.488  0.4745 -0.6136  0.5263
 4857SOL    HW126030   1.816   0.877   3.563  0.7912  1.7241 -0.8885
 4857SOL    HW226031   1.902   0.894   3.447 -0.9645 -1.1188 -2.2729
 4858SOL     OW26032   1.258   0.284   1.127 -0.0194  0.3041  0.1380
 4858SOL    HW126033   1.196   0.215   1.103 -0.5927  1.1055 -0.7136
 4858SOL    HW226034   1.207   0.341   1.184  0.7433  1.5568 -0.4113
 4859SOL     OW26035   2.222   4.372   1.984 -0.1046 -0.1593 -0.1775
 4859SOL    HW126036   2.162   4.343   1.915 -0.7437  0.4684  0.1258
 4859SOL    HW226037   2.307   4.368   1.939 -0.7849  0.1255 -1.4992
 4860SOL     OW26038   0.761   0.742   3.653 -0.2390  0.3727  0.2006
 4860SOL    HW126039   0.793   0.655   3.628 -0.5195  0.0510  0.9446
 4860SOL    HW226040   0.741   0.789   3.572 -3.9150 -1.1107  0.2121
 4861SOL     OW26041   0.001   3.225   2.348 -0.5634 -0.6329  0.3335
 4861SOL    HW126042   0.056   3.154   2.314 -0.7177 -0.2157 -0.8053
 4861SOL    HW226043   0.031   3.291   2.286 -0.5021 -0.3491  0.6674
 4862SOL     OW26044   3.993   0.277   5.259  0.1567  0.5031 -0.0987
 4862SOL    HW126045   4.005   0.238   5.346  2.5791  1.3046 -0.0647
 4862SOL    HW226046   3.980   0.370   5.277  0.9634  0.7200 -0.6469
 4863SOL     OW26047   3.841   1.585   7.562  0.4678  0.1617 -0.4525
 4863SOL    HW126048   3.862   1.677   7.551 -2.5472  1.0413  0.9963
 4863SOL    HW226049   3.926   1.547   7.581  0.9190  2.8305  2.8332
 4864SOL     OW26050   3.872   1.908   4.661 -0.2327  0.2854  0.3096
 4864SOL    HW126051   3.959   1.925   4.696  0.5644 -0.1321 -1.4691
 4864SOL    HW226052   3.846   1.989   4.617 -0.1903 -0.2538 -0.6951
 4865SOL     OW26053   4.636   1.370  14.269  0.2007  0.2248  0.5129
 4865SOL    HW126054   4.687   1.300  14.228 -0.3163 -1.9327  3.5358
 4865SOL    HW226055   4.670   1.441  14.214 -0.7148  2.3714  2.7359
 4866SOL     OW26056   4.513   2.756  10.984 -0.4376  0.0737 -0.2994
 4866SOL    HW126057   4.484   2.736  11.073 -0.1082 -0.9365 -0.4185
 4866SOL    HW226058   4.595   2.710  10.967  1.0243  3.0343 -1.3552
 4867SOL     OW26059   1.016   0.029   7.784 -0.0093 -0.1921 -0.6913
 4867SOL    HW126060   1.089   0.048   7.725  0.3434  0.4811 -0.0421
 4867SOL    HW226061   1.058   0.040   7.870  0.3175  1.1072 -1.0139
 4868SOL     OW26062   2.582   0.430  16.187  0.2466 -0.1965 -0.0047
 4868SOL    HW126063   2.563   0.338  16.166 -1.2683  0.5324 -1.8637
 4868SOL    HW226064   2.490   0.458  16.182  0.5623  1.1283  1.8446
 4869SOL     OW26065   2.005   4.471   1.615 -0.2494  0.8745 -0.0537
 4869SOL    HW126066   2.009   4.422   1.533  1.6334 -1.3430  1.3710
 4869SOL    HW226067   2.068   4.539   1.594 -0.3489  0.5037 -1.5597
 4870SOL     OW26068   3.810   1.166   1.721 -0.1239  0.3542  0.0596
 4870SOL    HW126069   3.726   1.190   1.682 -0.0063  1.1238  0.2774
 4870SOL    HW226070   3.867   1.203   1.652  0.9543  0.4195  0.9818
 4871SOL     OW26071   0.383   3.988   4.112  0.2837  0.2281 -0.1873
 4871SOL    HW126072   0.325   3.957   4.182 -0.4226 -0.0957 -0.9104
 4871SOL    HW226073   0.412   3.900   4.088  0.7415 -0.0898  1.4883
 4872SOL     OW26074   2.229   4.414   6.193 -0.3345  0.1858 -1.0791
 4872SOL    HW126075   2.270   4.473   6.130  0.8372  0.5131 -0.0060
 4872SOL    HW226076   2.224   4.473   6.268  1.3589 -0.4490 -0.4710
 4873SOL     OW26077   2.674   4.581   0.311 -0.2803 -0.0272  0.2514
 4873SOL    HW126078   2.586   4.568   0.344 -0.6099  0.3930 -0.4652
 4873SOL    HW226079   2.740   4.543   0.369 -1.2413  1.0959  2.0615
 4874SOL     OW26080   2.421   0.229   5.738 -0.7182 -0.0669  0.3480
 4874SOL    HW126081   2.341   0.265   5.698  0.1798  2.5395  0.8571
 4874SOL    HW226082   2.441   0.155   5.682  1.0148  0.5941  0.0864
 4875SOL     OW26083   3.242   2.654   4.232 -0.6707 -0.2014 -0.2210
 4875SOL    HW126084   3.284   2.732   4.196  1.6016 -1.0662  0.5776
 4875SOL    HW226085   3.153   2.689   4.242  0.0677  2.2786 -2.3425
 4876SOL     OW26086   4.588   1.073   9.005  0.6647  1.0074  0.1011
 4876SOL    HW126087   4.509   1.109   8.963 -1.6338 -1.4647  2.3384
 4876SOL    HW226088   4.553   0.984   9.012  0.2843  1.1168 -0.4057
 4877SOL     OW26089   4.187   1.474   6.134  0.1340  0.2501 -0.1770
 4877SOL    HW126090   4.135   1.550   6.160  0.9486  1.1095 -1.0575
 4877SOL    HW226091   4.164   1.410   6.202  1.0243 -2.5988 -2.5411
 4878SOL     OW26092   2.406   0.997  12.387 -0.2080 -0.4019 -0.4064
 4878SOL    HW126093   2.354   0.926  12.350  2.7321 -1.7940 -1.8549
 4878SOL    HW226094   2.364   1.075  12.350  0.9995  0.1708 -0.5491
 4879SOL     OW26095   3.856   1.581   8.379  0.2079 -0.6652  0.1372
 4879SOL    HW126096   3.831   1.645   8.445 -2.5101 -1.8704  0.2815
 4879SOL    HW226097   3.877   1.643   8.309 -1.3029  0.2019  0.4557
 4880SOL     OW26098   0.481   3.677  17.247 -0.0356  0.0756 -0.6120
 4880SOL    HW126099   0.456   3.628  17.169  1.4148  0.4348 -1.3005
 4880SOL    HW226100   0.560   3.626  17.263 -0.2583  0.3398  1.3620
 4881SOL     OW26101   0.403   4.518   8.647 -0.5632  0.2680 -0.5162
 4881SOL    HW126102   0.312   4.542   8.666 -0.6387  0.3700 -0.9923
 4881SOL    HW226103   0.423   4.448   8.709 -1.0064  1.0238  0.4703
 4882SOL     OW26104   3.455   2.033   3.925 -0.2343  0.3229 -0.7600
 4882SOL    HW126105   3.429   2.120   3.956 -2.5421  0.0358 -1.9450
 4882SOL    HW226106   3.397   1.972   3.970  2.5759 -0.7252  1.4597
 4883SOL     OW26107   4.396   1.293   2.690  0.5230 -0.3578  0.5341
 4883SOL    HW126108   4.454   1.347   2.638 -0.7127  0.1774 -0.2813
 4883SOL    HW226109   4.315   1.334   2.658  2.3900  1.0653 -2.2959
 4884SOL     OW26110   4.140   0.169   0.531 -0.0856 -0.2971  0.2125
 4884SOL    HW126111   4.212   0.211   0.578 -0.8225  1.0673  0.1223
 4884SOL    HW226112   4.067   0.172   0.594 -0.7045  2.2801 -0.6350
 4885SOL     OW26113   3.171   2.839   3.799 -0.2498  0.9811  0.3196
 4885SOL    HW126114   3.091   2.839   3.851 -0.3425 -0.3021  0.1710
 4885SOL    HW226115   3.218   2.762   3.831 -1.0616 -0.4051 -1.8054
 4886SOL     OW26116   0.942   2.068  10.544 -0.4306  0.4033  0.3454
 4886SOL    HW126117   0.993   2.149  10.536 -0.7631  0.8689  2.8753
 4886SOL    HW226118   0.911   2.067  10.635 -1.3498 -1.2078  0.0188
 4887SOL     OW26119   2.373   3.380   4.146  0.0789 -0.5292 -1.3138
 4887SOL    HW126120   2.424   3.442   4.094  1.5268 -1.5773 -1.1407
 4887SOL    HW226121   2.362   3.435   4.224  1.0676  0.7622 -2.0847
 4888SOL     OW26122   0.362   4.659  11.589  0.5105  0.6181 -0.1942
 4888SOL    HW126123   0.360   4.707  11.506 -1.6119 -1.0067 -1.0820
 4888SOL    HW226124   0.447   4.689  11.621  1.0656 -1.4241  0.2416
 4889SOL     OW26125   3.290   3.047   7.527 -0.6657  0.1545 -0.7650
 4889SOL    HW126126   3.277   3.013   7.439  2.1956  1.1143 -1.5671
 4889SOL    HW226127   3.317   3.138   7.514 -0.6342  0.1026 -1.0675
 4890SOL     OW26128   3.958   0.731   6.269 -0.3190  0.4141 -0.3687
 4890SOL    HW126129   4.046   0.758   6.295  0.5281  1.2221 -4.0734
 4890SOL    HW226130   3.976   0.641   6.243 -1.6835  0.2573 -0.7682
 4891SOL     OW26131   3.327   1.875   7.254 -0.5322 -0.5610  0.1026
 4891SOL    HW126132   3.308   1.959   7.296 -0.4072  0.3659 -1.6561
 4891SOL    HW226133   3.417   1.890   7.224 -1.0682 -1.8030 -2.1665
 4892SOL     OW26134   3.885   0.109   6.204  0.1957  0.3144 -0.2017
 4892SOL    HW126135   3.961   0.054   6.188  0.5871  1.5898 -2.6744
 4892SOL    HW226136   3.911   0.141   6.290  2.6388 -1.4458 -0.2909
 4893SOL     OW26137   2.928   4.107   2.591 -0.8735  0.4319 -0.0962
 4893SOL    HW126138   2.956   4.192   2.558  1.0481  0.2341  1.0129
 4893SOL    HW226139   2.950   4.061   2.509  0.7183  0.2011  0.4669
 4894SOL     OW26140   3.339   2.971  16.483  0.5383 -0.0444  0.1104
 4894SOL    HW126141   3.407   3.027  16.447  0.4579 -0.6152 -0.9531
 4894SOL    HW226142   3.386   2.895  16.517 -0.3509 -0.8451 -0.4315
 4895SOL     OW26143   4.506   3.456  13.725  0.2648  0.6402  0.0749
 4895SOL    HW126144   4.415   3.436  13.748 -0.3913  0.6451 -2.5384
 4895SOL    HW226145   4.538   3.506  13.801 -1.8763  0.5382  1.0590
 4896SOL     OW26146   3.461   3.606  15.851  0.1401 -0.6275  0.6298
 4896SOL    HW126147   3.430   3.643  15.934  1.8981  1.7020  0.2882
 4896SOL    HW226148   3.476   3.516  15.878 -0.6843 -1.1824 -0.7843
 4897SOL     OW26149   0.709   2.304   3.389  0.3431 -0.3374 -0.9814
 4897SOL    HW126150   0.695   2.336   3.478  0.2040 -1.6690 -0.5218
 4897SOL    HW226151   0.710   2.209   3.405  3.7269 -0.2550 -0.6141
 4898SOL     OW26152   2.873   1.624   9.916 -0.2205  0.6155 -0.3414
 4898SOL    HW126153   2.866   1.552   9.854  0.7715  0.4967 -0.3089
 4898SOL    HW226154   2.865   1.698   9.856  1.4645  0.8583 -0.2683
 4899SOL     OW26155   4.712   1.832   1.997 -0.1053  0.3271  0.0894
 4899SOL    HW126156   4.638   1.780   2.028 -0.6631  0.2597 -1.3532
 4899SOL    HW226157   0.060   1.768   1.978 -0.0170  0.1022  1.1906
 4900SOL     OW26158   0.147   4.088   2.768 -0.4662  0.3537  0.3806
 4900SOL    HW126159   0.084   4.159   2.781 -0.5237 -0.1041  2.6292
 4900SOL    HW226160   0.182   4.073   2.855 -0.8380  0.8807  0.6154
 4901SOL     OW26161   1.025   0.585  13.567  0.1652 -0.2294  0.4497
 4901SOL    HW126162   1.036   0.587  13.662  1.3567 -2.1450  0.3598
 4901SOL    HW226163   1.074   0.509  13.534  0.9572 -0.4689  2.1548
 4902SOL     OW26164   0.599   3.222   6.081  0.2066 -0.2068  0.6991
 4902SOL    HW126165   0.650   3.217   6.162  1.7488 -1.8927 -0.3949
 4902SOL    HW226166   0.565   3.311   6.092 -0.1583 -0.4680  1.6950
 4903SOL     OW26167   2.653   4.381   2.573  0.4553  0.5035 -0.2108
 4903SOL    HW126168   2.659   4.405   2.665  0.1520 -2.0627  0.4812
 4903SOL    HW226169   2.560   4.359   2.576  0.6755 -0.6420 -1.7140
 4904SOL     OW26170   3.717   2.525  15.149 -0.3136 -0.7354 -0.1226
 4904SOL    HW126171   3.737   2.526  15.055  0.8101  2.2231  0.1526
 4904SOL    HW226172   3.705   2.430  15.156  0.3138 -0.6199  2.6900
 4905SOL     OW26173   1.907   4.458  13.066 -0.3123  0.5444  0.4249
 4905SOL    HW126174   1.960   4.441  12.988  0.5279  1.3672  0.8119
 4905SOL    HW226175   1.909   4.371  13.105  0.6924 -0.3116 -1.6045
 4906SOL     OW26176   1.138   1.236   3.115  0.4322  0.1309  0.4765
 4906SOL    HW126177   1.166   1.186   3.192  1.0357  0.9212  0.7746
 4906SOL    HW226178   1.081   1.299   3.161 -0.6295  1.2551 -2.3688
 4907SOL     OW26179   4.282   0.774  16.973 -0.5932 -0.4053  0.5423
 4907SOL    HW126180   4.330   0.691  16.980  2.9387  1.6283  0.6322
 4907SOL    HW226181   4.318   0.812  17.054 -0.3148  1.1983 -0.3516
 4908SOL     OW26182   3.416   2.280   4.011  0.1556 -0.4745  0.5322
 4908SOL    HW126183   3.326   2.309   4.001  0.4086 -0.0971 -0.6577
 4908SOL    HW226184   3.420   2.265   4.106 -1.5273 -1.5178  0.4144
 4909SOL     OW26185   3.347   2.129   9.382  0.9746 -0.2566  0.4473
 4909SOL    HW126186   3.324   2.036   9.387  0.7858 -0.2204  0.2582
 4909SOL    HW226187   3.430   2.127   9.333  0.2227  0.3423 -0.8709
 4910SOL     OW26188   1.858   3.198   4.458  0.7917 -0.1815  0.5289
 4910SOL    HW126189   1.791   3.134   4.483 -0.3608  1.1039  0.7467
 4910SOL    HW226190   1.830   3.263   4.523  1.1405  0.2320  0.2638
 4911SOL     OW26191   4.248   1.126   3.300  0.0912 -0.0596 -0.4353
 4911SOL    HW126192   4.318   1.125   3.234  0.4010 -0.8328 -0.1058
 4911SOL    HW226193   4.172   1.150   3.247 -0.2008 -1.5479 -0.6918
 4912SOL     OW26194   0.233   1.581  17.357  0.2239 -0.1558 -0.2260
 4912SOL    HW126195   0.232   1.673  17.385 -0.0134 -0.2806  0.1767
 4912SOL    HW226196   0.320   1.562  17.325  0.3551 -0.6963  0.4480
 4913SOL     OW26197   1.354   2.642   0.287  0.3825  0.0136  0.1792
 4913SOL    HW126198   1.259   2.652   0.296  0.0700 -1.1633 -1.8253
 4913SOL    HW226199   1.357   2.552   0.256  1.5083 -0.3303  1.2791
 4914SOL     OW26200   4.218   1.280   2.402 -0.0458 -0.8894  0.1246
 4914SOL    HW126201   4.131   1.246   2.381 -0.8260  1.7166 -0.8483
 4914SOL    HW226202   4.251   1.199   2.440  0.8122 -0.5228  0.1571
 4915SOL     OW26203   4.318   0.744   1.823  0.1737 -0.2802  0.0170
 4915SOL    HW126204   4.327   0.691   1.902  1.9766 -0.7536 -0.5144
 4915SOL    HW226205   4.282   0.676   1.766 -0.3662  0.2039 -0.2244
 4916SOL     OW26206   1.441   2.014   5.825  0.2656  0.1070 -0.2814
 4916SOL    HW126207   1.374   1.975   5.881  1.6466 -0.6305  0.8493
 4916SOL    HW226208   1.390   2.076   5.773  0.6644 -0.8070 -1.7564
 4917SOL     OW26209   3.187   3.946   4.788 -0.3439  0.1185 -0.4185
 4917SOL    HW126210   3.174   3.890   4.711 -0.7514  2.3628 -1.9967
 4917SOL    HW226211   3.266   3.992   4.760  0.3226  0.0093  1.2966
 4918SOL     OW26212   0.812   4.025  13.794  0.5122  0.0678  0.2186
 4918SOL    HW126213   0.733   4.070  13.826  1.2576 -0.4145  2.6916
 4918SOL    HW226214   0.876   4.097  13.790 -0.0104  0.4808 -0.6950
 4919SOL     OW26215   4.709   0.652   4.191 -0.1474  0.3466 -0.0359
 4919SOL    HW126216   4.658   0.583   4.235  1.0172 -0.6292 -0.2224
 4919SOL    HW226217   4.684   0.729   4.242 -1.9412 -0.6002  0.5392
 4920SOL     OW26218   1.989   2.274   7.075 -0.2698  0.0007 -0.0303
 4920SOL    HW126219   1.896   2.256   7.090 -0.3770  1.5547  1.1321
 4920SOL    HW226220   2.019   2.196   7.122 -0.3141  0.0949  0.1549
 4921SOL     OW26221   1.784   1.345   7.390 -0.8431 -0.4721  0.1290
 4921SOL    HW126222   1.780   1.430   7.435  0.6492  0.8415 -2.2263
 4921SOL    HW226223   1.715   1.356   7.324  1.1789  0.4266 -1.8235
 4922SOL     OW26224   4.154   0.756   3.750 -0.3516 -0.1623  0.0544
 4922SOL    HW126225   4.130   0.785   3.838  0.6707  2.3835 -0.4876
 4922SOL    HW226226   4.070   0.752   3.703  0.1114  2.3575 -1.0304
 4923SOL     OW26227   1.288   4.080   8.653 -0.1739  0.7426 -0.4319
 4923SOL    HW126228   1.318   4.171   8.648 -0.7734  0.8404 -2.2830
 4923SOL    HW226229   1.230   4.071   8.578 -3.0643 -1.0769  2.0260
 4924SOL     OW26230   2.724   4.200  13.358 -0.0853 -0.0556 -0.3717
 4924SOL    HW126231   2.667   4.217  13.434  0.1848 -0.6453 -0.0336
 4924SOL    HW226232   2.651   4.179  13.299 -0.9350  0.0939  0.6130
 4925SOL     OW26233   4.660   0.933  14.231 -0.1103  0.0973  0.5506
 4925SOL    HW126234   4.583   0.923  14.288 -0.6106  0.9325  0.0157
 4925SOL    HW226235   4.678   1.026  14.246 -1.4080  0.8258 -2.4979
 4926SOL     OW26236   0.033   0.029   6.892  0.1825 -0.4950 -0.3654
 4926SOL    HW126237   0.036   4.668   6.944 -0.8498 -2.2510 -3.0641
 4926SOL    HW226238   0.124   0.043   6.865 -0.0916  2.4379  0.2392
 4927SOL     OW26239   2.371   2.429  10.636 -0.3724  0.1266 -0.7818
 4927SOL    HW126240   2.429   2.354  10.650 -2.3273 -1.2542 -0.1057
 4927SOL    HW226241   2.392   2.472  10.718  0.7277  0.3150 -1.1580
 4928SOL     OW26242   2.161   2.161  17.578  0.4879  0.2463 -0.4111
 4928SOL    HW126243   2.186   2.209  17.657  0.2639  1.2360 -0.9375
 4928SOL    HW226244   2.095   2.099  17.608 -1.6153  2.5501 -0.2378
 4929SOL     OW26245   4.006   1.890   5.461  0.2829 -0.2757  0.1052
 4929SOL    HW126246   3.925   1.851   5.428 -0.2071  1.0209 -0.2508
 4929SOL    HW226247   3.983   1.905   5.552 -0.3748  2.4196 -0.5170
 4930SOL     OW26248   1.029   1.426   2.087  0.4584  0.6211  0.0574
 4930SOL    HW126249   0.949   1.389   2.051  0.7353 -0.4964  0.6000
 4930SOL    HW226250   1.023   1.374   2.167 -1.8011 -1.9469 -1.7777
 4931SOL     OW26251   2.484   3.238   8.953  0.2329 -0.6246 -0.3560
 4931SOL    HW126252   2.484   3.309   8.889  0.1209 -1.2761 -1.0731
 4931SOL    HW226253   2.576   3.229   8.980 -0.2964 -2.9396  0.7225
 4932SOL     OW26254   3.031   0.858  10.162  0.1668 -0.3505  0.0996
 4932SOL    HW126255   3.000   0.768  10.156 -0.9111  0.0578 -0.4127
 4932SOL    HW226256   3.110   0.851  10.215  0.7977  1.3925 -0.6009
 4933SOL     OW26257   1.431   3.671   4.378  0.5416  0.0998 -0.0919
 4933SOL    HW126258   1.501   3.607   4.366  0.8293  0.3700  0.1440
 4933SOL    HW226259   1.477   3.750   4.405  1.8245 -0.4581 -0.6426
 4934SOL     OW26260   3.631   3.814   4.056 -0.4004  0.2146 -0.4869
 4934SOL    HW126261   3.619   3.816   3.961 -0.2429  2.5458 -0.4525
 4934SOL    HW226262   3.722   3.842   4.055  0.3702 -2.1086  2.8738
 4935SOL     OW26263   3.240   0.863  16.283 -0.5967  0.0356  0.0153
 4935SOL    HW126264   3.250   0.843  16.376 -1.1843 -1.2855 -0.2052
 4935SOL    HW226265   3.259   0.783  16.234 -0.9355  0.5563 -0.9589
 4936SOL     OW26266   3.124   1.146   8.987  0.5929  0.1962 -0.0102
 4936SOL    HW126267   3.028   1.143   8.985  0.6449 -0.6083 -1.2039
 4936SOL    HW226268   3.138   1.059   9.023  0.3512 -0.8101 -2.3803
 4937SOL     OW26269   1.219   0.895   9.240 -0.1832  0.0176  0.3235
 4937SOL    HW126270   1.303   0.935   9.264  0.4673  0.1846 -2.2944
 4937SOL    HW226271   1.226   0.823   9.303 -0.7419 -0.7348 -0.4726
 4938SOL     OW26272   3.404   4.167  13.616  0.7846 -0.3339  0.4720
 4938SOL    HW126273   3.357   4.098  13.569  1.1695 -0.1956 -0.1168
 4938SOL    HW226274   3.327   4.222  13.626  0.8020 -0.5246  1.6630
 4939SOL     OW26275   0.014   3.773   8.873  1.0219  0.4839 -0.1150
 4939SOL    HW126276   0.030   3.863   8.844  1.5105  0.6267  0.5856
 4939SOL    HW226277   4.651   3.795   8.914  0.6550 -2.8408  0.9262
 4940SOL     OW26278   2.341   2.026   6.367 -0.0909 -0.0428  0.9857
 4940SOL    HW126279   2.433   2.054   6.373  0.1119 -1.2989  3.9761
 4940SOL    HW226280   2.324   1.995   6.456  0.3592 -0.2531  0.9974
 4941SOL     OW26281   2.196   1.781   2.777  0.3721  0.5806 -0.1212
 4941SOL    HW126282   2.122   1.726   2.751 -0.2617  1.6622 -0.6004
 4941SOL    HW226283   2.250   1.711   2.813  0.1105  0.8414  0.7884
 4942SOL     OW26284   1.773   4.056   7.961  0.5729  0.2405 -0.0909
 4942SOL    HW126285   1.853   4.104   7.981  1.0839 -1.2095  1.3138
 4942SOL    HW226286   1.786   4.000   8.037 -2.4089  0.7299  0.7753
 4943SOL     OW26287   3.231   1.922  10.259 -0.2941  0.0884  0.5170
 4943SOL    HW126288   3.197   1.929  10.169 -0.2014 -1.6042  0.3608
 4943SOL    HW226289   3.234   1.828  10.276  1.9190 -0.2433 -1.6655
 4944SOL     OW26290   4.686   0.464   6.287 -0.3207 -0.4768 -0.0779
 4944SOL    HW126291   4.673   0.447   6.194 -2.2178  1.2626 -0.1407
 4944SOL    HW226292   4.615   0.411   6.321 -0.5409  0.3150  0.6938
 4945SOL     OW26293   2.482   0.091   3.063 -0.0942  0.6862  0.3727
 4945SOL    HW126294   2.469   0.094   3.158  1.9489  0.4801  0.6540
 4945SOL    HW226295   2.392   0.075   3.035 -0.5968  0.7808  1.9411
 4946SOL     OW26296   3.882   4.652  12.270 -0.2754  0.1568  0.0777
 4946SOL    HW126297   3.903   4.641  12.177  0.0152 -2.7988  0.4740
 4946SOL    HW226298   3.903   4.569  12.314  2.7809  1.2689  0.7008
 4947SOL     OW26299   0.481   2.344   7.685  0.1290 -0.0052 -0.0649
 4947SOL    HW126300   0.521   2.269   7.640 -2.1113 -0.5451 -1.2099
 4947SOL    HW226301   0.551   2.371   7.743 -0.4061  2.8809 -0.7745
 4948SOL     OW26302   1.161   3.944   8.108 -0.0533  0.5616 -0.2562
 4948SOL    HW126303   1.197   4.018   8.155 -1.8735  1.6351 -0.5691
 4948SOL    HW226304   1.231   3.879   8.113  0.0214  0.6593 -0.0459
 4949SOL     OW26305   0.958   2.676  12.304  0.1336 -0.3968  0.1603
 4949SOL    HW126306   0.880   2.620  12.300 -0.1648 -0.2241  3.2224
 4949SOL    HW226307   0.913   2.758  12.283  1.9016  0.7927  1.0118
 4950SOL     OW26308   1.753   3.987   8.228  0.3790  0.4656  0.0169
 4950SOL    HW126309   1.737   4.041   8.306 -1.0752  0.2742 -0.1480
 4950SOL    HW226310   1.807   3.915   8.261 -0.5601 -1.1546 -1.9853
 4951SOL     OW26311   2.943   1.891   2.302  0.4920  0.0293 -0.4435
 4951SOL    HW126312   2.945   1.985   2.322 -0.5723  0.1152 -0.7216
 4951SOL    HW226313   2.984   1.855   2.381 -1.7380 -3.1907 -0.7527
 4952SOL     OW26314   3.792   2.293   5.332  0.2794 -0.3312  0.5118
 4952SOL    HW126315   3.817   2.226   5.268  0.7865 -0.4744  0.8634
 4952SOL    HW226316   3.799   2.244   5.414  1.3488  0.9277  1.1598
 4953SOL     OW26317   3.065   4.315   0.884  0.5058 -0.0594  0.1209
 4953SOL    HW126318   3.059   4.225   0.852 -0.1233  0.1280 -0.2834
 4953SOL    HW226319   3.072   4.364   0.803 -0.1271 -0.4506 -0.1690
 4954SOL     OW26320   1.401   0.124   7.529 -0.5482  0.4572 -0.6917
 4954SOL    HW126321   1.380   0.047   7.582  0.1030 -0.2340 -1.4260
 4954SOL    HW226322   1.483   0.093   7.490  0.5074 -0.2109  2.0803
 4955SOL     OW26323   4.663   1.773   7.913 -0.2009 -0.8475  0.6012
 4955SOL    HW126324   4.706   1.857   7.900 -1.4311 -0.2591  0.4003
 4955SOL    HW226325   4.622   1.755   7.828 -1.6741 -3.0193  1.7768
 4956SOL     OW26326   2.587   1.352  17.345  0.0048 -0.2327 -0.0355
 4956SOL    HW126327   2.553   1.352  17.256  2.8683 -0.0223 -1.1241
 4956SOL    HW226328   2.595   1.258  17.362  1.6718 -0.3325 -1.3823
 4957SOL     OW26329   3.898   1.457  13.622  0.3430  0.1042 -0.1035
 4957SOL    HW126330   3.970   1.502  13.579  1.1577  0.0047  1.1660
 4957SOL    HW226331   3.818   1.492  13.583 -1.2663 -0.5388  2.5602
 4958SOL     OW26332   3.315   4.268  16.771  0.1527 -0.2531 -0.0749
 4958SOL    HW126333   3.303   4.217  16.852  1.3789  1.7279  1.3698
 4958SOL    HW226334   3.396   4.225  16.744  1.8308  3.7101 -1.3417
 4959SOL     OW26335   2.097   1.851   4.745  0.0957 -0.2922 -0.3813
 4959SOL    HW126336   2.159   1.780   4.730 -0.6899 -1.0800  0.1109
 4959SOL    HW226337   2.015   1.819   4.707 -0.1780 -0.6732  0.5395
 4960SOL     OW26338   2.135   4.293   6.721 -0.4210 -0.1812 -0.8147
 4960SOL    HW126339   2.188   4.274   6.799  2.8754  0.7948 -2.8406
 4960SOL    HW226340   2.198   4.352   6.680  1.8249  0.7846  3.9981
 4961SOL     OW26341   4.059   2.428   8.342 -0.2756 -0.1695 -0.9524
 4961SOL    HW126342   4.098   2.504   8.386 -0.0968 -1.2090  0.6557
 4961SOL    HW226343   3.975   2.418   8.387  0.1666  0.7801  0.1040
 4962SOL     OW26344   2.364   4.095   2.236 -1.5354 -0.3269  0.4825
 4962SOL    HW126345   2.290   4.042   2.266 -1.6587  0.7253  2.0291
 4962SOL    HW226346   2.424   4.038   2.284  1.0133  0.9617 -1.1536
 4963SOL     OW26347   1.644   1.022   8.731 -0.0411 -0.4557  0.2027
 4963SOL    HW126348   1.623   1.055   8.818 -0.3636  0.8394 -0.3735
 4963SOL    HW226349   1.573   1.064   8.683  0.5125 -0.3275 -0.5277
 4964SOL     OW26350   4.440   2.108   4.689  0.0791  0.3945 -0.0992
 4964SOL    HW126351   4.498   2.180   4.666  0.1492 -0.3179 -2.1633
 4964SOL    HW226352   4.499   2.065   4.751 -1.2260  0.1911  1.0045
 4965SOL     OW26353   2.681   4.166   4.069  0.0339  0.8791  0.7531
 4965SOL    HW126354   2.751   4.187   4.131  0.5290 -0.5493  0.6964
 4965SOL    HW226355   2.711   4.078   4.046  0.3737  1.8362 -2.4450
 4966SOL     OW26356   1.901   2.709   2.930  0.1596 -0.4077  0.1237
 4966SOL    HW126357   1.896   2.772   2.858 -3.1767 -0.7557  0.0417
 4966SOL    HW226358   1.928   2.628   2.887  0.0525  0.3192 -1.2833
 4967SOL     OW26359   2.769   3.496  14.040  0.5333  0.0435  0.0381
 4967SOL    HW126360   2.769   3.587  14.011  3.0936  0.2798  0.8124
 4967SOL    HW226361   2.843   3.507  14.100 -0.2604 -1.5704  1.3232
 4968SOL     OW26362   0.796   0.267   2.955  0.2985  0.2099  0.0546
 4968SOL    HW126363   0.717   0.218   2.931  0.4587  0.9896 -2.0476
 4968SOL    HW226364   0.848   0.274   2.875  0.3503  0.2596  0.0928
 4969SOL     OW26365   3.669   0.776   4.397 -0.8286  0.4109 -0.1637
 4969SOL    HW126366   3.602   0.721   4.356  1.2185 -1.7056 -0.6803
 4969SOL    HW226367   3.624   0.853   4.432 -0.3776  1.4734 -1.9505
 4970SOL     OW26368   2.260   0.788  12.220 -0.5579 -0.1944 -0.6752
 4970SOL    HW126369   2.286   0.696  12.227 -0.7328 -0.2476 -0.7264
 4970SOL    HW226370   2.168   0.775  12.197 -1.0754  0.1561  1.2480
 4971SOL     OW26371   4.513   0.252   3.988  0.0475  0.5890 -0.2234
 4971SOL    HW126372   4.432   0.270   4.035  0.7776 -3.3099  2.5101
 4971SOL    HW226373   4.577   0.304   4.037  0.0741 -1.0570  1.4694
 4972SOL     OW26374   2.824   1.526  11.081 -0.6735 -0.0398 -0.2075
 4972SOL    HW126375   2.741   1.572  11.084 -0.0941  1.0001 -0.2865
 4972SOL    HW226376   2.856   1.562  10.999 -0.7691  2.4933  0.8798
 4973SOL     OW26377   1.615   0.127   3.433  0.5252  0.0996  0.0390
 4973SOL    HW126378   1.538   0.177   3.458  0.3573  1.0567 -2.3681
 4973SOL    HW226379   1.675   0.201   3.442  3.0386 -1.8653 -0.5454
 4974SOL     OW26380   3.506   4.126  14.900  0.5746  0.7398 -0.4285
 4974SOL    HW126381   3.492   4.220  14.885  1.7077  0.9778 -0.0062
 4974SOL    HW226382   3.587   4.120  14.950 -0.1391  0.2509  0.6683
 4975SOL     OW26383   3.650   3.823  16.212  0.4377 -0.3153 -0.5651
 4975SOL    HW126384   3.703   3.880  16.157  1.9635  0.8229  2.0288
 4975SOL    HW226385   3.560   3.847  16.192  1.0589  0.6281 -2.1902
 4976SOL     OW26386   2.308   1.581   6.200  0.6970  0.3630 -0.5768
 4976SOL    HW126387   2.271   1.666   6.173  1.2870  0.9908  0.6193
 4976SOL    HW226388   2.238   1.554   6.258 -0.1648 -1.3601 -2.4146
 4977SOL     OW26389   0.613   3.856   2.243  0.0960 -0.5212  0.2718
 4977SOL    HW126390   0.611   3.885   2.152 -1.8788 -0.0700  0.4479
 4977SOL    HW226391   0.690   3.901   2.276 -0.1501  0.1864 -0.1232
 4978SOL     OW26392   0.047   1.078   9.266 -0.2985 -0.1937  0.1509
 4978SOL    HW126393   0.038   1.087   9.361 -0.0381  0.5720  0.1054
 4978SOL    HW226394   4.700   1.010   9.263 -1.5733  1.0475  0.4869
 4979SOL     OW26395   1.975   2.911   3.268 -0.0022 -0.4350  0.1319
 4979SOL    HW126396   1.895   2.872   3.303 -1.0148  0.2818 -1.3535
 4979SOL    HW226397   2.033   2.835   3.265 -0.9879 -1.1328 -1.8686
 4980SOL     OW26398   2.658   3.323   4.024 -0.4219  0.0491 -0.2658
 4980SOL    HW126399   2.673   3.306   3.931  0.3038  0.4654 -0.2243
 4980SOL    HW226400   2.648   3.418   4.037 -0.8503  0.0079 -0.2862
 4981SOL     OW26401   0.966   1.395   9.289 -0.6236  0.5473 -0.2522
 4981SOL    HW126402   0.986   1.454   9.215  0.2873  0.9816  0.3296
 4981SOL    HW226403   0.936   1.451   9.360  0.6065 -0.9504  1.4535
 4982SOL     OW26404   3.941   1.755   6.488  0.2646  0.0012 -0.2652
 4982SOL    HW126405   3.987   1.837   6.506 -0.4054 -0.3381  2.9238
 4982SOL    HW226406   4.021   1.705   6.501  0.5275  0.4309 -0.2201
 4983SOL     OW26407   2.679   3.225   6.165  0.3778 -0.3995 -0.5489
 4983SOL    HW126408   2.590   3.231   6.131 -0.2301 -2.0587  0.7951
 4983SOL    HW226409   2.716   3.253   6.081  1.6249  1.8811  0.7526
 4984SOL     OW26410   3.337   3.344   6.555 -0.4635 -0.2386  0.1736
 4984SOL    HW126411   3.329   3.303   6.641 -0.2703  0.2529  0.4281
 4984SOL    HW226412   3.424   3.383   6.545 -0.9113  0.6835 -0.1100
 4985SOL     OW26413   0.981   0.452   0.895  0.8501 -0.1036  0.4062
 4985SOL    HW126414   1.037   0.374   0.898  2.0305  0.8207  2.6990
 4985SOL    HW226415   0.906   0.422   0.844  0.3940 -1.6199  1.9731
 4986SOL     OW26416   2.432   1.372   2.989  0.6131  0.1176  0.2343
 4986SOL    HW126417   2.414   1.353   3.081  0.9999 -0.5436  0.1731
 4986SOL    HW226418   2.411   1.283   2.960 -0.7420  0.4886  0.0354
 4987SOL     OW26419   1.105   1.119   7.283 -0.2599 -0.3981  0.5416
 4987SOL    HW126420   1.022   1.072   7.270  0.6127 -2.0554  0.8688
 4987SOL    HW226421   1.165   1.047   7.265  0.8747  0.7096 -0.0408
 4988SOL     OW26422   2.426   4.286   4.758 -0.1307  0.1916 -0.1044
 4988SOL    HW126423   2.468   4.369   4.781  2.7332 -1.4342  0.6078
 4988SOL    HW226424   2.462   4.290   4.669  1.2256 -0.4726  0.4110
 4989SOL     OW26425   0.076   2.681   1.358  0.3439 -0.0261 -0.1495
 4989SOL    HW126426   0.037   2.628   1.289 -0.9067  0.3418  0.2836
 4989SOL    HW226427   0.135   2.735   1.305  1.5282 -0.8619  0.2979
 4990SOL     OW26428   4.252   0.247   4.149 -0.2541 -0.8320  0.3424
 4990SOL    HW126429   4.187   0.277   4.085  1.4508  1.3763 -0.3576
 4990SOL    HW226430   4.247   0.304   4.226 -0.1750  1.7472 -1.5360
 4991SOL     OW26431   4.198   0.672  10.757  0.2887 -0.4513  0.1774
 4991SOL    HW126432   4.159   0.586  10.741  0.2122 -0.2104 -0.9022
 4991SOL    HW226433   4.270   0.665  10.695 -0.8523 -1.5238 -1.0228
 4992SOL     OW26434   2.426   3.112   7.240 -0.3037 -0.4828  0.0549
 4992SOL    HW126435   2.342   3.151   7.214  0.3542  0.7777 -0.2071
 4992SOL    HW226436   2.488   3.157   7.181  0.0878  0.6250  1.3020
 4993SOL     OW26437   0.941   2.692   6.890 -0.1172 -0.5307 -0.1972
 4993SOL    HW126438   0.890   2.611   6.893 -0.5420 -0.1977  1.9210
 4993SOL    HW226439   0.878   2.752   6.851 -0.2621  0.3299  1.3284
 4994SOL     OW26440   3.309   4.344   6.898 -0.6790 -0.9353  0.6287
 4994SOL    HW126441   3.388   4.380   6.937 -0.3804 -0.3631 -0.5120
 4994SOL    HW226442   3.328   4.331   6.805 -0.8765 -1.5792  0.6763
 4995SOL     OW26443   4.081   1.647   6.954 -0.3274  0.1375 -0.1612
 4995SOL    HW126444   4.170   1.624   6.980 -0.7324 -0.9052  0.3142
 4995SOL    HW226445   4.053   1.562   6.919 -0.4354 -0.3941  1.1880
 4996SOL     OW26446   3.443   4.120   4.818 -0.4236 -0.5589 -0.6426
 4996SOL    HW126447   3.486   4.195   4.859  0.5126 -0.7677 -1.2425
 4996SOL    HW226448   3.476   4.126   4.729 -1.6347  0.1394 -1.0409
 4997SOL     OW26449   3.732   2.141   2.905  0.2337  0.5566 -0.1581
 4997SOL    HW126450   3.744   2.233   2.932 -1.2673  1.1845 -1.6439
 4997SOL    HW226451   3.807   2.125   2.848 -0.6509 -0.6018 -0.9675
 4998SOL     OW26452   1.958   2.269  16.032 -0.4988  0.1925 -0.1394
 4998SOL    HW126453   1.881   2.300  15.985  0.5543  1.1885 -1.1976
 4998SOL    HW226454   1.925   2.184  16.060 -0.5028 -0.1442 -1.1971
 4999SOL     OW26455   3.237   1.328   2.671  0.3291  0.2736 -0.0934
 4999SOL    HW126456   3.326   1.333   2.636  0.6923  0.3108  0.8547
 4999SOL    HW226457   3.193   1.263   2.616 -0.8629 -0.1416  1.3535
 5000SOL     OW26458   1.131   1.009   5.750  0.2006  0.0399  0.3711
 5000SOL    HW126459   1.111   1.062   5.672 -0.3171  0.2947  0.6807
 5000SOL    HW226460   1.065   0.941   5.742  0.1532  0.2563 -1.1113
 5001SOL     OW26461   2.469   1.397   3.438 -0.2843 -0.7237  0.4688
 5001SOL    HW126462   2.517   1.351   3.506  2.3008  0.4968 -0.5560
 5001SOL    HW226463   2.468   1.483   3.478  2.7577 -0.4368 -0.1270
 5002SOL     OW26464   0.340   1.863   7.000 -0.1570  0.0648 -0.0141
 5002SOL    HW126465   0.357   1.843   6.908  0.8785  0.9335 -0.0152
 5002SOL    HW226466   0.379   1.780   7.026  1.1609  1.2043  1.5809
 5003SOL     OW26467   1.335   2.627   2.638 -0.7968 -0.1608 -0.0256
 5003SOL    HW126468   1.292   2.682   2.572 -2.8864 -1.5545  0.1552
 5003SOL    HW226469   1.383   2.576   2.573  1.5806  1.2840  0.5870
 5004SOL     OW26470   3.601   1.622  11.945  0.0296 -0.0013 -0.0990
 5004SOL    HW126471   3.647   1.545  11.912 -1.0502  0.2920 -2.3049
 5004SOL    HW226472   3.547   1.649  11.871 -0.9345 -1.8649 -0.0883
 5005SOL     OW26473   1.234   0.646   4.415  0.3135 -0.1235  0.1249
 5005SOL    HW126474   1.225   0.562   4.369 -2.0468  0.2941 -0.1584
 5005SOL    HW226475   1.258   0.714   4.353  0.4316 -0.7724 -0.5349
 5006SOL     OW26476   0.230   1.686   3.306  0.8733  1.0794 -0.1382
 5006SOL    HW126477   0.203   1.601   3.340  0.8130  0.5298 -1.5598
 5006SOL    HW226478   0.228   1.659   3.214  1.1801 -0.7858  0.4180
 5007SOL     OW26479   1.248   2.324   8.941  0.1871 -0.0697  0.1076
 5007SOL    HW126480   1.213   2.283   9.020 -0.2223 -0.3444 -0.2159
 5007SOL    HW226481   1.317   2.368   8.990  0.1689  1.5759 -1.3626
 5008SOL     OW26482   4.084   1.078   3.645  0.0516 -0.4218 -1.2693
 5008SOL    HW126483   4.053   1.072   3.736  0.7309 -0.9592 -1.0818
 5008SOL    HW226484   4.112   1.169   3.639  2.2743 -1.0322  0.2204
 5009SOL     OW26485   3.164   3.346   4.201 -0.2634 -0.2670  0.0322
 5009SOL    HW126486   3.257   3.325   4.194 -0.2970  0.1953 -1.7490
 5009SOL    HW226487   3.136   3.373   4.113  1.8402  0.7476 -0.3401
 5010SOL     OW26488   1.217   2.674   4.205  0.1343  0.8027 -0.2016
 5010SOL    HW126489   1.259   2.752   4.240 -1.9537  1.6683  0.3216
 5010SOL    HW226490   1.292   2.635   4.160  0.5320 -2.6989  3.5040
 5011SOL     OW26491   3.403   3.287   2.814  0.0461  0.2020  0.6986
 5011SOL    HW126492   3.398   3.368   2.865 -1.1511  1.3137 -1.1518
 5011SOL    HW226493   3.381   3.220   2.879  0.4865 -0.9286 -0.3141
 5012SOL     OW26494   4.352   1.720  12.813  0.1033  0.5558  0.1676
 5012SOL    HW126495   4.275   1.775  12.800 -0.4951 -0.7408 -1.8753
 5012SOL    HW226496   4.312   1.652  12.868  0.2859  0.1725 -0.1698
 5013SOL     OW26497   0.466   2.270  10.734  0.0945  0.1435  0.1410
 5013SOL    HW126498   0.477   2.331  10.808 -1.7199 -0.5992  1.0262
 5013SOL    HW226499   0.535   2.312  10.683  2.3101 -0.5517  2.5387
 5014SOL     OW26500   4.028   3.869   2.174  0.4059  0.4692  0.3054
 5014SOL    HW126501   4.051   3.929   2.245  2.9797 -1.5367  1.1682
 5014SOL    HW226502   4.023   3.927   2.098 -0.2388  0.0873  0.0587
 5015SOL     OW26503   2.436   0.715   2.190  0.1833  0.1190  0.2074
 5015SOL    HW126504   2.504   0.770   2.228 -3.0555  2.7229  2.2376
 5015SOL    HW226505   2.486   0.643   2.151  1.1608  0.3274  1.0747
 5016SOL     OW26506   0.139   0.124   1.808 -0.0557 -0.0371  0.0066
 5016SOL    HW126507   0.107   0.167   1.729  0.8686 -0.0493 -0.3772
 5016SOL    HW226508   0.234   0.116   1.797 -0.1417  1.4148 -1.8551
 5017SOL     OW26509   0.604   4.667  12.431 -0.3293 -0.8401  0.0074
 5017SOL    HW126510   0.620   0.040  12.448 -0.9558 -0.6190 -0.5984
 5017SOL    HW226511   0.511   4.656  12.412 -0.4912 -0.7558  0.7524
 5018SOL     OW26512   3.747   1.988  12.662  0.1531 -0.0856  0.5625
 5018SOL    HW126513   3.806   1.973  12.589 -0.2800  0.4246  0.1056
 5018SOL    HW226514   3.814   2.012  12.727  0.7832 -0.2938 -0.0181
 5019SOL     OW26515   1.729   0.134   5.997  0.7978 -0.2362  0.1270
 5019SOL    HW126516   1.824   0.124   5.993  0.7916 -0.1958 -0.0974
 5019SOL    HW226517   1.714   0.215   5.948  2.3565  0.5330  0.8986
 5020SOL     OW26518   0.422   1.631  15.486  0.0722  0.0429  0.0465
 5020SOL    HW126519   0.423   1.662  15.395 -2.4890 -0.0192 -0.0036
 5020SOL    HW226520   0.374   1.700  15.533 -1.2880 -0.6833 -0.2884
 5021SOL     OW26521   2.662   3.549   5.067 -0.4517  0.2624 -0.5844
 5021SOL    HW126522   2.608   3.470   5.072  0.7761 -0.4525  1.3654
 5021SOL    HW226523   2.646   3.592   5.151 -0.0698  1.1534 -0.9731
 5022SOL     OW26524   4.692   0.193   4.279 -0.5162  0.1668  0.2504
 5022SOL    HW126525   0.024   0.261   4.237 -0.7024  0.9220  1.2407
 5022SOL    HW226526   4.606   0.233   4.290 -0.2867  0.5336  0.7486
 5023SOL     OW26527   2.284   2.754   1.827 -0.1402 -0.8050  0.1423
 5023SOL    HW126528   2.220   2.685   1.810  1.5746 -2.3257 -0.0942
 5023SOL    HW226529   2.276   2.762   1.922 -3.5183 -0.3736 -0.1841
 5024SOL     OW26530   2.450   1.003  10.871 -0.0460 -0.2299  0.0846
 5024SOL    HW126531   2.456   1.055  10.951 -3.9348 -1.2959  1.0423
 5024SOL    HW226532   2.392   1.053  10.813 -0.6666  0.1041  0.9968
 5025SOL     OW26533   0.074   2.960   3.406  0.3978  0.2385 -0.2891
 5025SOL    HW126534   0.129   2.969   3.328  1.6238 -1.2196  0.3901
 5025SOL    HW226535   0.119   2.888   3.451  2.2643  0.5237 -1.7194
 5026SOL     OW26536   1.592   0.774  11.619  0.2727  0.0218  0.4298
 5026SOL    HW126537   1.664   0.772  11.556 -0.0861  0.4257  0.0089
 5026SOL    HW226538   1.647   0.762  11.697  1.9786  1.6047 -0.5481
 5027SOL     OW26539   2.498   3.040  17.299 -0.2790  0.1281  0.0578
 5027SOL    HW126540   2.485   3.119  17.351  0.2766  0.4640 -0.3015
 5027SOL    HW226541   2.496   3.080  17.212  0.5931  1.6339  0.7445
 5028SOL     OW26542   1.233   1.630   3.665 -0.2482 -0.1620  0.1559
 5028SOL    HW126543   1.308   1.645   3.607  0.9380 -1.2352  1.4312
 5028SOL    HW226544   1.174   1.575   3.613 -0.5134  0.6106 -0.3605
 5029SOL     OW26545   2.774   0.487  11.890 -0.4623  0.5091 -0.2828
 5029SOL    HW126546   2.844   0.485  11.956 -0.4059  1.2428 -0.3218
 5029SOL    HW226547   2.707   0.528  11.944  2.3630  0.4309  3.2839
 5030SOL     OW26548   2.194   4.267   9.799  0.0785 -0.2224 -0.2914
 5030SOL    HW126549   2.254   4.324   9.750 -0.9996  0.3247 -0.9640
 5030SOL    HW226550   2.155   4.216   9.728  0.3823  1.3487 -1.5970
 5031SOL     OW26551   3.277   0.843   3.804 -0.2665  0.2130  0.0079
 5031SOL    HW126552   3.243   0.775   3.862  0.7954  0.3229  0.7597
 5031SOL    HW226553   3.281   0.922   3.858 -3.5238  0.8650 -0.6998
 5032SOL     OW26554   3.668   2.883   0.511  0.2463  1.2262 -0.0276
 5032SOL    HW126555   3.693   2.869   0.602 -1.3505  0.8963  0.3565
 5032SOL    HW226556   3.756   2.861   0.480  0.2744  2.2277 -0.6720
 5033SOL     OW26557   0.202   0.864   7.655  0.3372 -0.0473 -0.0004
 5033SOL    HW126558   0.290   0.877   7.618  1.1948 -2.2448  1.2710
 5033SOL    HW226559   0.219   0.834   7.744 -0.9325  0.9380  0.5704
 5034SOL     OW26560   2.994   2.284   2.886  0.1865 -0.3719  0.0888
 5034SOL    HW126561   2.935   2.212   2.866  1.5216 -1.4005 -0.1579
 5034SOL    HW226562   3.020   2.307   2.797  0.2168  0.8186  0.4117
 5035SOL     OW26563   3.235   2.074  12.857  0.0217 -0.2835 -0.3737
 5035SOL    HW126564   3.326   2.101  12.871  0.3611 -0.5346 -2.0519
 5035SOL    HW226565   3.204   2.142  12.797 -2.0100 -0.0188  0.9803
 5036SOL     OW26566   1.901   1.940  12.054  0.4589  0.0843 -0.3781
 5036SOL    HW126567   1.962   1.966  11.984  0.2418  0.4267 -0.4423
 5036SOL    HW226568   1.844   2.017  12.049  1.5470  0.8862 -0.7994
 5037SOL     OW26569   1.570   4.442  10.133 -0.0922 -0.1203 -0.3903
 5037SOL    HW126570   1.601   4.482  10.052  0.7618  0.5012  0.2449
 5037SOL    HW226571   1.540   4.514  10.187  0.6475  0.6992 -1.0616
 5038SOL     OW26572   0.582   3.298   3.291  0.1245  0.1339 -0.6521
 5038SOL    HW126573   0.514   3.324   3.353 -1.2361 -0.6288 -1.8348
 5038SOL    HW226574   0.536   3.303   3.207 -0.1710  2.4733 -0.3611
 5039SOL     OW26575   2.408   2.890  13.814  0.2276  0.2340 -0.0325
 5039SOL    HW126576   2.362   2.807  13.825  0.4487  0.0997 -0.1291
 5039SOL    HW226577   2.348   2.945  13.865  0.8679  0.6186  0.3102
 5040SOL     OW26578   1.071   1.150   6.450 -0.0317  0.1173  0.2289
 5040SOL    HW126579   1.041   1.222   6.395  1.2796  1.2597  0.9972
 5040SOL    HW226580   1.052   1.073   6.395  1.1646 -0.2374  0.3110
 5041SOL     OW26581   1.276   3.760   5.571  0.3345  0.5335 -0.2836
 5041SOL    HW126582   1.269   3.819   5.496 -0.1598  0.9047  0.0550
 5041SOL    HW226583   1.215   3.800   5.634 -0.4056 -2.8023  1.1372
 5042SOL     OW26584   4.426   2.866  11.259  0.3848  0.4218  0.0742
 5042SOL    HW126585   4.426   2.960  11.275 -0.4173  0.7594 -1.9400
 5042SOL    HW226586   4.515   2.837  11.278 -0.7338 -3.0453  0.0854
 5043SOL     OW26587   3.804   1.325   5.731 -0.4426  0.2000  0.0011
 5043SOL    HW126588   3.856   1.359   5.804 -0.5753 -2.1023  1.1721
 5043SOL    HW226589   3.746   1.255   5.758  1.8683 -1.7732 -0.1364
 5044SOL     OW26590   3.348   3.335   8.484 -0.7679 -0.0935  0.1610
 5044SOL    HW126591   3.257   3.329   8.457 -0.6913  0.4645 -0.2185
 5044SOL    HW226592   3.386   3.252   8.452 -1.6887 -0.2242 -0.5877
 5045SOL     OW26593   4.251   3.351   8.243  0.3867 -0.0496  0.0185
 5045SOL    HW126594   4.197   3.279   8.275  0.1029  0.7154  1.2461
 5045SOL    HW226595   4.181   3.415   8.229  0.7935  0.4892  0.4583
 5046SOL     OW26596   1.040   4.392   1.761  0.0516  0.1731 -0.2132
 5046SOL    HW126597   1.061   4.477   1.723  3.0334 -0.5024 -0.1087
 5046SOL    HW226598   0.963   4.425   1.806 -1.5613 -1.6921 -1.6250
 5047SOL     OW26599   2.771   0.600   3.366  0.2904  0.0954  0.6094
 5047SOL    HW126600   2.734   0.526   3.317  2.3136 -0.4029 -0.1898
 5047SOL    HW226601   2.841   0.621   3.304 -0.4430 -0.9145 -0.5763
 5048SOL     OW26602   0.265   3.504   2.556  0.0891  0.0012  0.3869
 5048SOL    HW126603   0.232   3.515   2.646  2.1725 -1.2841  1.2972
 5048SOL    HW226604   0.184   3.510   2.505  0.8545 -0.0064 -0.8277
 5049SOL     OW26605   2.449   2.790   4.906  0.5423  0.9250 -0.2483
 5049SOL    HW126606   2.474   2.707   4.866 -2.8749 -0.2636  0.1063
 5049SOL    HW226607   2.354   2.781   4.914  0.6388 -0.4270 -0.6820
 5050SOL     OW26608   3.132   1.021   5.850 -0.4774  0.4433  0.0756
 5050SOL    HW126609   3.185   0.957   5.897 -0.2691  1.4622  1.2176
 5050SOL    HW226610   3.046   0.981   5.832 -0.0687 -1.2934  1.9417
 5051SOL     OW26611   2.814   3.294  11.448  0.4608  1.1266  0.1004
 5051SOL    HW126612   2.817   3.336  11.362  0.1224 -2.0450 -1.4584
 5051SOL    HW226613   2.759   3.221  11.418  0.2695  0.7692  1.3310
 5052SOL     OW26614   2.194   0.492   7.883 -0.2815  0.1808  0.3056
 5052SOL    HW126615   2.289   0.492   7.874 -0.3001  0.9255  0.1403
 5052SOL    HW226616   2.191   0.558   7.952  1.6874 -1.3745  1.8898
 5053SOL     OW26617   0.324   1.690  12.562 -0.4299  0.1318 -0.6296
 5053SOL    HW126618   0.262   1.618  12.572 -0.2495  0.0064 -0.4072
 5053SOL    HW226619   0.350   1.673  12.472 -1.0184 -2.3927 -0.3205
 5054SOL     OW26620   3.509   2.696  14.996  0.5154 -0.0537 -0.1430
 5054SOL    HW126621   3.438   2.755  14.972  1.2483  0.2922 -1.4594
 5054SOL    HW226622   3.533   2.727  15.083 -1.7677  0.6863  0.2295
 5055SOL     OW26623   0.517   3.280   3.912  0.3228  0.2202 -0.5171
 5055SOL    HW126624   0.466   3.204   3.884  0.7690 -0.3743  0.2897
 5055SOL    HW226625   0.524   3.319   3.825  0.0897 -1.3247 -1.2238
 5056SOL     OW26626   0.757   1.492   3.023 -0.1208  0.0092  0.3786
 5056SOL    HW126627   0.676   1.536   3.048 -0.9513 -0.7267 -0.9909
 5056SOL    HW226628   0.760   1.516   2.930  0.1592  2.6707  1.0641
 5057SOL     OW26629   1.388   3.869   8.798 -0.2302 -0.8741 -0.0565
 5057SOL    HW126630   1.351   3.931   8.735 -0.4556  0.2329  1.1721
 5057SOL    HW226631   1.315   3.809   8.813 -1.5018  0.5954 -0.4117
 5058SOL     OW26632   4.518   4.162   7.278 -0.6163 -0.1614 -0.2820
 5058SOL    HW126633   4.552   4.132   7.194 -0.4856 -0.9462  0.0555
 5058SOL    HW226634   4.575   4.233   7.307 -1.0999 -0.3771  1.2238
 5059SOL     OW26635   1.839   1.744   0.512 -0.3835 -0.4361 -0.3131
 5059SOL    HW126636   1.892   1.815   0.475 -2.7870  1.2195 -0.5924
 5059SOL    HW226637   1.902   1.676   0.536  1.1078  1.4574  1.0982
 5060SOL     OW26638   1.017   3.242   7.285  0.3325  0.2275  0.2041
 5060SOL    HW126639   0.941   3.285   7.323  0.6268 -0.7085  1.8647
 5060SOL    HW226640   0.996   3.284   7.202 -0.0284  2.2251  1.3064
 5061SOL     OW26641   1.788   3.975   9.078 -0.6587  0.0634 -0.2052
 5061SOL    HW126642   1.700   4.013   9.076 -0.6756  0.0599  0.7995
 5061SOL    HW226643   1.769   3.885   9.052 -1.2965  1.2439 -3.8926
 5062SOL     OW26644   0.908   3.415   5.847 -1.0073  0.1724  0.1269
 5062SOL    HW126645   0.966   3.359   5.899 -0.2115  0.2623 -0.6632
 5062SOL    HW226646   0.938   3.407   5.757  0.2795  4.2062  0.2148
 5063SOL     OW26647   1.767   4.324  10.329  0.8101  0.2959 -1.0907
 5063SOL    HW126648   1.682   4.367  10.326  0.6614  0.1032  0.5136
 5063SOL    HW226649   1.758   4.260  10.258  2.6062  1.0297 -1.9998
 5064SOL     OW26650   0.128   1.453   2.824 -0.1332  0.1789 -0.7385
 5064SOL    HW126651   0.165   1.504   2.752  0.2331 -0.5833 -1.0968
 5064SOL    HW226652   0.168   1.366   2.820 -0.3687  0.0532 -0.3143
 5065SOL     OW26653   0.393   3.657   3.326  0.0047  1.0375 -0.2115
 5065SOL    HW126654   0.389   3.661   3.230 -0.2653  3.2532 -0.1047
 5065SOL    HW226655   0.299   3.667   3.341 -0.2586  1.9084 -2.3735
 5066SOL     OW26656   2.392   4.229   3.795 -0.6493  0.0491 -0.0092
 5066SOL    HW126657   2.365   4.222   3.887  1.0083  1.5641  0.5883
 5066SOL    HW226658   2.313   4.274   3.763 -0.2987  0.3687 -0.4239
 5067SOL     OW26659   4.275   3.888  16.553  0.5569 -0.2348  0.4872
 5067SOL    HW126660   4.234   3.929  16.477  1.2221  0.4994  0.5267
 5067SOL    HW226661   4.295   3.800  16.520 -0.7378 -0.9564  1.6101
 5068SOL     OW26662   1.439   1.470   8.540  0.6382 -0.6897 -0.3666
 5068SOL    HW126663   1.462   1.435   8.626 -0.6787  3.2228  1.5682
 5068SOL    HW226664   1.522   1.513   8.522  0.2542  1.4890  3.0345
 5069SOL     OW26665   3.396   0.940  15.969  0.0378 -0.7877  0.2810
 5069SOL    HW126666   3.398   1.021  16.019  0.1513 -0.9774  0.5871
 5069SOL    HW226667   3.449   0.886  16.028 -0.7282 -3.4194 -1.3996
 5070SOL     OW26668   4.007   3.481   2.843 -0.3533  0.1901 -1.1650
 5070SOL    HW126669   3.939   3.418   2.819 -0.3297  0.3970 -1.7782
 5070SOL    HW226670   3.967   3.521   2.921 -0.0198 -1.2157 -0.2831
 5071SOL     OW26671   0.924   2.898   3.193  0.7493  0.3931 -0.0059
 5071SOL    HW126672   0.911   2.937   3.107  3.0171 -0.3652 -0.6910
 5071SOL    HW226673   0.847   2.930   3.240  1.1513  0.7721  0.3928
 5072SOL     OW26674   1.977   1.228  14.319 -0.4184 -0.1660 -0.0423
 5072SOL    HW126675   2.067   1.259  14.315 -1.4491  2.6922 -1.2445
 5072SOL    HW226676   1.945   1.255  14.232  3.1327  1.1626 -0.9256
 5073SOL     OW26677   2.723   2.551   1.375  0.6401  0.5280  0.2787
 5073SOL    HW126678   2.661   2.618   1.348 -1.2310 -1.5459 -0.4972
 5073SOL    HW226679   2.695   2.534   1.465 -1.1865 -3.5629 -1.0966
 5074SOL     OW26680   1.381   4.504   5.695 -0.2263  0.1617 -0.0728
 5074SOL    HW126681   1.367   4.430   5.636 -1.8875  0.5173 -0.1177
 5074SOL    HW226682   1.476   4.514   5.696 -0.0843 -1.4820  2.7795
 5075SOL     OW26683   1.987   3.339   4.991  0.5108  0.0473 -0.5722
 5075SOL    HW126684   1.926   3.266   5.001  2.2819 -1.3822 -0.0945
 5075SOL    HW226685   2.067   3.292   5.014  0.7438 -0.0053 -1.4994
 5076SOL     OW26686   0.146   1.819   2.919  0.1701 -0.2646 -0.0131
 5076SOL    HW126687   0.233   1.786   2.941  0.4733 -0.1639 -1.0899
 5076SOL    HW226688   0.111   1.847   3.004  0.9494 -1.3529  0.6728
 5077SOL     OW26689   4.051   3.151   4.718 -0.5101 -0.5080  0.1317
 5077SOL    HW126690   4.084   3.194   4.796  2.1490  0.4364 -1.5042
 5077SOL    HW226691   4.062   3.063   4.753  0.1966  0.5840  2.6049
 5078SOL     OW26692   0.012   2.668   7.358  0.6586  0.1681  0.1306
 5078SOL    HW126693   4.701   2.750   7.397  0.8449  0.5034 -0.4181
 5078SOL    HW226694   0.107   2.682   7.363  0.3781  2.2762 -0.3441
 5079SOL     OW26695   1.658   1.219  14.147  0.3517 -0.6478  0.2930
 5079SOL    HW126696   1.751   1.218  14.125  0.0420 -0.0124 -1.0149
 5079SOL    HW226697   1.620   1.152  14.089 -1.3529  1.2506 -0.7671
 5080SOL     OW26698   0.331   4.019   3.023 -0.4246  0.4739 -0.0561
 5080SOL    HW126699   0.351   4.112   3.028 -0.9299  0.5344  1.0575
 5080SOL    HW226700   0.379   4.003   2.942  1.2533  0.8061  0.8781
 5081SOL     OW26701   2.449   4.447  11.855  0.4005  0.1257  0.7253
 5081SOL    HW126702   2.443   4.359  11.893  0.9257 -0.8403 -1.4636
 5081SOL    HW226703   2.542   4.458  11.835  0.2429  1.0320  0.4864
 5082SOL     OW26704   4.324   0.552   0.458 -0.0711 -0.4001 -0.8119
 5082SOL    HW126705   4.261   0.605   0.507 -0.8750 -0.3151 -1.9410
 5082SOL    HW226706   4.311   0.569   0.365 -0.6090  0.0178 -0.6612
 5083SOL     OW26707   3.677   0.143   8.542  0.0916 -0.2630 -0.3018
 5083SOL    HW126708   3.759   0.099   8.519  0.0067 -0.7387  0.3055
 5083SOL    HW226709   3.632   0.113   8.464 -1.6182  0.2433  0.4953
 5084SOL     OW26710   2.458   2.854   1.635 -0.3835  0.1859 -0.6050
 5084SOL    HW126711   2.454   2.771   1.588  1.1799  0.0797 -0.5489
 5084SOL    HW226712   2.406   2.831   1.711  1.9557 -0.2961  0.8527
 5085SOL     OW26713   2.636   1.773  10.099  0.1650 -0.1490  0.1863
 5085SOL    HW126714   2.674   1.689  10.070  0.4605  0.6079 -1.6211
 5085SOL    HW226715   2.558   1.753  10.151 -0.1093  0.2219 -0.0835
 5086SOL     OW26716   3.645   4.215   6.623 -0.2186  0.0567 -0.9052
 5086SOL    HW126717   3.611   4.165   6.697  1.4994  0.5861  0.2363
 5086SOL    HW226718   3.583   4.286   6.612  0.0994 -0.0729 -3.4391
 5087SOL     OW26719   1.579   0.475  15.587  0.0775 -0.2009  0.1823
 5087SOL    HW126720   1.569   0.496  15.494  1.9593  0.8869  0.2426
 5087SOL    HW226721   1.506   0.416  15.608 -0.6315  0.8362  0.6138
 5088SOL     OW26722   2.714   3.114   5.125  0.7956  0.5754 -0.6109
 5088SOL    HW126723   2.689   3.085   5.038  0.3755  0.1415 -0.3418
 5088SOL    HW226724   2.755   3.200   5.110 -1.3851  1.5362 -1.0625
 5089SOL     OW26725   0.603   4.503   6.794  0.3614  0.0830 -0.5447
 5089SOL    HW126726   0.633   4.592   6.811 -0.3682  0.3574 -0.6824
 5089SOL    HW226727   0.558   4.512   6.710 -0.0638 -0.0853 -0.3348
 5090SOL     OW26728   0.477   1.540  11.665  0.0443  0.6348 -0.1988
 5090SOL    HW126729   0.570   1.519  11.669 -0.3738 -1.0551  0.9359
 5090SOL    HW226730   0.438   1.452  11.662  0.2370  0.5364  0.1674
 5091SOL     OW26731   0.010   0.671   4.584 -0.1387 -0.5747  0.0142
 5091SOL    HW126732   0.040   0.594   4.536 -0.2014  0.2888 -1.3887
 5091SOL    HW226733   0.051   0.657   4.670  0.3748 -0.4073 -0.2051
 5092SOL     OW26734   1.804   1.125   7.574  0.1348 -0.3226 -0.4560
 5092SOL    HW126735   1.807   1.197   7.638 -0.9442 -0.7292  0.0468
 5092SOL    HW226736   1.827   1.173   7.495  0.3574 -0.8189 -0.6936
 5093SOL     OW26737   0.776   3.456   3.172  0.1380  0.0053  0.2574
 5093SOL    HW126738   0.744   3.539   3.206 -0.5708 -1.3166  2.8167
 5093SOL    HW226739   0.713   3.391   3.203  2.5811 -1.4523  2.1009
 5094SOL     OW26740   0.450   0.966   3.175  0.1846 -0.1652 -0.3016
 5094SOL    HW126741   0.367   0.922   3.194  0.3546 -0.2845  0.1433
 5094SOL    HW226742   0.510   0.909   3.222  2.0690  1.2825 -0.9545
 5095SOL     OW26743   1.258   3.666   6.607  0.6811  0.4479 -0.1889
 5095SOL    HW126744   1.224   3.607   6.539  1.1146  0.3866 -0.3524
 5095SOL    HW226745   1.244   3.607   6.682  0.4831  2.7133  1.5579
 5096SOL     OW26746   4.270   1.512  13.353 -0.2290  0.4125 -0.0444
 5096SOL    HW126747   4.317   1.468  13.423 -1.2772 -0.5435  0.0551
 5096SOL    HW226748   4.186   1.537  13.392  0.5233 -0.4276  2.0463
 5097SOL     OW26749   1.995   3.535   3.628 -0.1636  0.4986 -0.2185
 5097SOL    HW126750   1.975   3.441   3.630  0.4843  0.2732 -3.6856
 5097SOL    HW226751   2.083   3.535   3.666  0.0246  0.9521 -0.6460
 5098SOL     OW26752   0.733   2.497  10.282 -0.0011 -0.2307  0.0080
 5098SOL    HW126753   0.668   2.495  10.212 -0.9911 -1.3199  0.9563
 5098SOL    HW226754   0.769   2.408  10.274 -2.1675 -1.2206  1.2488
 5099SOL     OW26755   0.697   0.611  15.471 -0.0714  0.0780  0.4024
 5099SOL    HW126756   0.680   0.647  15.384  0.7369 -2.1455 -0.6629
 5099SOL    HW226757   0.751   0.683  15.505 -0.8958  0.2053  1.4410
 5100SOL     OW26758   1.300   4.363  14.005 -0.0742 -0.1121  0.5123
 5100SOL    HW126759   1.207   4.366  14.029  0.1021  0.1201  1.1726
 5100SOL    HW226760   1.323   4.368  14.098 -0.9116 -0.3342  0.7334
 5101SOL     OW26761   0.860   2.442   3.231 -0.5974 -0.1011 -0.0960
 5101SOL    HW126762   0.867   2.362   3.179 -0.7609 -1.3470  1.7887
 5101SOL    HW226763   0.807   2.406   3.302 -0.5235 -0.0958 -0.0375
 5102SOL     OW26764   0.023   0.722   0.683 -0.0946  0.0695  0.1893
 5102SOL    HW126765   0.045   0.800   0.733  2.3016 -0.3425 -0.2115
 5102SOL    HW226766   0.025   0.750   0.592 -0.4167 -2.3646 -0.5831
 5103SOL     OW26767   4.082   4.174   5.852 -0.1481  0.2442 -0.2946
 5103SOL    HW126768   4.102   4.176   5.759  0.0255 -2.8509 -0.3158
 5103SOL    HW226769   4.155   4.122   5.884 -0.3209 -0.7764 -1.5619
 5104SOL     OW26770   2.375   3.312  13.808  0.4843 -0.2413 -0.9365
 5104SOL    HW126771   2.400   3.323  13.716  2.5038 -1.2957 -0.5121
 5104SOL    HW226772   2.460   3.300  13.850 -0.0999 -2.6019 -0.3993
 5105SOL     OW26773   2.293   4.510   8.719  0.6129 -0.3500 -0.6009
 5105SOL    HW126774   2.335   4.554   8.793  1.5578 -0.1854 -1.2400
 5105SOL    HW226775   2.343   4.429   8.708  0.5148 -0.5938  0.7037
 5106SOL     OW26776   4.633   3.099   8.125  0.5573 -0.4491  0.1584
 5106SOL    HW126777   4.656   3.065   8.211 -0.3135 -0.6049  0.3261
 5106SOL    HW226778   4.655   3.191   8.133  1.2332 -0.6089  0.1275
 5107SOL     OW26779   4.464   4.394   7.815 -0.3812  0.4387  0.0797
 5107SOL    HW126780   4.549   4.428   7.790 -1.3772  2.8610 -0.0534
 5107SOL    HW226781   4.480   4.299   7.817 -1.7253  0.2094  0.1454
 5108SOL     OW26782   3.103   1.146   4.463  0.4675  0.9997  0.6181
 5108SOL    HW126783   3.033   1.189   4.512 -1.3930 -2.0918  0.6823
 5108SOL    HW226784   3.067   1.149   4.374  0.4311 -0.5082  0.5740
 5109SOL     OW26785   3.589   2.151   5.745 -0.4353 -0.5369 -0.1242
 5109SOL    HW126786   3.561   2.221   5.806 -1.1859 -0.2201 -0.8336
 5109SOL    HW226787   3.541   2.078   5.784  0.8594 -1.1395  0.3350
 5110SOL     OW26788   1.166   1.889   0.101  0.0854  0.1230  0.1644
 5110SOL    HW126789   1.215   1.819   0.144  0.1164 -0.5739 -0.9826
 5110SOL    HW226790   1.103   1.847   0.043  1.0748 -0.2980 -0.6088
 5111SOL     OW26791   0.814   0.619   4.918  0.2378  0.0893  0.0293
 5111SOL    HW126792   0.749   0.637   4.986  1.2348  0.5923  0.8546
 5111SOL    HW226793   0.774   0.666   4.845 -1.3589  0.6283  1.2549
 5112SOL     OW26794   0.360   2.845   4.848 -0.0912 -0.1946  0.6795
 5112SOL    HW126795   0.419   2.921   4.843 -0.3830 -0.1105 -1.7563
 5112SOL    HW226796   0.334   2.839   4.940  1.4769  1.0986  1.2066
 5113SOL     OW26797   3.120   4.349  14.870 -0.0639 -0.3577 -0.0584
 5113SOL    HW126798   3.188   4.298  14.914  0.9364  2.4189  1.5683
 5113SOL    HW226799   3.057   4.377  14.937  1.8439  1.5123  0.9190
 5114SOL     OW26800   1.125   0.735   8.395  0.1396 -0.1584 -0.0013
 5114SOL    HW126801   1.036   0.700   8.403  1.2057 -2.7637  0.3927
 5114SOL    HW226802   1.160   0.680   8.465  0.3571  0.9945  0.7985
 5115SOL     OW26803   3.285   4.018   6.069 -0.0292  0.0767 -0.2587
 5115SOL    HW126804   3.370   4.037   6.109  0.8821 -1.9506 -1.2526
 5115SOL    HW226805   3.296   3.929   6.038  0.8730  0.3262 -0.6544
 5116SOL     OW26806   3.940   3.145   2.380 -0.1835 -0.3030 -0.2315
 5116SOL    HW126807   3.998   3.166   2.308  1.8842 -0.2012  1.4659
 5116SOL    HW226808   3.917   3.235   2.401  3.1661  0.6521 -0.6849
 5117SOL     OW26809   1.921   4.629   2.772  0.4803 -0.5758 -0.4368
 5117SOL    HW126810   1.968   4.706   2.802  0.6465 -0.6604 -0.4789
 5117SOL    HW226811   1.897   4.661   2.685  1.4894  1.0345 -0.1251
 5118SOL     OW26812   1.415   2.140   8.541  0.3617 -0.5230  0.1986
 5118SOL    HW126813   1.347   2.207   8.539  1.0782  0.1930 -0.6239
 5118SOL    HW226814   1.491   2.197   8.545 -1.0904  1.4001  0.3193
 5119SOL     OW26815   3.208   0.451   6.736 -0.2627 -0.0627  0.0645
 5119SOL    HW126816   3.225   0.540   6.703  1.7203 -0.4255  0.0831
 5119SOL    HW226817   3.167   0.430   6.653 -1.5956 -1.5755  1.1151
 5120SOL     OW26818   3.755   2.617  12.310  0.3236  0.4587  0.3154
 5120SOL    HW126819   3.731   2.706  12.283  0.5060  0.9089  1.6344
 5120SOL    HW226820   3.674   2.587  12.350  1.0445 -0.6573  0.9278
 5121SOL     OW26821   4.060   0.825   3.971 -0.2796 -0.3880 -0.6968
 5121SOL    HW126822   4.104   0.909   3.986  0.2022 -0.6513 -0.6378
 5121SOL    HW226823   3.969   0.845   3.990  0.4429  1.6023  0.6917
 5122SOL     OW26824   2.514   1.520   4.632 -0.2823  0.1738 -0.5863
 5122SOL    HW126825   2.552   1.527   4.720 -0.6551  0.6836 -0.4692
 5122SOL    HW226826   2.432   1.478   4.659  0.0609  1.3889  2.3458
 5123SOL     OW26827   0.783   3.064   5.294  0.5065  0.3237 -0.1269
 5123SOL    HW126828   0.845   3.085   5.225  0.6782  1.3399  0.3323
 5123SOL    HW226829   0.741   2.988   5.254  1.1412  0.0856 -0.3355
 5124SOL     OW26830   2.600   3.638  10.580 -0.3875  0.4242 -0.2768
 5124SOL    HW126831   2.553   3.639  10.664  1.3568  0.5913  0.7099
 5124SOL    HW226832   2.659   3.713  10.587  0.1594  0.2625 -3.2216
 5125SOL     OW26833   3.411   2.736   5.814  0.0710 -0.4027 -0.1199
 5125SOL    HW126834   3.364   2.652   5.820 -1.1032  0.0538 -2.8147
 5125SOL    HW226835   3.435   2.731   5.721  0.7229  0.5674 -0.0083
 5126SOL     OW26836   2.110   2.157  14.373  0.2321 -0.0769  0.2850
 5126SOL    HW126837   2.106   2.202  14.457 -1.1668 -1.9335  1.2118
 5126SOL    HW226838   2.195   2.115  14.379 -0.0481 -0.3390  2.5114
 5127SOL     OW26839   1.087   1.585   0.698  0.0445  0.1077  0.1127
 5127SOL    HW126840   1.008   1.638   0.684 -0.1649  0.0993  1.3129
 5127SOL    HW226841   1.081   1.542   0.613 -1.9273  0.4025  0.1036
 5128SOL     OW26842   1.730   1.501   6.419  0.2504  0.1009 -0.1018
 5128SOL    HW126843   1.748   1.550   6.339  0.3177 -1.4126 -1.0270
 5128SOL    HW226844   1.653   1.544   6.456  0.9282  1.0193  0.2266
 5129SOL     OW26845   1.223   3.655  15.879 -0.2108 -0.4794 -0.2613
 5129SOL    HW126846   1.171   3.678  15.801  0.1154  0.7104 -0.1280
 5129SOL    HW226847   1.157   3.627  15.943  0.3011  2.0296  1.3461
 5130SOL     OW26848   0.116   0.545   5.696  0.5980 -0.0527 -0.0458
 5130SOL    HW126849   0.079   0.468   5.652  0.4619  1.3199 -2.3275
 5130SOL    HW226850   0.110   0.509   5.785 -0.7917  0.8493  0.2197
 5131SOL     OW26851   2.655   4.127   2.403 -0.0834 -0.2849 -0.1185
 5131SOL    HW126852   2.644   4.169   2.318  0.4261 -1.4480 -0.7526
 5131SOL    HW226853   2.641   4.202   2.461 -0.5160  0.9168 -1.7783
 5132SOL     OW26854   0.923   1.795   9.344  0.3897 -0.1355 -0.6075
 5132SOL    HW126855   0.846   1.848   9.323 -0.3279 -0.0520  2.3092
 5132SOL    HW226856   0.967   1.851   9.407 -2.7389  1.1170  0.4296
 5133SOL     OW26857   1.792   0.807   7.579 -0.4007 -0.1473  0.1411
 5133SOL    HW126858   1.748   0.890   7.561 -0.2471  0.1959  1.3714
 5133SOL    HW226859   1.733   0.737   7.550 -2.0972 -0.5931  4.7066
 5134SOL     OW26860   2.225   3.762   4.574  0.6053 -0.2010  0.4781
 5134SOL    HW126861   2.297   3.779   4.634  1.4699 -0.4867 -0.4737
 5134SOL    HW226862   2.206   3.848   4.538 -1.4148 -0.4573  0.9102
 5135SOL     OW26863   1.098   3.558   4.759  0.0889  0.0405  0.0682
 5135SOL    HW126864   1.023   3.503   4.779 -0.7239  0.5432 -1.5727
 5135SOL    HW226865   1.079   3.632   4.816  1.5405 -0.2293  0.9168
 5136SOL     OW26866   1.738   4.097   4.004  0.4488  0.1812 -0.1886
 5136SOL    HW126867   1.734   4.055   3.918  0.0697  0.6229 -0.3893
 5136SOL    HW226868   1.713   4.025   4.063  0.1156 -0.4900 -1.1388
 5137SOL     OW26869   1.343   3.858   4.624  0.1127 -0.6338 -0.0392
 5137SOL    HW126870   1.352   3.763   4.623 -0.8334 -0.7494  2.6704
 5137SOL    HW226871   1.369   3.885   4.712 -1.1421 -0.2085  0.2080
 5138SOL     OW26872   3.684   1.569  11.089  0.1002  0.6640  0.5694
 5138SOL    HW126873   3.729   1.557  11.005 -0.7576  1.2615  0.0293
 5138SOL    HW226874   3.732   1.647  11.117  3.2943 -0.5776 -1.4066
 5139SOL     OW26875   1.902   4.069   8.832  0.4160  0.0481 -0.7910
 5139SOL    HW126876   1.899   4.018   8.913 -1.2799 -0.7864 -1.3918
 5139SOL    HW226877   1.812   4.057   8.802  0.9914 -0.9660 -2.1431
 5140SOL     OW26878   4.554   2.356   8.876  0.3908  0.1055  0.0945
 5140SOL    HW126879   4.538   2.283   8.816  0.3852  1.1600 -1.1816
 5140SOL    HW226880   4.468   2.359   8.918 -0.0661 -0.3548 -0.8294
 5141SOL     OW26881   3.565   2.927  15.476 -0.4259  0.0046 -0.1886
 5141SOL    HW126882   3.584   2.864  15.546  0.4906  0.8536  0.3420
 5141SOL    HW226883   3.481   2.906  15.436 -0.9888  0.0433  0.9770
 5142SOL     OW26884   1.843   3.759  14.557  0.1067 -0.1193 -0.1832
 5142SOL    HW126885   1.912   3.812  14.597 -1.9917  0.5419  2.5108
 5142SOL    HW226886   1.823   3.695  14.625 -2.0083  0.1572 -0.5392
 5143SOL     OW26887   3.008   3.167   6.636  0.0214 -0.0046 -0.1120
 5143SOL    HW126888   2.984   3.197   6.549 -0.4206  0.2595  0.0981
 5143SOL    HW226889   3.037   3.079   6.613  0.1976 -0.1494  0.6621
 5144SOL     OW26890   2.305   2.792   1.077  0.3315  0.3193  0.5094
 5144SOL    HW126891   2.369   2.846   1.032  1.1097  1.3719  2.9223
 5144SOL    HW226892   2.261   2.853   1.136  0.6693  1.6783 -0.6644
 5145SOL     OW26893   1.892   1.828   6.588 -0.5613 -0.0377  0.1258
 5145SOL    HW126894   1.840   1.770   6.644  0.9179  1.1702  2.7601
 5145SOL    HW226895   1.975   1.781   6.599 -0.9525 -0.9034 -0.6371
 5146SOL     OW26896   3.543   1.327   8.721 -0.4071  0.3843 -0.2809
 5146SOL    HW126897   3.465   1.296   8.675  0.5480 -0.0720 -1.5952
 5146SOL    HW226898   3.610   1.331   8.652 -2.8217 -1.0584 -2.7065
 5147SOL     OW26899   0.555   0.871   4.647 -0.3681 -0.2148  0.0556
 5147SOL    HW126900   0.625   0.806   4.651  1.4300  1.7178  0.4580
 5147SOL    HW226901   0.545   0.888   4.741 -1.6036 -2.4662  0.3242
 5148SOL     OW26902   4.031   0.434  13.281 -0.0284 -0.7751  0.4247
 5148SOL    HW126903   4.056   0.384  13.358  2.2409  0.1779  0.2833
 5148SOL    HW226904   3.972   0.496  13.323 -1.4007 -0.4376 -2.0037
 5149SOL     OW26905   1.436   0.025  15.747 -0.0433 -0.4900 -0.3443
 5149SOL    HW126906   1.361   4.698  15.711 -0.1593 -1.2243  0.8912
 5149SOL    HW226907   1.503   4.685  15.718 -1.0008 -3.0986  2.9720
 5150SOL     OW26908   4.441   0.331   0.344  0.2502 -0.3265  0.3561
 5150SOL    HW126909   4.515   0.316   0.402 -0.5902 -0.6465  1.3484
 5150SOL    HW226910   4.380   0.388   0.393 -0.9826 -0.2436 -1.2891
 5151SOL     OW26911   2.161   4.509   3.062  0.7596 -0.0075 -0.4624
 5151SOL    HW126912   2.219   4.490   2.989 -0.3522 -0.0132 -1.3415
 5151SOL    HW226913   2.089   4.446   3.060 -1.1629  2.1709 -0.0588
 5152SOL     OW26914   2.134   3.882   9.307  0.1564 -0.0379  0.7043
 5152SOL    HW126915   2.095   3.938   9.240 -1.2750 -0.7204  0.9750
 5152SOL    HW226916   2.175   3.942   9.369  1.5787 -0.1026 -0.1644
 5153SOL     OW26917   2.279   4.395  14.591 -0.4454 -0.1326  0.0067
 5153SOL    HW126918   2.308   4.365  14.677 -0.2886  1.3288  0.4736
 5153SOL    HW226919   2.186   4.374  14.586 -0.5778  0.0478  1.5708
 5154SOL     OW26920   1.658   3.515  14.568 -0.0033 -0.5069  0.6156
 5154SOL    HW126921   1.662   3.595  14.515  1.7648 -1.0193 -0.0336
 5154SOL    HW226922   1.727   3.538  14.631  0.9380 -0.0042 -0.5783
 5155SOL     OW26923   1.660   4.287   7.840 -0.0360 -0.5081  0.5453
 5155SOL    HW126924   1.679   4.210   7.894  0.1757  0.8165  2.3659
 5155SOL    HW226925   1.615   4.338   7.908 -3.3107 -1.0903 -1.1926
 5156SOL     OW26926   1.160   0.781   5.291  0.1204 -0.3548 -0.0091
 5156SOL    HW126927   1.178   0.841   5.219 -2.2050 -0.0830 -0.3550
 5156SOL    HW226928   1.077   0.814   5.326  0.1160  3.9309 -4.0270
 5157SOL     OW26929   0.346   0.430   6.062  0.2210 -0.1754 -0.2687
 5157SOL    HW126930   0.297   0.358   6.101  1.8837  0.1261  2.4211
 5157SOL    HW226931   0.269   0.476   6.027 -0.0870 -1.2378 -0.9724
 5158SOL     OW26932   3.289   2.084   7.397  0.9829  0.1770 -0.0892
 5158SOL    HW126933   3.348   2.075   7.472  0.9841 -1.5833 -0.2986
 5158SOL    HW226934   3.287   2.179   7.384 -0.1210  0.3304  1.1759
 5159SOL     OW26935   3.061   3.167   7.665  0.3333 -1.0089 -0.0656
 5159SOL    HW126936   2.981   3.137   7.622 -0.4883 -0.6679  1.2202
 5159SOL    HW226937   3.120   3.112   7.614 -0.3991  1.3473 -3.4761
 5160SOL     OW26938   3.571   3.882   3.455  0.5159 -0.5446 -0.0855
 5160SOL    HW126939   3.621   3.899   3.376 -1.3459 -2.1834 -1.6102
 5160SOL    HW226940   3.508   3.954   3.458  1.4635  0.2887 -0.1642
 5161SOL     OW26941   0.163   2.590   7.066 -0.0976 -0.9749  0.0131
 5161SOL    HW126942   0.182   2.556   6.978  0.4668  1.4690 -0.8191
 5161SOL    HW226943   0.231   2.555   7.123  2.2799  2.2791 -0.7869
 5162SOL     OW26944   2.188   0.611   7.487  0.6735 -0.4762 -0.1991
 5162SOL    HW126945   2.178   0.551   7.412 -2.9651 -1.1826  0.8640
 5162SOL    HW226946   2.112   0.669   7.481  0.4256 -0.6327  1.5995
 5163SOL     OW26947   2.533   3.814   3.236  0.3786 -0.5598 -0.5443
 5163SOL    HW126948   2.450   3.768   3.250 -1.6164  2.3022 -2.7352
 5163SOL    HW226949   2.528   3.832   3.142 -1.7432  0.0077 -0.3324
 5164SOL     OW26950   2.504   1.821   3.740 -1.1524 -0.2089  0.1513
 5164SOL    HW126951   2.517   1.859   3.827 -3.6557  0.0712  0.3914
 5164SOL    HW226952   2.475   1.897   3.689 -0.7429  0.4350  0.8794
 5165SOL     OW26953   3.086   1.906   7.544  0.1782  0.1374  0.4814
 5165SOL    HW126954   3.154   1.925   7.480  0.8866 -0.6599  0.9895
 5165SOL    HW226955   3.114   1.822   7.582 -0.8260 -0.9388 -1.1560
 5166SOL     OW26956   3.746   3.271   7.133  0.1362 -0.8529  0.4164
 5166SOL    HW126957   3.713   3.248   7.046 -0.1151 -0.6677  0.4620
 5166SOL    HW226958   3.681   3.232   7.192  2.1933  0.6953  3.7042
 5167SOL     OW26959   0.775   3.115   3.600 -0.7134  0.0584 -0.0987
 5167SOL    HW126960   0.828   3.177   3.649  1.7009  0.8743 -3.7925
 5167SOL    HW226961   0.712   3.083   3.665 -1.7880  1.7392 -0.2980
 5168SOL     OW26962   1.789   0.059  12.421 -0.0288  0.0254  0.7407
 5168SOL    HW126963   1.794   4.684  12.422 -0.3714  0.0319  2.9196
 5168SOL    HW226964   1.883   0.077  12.426 -0.6329  2.4535  3.2904
 5169SOL     OW26965   1.001   4.560   2.130 -0.3223 -0.6285  0.2739
 5169SOL    HW126966   1.050   4.501   2.187 -0.0028  0.0583  0.7082
 5169SOL    HW226967   0.972   4.501   2.060  1.7747 -0.2258 -0.9454
 5170SOL     OW26968   3.750   2.339   7.104 -0.0594 -0.3236  0.1431
 5170SOL    HW126969   3.780   2.404   7.041  1.8439 -2.6842 -1.3590
 5170SOL    HW226970   3.839   2.309   7.122 -0.8034 -2.3179  0.5324
 5171SOL     OW26971   0.190   2.666   5.293  0.1835  0.5860 -0.7833
 5171SOL    HW126972   0.109   2.669   5.343  0.8337 -1.5003  0.3793
 5171SOL    HW226973   0.180   2.590   5.234  2.4377 -1.2233  1.1758
 5172SOL     OW26974   2.122   3.001   2.174 -0.0254  0.3898 -0.0304
 5172SOL    HW126975   2.069   3.078   2.151 -0.8950 -1.0397 -2.8563
 5172SOL    HW226976   2.056   2.932   2.171 -1.5502  1.8145  0.2539
 5173SOL     OW26977   1.022   2.459  11.921  0.4232 -0.7342  0.2256
 5173SOL    HW126978   1.099   2.465  11.978 -0.4350 -2.1931  1.5064
 5173SOL    HW226979   1.049   2.535  11.868 -1.5772  0.5680  1.0546
 5174SOL     OW26980   4.119   2.402   0.905  0.3183 -0.3445 -0.4716
 5174SOL    HW126981   4.128   2.363   0.818 -1.3519 -3.1787  0.6197
 5174SOL    HW226982   4.050   2.346   0.941 -1.3427  0.9252 -1.6374
 5175SOL     OW26983   1.390   2.244   1.842  0.2150  0.0086  0.1347
 5175SOL    HW126984   1.472   2.226   1.795 -0.4422 -0.4169 -0.8574
 5175SOL    HW226985   1.343   2.294   1.775 -0.2945  1.0433  1.2707
 5176SOL     OW26986   0.860   1.219  10.862  0.3019  0.2312 -0.1345
 5176SOL    HW126987   0.806   1.144  10.835  1.6675 -0.5188 -0.7971
 5176SOL    HW226988   0.821   1.294  10.817  0.3098  0.5345  0.3710
 5177SOL     OW26989   3.430   3.714  16.602  0.3676  0.5810  0.1539
 5177SOL    HW126990   3.452   3.663  16.679  1.7845  2.2794  0.8739
 5177SOL    HW226991   3.514   3.750  16.575  1.2872 -1.4756  0.2934
 5178SOL     OW26992   2.578   1.657   1.240 -0.2587  0.6511  0.2652
 5178SOL    HW126993   2.616   1.726   1.295  0.6475 -1.2128  1.9912
 5178SOL    HW226994   2.495   1.645   1.286 -0.7665  1.3704 -0.4792
 5179SOL     OW26995   2.406   1.616   5.418  0.1044  0.1153 -0.4014
 5179SOL    HW126996   2.397   1.562   5.496 -0.3250  2.0725  0.9183
 5179SOL    HW226997   2.314   1.618   5.393 -0.1049  1.1081  0.4698
 5180SOL     OW26998   3.785   2.366   5.920  0.2270  0.1378 -0.2105
 5180SOL    HW126999   3.879   2.349   5.933 -0.3157 -1.3960  1.5826
 5180SOL    HW227000   3.753   2.276   5.919  0.5448  0.0292 -1.9965
 5181SOL     OW27001   1.594   4.337  16.082  0.3992 -0.1997  0.1690
 5181SOL    HW127002   1.542   4.357  16.004 -1.2379  0.3073  1.4009
 5181SOL    HW227003   1.672   4.390  16.065  0.9613 -1.4742 -1.2424
 5182SOL     OW27004   4.272   0.533  12.448  0.1219  0.5652 -0.1458
 5182SOL    HW127005   4.199   0.471  12.448 -0.6726  1.5024  1.4238
 5182SOL    HW227006   4.327   0.487  12.385 -0.2490 -1.4159  0.9781
 5183SOL     OW27007   1.959   4.225  12.658 -0.6643  0.0292  0.0325
 5183SOL    HW127008   1.874   4.181  12.652  0.2952 -1.3330 -3.3987
 5183SOL    HW227009   2.007   4.170  12.597 -0.4583  0.5553 -0.2770
 5184SOL     OW27010   1.426   1.939   9.138 -0.9919 -0.2614  0.4884
 5184SOL    HW127011   1.428   1.926   9.233 -3.5884  0.7592  0.7001
 5184SOL    HW227012   1.393   2.029   9.129  2.1425  0.8339 -0.2239
 5185SOL     OW27013   2.234   4.022   3.321 -0.1148  0.6040  0.1104
 5185SOL    HW127014   2.299   4.091   3.331 -0.0341  0.6423 -0.6144
 5185SOL    HW227015   2.216   3.993   3.410  1.7938  2.6100  1.1652
 5186SOL     OW27016   3.563   2.359   8.801 -0.1908  0.0352 -0.0088
 5186SOL    HW127017   3.538   2.358   8.893 -0.4739 -0.4015 -0.0865
 5186SOL    HW227018   3.524   2.278   8.768 -1.8967  0.9914 -0.3495
 5187SOL     OW27019   3.867   0.349   6.398 -0.2242  0.5855  0.4323
 5187SOL    HW127020   3.822   0.427   6.430 -0.6900  0.0831  1.0035
 5187SOL    HW227021   3.797   0.288   6.424 -1.2236  0.7102 -1.9182
 5188SOL     OW27022   1.557   1.520  15.063  0.3120  0.1649  0.3824
 5188SOL    HW127023   1.514   1.586  15.010 -0.5936 -0.3569  0.4588
 5188SOL    HW227024   1.488   1.456  15.082 -1.4798  1.7689 -0.7026
 5189SOL     OW27025   3.789   0.758   8.472  0.4854 -0.0918  0.0646
 5189SOL    HW127026   3.800   0.715   8.556  0.2694 -0.9207 -0.3291
 5189SOL    HW227027   3.811   0.849   8.492  0.1687 -0.0440  0.1945
 5190SOL     OW27028   0.621   2.727  10.823  0.0649  0.5664  0.2472
 5190SOL    HW127029   0.551   2.788  10.801  1.5635  2.2392  0.1287
 5190SOL    HW227030   0.643   2.758  10.911  0.1095  0.1416  0.3863
 5191SOL     OW27031   4.615   1.156   4.694  0.1829 -0.0682  0.6219
 5191SOL    HW127032   4.573   1.171   4.609 -1.1607 -2.9451  0.7761
 5191SOL    HW227033   4.631   1.062   4.680  2.8824  0.5364 -0.3572
 5192SOL     OW27034   2.338   2.859   5.704  0.4426  0.8119  0.0763
 5192SOL    HW127035   2.351   2.893   5.615  0.0044 -2.9172 -1.4068
 5192SOL    HW227036   2.399   2.785   5.702 -1.9470 -1.1722  1.2181
 5193SOL     OW27037   2.738   2.386   2.646 -0.7446  0.6540 -0.4469
 5193SOL    HW127038   2.794   2.343   2.582 -0.7072 -2.8529  1.9072
 5193SOL    HW227039   2.667   2.322   2.652 -0.4423  0.3888  0.3274
 5194SOL     OW27040   3.248   2.454  15.205  0.0927  0.0248 -0.4303
 5194SOL    HW127041   3.298   2.523  15.248 -0.5249  0.4049 -0.3205
 5194SOL    HW227042   3.164   2.498  15.189 -0.6989 -0.6366  1.9333
 5195SOL     OW27043   0.876   1.100   4.940 -0.3343  0.0864  0.1182
 5195SOL    HW127044   0.887   1.063   4.852  0.4418 -0.8570  0.6161
 5195SOL    HW227045   0.908   1.026   4.991  1.9443  1.2001  0.3040
 5196SOL     OW27046   2.672   4.400   7.470  0.4251 -0.1271 -0.0721
 5196SOL    HW127047   2.696   4.463   7.538 -0.5841  0.3238 -0.1373
 5196SOL    HW227048   2.593   4.431   7.426  1.3550  0.2286 -1.4932
 5197SOL     OW27049   4.482   4.113   4.243 -0.5751 -0.3475  0.0452
 5197SOL    HW127050   4.505   4.205   4.253  0.2626 -0.4411 -0.9362
 5197SOL    HW227051   4.392   4.108   4.274  0.0697 -1.2433  1.8041
 5198SOL     OW27052   1.104   4.391   6.744  0.3704 -0.2833 -0.3337
 5198SOL    HW127053   1.037   4.448   6.708 -0.7699 -0.4736  1.4708
 5198SOL    HW227054   1.098   4.419   6.836 -0.2706 -2.6022  0.3382
 5199SOL     OW27055   3.445   2.992  13.739 -0.3132  0.4055  0.1271
 5199SOL    HW127056   3.381   3.062  13.727 -0.3536 -0.0952 -2.5817
 5199SOL    HW227057   3.391   2.929  13.787  1.7454 -1.4100  0.0885
 5200SOL     OW27058   1.613   0.761   4.116  0.1186  0.4239  0.4411
 5200SOL    HW127059   1.668   0.839   4.123  1.0406 -0.0935 -1.0366
 5200SOL    HW227060   1.604   0.765   4.021 -1.4993  0.1339  0.5781
 5201SOL     OW27061   0.297   1.516  15.792  0.0284  0.3844 -0.0545
 5201SOL    HW127062   0.274   1.572  15.718  0.7214  0.5377 -0.1510
 5201SOL    HW227063   0.363   1.464  15.746 -0.7182 -0.7739  0.1803
 5202SOL     OW27064   3.188   0.058   3.136 -0.0189  0.0115 -0.3095
 5202SOL    HW127065   3.143   0.014   3.064  0.0843 -1.8225  0.7295
 5202SOL    HW227066   3.198   0.147   3.102  2.2245  0.1146  0.6500
 5203SOL     OW27067   1.412   0.426   6.207 -0.0821 -0.1128 -0.0816
 5203SOL    HW127068   1.476   0.371   6.253 -0.4944 -0.3136  0.2527
 5203SOL    HW227069   1.464   0.506   6.201 -1.5804  0.8304 -0.4252
 5204SOL     OW27070   0.047   1.891   5.560  0.1379  0.1627 -0.9318
 5204SOL    HW127071   0.065   1.910   5.468 -0.8900 -0.4593 -1.2561
 5204SOL    HW227072   0.077   1.801   5.567 -1.0825 -0.3918 -2.8137
 5205SOL     OW27073   1.164   2.556   3.086 -0.1201 -0.2688 -0.5793
 5205SOL    HW127074   1.125   2.578   3.001  0.8646 -0.3025 -1.0387
 5205SOL    HW227075   1.087   2.542   3.141  0.6951  0.1756  0.6870
 5206SOL     OW27076   0.912   2.671   0.131  0.0611  0.4308  0.1939
 5206SOL    HW127077   0.992   2.622   0.112 -0.2730  0.0675 -0.2581
 5206SOL    HW227078   0.931   2.753   0.084 -0.6047  0.8734  0.6936
 5207SOL     OW27079   3.924   3.950   5.743 -0.4738  0.4228 -0.1158
 5207SOL    HW127080   3.918   4.045   5.749 -1.0576  0.5363 -2.7506
 5207SOL    HW227081   3.990   3.931   5.810  1.7886 -0.4308 -2.5967
 5208SOL     OW27082   2.442   3.959   4.734  0.3136  0.3432 -0.6599
 5208SOL    HW127083   2.368   4.016   4.755 -0.3683 -0.7612 -0.0707
 5208SOL    HW227084   2.508   3.988   4.797 -0.8997 -0.7467  1.1004
 5209SOL     OW27085   3.352   3.592  11.544  0.2384 -0.3089  0.2883
 5209SOL    HW127086   3.279   3.599  11.484  1.0295  1.3542 -0.4549
 5209SOL    HW227087   3.371   3.684  11.563 -0.3202 -0.4923  1.7340
 5210SOL     OW27088   1.574   2.416  17.652  0.5113 -0.5719 -0.2427
 5210SOL    HW127089   1.670   2.410  17.643  0.2556 -0.2430 -3.2688
 5210SOL    HW227090   1.557   2.338  17.599  0.0080 -0.8057  0.2716
 5211SOL     OW27091   3.431   3.789   4.628 -0.0551  0.0297  0.7303
 5211SOL    HW127092   3.373   3.781   4.553 -1.5526  0.0979  1.8989
 5211SOL    HW227093   3.518   3.793   4.588 -0.7536  3.6620 -0.4143
 5212SOL     OW27094   0.071   0.009  14.404 -0.6256  0.6123  0.1224
 5212SOL    HW127095   0.042   0.100  14.401 -0.4859  0.7136  1.8391
 5212SOL    HW227096   4.711   4.683  14.380 -0.4020  0.3381 -0.0876
 5213SOL     OW27097   4.309   3.102   8.538  0.0937  0.0561 -0.2030
 5213SOL    HW127098   4.273   3.049   8.467 -0.9801  1.9343 -1.0576
 5213SOL    HW227099   4.311   3.036   8.608  0.9843 -0.1783 -0.4439
 5214SOL     OW27100   4.207   1.796   2.305 -0.1814 -0.1579  0.5045
 5214SOL    HW127101   4.177   1.705   2.302  1.3330 -0.7182  2.4658
 5214SOL    HW227102   4.149   1.826   2.236  0.3459 -1.4058 -0.4837
 5215SOL     OW27103   1.253   2.270  10.439  0.1461  0.4843 -0.0593
 5215SOL    HW127104   1.332   2.315  10.468  0.6658 -0.5475  0.1372
 5215SOL    HW227105   1.199   2.345  10.412 -1.0257 -0.6391 -0.8652
 5216SOL     OW27106   0.620   1.832  17.452  0.0275  0.3693  0.7433
 5216SOL    HW127107   0.667   1.909  17.484  2.1646 -1.1323  1.1558
 5216SOL    HW227108   0.573   1.808  17.532  1.4461  0.5608  1.6245
 5217SOL     OW27109   1.501   2.427   6.319  0.2753  0.4219  0.6611
 5217SOL    HW127110   1.541   2.341   6.309  2.4959  1.4760  0.4758
 5217SOL    HW227111   1.445   2.411   6.395 -0.3338  1.0390  0.3452
 5218SOL     OW27112   0.266   2.448   2.907  0.2134  0.1414  0.4270
 5218SOL    HW127113   0.234   2.381   2.968 -0.5620 -0.0470 -0.1861
 5218SOL    HW227114   0.199   2.452   2.839 -0.9550 -0.4797  1.5375
 5219SOL     OW27115   1.549   4.659   6.615 -0.2742  0.6760  0.3529
 5219SOL    HW127116   1.459   4.642   6.588  0.1766 -0.0365 -0.7040
 5219SOL    HW227117   1.584   4.603   6.545  0.0230  1.0235  0.2257
 5220SOL     OW27118   4.152   1.275   6.616 -0.1736  0.0349 -0.9085
 5220SOL    HW127119   4.095   1.297   6.690 -2.3608 -0.9032 -2.3446
 5220SOL    HW227120   4.236   1.305   6.653  0.9030 -2.0220 -1.6847
 5221SOL     OW27121   4.225   2.974   2.342 -0.0639 -0.3389  0.0635
 5221SOL    HW127122   4.311   2.987   2.384  0.4839  1.0997 -1.5099
 5221SOL    HW227123   4.246   2.899   2.287  0.8440  0.6775 -0.9826
 5222SOL     OW27124   2.753   0.846  14.796  0.1283  0.0539  0.1425
 5222SOL    HW127125   2.781   0.755  14.788 -1.7899 -0.3071 -2.5378
 5222SOL    HW227126   2.675   0.835  14.850 -0.8763  4.2936 -0.4667
 5223SOL     OW27127   2.434   2.124   8.599 -0.6464 -0.3721 -0.3869
 5223SOL    HW127128   2.515   2.174   8.612 -0.4704 -0.9560  0.7755
 5223SOL    HW227129   2.457   2.064   8.670 -1.4096  0.3589  0.4674
 5224SOL     OW27130   3.606   1.785   2.633 -0.3327  0.0348  0.8923
 5224SOL    HW127131   3.530   1.823   2.589  0.2135  0.2086  0.1107
 5224SOL    HW227132   3.588   1.808   2.724 -0.1726  2.4564  0.3080
 5225SOL     OW27133   0.939   1.899   3.890 -0.0163 -0.0539  0.3452
 5225SOL    HW127134   0.866   1.845   3.862  1.4650 -1.7533 -0.2395
 5225SOL    HW227135   0.934   1.961   3.817  1.3156  0.5767  0.7837
 5226SOL     OW27136   0.577   0.449   6.297  0.0892 -0.2347  0.0114
 5226SOL    HW127137   0.516   0.473   6.227 -0.4199  1.8506  1.2003
 5226SOL    HW227138   0.644   0.412   6.239 -0.8274 -2.9884  0.7221
 5227SOL     OW27139   2.757   4.495   8.578  0.6400 -0.1448  0.5207
 5227SOL    HW127140   2.695   4.556   8.619  0.7941  2.6568 -3.3863
 5227SOL    HW227141   2.795   4.552   8.511 -0.5344  0.1220  0.0814
 5228SOL     OW27142   3.392   2.263   4.502  0.3574  0.6176  0.3190
 5228SOL    HW127143   3.463   2.282   4.441  0.0490 -0.0716 -0.2368
 5228SOL    HW227144   3.449   2.260   4.580  0.3523 -0.5751  0.2682
 5229SOL     OW27145   2.406   1.223   3.833  0.4714 -0.2496 -0.1053
 5229SOL    HW127146   2.322   1.182   3.810  1.5077 -1.9874 -0.7883
 5229SOL    HW227147   2.382   1.286   3.901  1.3149  0.5361 -0.5366
 5230SOL     OW27148   1.067   1.765  13.152 -0.4106  0.4767 -0.2808
 5230SOL    HW127149   0.977   1.782  13.178 -0.8887 -1.1805 -0.8228
 5230SOL    HW227150   1.065   1.674  13.120  3.0342 -0.0571  1.0004
 5231SOL     OW27151   2.856   3.418   1.479  0.1314  0.2067  0.3796
 5231SOL    HW127152   2.885   3.328   1.462 -1.4822  0.0271 -1.4854
 5231SOL    HW227153   2.847   3.456   1.391  1.9197 -1.1692 -0.4044
 5232SOL     OW27154   0.967   0.449   1.989  0.2077 -0.2223 -0.0141
 5232SOL    HW127155   1.019   0.382   2.033  0.7513  0.0930 -0.1657
 5232SOL    HW227156   1.039   0.493   1.944 -0.2427  0.7218  0.1990
 5233SOL     OW27157   0.150   3.989   1.725 -0.2695 -0.3567 -0.2507
 5233SOL    HW127158   0.059   3.961   1.736 -0.1702 -2.3107 -4.5005
 5233SOL    HW227159   0.192   3.920   1.675 -0.6066 -1.3671  0.8718
 5234SOL     OW27160   2.623   0.810   0.962 -0.6830 -0.7288  0.2459
 5234SOL    HW127161   2.705   0.812   1.011 -1.6467  0.9000  1.7868
 5234SOL    HW227162   2.643   0.736   0.904  2.8993 -0.2578  0.9062
 5235SOL     OW27163   2.196   2.597   5.456 -0.0546  0.2161 -0.6558
 5235SOL    HW127164   2.199   2.515   5.505 -1.8372  2.0350  2.4941
 5235SOL    HW227165   2.105   2.595   5.425 -2.0847  0.5254  5.3378
 5236SOL     OW27166   4.080   1.291   6.299 -0.3089 -0.1448  0.0026
 5236SOL    HW127167   4.073   1.302   6.393  2.4001 -0.7632  0.2681
 5236SOL    HW227168   4.018   1.222   6.275 -2.2181  1.5887 -0.0427
 5237SOL     OW27169   0.884   3.035   1.989  0.9056 -0.2315 -0.6819
 5237SOL    HW127170   0.922   3.028   2.077  0.8587 -1.3803 -0.7517
 5237SOL    HW227171   0.927   3.112   1.951  0.0625  0.2759 -0.6159
 5238SOL     OW27172   3.510   1.852  10.074 -0.2438  0.0392  0.2260
 5238SOL    HW127173   3.509   1.948  10.073  0.1138  0.0441  1.0939
 5238SOL    HW227174   3.534   1.842  10.166 -0.6515  0.2290  0.3544
 5239SOL     OW27175   2.030   0.219   6.467 -0.0692 -0.0819  0.2640
 5239SOL    HW127176   2.025   0.258   6.554  0.8416 -2.5493  1.4292
 5239SOL    HW227177   2.123   0.222   6.447  0.0149 -0.0296  0.6584
 5240SOL     OW27178   4.445   2.216   5.432 -0.0121  0.9853 -0.5780
 5240SOL    HW127179   4.443   2.133   5.384  3.8707  0.0145  0.9656
 5240SOL    HW227180   4.354   2.234   5.457 -0.0879  0.9845 -0.8558
 5241SOL     OW27181   4.160   3.459  15.294  0.0680 -0.7514 -0.3297
 5241SOL    HW127182   4.088   3.404  15.326  0.8338 -1.5219  0.0654
 5241SOL    HW227183   4.237   3.427  15.340  0.4856 -0.6659 -0.9702
 5242SOL     OW27184   0.098   1.404  13.369 -0.4608  1.0440  0.1238
 5242SOL    HW127185   0.143   1.477  13.327 -0.9562  0.4118 -1.4779
 5242SOL    HW227186   0.007   1.417  13.343 -1.4052 -1.2403  2.2407
 5243SOL     OW27187   0.491   1.757  12.877 -0.4183 -0.2806 -0.0108
 5243SOL    HW127188   0.538   1.821  12.932  1.4749 -0.7427 -1.0900
 5243SOL    HW227189   0.560   1.754  12.811 -0.8486  0.3851 -0.4995
 5244SOL     OW27190   1.004   3.045  15.173 -0.0040 -0.4291  0.3042
 5244SOL    HW127191   1.038   2.959  15.151 -1.0839 -0.5217 -1.0065
 5244SOL    HW227192   1.041   3.068  15.259 -0.3010 -2.2535  0.9048
 5245SOL     OW27193   4.567   3.810  16.061 -0.2740  0.6045 -0.4655
 5245SOL    HW127194   4.501   3.754  16.020 -1.7452  0.8259  1.6273
 5245SOL    HW227195   4.536   3.896  16.035 -1.1272  0.3629 -0.2301
 5246SOL     OW27196   1.267   0.377   8.556  0.4715 -0.7321 -0.1310
 5246SOL    HW127197   1.268   0.442   8.626 -0.8204  0.2809 -1.0419
 5246SOL    HW227198   1.340   0.404   8.500  0.3746  0.5565  0.3586
 5247SOL     OW27199   2.078   3.391   6.217  0.2101  0.1475  0.7752
 5247SOL    HW127200   1.988   3.423   6.217  0.3805  0.6375 -0.0154
 5247SOL    HW227201   2.081   3.334   6.140 -4.2958 -0.4239  1.0318
 5248SOL     OW27202   4.334   2.989   3.733  0.1063  0.1122 -0.4363
 5248SOL    HW127203   4.262   2.948   3.685  0.4878 -0.0292 -0.8884
 5248SOL    HW227204   4.339   3.079   3.701  0.3876  0.1923 -0.1723
 5249SOL     OW27205   1.921   3.042   3.004 -0.1175 -0.6309 -0.6910
 5249SOL    HW127206   1.959   3.001   3.081 -0.0856  1.2408  0.2812
 5249SOL    HW227207   1.845   3.075   3.052 -1.1108  0.2796 -2.9291
 5250SOL     OW27208   2.248   2.336  11.515  0.6541  0.2012  0.0867
 5250SOL    HW127209   2.342   2.345  11.499  0.8987  2.9136  3.0436
 5250SOL    HW227210   2.224   2.243  11.510 -1.2847  0.6483  0.8746
 5251SOL     OW27211   1.462   0.700   6.245  0.7939  0.6196 -0.6802
 5251SOL    HW127212   1.508   0.770   6.291 -0.4017  1.6262 -1.0329
 5251SOL    HW227213   1.375   0.711   6.283  0.4572 -1.0724 -0.9509
 5252SOL     OW27214   1.822   2.707  15.277  0.4298  0.1124 -0.1475
 5252SOL    HW127215   1.852   2.725  15.366 -1.2302 -0.6216  0.5622
 5252SOL    HW227216   1.871   2.625  15.270  0.5338  0.1488  0.1235
 5253SOL     OW27217   1.646   2.012   4.917 -0.0401 -0.0089 -0.1269
 5253SOL    HW127218   1.696   2.062   4.853 -1.5718  0.0014 -1.3289
 5253SOL    HW227219   1.684   2.038   5.000 -0.9001  0.6902  0.0508
 5254SOL     OW27220   3.990   2.560   2.756 -0.3561  0.1063  0.0916
 5254SOL    HW127221   4.077   2.600   2.751 -1.3229  1.9754 -1.4579
 5254SOL    HW227222   4.005   2.473   2.795 -1.1531  0.2874  0.8082
 5255SOL     OW27223   2.846   2.118  10.889  0.1984  0.1556  0.6990
 5255SOL    HW127224   2.787   2.042  10.897  0.5031 -0.4307 -2.5360
 5255SOL    HW227225   2.813   2.142  10.802  0.1927 -1.3082  0.2911
 5256SOL     OW27226   0.661   2.218   6.904 -0.5469 -0.4424  0.3738
 5256SOL    HW127227   0.582   2.182   6.944 -2.1364  0.3101 -2.0771
 5256SOL    HW227228   0.734   2.171   6.944  0.3151  1.9289  1.5874
 5257SOL     OW27229   0.928   2.057   7.545 -0.3183 -0.4164 -0.5146
 5257SOL    HW127230   1.002   2.004   7.517  1.1028  0.6706  1.1791
 5257SOL    HW227231   0.961   2.147   7.551  0.1226 -0.5946 -0.3198
 5258SOL     OW27232   0.067   1.515   9.914  0.5086  0.4523  0.0822
 5258SOL    HW127233   0.007   1.472   9.975 -0.7905 -0.5174 -1.8671
 5258SOL    HW227234   0.068   1.603   9.953  0.0637  0.4465  0.1145
 5259SOL     OW27235   1.339   0.065   3.184 -0.0522  0.0551 -0.3011
 5259SOL    HW127236   1.359   0.156   3.206  0.7124 -1.0012  3.3335
 5259SOL    HW227237   1.262   0.064   3.241 -0.9075 -0.6662 -1.4795
 5260SOL     OW27238   1.788   0.322   4.491  0.2691  0.5135  0.7019
 5260SOL    HW127239   1.721   0.374   4.536 -0.4263  1.2541 -1.1950
 5260SOL    HW227240   1.842   0.390   4.449 -2.5117  1.0098 -2.0307
 5261SOL     OW27241   2.619   0.428  10.698  0.0734  0.2829  0.3612
 5261SOL    HW127242   2.572   0.345  10.706  0.4808  0.0171  0.0180
 5261SOL    HW227243   2.546   0.489  10.690 -1.2944 -1.4330 -0.1642
 5262SOL     OW27244   3.485   4.478   4.069  0.6372 -0.0484  0.2047
 5262SOL    HW127245   3.446   4.435   4.144  0.2728  0.5552  0.3607
 5262SOL    HW227246   3.497   4.401   4.014 -0.7299 -0.2373  0.1725
 5263SOL     OW27247   0.959   2.713  16.075 -0.3713  0.0633  0.6978
 5263SOL    HW127248   0.975   2.746  16.164  2.3902 -0.4222  0.3800
 5263SOL    HW227249   1.039   2.663  16.060 -0.3364 -0.1396  1.5301
 5264SOL     OW27250   4.465   4.694   7.996 -0.0002 -0.1344 -0.5818
 5264SOL    HW127251   4.377   4.703   7.960 -0.7902 -0.2669  1.2870
 5264SOL    HW227252   4.519   4.687   7.917 -0.8282 -0.5040 -1.1196
 5265SOL     OW27253   1.449   4.602  12.076 -0.4269 -0.0892  1.1921
 5265SOL    HW127254   1.463   4.622  12.169 -2.8162 -1.0285  1.7514
 5265SOL    HW227255   1.510   4.658  12.028 -1.6511  2.5046  2.6926
 5266SOL     OW27256   4.543   3.068   0.144  0.6972 -0.1170  0.4590
 5266SOL    HW127257   4.486   3.107   0.210  0.8238  1.2907 -0.2591
 5266SOL    HW227258   4.517   2.978   0.163 -0.4020 -0.2367 -1.6436
 5267SOL     OW27259   4.396   0.811   3.230  0.3133  0.2032 -0.4670
 5267SOL    HW127260   4.446   0.867   3.290 -1.4161  0.7878  0.4317
 5267SOL    HW227261   4.466   0.768   3.180  0.7050 -0.5934  0.7853
 5268SOL     OW27262   1.042   0.278   8.430  0.4986  0.0874  0.3640
 5268SOL    HW127263   1.110   0.323   8.481  2.0098 -1.0535 -0.6426
 5268SOL    HW227264   1.055   0.189   8.463 -0.8761  0.0105  0.6967
 5269SOL     OW27265   1.740   1.700   1.890 -0.7506 -0.5629  0.5282
 5269SOL    HW127266   1.695   1.640   1.832 -0.0147 -0.6870  0.0806
 5269SOL    HW227267   1.807   1.644   1.930  0.6151 -0.5795 -1.8078
 5270SOL     OW27268   1.878   1.526  16.240  0.0552  0.8665  0.0793
 5270SOL    HW127269   1.793   1.495  16.273  0.5331 -0.2099  0.2881
 5270SOL    HW227270   1.844   1.592  16.180  1.1655  1.4234  0.0564
 5271SOL     OW27271   2.213   2.518  12.378  0.5193  0.2179  0.3507
 5271SOL    HW127272   2.286   2.492  12.435  0.4201  0.9239  0.7937
 5271SOL    HW227273   2.195   2.605  12.413 -1.4533  1.3466 -3.4290
 5272SOL     OW27274   0.262   4.504  17.068 -0.1060  0.4713 -0.0157
 5272SOL    HW127275   0.248   4.596  17.092 -1.0111 -0.1977  2.0174
 5272SOL    HW227276   0.222   4.467  17.147  0.7101 -0.6526 -0.1310
 5273SOL     OW27277   2.865   2.753   7.425  0.4780  0.1887  0.0385
 5273SOL    HW127278   2.892   2.819   7.489 -1.6047  2.7655 -1.7083
 5273SOL    HW227279   2.872   2.670   7.471 -3.0408 -0.1497 -0.0635
 5274SOL     OW27280   1.256   0.765   1.499  0.1046  0.2539 -0.1389
 5274SOL    HW127281   1.316   0.696   1.526 -1.2557 -1.3699 -1.2711
 5274SOL    HW227282   1.170   0.724   1.510 -0.9596  3.1803  2.2875
 5275SOL     OW27283   1.839   1.302   2.423  0.4760  0.5004  0.5409
 5275SOL    HW127284   1.907   1.368   2.436  0.8613  0.3135 -0.4817
 5275SOL    HW227285   1.812   1.322   2.333 -0.0775  0.8900  0.8008
 5276SOL     OW27286   4.562   1.082   2.593  0.0507 -0.6106  0.2211
 5276SOL    HW127287   4.488   1.046   2.544 -0.0155  0.4562 -0.4756
 5276SOL    HW227288   4.519   1.120   2.669 -0.5449  1.4099 -1.1244
 5277SOL     OW27289   3.540   1.722   4.200  0.1880  0.9268  0.5214
 5277SOL    HW127290   3.521   1.736   4.292  1.8027 -4.1617  1.6493
 5277SOL    HW227291   3.626   1.764   4.189  1.2926 -1.1744  0.9674
 5278SOL     OW27292   3.813   2.654   8.163 -0.3870 -0.2251  0.4719
 5278SOL    HW127293   3.855   2.568   8.166 -0.6411 -0.4579 -2.5220
 5278SOL    HW227294   3.747   2.643   8.231  0.3744 -1.3317  1.0276
 5279SOL     OW27295   1.761   1.154   4.739 -0.1399 -0.2870 -0.4539
 5279SOL    HW127296   1.696   1.202   4.791  1.0263 -0.6739  1.3495
 5279SOL    HW227297   1.777   1.071   4.783 -2.5254 -0.2874  0.4210
 5280SOL     OW27298   4.016   2.728   5.002 -0.2391 -0.5740  0.5538
 5280SOL    HW127299   4.093   2.709   4.948 -1.3181 -0.8910 -0.8774
 5280SOL    HW227300   4.040   2.686   5.085  0.1848  0.6466  1.0497
 5281SOL     OW27301   1.713   0.005   6.319 -0.2774  0.1030 -0.2728
 5281SOL    HW127302   1.808   0.009   6.305 -0.2466 -1.2119 -0.3806
 5281SOL    HW227303   1.709   4.635   6.348 -0.0521  0.9458  2.3623
 5282SOL     OW27304   1.740   0.528   3.927 -0.4453 -0.3449  0.8286
 5282SOL    HW127305   1.814   0.469   3.911  0.2459  0.7404  0.0896
 5282SOL    HW227306   1.676   0.497   3.863  1.9819 -1.1519 -1.2250
 5283SOL     OW27307   0.736   4.654   1.924  0.6819 -0.5892 -0.0308
 5283SOL    HW127308   0.772   4.570   1.951 -0.9620 -1.5488 -0.7786
 5283SOL    HW227309   0.727   4.658   1.828 -0.7157  0.0213  0.1297
 5284SOL     OW27310   4.177   1.858  16.126  0.3362 -0.4562  0.2804
 5284SOL    HW127311   4.237   1.912  16.075 -1.2387  1.6407  0.6043
 5284SOL    HW227312   4.112   1.922  16.155  2.1507  1.2695  0.5242
 5285SOL     OW27313   0.606   2.483   9.083  0.1888  0.1437  0.3930
 5285SOL    HW127314   0.579   2.422   9.013  0.1119 -2.1176  2.3948
 5285SOL    HW227315   0.607   2.426   9.160  0.8297 -1.9603 -1.1662
 5286SOL     OW27316   2.714   1.514   3.063  0.7133  0.1365 -0.2107
 5286SOL    HW127317   2.801   1.484   3.088  0.1919  0.3022  1.8100
 5286SOL    HW227318   2.669   1.432   3.043  1.0696 -0.6737  2.2465
 5287SOL     OW27319   1.239   0.976   3.269 -0.1265  0.5633  0.0487
 5287SOL    HW127320   1.176   1.043   3.297 -0.1226  0.7411 -0.3610
 5287SOL    HW227321   1.179   0.901   3.267  1.7421 -0.9012 -0.5808
 5288SOL     OW27322   2.644   3.667   5.948  0.6129  0.4207 -0.2130
 5288SOL    HW127323   2.715   3.635   5.892  0.0477 -1.3243  0.0690
 5288SOL    HW227324   2.595   3.724   5.888 -1.2493 -0.7892  0.1418
 5289SOL     OW27325   1.084   2.415  10.973  0.4800 -0.2307 -0.5626
 5289SOL    HW127326   1.112   2.411  10.882  1.9308  0.1555 -0.1377
 5289SOL    HW227327   1.059   2.508  10.976  0.1700 -0.3691  1.6333
 5290SOL     OW27328   0.668   3.364  10.834  0.1991 -0.2605  0.8527
 5290SOL    HW127329   0.741   3.408  10.878 -0.4337  1.5614  0.0881
 5290SOL    HW227330   0.699   3.284  10.792 -0.0826 -0.7064  1.4864
 5291SOL     OW27331   2.141   3.205   4.176  0.1409 -0.1870  0.5102
 5291SOL    HW127332   2.188   3.122   4.170  2.1855  1.1019 -1.2200
 5291SOL    HW227333   2.213   3.268   4.177 -1.2759  1.4681 -1.9746
 5292SOL     OW27334   0.757   1.763   0.136  0.0910 -0.3218  0.0442
 5292SOL    HW127335   0.797   1.683   0.100 -0.9847 -0.8356 -0.0082
 5292SOL    HW227336   0.794   1.776   0.223 -2.1315 -1.4195  1.1380
 5293SOL     OW27337   2.926   4.620   1.012 -0.8450  0.2132  0.0316
 5293SOL    HW127338   2.937   4.669   1.093 -1.0569 -0.9824  0.7757
 5293SOL    HW227339   2.944   4.686   0.945 -0.9433  0.0089 -0.1989
 5294SOL     OW27340   1.017   1.357   6.300  0.1187 -0.0576 -0.2028
 5294SOL    HW127341   1.083   1.401   6.245 -0.1373  0.6559  0.0594
 5294SOL    HW227342   0.953   1.426   6.318 -0.4177 -1.3110  2.6803
 5295SOL     OW27343   3.185   2.180   2.610  0.1535  0.0921  0.7012
 5295SOL    HW127344   3.150   2.248   2.553  0.1739  1.3908  2.2508
 5295SOL    HW227345   3.263   2.230   2.635 -0.0775  0.2476  1.1089
 5296SOL     OW27346   1.427   2.670  15.740  0.6122  0.4067  0.6391
 5296SOL    HW127347   1.417   2.741  15.676  3.3433  0.7086  0.5154
 5296SOL    HW227348   1.387   2.717  15.813  0.4049  2.0518 -0.5248
 5297SOL     OW27349   0.752   0.241   7.760  0.7555  0.2561  0.4671
 5297SOL    HW127350   0.820   0.220   7.696  0.1133 -1.8276  0.4607
 5297SOL    HW227351   0.701   0.310   7.718  1.1364  0.3852  0.2175
 5298SOL     OW27352   1.648   2.268   8.527 -0.0724 -0.1709  0.6699
 5298SOL    HW127353   1.685   2.239   8.443  0.8442 -1.1711  1.4118
 5298SOL    HW227354   1.730   2.261   8.577 -0.3334 -0.9036  0.9896
 5299SOL     OW27355   2.439   0.512   2.841  0.2253 -0.3057 -0.0917
 5299SOL    HW127356   2.435   0.443   2.775  2.0259 -0.0416 -0.4781
 5299SOL    HW227357   2.365   0.566   2.811  0.6352  0.2634 -0.0986
 5300SOL     OW27358   4.065   3.363   2.214 -0.0852  0.0626 -0.3628
 5300SOL    HW127359   4.072   3.448   2.170  0.8230  0.8133  1.2521
 5300SOL    HW227360   3.970   3.349   2.211 -0.1648  0.5512 -0.2199
 5301SOL     OW27361   3.042   2.690   4.661  0.2324  0.3136 -0.3955
 5301SOL    HW127362   2.996   2.774   4.654 -1.0134 -0.2586  1.0780
 5301SOL    HW227363   3.004   2.655   4.581 -1.0389 -0.6970  0.6655
 5302SOL     OW27364   4.682   0.448   8.083  0.1198  0.0237  0.4516
 5302SOL    HW127365   4.606   0.506   8.082 -0.6036 -0.9634 -1.4774
 5302SOL    HW227366   4.661   0.372   8.137  1.0634  0.5633  1.5802
 5303SOL     OW27367   2.537   3.943   3.911 -0.5922  0.1743  0.5182
 5303SOL    HW127368   2.602   3.979   3.851  0.8704  1.2597  2.7825
 5303SOL    HW227369   2.453   3.980   3.881  0.3196  0.4576 -1.7305
 5304SOL     OW27370   2.789   4.507   3.590  0.2660 -0.2535  0.2173
 5304SOL    HW127371   2.770   4.528   3.681 -0.1498 -1.5206  0.4252
 5304SOL    HW227372   2.751   4.420   3.576 -1.1224  0.2812  0.6107
 5305SOL     OW27373   2.526   3.425  14.150 -0.1263  0.1497 -0.0707
 5305SOL    HW127374   2.601   3.459  14.101  1.7346 -0.6549  2.1839
 5305SOL    HW227375   2.530   3.333  14.123  0.2055  0.1288  0.0434
 5306SOL     OW27376   3.187   3.851  11.411 -0.3517  0.2760  0.3904
 5306SOL    HW127377   3.121   3.864  11.479 -1.2613  2.1294 -0.8550
 5306SOL    HW227378   3.129   3.837  11.336 -0.6691 -1.4392  0.9352
 5307SOL     OW27379   3.082   3.432   5.971 -0.2505  0.1584 -0.0067
 5307SOL    HW127380   2.998   3.472   5.996 -0.4726  0.6678 -1.5867
 5307SOL    HW227381   3.056   3.369   5.903  0.6868  0.9555 -1.0849
 5308SOL     OW27382   3.241   4.405   2.265  0.0676  0.7846 -0.6009
 5308SOL    HW127383   3.264   4.487   2.221  2.3881 -0.4704 -1.7681
 5308SOL    HW227384   3.290   4.349   2.204  0.1152  0.0636  0.1051
 5309SOL     OW27385   1.119   3.328   2.165 -0.1650 -0.3842  0.2876
 5309SOL    HW127386   1.072   3.325   2.081 -1.1075  3.3032  0.6826
 5309SOL    HW227387   1.052   3.329   2.233 -0.0713 -0.4623  0.3809
 5310SOL     OW27388   2.045   2.079   6.399  0.6638 -0.4223 -0.2408
 5310SOL    HW127389   2.020   2.052   6.310 -1.8984  1.7024 -0.1710
 5310SOL    HW227390   2.139   2.066   6.392  0.6523 -0.8461  0.3709
 5311SOL     OW27391   3.837   4.478   5.652 -0.1485 -0.4136 -0.1204
 5311SOL    HW127392   3.774   4.455   5.720  1.7236 -2.1683  1.0224
 5311SOL    HW227393   3.918   4.489   5.701 -1.1293 -0.5025  1.5273
 5312SOL     OW27394   3.055   0.865   4.405  1.0959 -0.2708  0.1620
 5312SOL    HW127395   2.995   0.937   4.425  0.7502 -0.6752  0.5869
 5312SOL    HW227396   3.015   0.819   4.331 -1.1409 -0.5640  1.5681
 5313SOL     OW27397   3.631   3.280   9.996  0.5526 -0.5362  0.0743
 5313SOL    HW127398   3.682   3.311  10.071  1.5750 -0.4813 -0.6433
 5313SOL    HW227399   3.586   3.206  10.036  0.8475 -2.4296 -3.1442
 5314SOL     OW27400   1.620   1.505   4.199  0.3439 -0.0162  0.2833
 5314SOL    HW127401   1.661   1.493   4.285 -2.0261 -2.2834  1.1179
 5314SOL    HW227402   1.540   1.555   4.216 -0.7616 -0.9404 -2.1603
 5315SOL     OW27403   2.355   1.788   7.804  0.2759 -0.5314 -0.5340
 5315SOL    HW127404   2.287   1.727   7.776 -1.6123  1.6805 -0.8631
 5315SOL    HW227405   2.423   1.723   7.816  0.6446 -0.1248 -0.4121
 5316SOL     OW27406   1.678   4.435  16.850  0.2139  0.2266 -0.7791
 5316SOL    HW127407   1.609   4.380  16.814 -0.6444  0.5743  0.3382
 5316SOL    HW227408   1.634   4.502  16.903  1.1196  0.6538 -0.5655
 5317SOL     OW27409   1.612   1.430  11.636 -0.0154 -0.0577  0.2676
 5317SOL    HW127410   1.543   1.367  11.612  0.8355 -1.2140  0.8393
 5317SOL    HW227411   1.577   1.494  11.698 -0.8895  0.4682 -0.7695
 5318SOL     OW27412   0.132   1.140   8.045 -0.1511 -0.8382  0.0320
 5318SOL    HW127413   0.088   1.198   8.107 -1.2720  0.2517 -1.7834
 5318SOL    HW227414   0.216   1.119   8.084 -1.7291  0.3905  4.1294
 5319SOL     OW27415   1.145   1.258   8.913  0.3244 -0.0498 -0.3716
 5319SOL    HW127416   1.201   1.250   8.990  0.6261 -0.3351 -0.6211
 5319SOL    HW227417   1.075   1.198   8.939  0.0187  0.7041  0.5700
 5320SOL     OW27418   0.647   4.202  11.691  0.3575  0.3584 -0.0711
 5320SOL    HW127419   0.615   4.267  11.627 -2.9260 -0.7170  0.4484
 5320SOL    HW227420   0.742   4.209  11.688  0.3625  0.0431 -0.8176
 5321SOL     OW27421   4.357   0.684  15.803 -0.1672 -0.1386  0.1808
 5321SOL    HW127422   4.371   0.757  15.742 -1.4996 -0.4920 -0.5403
 5321SOL    HW227423   4.345   0.606  15.748  0.7225 -0.3321  0.2517
 5322SOL     OW27424   2.502   2.693   2.992  0.0102 -0.0969  0.0857
 5322SOL    HW127425   2.551   2.763   2.948 -1.8540 -0.3759 -2.4575
 5322SOL    HW227426   2.567   2.626   2.968 -0.0954  0.0641 -0.6615
 5323SOL     OW27427   1.711   3.598   4.820  0.8552 -0.2159  0.0322
 5323SOL    HW127428   1.710   3.644   4.904  2.5929 -1.6748  0.8605
 5323SOL    HW227429   1.632   3.544   4.821  0.2225  0.7397  1.5960
 5324SOL     OW27430   0.946   3.394   5.536  0.4729 -0.3601 -0.5910
 5324SOL    HW127431   1.032   3.433   5.546  0.7799 -1.1557 -0.1042
 5324SOL    HW227432   0.963   3.311   5.491 -1.6676 -1.4277  0.5907
 5325SOL     OW27433   3.822   3.934   7.436  0.0504 -0.0544  0.0334
 5325SOL    HW127434   3.732   3.913   7.462  0.1954 -0.7588 -0.0267
 5325SOL    HW227435   3.818   4.029   7.452  0.4151 -0.2011  1.0187
 5326SOL     OW27436   1.797   4.511  12.246 -0.0301 -0.2663  0.4967
 5326SOL    HW127437   1.759   4.514  12.158  1.5268 -1.7483 -0.2199
 5326SOL    HW227438   1.794   4.417  12.267  1.5055 -0.0502  1.6829
 5327SOL     OW27439   2.128   1.713   6.623  0.1181  0.3666  0.1263
 5327SOL    HW127440   2.170   1.653   6.685 -0.8196  0.4869  0.8737
 5327SOL    HW227441   2.198   1.777   6.608 -0.5550  1.1769  0.4966
 5328SOL     OW27442   3.620   0.591  14.006 -0.2208  0.2175 -0.0047
 5328SOL    HW127443   3.560   0.572  14.078 -0.2337 -1.1836 -0.3803
 5328SOL    HW227444   3.592   0.528  13.940  0.9116  2.1623 -2.3482
 5329SOL     OW27445   1.372   0.991   6.273  0.3250 -0.1698  0.4936
 5329SOL    HW127446   1.282   1.014   6.296  0.2570  1.2595 -1.1738
 5329SOL    HW227447   1.424   1.032   6.341  0.7976  1.4106 -0.8443
 5330SOL     OW27448   3.581   3.481  12.445  0.1759 -0.4134 -0.4707
 5330SOL    HW127449   3.663   3.438  12.468  0.1952  0.0364  0.2930
 5330SOL    HW227450   3.518   3.413  12.467  1.1340 -0.9308  0.6615
 5331SOL     OW27451   3.030   1.237   2.272 -0.9687 -0.3451 -0.1887
 5331SOL    HW127452   3.057   1.147   2.290 -0.6231 -0.3243 -0.6317
 5331SOL    HW227453   2.935   1.224   2.266 -0.8186 -1.6383  0.2185
 5332SOL     OW27454   4.096   1.916   1.992  0.2684 -0.7415 -0.5033
 5332SOL    HW127455   4.002   1.909   1.977  0.1155  0.6455 -0.1820
 5332SOL    HW227456   4.129   2.000   1.959 -4.4316  1.5467  0.6929
 5333SOL     OW27457   1.581   4.128  12.546 -0.1021 -0.5333  0.5792
 5333SOL    HW127458   1.553   4.050  12.594 -1.3049 -0.5133 -0.0911
 5333SOL    HW227459   1.562   4.194  12.612 -2.7051 -2.4612  1.7534
 5334SOL     OW27460   4.001   0.217   8.641 -0.3123 -0.0754 -0.2965
 5334SOL    HW127461   3.936   0.281   8.611 -0.1436  1.8769  3.5305
 5334SOL    HW227462   3.938   0.158   8.684  1.3924 -1.4781  0.2588
 5335SOL     OW27463   4.292   1.941   2.538  0.2471 -0.6732  0.0254
 5335SOL    HW127464   4.227   2.011   2.552 -0.0791 -1.3681  2.0453
 5335SOL    HW227465   4.258   1.889   2.465  0.5418  0.9641 -1.2887
 5336SOL     OW27466   0.942   1.264   0.541 -0.4719  0.5512  0.1669
 5336SOL    HW127467   0.915   1.321   0.469 -0.0089  1.1883  0.4918
 5336SOL    HW227468   0.892   1.297   0.615  0.6813 -0.0317  1.2068
 5337SOL     OW27469   1.224   0.321   7.468  0.1461  0.1753  0.7185
 5337SOL    HW127470   1.291   0.386   7.444  0.9204 -0.9722 -0.2549
 5337SOL    HW227471   1.288   0.255   7.495 -0.0288 -0.2963 -0.0091
 5338SOL     OW27472   2.136   0.082  17.609  0.4119  0.0187  0.0044
 5338SOL    HW127473   2.105   0.172  17.611 -1.9804 -0.7802 -1.3752
 5338SOL    HW227474   2.055   0.030  17.607  1.2973 -1.3531 -0.3587
 5339SOL     OW27475   2.543   0.907   2.988  0.4907  0.0188 -0.0152
 5339SOL    HW127476   2.627   0.920   2.945  0.0030  0.1301 -0.9583
 5339SOL    HW227477   2.560   0.821   3.026  1.0291 -0.2991 -0.9718
 5340SOL     OW27478   0.804   2.891   6.750 -0.1765 -0.7192  0.3660
 5340SOL    HW127479   0.777   2.959   6.811 -0.3773 -0.7760  0.3403
 5340SOL    HW227480   0.840   2.947   6.681  3.4068 -1.8981  1.2859
 5341SOL     OW27481   4.529   0.521  13.715 -0.2731 -0.1969  0.2971
 5341SOL    HW127482   4.512   0.584  13.645 -0.3380 -2.2128 -1.4783
 5341SOL    HW227483   4.480   0.445  13.683 -4.3002  0.9086  3.8446
 5342SOL     OW27484   4.306   0.237   3.722 -0.5364 -0.4227  0.1743
 5342SOL    HW127485   4.272   0.326   3.714  0.6325 -0.1340 -1.5032
 5342SOL    HW227486   4.338   0.235   3.812  0.1650 -0.1859 -0.0721
 5343SOL     OW27487   1.391   2.760   0.937 -0.3401  0.3197  0.0384
 5343SOL    HW127488   1.354   2.686   0.985  0.3181 -1.0427 -1.5677
 5343SOL    HW227489   1.323   2.796   0.880 -0.5160 -1.2877 -0.7728
 5344SOL     OW27490   4.582   2.172  17.584  0.3850 -0.4290 -0.1950
 5344SOL    HW127491   4.560   2.240  17.647 -2.2488 -0.4764 -1.0806
 5344SOL    HW227492   4.530   2.188  17.505 -0.7787 -2.0023  0.2667
 5345SOL     OW27493   3.462   2.520  17.358  0.2217  0.3259 -0.2871
 5345SOL    HW127494   3.445   2.593  17.418  2.2786  0.1958  0.4433
 5345SOL    HW227495   3.555   2.530  17.342  0.8340 -2.0555  1.7643
 5346SOL     OW27496   0.949   4.480   3.884  0.2553 -0.0026 -0.4507
 5346SOL    HW127497   0.893   4.448   3.814 -1.0065 -1.0060  1.0229
 5346SOL    HW227498   0.944   4.411   3.950 -1.6235 -1.4739 -2.1444
 5347SOL     OW27499   3.235   2.293   2.171 -0.4098  0.3052  0.2086
 5347SOL    HW127500   3.192   2.378   2.159 -4.0589 -1.8711 -2.0344
 5347SOL    HW227501   3.307   2.313   2.231 -1.0088  0.2269  0.9429
 5348SOL     OW27502   0.372   1.899   2.371 -0.1056 -0.1137 -0.1246
 5348SOL    HW127503   0.297   1.853   2.408  0.9778 -0.8915  1.1013
 5348SOL    HW227504   0.343   1.890   2.280 -1.0760 -2.0603  0.3792
 5349SOL     OW27505   2.851   0.783   1.084 -0.5001  0.9066 -0.1753
 5349SOL    HW127506   2.890   0.706   1.042  1.0370  2.6967 -2.0600
 5349SOL    HW227507   2.892   0.775   1.170 -0.9205  2.6377  0.1921
 5350SOL     OW27508   2.878   1.996  10.129 -0.3275 -0.2872  0.1442
 5350SOL    HW127509   2.957   1.973  10.081  0.4894 -2.1951  2.3925
 5350SOL    HW227510   2.907   2.081  10.163  1.0352 -0.5142 -0.4840
 5351SOL     OW27511   0.906   4.199   8.485  0.3438 -0.3711  0.0656
 5351SOL    HW127512   0.951   4.283   8.474 -0.6650 -0.1982 -2.5028
 5351SOL    HW227513   0.864   4.181   8.401 -0.7899 -0.6333  0.6844
 5352SOL     OW27514   3.248   3.044  11.981  0.9024 -0.3117 -0.1226
 5352SOL    HW127515   3.178   3.109  11.981 -0.6002 -1.9241 -0.7008
 5352SOL    HW227516   3.204   2.976  12.031 -1.1508  1.3463  0.3048
 5353SOL     OW27517   2.334   1.595   2.875  0.3939 -0.7879  0.2244
 5353SOL    HW127518   2.414   1.555   2.840  0.6074  0.1826 -0.3697
 5353SOL    HW227519   2.322   1.532   2.946  1.2067 -0.6197  0.5164
 5354SOL     OW27520   3.471   4.518   8.191 -0.1530 -0.4502  0.7142
 5354SOL    HW127521   3.444   4.545   8.278  0.2599 -0.8604  0.9726
 5354SOL    HW227522   3.502   4.598   8.149 -1.2233 -1.3725 -1.8370
 5355SOL     OW27523   0.332   2.593   3.659  0.1294 -0.6474 -0.2799
 5355SOL    HW127524   0.278   2.641   3.596  2.6849  2.0686 -0.3596
 5355SOL    HW227525   0.342   2.661   3.725  1.6108  0.9596 -2.1581
 5356SOL     OW27526   1.246   4.498   4.137  0.4644  0.4479 -0.1722
 5356SOL    HW127527   1.289   4.494   4.051 -0.4196 -2.5848 -0.4646
 5356SOL    HW227528   1.252   4.592   4.152  0.7004  0.2890  0.6993
 5357SOL     OW27529   3.255   3.901   7.558 -0.7825  0.1100 -0.0471
 5357SOL    HW127530   3.211   3.875   7.639  2.5606  0.1298  1.7883
 5357SOL    HW227531   3.234   3.994   7.562  0.2394  0.5866 -5.0674
 5358SOL     OW27532   4.091   3.221   3.180  0.3069 -0.0605 -0.4898
 5358SOL    HW127533   4.168   3.224   3.124 -0.0713  1.2580 -0.9342
 5358SOL    HW227534   4.112   3.163   3.253 -1.5472 -0.2478 -0.1124
 5359SOL     OW27535   1.232   3.604   9.889 -0.0168 -0.4678  0.1991
 5359SOL    HW127536   1.221   3.685   9.840 -2.5287  0.1236  1.7086
 5359SOL    HW227537   1.227   3.544   9.815 -1.2352  0.5702 -0.5477
 5360SOL     OW27538   2.971   1.802   3.521  0.5443 -0.2619 -0.0538
 5360SOL    HW127539   2.958   1.715   3.484  0.4503  0.1778 -1.0785
 5360SOL    HW227540   2.891   1.851   3.505  0.4954 -0.3829 -0.1841
 5361SOL     OW27541   4.527   1.503  13.643  0.2503 -0.4405 -0.3102
 5361SOL    HW127542   4.528   1.475  13.552  1.0070 -0.2841 -0.3548
 5361SOL    HW227543   4.443   1.546  13.652 -0.4634 -2.0261  0.5985
 5362SOL     OW27544   2.236   3.941   6.990 -0.0801  0.3088 -0.1183
 5362SOL    HW127545   2.160   3.902   7.034 -1.9101  1.4212 -2.3022
 5362SOL    HW227546   2.233   3.884   6.912  1.6096  2.2751 -1.6268
 5363SOL     OW27547   0.792   3.788   5.689  0.7786  0.0485  0.1229
 5363SOL    HW127548   0.764   3.855   5.627 -0.0262 -0.9392 -0.5754
 5363SOL    HW227549   0.774   3.712   5.634  0.0592  0.3176 -0.0039
 5364SOL     OW27550   3.714   2.922   3.657 -0.5007 -0.1140 -0.4452
 5364SOL    HW127551   3.719   2.946   3.749  0.6543 -3.5113  0.3513
 5364SOL    HW227552   3.634   2.965   3.626 -0.9960 -0.8385 -0.1634
 5365SOL     OW27553   0.477   0.504  11.671  0.3642  0.5322  0.0512
 5365SOL    HW127554   0.547   0.498  11.736  0.4488 -1.7963 -0.2671
 5365SOL    HW227555   0.449   0.594  11.687 -0.1379  0.7674 -2.1736
 5366SOL     OW27556   3.370   3.681   3.210  0.1594  0.2274  0.1403
 5366SOL    HW127557   3.329   3.753   3.257  1.2995 -0.3531  2.0157
 5366SOL    HW227558   3.463   3.707   3.214  0.1861 -0.0807  1.4151
 5367SOL     OW27559   0.992   0.265   2.773  0.3615  0.5855 -0.3346
 5367SOL    HW127560   0.993   0.266   2.677  1.9339  1.6065 -0.3065
 5367SOL    HW227561   1.083   0.248   2.794  0.5752  0.4855 -1.3324
 5368SOL     OW27562   3.464   2.079   8.102 -0.1358  0.2292  0.0349
 5368SOL    HW127563   3.532   2.048   8.042  0.6193  0.2027  0.9216
 5368SOL    HW227564   3.383   2.034   8.078 -0.9939  1.2537  1.0259
 5369SOL     OW27565   2.742   2.015   5.127 -0.2892  0.1681  0.2977
 5369SOL    HW127566   2.695   1.946   5.081  1.2452 -2.1720  2.1967
 5369SOL    HW227567   2.772   2.071   5.056 -2.0612  0.5677 -0.1319
 5370SOL     OW27568   3.515   2.013   7.581  0.0258 -0.4665  0.6412
 5370SOL    HW127569   3.573   2.021   7.506 -0.5868  3.5084  0.5795
 5370SOL    HW227570   3.485   1.923   7.566  1.2311 -0.8191  0.3204
 5371SOL     OW27571   2.939   3.854  11.513 -0.0503  0.8287 -0.0791
 5371SOL    HW127572   2.850   3.836  11.544 -0.1841 -0.9253 -1.5608
 5371SOL    HW227573   2.939   3.950  11.507  0.3339  0.9320  1.5770
 5372SOL     OW27574   1.117   2.549   8.857  0.3069  0.5527 -0.2726
 5372SOL    HW127575   1.172   2.481   8.897 -1.6987 -1.3248 -0.7083
 5372SOL    HW227576   1.114   2.618   8.924  0.2071  1.4390 -1.1860
 5373SOL     OW27577   3.052   3.205   5.293  1.0032  0.1288 -0.5943
 5373SOL    HW127578   2.984   3.244   5.238 -0.0534 -0.5407  0.2532
 5373SOL    HW227579   3.129   3.213   5.235  0.6193  2.6163 -0.7455
 5374SOL     OW27580   2.559   0.828   1.554 -0.1474 -0.4507  0.4005
 5374SOL    HW127581   2.608   0.768   1.497 -1.9262  0.9174 -2.5619
 5374SOL    HW227582   2.478   0.822   1.503 -0.1933 -0.4653  0.4754
 5375SOL     OW27583   4.548   4.083   5.485 -0.0366 -0.3850 -0.0173
 5375SOL    HW127584   4.636   4.102   5.451 -0.3664  0.7514 -0.2196
 5375SOL    HW227585   4.494   4.102   5.409 -1.0671  1.5775  1.1910
 5376SOL     OW27586   0.668   2.150   5.451 -0.3118 -0.2938 -0.4007
 5376SOL    HW127587   0.696   2.139   5.360 -1.2161 -0.4789 -0.6540
 5376SOL    HW227588   0.750   2.183   5.487 -0.1681 -0.8115 -0.2426
 5377SOL     OW27589   1.043   1.396  11.666  0.0255  0.4404 -0.4817
 5377SOL    HW127590   1.117   1.457  11.673  0.9156 -0.5415 -1.4100
 5377SOL    HW227591   1.088   1.314  11.686 -0.6646  0.1761 -0.0321
 5378SOL     OW27592   3.328   2.094  14.696  0.7409 -0.4890 -0.4187
 5378SOL    HW127593   3.317   2.076  14.789  0.0878  2.4385  0.0694
 5378SOL    HW227594   3.294   2.016  14.652 -0.3270 -1.0272  1.3929
 5379SOL     OW27595   3.476   3.621   2.758 -0.2520  0.2853 -0.3482
 5379SOL    HW127596   3.393   3.617   2.710 -0.7762  1.1904  0.4821
 5379SOL    HW227597   3.445   3.616   2.848 -2.7227 -1.5963 -1.2988
 5380SOL     OW27598   4.205   3.774  14.782 -0.1194  1.2756  0.2123
 5380SOL    HW127599   4.191   3.682  14.762 -1.7677  1.9877 -1.9074
 5380SOL    HW227600   4.182   3.814  14.698  0.9786  0.8492 -0.2841
 5381SOL     OW27601   0.894   4.441  12.531 -0.2430  0.0643 -0.0683
 5381SOL    HW127602   0.844   4.418  12.610  0.0192 -0.8283 -0.1593
 5381SOL    HW227603   0.983   4.459  12.561  0.3072 -0.6615 -1.2722
 5382SOL     OW27604   2.320   0.876   3.873  0.2833 -0.4309  0.6206
 5382SOL    HW127605   2.414   0.892   3.878  0.2975 -0.1074 -0.6482
 5382SOL    HW227606   2.311   0.853   3.966 -1.9918 -0.1999  0.4588
 5383SOL     OW27607   0.817   0.415   8.388 -0.2271 -0.4437 -0.0638
 5383SOL    HW127608   0.843   0.499   8.350 -2.6009  1.3364  2.2452
 5383SOL    HW227609   0.902   0.390   8.425 -0.1533 -0.3067 -0.1396
 5384SOL     OW27610   4.293   2.786   3.223 -0.2288 -0.0816  0.1226
 5384SOL    HW127611   4.200   2.804   3.210  0.2210  1.7830 -0.4608
 5384SOL    HW227612   4.302   2.725   3.150  2.7096 -1.3239  1.5436
 5385SOL     OW27613   2.867   1.695   8.446  1.0357 -0.0400  0.6149
 5385SOL    HW127614   2.952   1.657   8.468 -0.0523 -1.2961  2.6744
 5385SOL    HW227615   2.806   1.646   8.502 -1.9318  1.8719 -0.9403
 5386SOL     OW27616   2.913   1.821  14.206 -0.2984 -0.0160  0.2472
 5386SOL    HW127617   2.967   1.900  14.208 -0.8344  0.3503  0.3420
 5386SOL    HW227618   2.884   1.829  14.296 -4.2425  1.6743 -1.1683
 5387SOL     OW27619   0.693   0.394   9.296 -0.4933  0.0176  0.2645
 5387SOL    HW127620   0.703   0.302   9.275  1.5851  0.4113 -0.3900
 5387SOL    HW227621   0.617   0.419   9.244  0.2163  2.7426  0.5059
 5388SOL     OW27622   1.766   3.821  10.816 -0.4609  0.0831  0.0437
 5388SOL    HW127623   1.686   3.772  10.833 -1.6300  1.9814  0.0586
 5388SOL    HW227624   1.747   3.886  10.748  1.2558  1.3633  0.7966
 5389SOL     OW27625   2.027   2.170   5.336 -0.2593  0.1295  0.0889
 5389SOL    HW127626   1.933   2.160   5.349 -0.2812 -1.5280 -1.3305
 5389SOL    HW227627   2.059   2.223   5.408  0.1137 -0.0471  0.0549
 5390SOL     OW27628   3.466   1.630  10.714 -0.2257  0.7115 -0.6648
 5390SOL    HW127629   3.442   1.609  10.804  1.3935  1.9668  0.0597
 5390SOL    HW227630   3.549   1.673  10.736  0.6087 -1.6408  0.7155
 5391SOL     OW27631   3.439   1.763   4.446 -0.1407  0.0673 -0.1330
 5391SOL    HW127632   3.442   1.821   4.522 -0.9269 -1.3729  1.0067
 5391SOL    HW227633   3.365   1.806   4.403  0.3915  0.6381 -0.4860
 5392SOL     OW27634   0.137   2.378   3.150  0.1093  0.2672 -0.1628
 5392SOL    HW127635   0.084   2.298   3.156 -2.7920  2.1161 -1.0465
 5392SOL    HW227636   0.203   2.358   3.217  0.1394  1.4333  0.1451
 5393SOL     OW27637   0.759   2.853   0.671  0.1348  0.1029 -0.8437
 5393SOL    HW127638   0.823   2.791   0.637 -2.1954 -0.8051 -3.5627
 5393SOL    HW227639   0.715   2.810   0.745  0.2877  0.4586 -0.5449
 5394SOL     OW27640   3.505   1.867  12.217  0.1057 -0.3850 -0.2659
 5394SOL    HW127641   3.588   1.826  12.192  0.4738  1.2380 -1.7270
 5394SOL    HW227642   3.510   1.849  12.311 -1.8516 -0.1936 -0.1350
 5395SOL     OW27643   3.560   3.660   7.064 -0.1419 -0.5829 -0.5022
 5395SOL    HW127644   3.582   3.715   6.989  1.6750 -0.0263  0.4548
 5395SOL    HW227645   3.531   3.585   7.012  0.8121 -0.9975 -0.4249
 5396SOL     OW27646   1.804   0.926   5.175  0.3971 -0.1105 -0.0503
 5396SOL    HW127647   1.806   1.005   5.121  0.1560 -0.3600 -0.4272
 5396SOL    HW227648   1.710   0.907   5.174  0.2780  0.5809 -1.2599
 5397SOL     OW27649   0.205   2.543   6.210  0.8435  0.2454 -0.2402
 5397SOL    HW127650   0.201   2.510   6.300  0.1731 -1.4363 -0.8951
 5397SOL    HW227651   0.146   2.618   6.221  0.2169 -0.3508  0.4575
 5398SOL     OW27652   4.175   0.108   5.759 -0.3354  0.3500 -0.1253
 5398SOL    HW127653   4.197   0.181   5.817 -0.6530  0.5352 -0.2362
 5398SOL    HW227654   4.240   0.043   5.786 -0.4290  0.2461 -0.1510
 5399SOL     OW27655   2.393   3.704   2.319  0.5395  0.2491 -0.3520
 5399SOL    HW127656   2.475   3.669   2.353 -0.8231  0.3994  3.1841
 5399SOL    HW227657   2.352   3.696   2.406 -1.7124 -0.0492 -1.4355
 5400SOL     OW27658   0.652   1.325   8.883  0.4662  0.3653 -0.2691
 5400SOL    HW127659   0.640   1.419   8.901 -3.8347 -0.2322 -0.1369
 5400SOL    HW227660   0.721   1.301   8.946 -1.0476 -3.2022  0.0132
 5401SOL     OW27661   4.304   3.653   3.865 -0.3327 -0.1056 -0.3612
 5401SOL    HW127662   4.211   3.674   3.870 -0.1300  0.7440 -0.0835
 5401SOL    HW227663   4.334   3.714   3.933  0.0525  0.6482 -1.2044
 5402SOL     OW27664   3.496   1.081   7.491 -0.4017 -0.6711 -0.4599
 5402SOL    HW127665   3.511   1.149   7.426  0.3473  0.5896  1.0222
 5402SOL    HW227666   3.586   1.065   7.522 -0.4006 -2.7967 -1.5745
 5403SOL     OW27667   1.669   1.995   4.187  0.5569  0.0780 -0.1414
 5403SOL    HW127668   1.630   2.013   4.273 -0.3191  0.6316 -0.6492
 5403SOL    HW227669   1.721   2.072   4.163 -2.3023  1.4250 -2.1387
 5404SOL     OW27670   1.594   3.579  13.927 -0.4452 -0.4252  0.1162
 5404SOL    HW127671   1.518   3.599  13.982  0.2650 -0.2725  1.0579
 5404SOL    HW227672   1.639   3.531  13.997 -0.6699 -0.1178  0.4710
 5405SOL     OW27673   0.650   4.700  11.611 -0.0883  0.4558 -0.3806
 5405SOL    HW127674   0.604   0.031  11.677  0.2882 -0.8963  0.9294
 5405SOL    HW227675   0.741   4.708  11.640  1.1965 -0.8786 -3.9543
 5406SOL     OW27676   3.555   1.883  15.356  0.2891 -0.0582 -0.6719
 5406SOL    HW127677   3.587   1.971  15.377 -0.4903 -0.2761  1.5174
 5406SOL    HW227678   3.490   1.905  15.289  0.7394 -2.6252 -1.9256
 5407SOL     OW27679   3.290   0.845  16.601 -0.0870  0.0365 -0.5737
 5407SOL    HW127680   3.205   0.801  16.598 -0.8105  1.3256  1.0412
 5407SOL    HW227681   3.317   0.825  16.690 -0.9556 -0.1451 -0.3551
 5408SOL     OW27682   1.106   1.376   6.802  0.2895 -0.0974 -0.0451
 5408SOL    HW127683   1.017   1.341   6.790  0.2935 -0.2236  0.2841
 5408SOL    HW227684   1.112   1.373   6.898  1.8190 -0.9422 -0.1720
 5409SOL     OW27685   4.042   4.462   7.633 -0.2566  0.0361 -0.5375
 5409SOL    HW127686   4.131   4.497   7.631  0.3627 -1.6522 -2.2048
 5409SOL    HW227687   4.049   4.397   7.702  2.3562  1.9101  0.9527
 5410SOL     OW27688   3.484   1.948   5.890  0.1345  0.0186  0.4391
 5410SOL    HW127689   3.432   1.930   5.969 -0.2315 -0.2135  0.1456
 5410SOL    HW227690   3.522   1.866   5.860  1.0974  1.3362 -1.9062
 5411SOL     OW27691   3.850   1.409   3.864 -0.3995  0.3719  0.7531
 5411SOL    HW127692   3.781   1.453   3.814  0.9001  0.2920 -1.1273
 5411SOL    HW227693   3.916   1.441   3.803 -2.8458  1.1674 -1.4703
 5412SOL     OW27694   2.843   3.399   4.176  0.1552 -0.4262  0.4099
 5412SOL    HW127695   2.776   3.352   4.126  2.2013 -2.3042 -0.5872
 5412SOL    HW227696   2.911   3.405   4.109 -1.1952 -1.0994 -1.0084
 5413SOL     OW27697   2.914   0.983   9.318 -0.2993  0.3048 -0.0111
 5413SOL    HW127698   2.843   0.993   9.254 -1.3798  1.6941  1.4205
 5413SOL    HW227699   2.986   0.955   9.261 -1.9834  0.1343 -2.0441
 5414SOL     OW27700   0.040   3.033  17.211 -0.2322 -0.5497  0.3385
 5414SOL    HW127701   0.052   2.990  17.295  0.2474 -1.1216 -0.0185
 5414SOL    HW227702   4.665   3.025  17.200 -0.2044 -0.9945  0.4294
 5415SOL     OW27703   2.353   2.144   7.306 -0.2312 -0.1234 -0.5273
 5415SOL    HW127704   2.262   2.161   7.331  0.5442  0.6361  1.7795
 5415SOL    HW227705   2.368   2.197   7.227  0.7587 -1.0350 -0.9504
 5416SOL     OW27706   4.475   3.739   1.380 -0.1898 -0.4853  0.7315
 5416SOL    HW127707   4.380   3.749   1.376 -0.2344 -2.5408 -2.6960
 5416SOL    HW227708   4.501   3.770   1.467 -0.4059  2.0514 -0.1288
 5417SOL     OW27709   1.396   3.563   5.958  0.1846  0.2748  0.3563
 5417SOL    HW127710   1.305   3.587   5.944  0.7309  1.5656 -1.0072
 5417SOL    HW227711   1.429   3.651   5.975  1.4729 -0.5098  1.9624
 5418SOL     OW27712   3.003   3.841  11.220 -0.8597  0.8784  0.3048
 5418SOL    HW127713   2.941   3.774  11.248 -0.5848  1.7872  3.0693
 5418SOL    HW227714   2.937   3.900  11.185 -1.2764 -0.0382 -0.4708
 5419SOL     OW27715   1.918   0.771   3.839 -0.0363 -0.1571 -0.2016
 5419SOL    HW127716   1.867   0.827   3.780 -1.3526  0.4261  1.4810
 5419SOL    HW227717   1.853   0.702   3.856  1.1337 -0.5089  2.8243
 5420SOL     OW27718   0.631   2.977   3.801  0.1403 -0.1165 -0.1193
 5420SOL    HW127719   0.663   2.990   3.890 -2.8726 -2.6344  1.3191
 5420SOL    HW227720   0.657   2.885   3.790  0.3547  0.0317 -0.8317
 5421SOL     OW27721   1.383   0.253   6.739 -0.0282  0.5295 -0.0967
 5421SOL    HW127722   1.403   0.180   6.798 -1.2293 -0.3152 -0.7388
 5421SOL    HW227723   1.465   0.301   6.754  1.5672 -1.9042 -1.0327
 5422SOL     OW27724   1.369   0.622   3.745 -0.3512 -0.2273  0.3134
 5422SOL    HW127725   1.360   0.577   3.829 -0.3480  0.8639  0.8997
 5422SOL    HW227726   1.428   0.558   3.705 -2.4700 -2.2770  0.4929
 5423SOL     OW27727   2.324   3.079  11.223 -0.3008  0.0725  0.4974
 5423SOL    HW127728   2.357   3.107  11.308  0.2271  0.2544  0.2277
 5423SOL    HW227729   2.396   3.021  11.198 -1.5332 -0.3928 -1.9087
 5424SOL     OW27730   3.910   1.797   2.782 -0.4575  0.5179  0.1179
 5424SOL    HW127731   3.849   1.869   2.763  0.7985  1.6994  0.5887
 5424SOL    HW227732   3.854   1.749   2.844 -1.8146  1.2056 -0.5570
 5425SOL     OW27733   0.387   4.412   5.311  0.2385 -0.1388 -0.3748
 5425SOL    HW127734   0.326   4.397   5.384  1.7334  1.0574  1.1227
 5425SOL    HW227735   0.345   4.485   5.266 -0.7140 -0.4001  0.0908
 5426SOL     OW27736   1.612   1.475   9.092 -0.1429 -0.2455  0.6812
 5426SOL    HW127737   1.701   1.471   9.128  0.2217 -0.9942 -0.2875
 5426SOL    HW227738   1.556   1.463   9.168  0.2928  0.9115  1.1762
 5427SOL     OW27739   0.928   3.911   7.283  0.0558  0.2191 -0.1229
 5427SOL    HW127740   0.888   3.945   7.202 -1.7125 -1.6346 -0.0180
 5427SOL    HW227741   1.020   3.925   7.261 -0.5725  0.6388 -2.5465
 5428SOL     OW27742   0.683   1.583   4.460 -0.4638  0.2609 -0.6030
 5428SOL    HW127743   0.594   1.615   4.448 -0.2181  0.7959 -1.0148
 5428SOL    HW227744   0.711   1.622   4.543 -1.7299 -2.5924  1.1472
 5429SOL     OW27745   4.535   2.494  15.910 -0.1668 -0.5138  0.3335
 5429SOL    HW127746   4.515   2.473  15.819 -0.1480 -0.5352  0.3341
 5429SOL    HW227747   4.612   2.549  15.897  0.0112 -0.4598  1.6291
 5430SOL     OW27748   1.970   3.633  12.194 -0.4355 -0.0234 -0.2286
 5430SOL    HW127749   2.027   3.664  12.124 -0.3933  2.8002  1.0308
 5430SOL    HW227750   2.032   3.648  12.266 -0.3345 -0.4934 -0.2137
 5431SOL     OW27751   4.587   2.130  11.898 -0.0026  0.1426 -0.2415
 5431SOL    HW127752   4.590   2.222  11.923 -1.0979  0.5808 -1.6761
 5431SOL    HW227753   4.538   2.093  11.971  0.1584  0.3046 -0.0518
 5432SOL     OW27754   2.402   0.899   0.746  0.3763  0.2658  0.4160
 5432SOL    HW127755   2.410   0.813   0.787 -2.7349  0.0389  0.5557
 5432SOL    HW227756   2.456   0.881   0.669 -1.6020 -1.6135 -0.5281
 5433SOL     OW27757   0.514   1.844   8.254 -0.3499 -0.3656 -0.3182
 5433SOL    HW127758   0.574   1.877   8.320  0.6868 -3.4789  0.2975
 5433SOL    HW227759   0.494   1.754   8.280 -1.5547 -0.1166 -0.3776
 5434SOL     OW27760   1.369   1.745  17.553 -0.1183  0.4541  0.7003
 5434SOL    HW127761   1.407   1.757  17.641  2.4642 -2.0104 -0.0867
 5434SOL    HW227762   1.318   1.826  17.556 -1.2009 -0.1433 -1.9080
 5435SOL     OW27763   0.394   2.753   3.877 -0.0100 -0.1225 -0.2259
 5435SOL    HW127764   0.398   2.687   3.946  3.9595  0.9946  0.5984
 5435SOL    HW227765   0.340   2.825   3.912  1.2536 -0.0589  1.6177
 5436SOL     OW27766   3.421   0.037   6.535 -0.1360 -0.3396  0.3243
 5436SOL    HW127767   3.469   4.718   6.607  1.3304 -0.5204 -0.7489
 5436SOL    HW227768   3.428   0.126   6.570  1.4208 -0.4049  0.1608
 5437SOL     OW27769   2.736   2.069   9.892 -0.0542 -0.1259  0.5085
 5437SOL    HW127770   2.789   2.014   9.950 -0.8552 -2.6722 -1.1304
 5437SOL    HW227771   2.785   2.151   9.894 -1.3087  0.6552 -0.6618
 5438SOL     OW27772   4.543   2.807   4.647  0.1800 -0.3201 -0.1198
 5438SOL    HW127773   4.530   2.725   4.694  2.7366 -0.4847  0.2815
 5438SOL    HW227774   4.593   2.772   4.573 -2.6975 -0.0462 -2.2219
 5439SOL     OW27775   4.371   1.290   6.856  0.1677 -0.3179 -0.6089
 5439SOL    HW127776   4.445   1.303   6.915  0.7644 -2.9620 -0.7843
 5439SOL    HW227777   4.415   1.263   6.776  0.5013 -0.9991 -0.1879
 5440SOL     OW27778   0.056   2.940   4.240 -0.3390  0.1572 -0.2962
 5440SOL    HW127779   0.033   2.940   4.147  1.6132 -0.2662 -0.7790
 5440SOL    HW227780   0.122   3.009   4.247 -0.5470  0.5732 -2.5253
 5441SOL     OW27781   4.628   4.149   1.849 -0.1606 -0.5710 -0.5233
 5441SOL    HW127782   4.632   4.152   1.945 -2.9406 -0.1864 -0.4412
 5441SOL    HW227783   4.628   4.244   1.837 -2.1637 -0.5259 -0.0861
 5442SOL     OW27784   2.872   2.735  12.441 -0.5810  0.7238  0.1154
 5442SOL    HW127785   2.797   2.726  12.500 -1.3364 -3.6049 -1.5083
 5442SOL    HW227786   2.832   2.771  12.362  2.4928 -0.6830 -2.1160
 5443SOL     OW27787   4.437   1.806   3.677 -0.5646  0.0931  0.2094
 5443SOL    HW127788   4.361   1.861   3.696  0.0891  0.8755  0.5511
 5443SOL    HW227789   4.503   1.866   3.641  0.4311 -0.5023  1.0361
 5444SOL     OW27790   2.914   0.294   2.259 -0.1731  0.3333 -0.1215
 5444SOL    HW127791   2.933   0.322   2.169  2.5523  0.0909  0.3542
 5444SOL    HW227792   2.992   0.242   2.281  0.1335  1.3439  1.1728
 5445SOL     OW27793   2.324   1.409  11.186 -0.0086 -0.5373 -0.0033
 5445SOL    HW127794   2.306   1.342  11.252  1.6332 -2.2003 -1.2417
 5445SOL    HW227795   2.236   1.440  11.164  0.3260  0.3021 -0.1500
 5446SOL     OW27796   3.693   3.072  14.172  0.8118 -0.0768  0.4996
 5446SOL    HW127797   3.743   3.026  14.105 -0.3937  1.7690 -1.6621
 5446SOL    HW227798   3.689   3.163  14.143  0.6462 -0.1286  0.3597
 5447SOL     OW27799   3.487   4.396   3.161  0.4832  0.6400  0.2336
 5447SOL    HW127800   3.476   4.396   3.257  0.4657  3.1979  0.2304
 5447SOL    HW227801   3.401   4.431   3.138  1.8160  2.6447 -1.7105
 5448SOL     OW27802   1.579   0.662  15.800  0.2889  0.0173  0.4244
 5448SOL    HW127803   1.557   0.609  15.724 -0.7433  1.1026 -0.0267
 5448SOL    HW227804   1.551   0.748  15.770  1.3027 -0.0342 -0.6470
 5449SOL     OW27805   3.219   4.377   1.908  0.3947 -0.3840  0.3771
 5449SOL    HW127806   3.292   4.331   1.950  0.1490  0.4915  1.7437
 5449SOL    HW227807   3.240   4.468   1.928  0.8295 -0.5851  0.8335
 5450SOL     OW27808   3.782   1.655   5.437  0.4626 -0.3579  0.5467
 5450SOL    HW127809   3.759   1.627   5.348  0.3077 -0.4065  0.6025
 5450SOL    HW227810   3.763   1.748   5.424 -2.5553 -1.0611  0.0050
 5451SOL     OW27811   2.580   3.446   1.566  0.5029 -0.1914  0.1659
 5451SOL    HW127812   2.663   3.422   1.526  1.5341  0.4247  1.9399
 5451SOL    HW227813   2.606   3.493   1.645 -0.2007 -0.9248  0.8378
 5452SOL     OW27814   0.758   0.580   1.577 -0.3313 -0.1264 -0.1688
 5452SOL    HW127815   0.767   0.551   1.668 -2.5221  0.4277  0.2368
 5452SOL    HW227816   0.669   0.616   1.571 -0.1287  0.0020 -2.5951
 5453SOL     OW27817   0.892   0.300  17.054 -0.7636 -0.0652  0.2450
 5453SOL    HW127818   0.919   0.383  17.015 -0.2713 -0.6636 -0.7063
 5453SOL    HW227819   0.949   0.245  17.001 -0.1390  0.3828  0.4567
 5454SOL     OW27820   1.159   3.769   3.616 -0.4066  0.4372  0.2527
 5454SOL    HW127821   1.254   3.779   3.615 -0.3660  0.1390  0.9837
 5454SOL    HW227822   1.134   3.831   3.548  0.0085 -0.3289 -0.6123
 5455SOL     OW27823   2.109   4.056   1.567 -0.3108 -0.6994 -0.0597
 5455SOL    HW127824   2.166   4.109   1.510 -0.7481  0.7319  0.8264
 5455SOL    HW227825   2.109   3.973   1.520 -3.3940 -2.4519  3.0573
 5456SOL     OW27826   4.033   3.206   3.775  0.4192 -0.5048  0.0483
 5456SOL    HW127827   4.109   3.220   3.718  0.7910 -0.6013  0.5245
 5456SOL    HW227828   3.970   3.176   3.710 -0.4465 -2.0381  1.5883
 5457SOL     OW27829   0.071   4.106   1.409  0.4837  0.8509  0.1779
 5457SOL    HW127830   0.006   4.075   1.472  0.0885  2.5385  0.6056
 5457SOL    HW227831   0.097   4.194   1.437 -0.8166  1.6629 -1.1785
 5458SOL     OW27832   2.967   0.268   6.042 -0.4158 -0.1474 -0.9535
 5458SOL    HW127833   2.984   0.185   6.087  0.2711  0.8508  0.6135
 5458SOL    HW227834   2.968   0.335   6.110 -2.0141  0.0493 -1.1363
 5459SOL     OW27835   0.554   0.588  13.025 -0.1299 -0.5400  0.7738
 5459SOL    HW127836   0.616   0.654  12.994  0.2573 -0.9043  0.7897
 5459SOL    HW227837   0.475   0.622  12.982 -0.2260 -1.6988  0.0330
 5460SOL     OW27838   3.974   3.264   1.286  0.3914  0.1249 -0.5907
 5460SOL    HW127839   4.053   3.300   1.324 -0.3661  1.1449  0.0184
 5460SOL    HW227840   3.930   3.211   1.353  0.6332  1.7428  0.8446
 5461SOL     OW27841   4.462   3.075  14.952 -0.0955  0.1227 -0.1425
 5461SOL    HW127842   4.371   3.090  14.927 -1.0218 -2.1877  1.8165
 5461SOL    HW227843   4.512   3.144  14.908 -1.0213  0.6030 -0.4319
 5462SOL     OW27844   0.096   4.548   7.936 -0.4696  0.2231 -0.2418
 5462SOL    HW127845   0.094   4.452   7.938  1.3280  0.1614 -1.2034
 5462SOL    HW227846   0.176   4.565   7.887  0.9788  0.6947  2.3051
 5463SOL     OW27847   0.585   0.681   7.155  0.4008 -0.0391 -0.4628
 5463SOL    HW127848   0.575   0.601   7.207  0.4994  1.8997  2.5239
 5463SOL    HW227849   0.639   0.736   7.212  1.4105 -0.0518 -1.3972
 5464SOL     OW27850   1.250   1.999  17.555  0.2523  0.4166  0.0937
 5464SOL    HW127851   1.188   2.036  17.492 -0.7840  0.4525  1.1459
 5464SOL    HW227852   1.194   1.981  17.630  1.0737  1.1286  0.8871
 5465SOL     OW27853   0.139   1.739   6.569 -0.7501  0.6116 -0.0777
 5465SOL    HW127854   0.101   1.823   6.544  0.9611  0.4349 -3.3456
 5465SOL    HW227855   0.187   1.727   6.487 -0.3184 -1.7665  0.5247
 5466SOL     OW27856   2.554   2.278   5.240  0.1864  0.0736  0.1979
 5466SOL    HW127857   2.555   2.183   5.250  2.4018  0.0031 -0.5653
 5466SOL    HW227858   2.648   2.294   5.231 -0.1825  1.4996 -1.0625
 5467SOL     OW27859   4.454   1.556   6.109 -0.0644  0.1594  0.4096
 5467SOL    HW127860   4.482   1.590   6.024 -1.0021 -0.3217 -0.0852
 5467SOL    HW227861   4.370   1.514   6.090  0.2195 -0.5430  0.6840
 5468SOL     OW27862   0.524   2.409   3.596  0.2523  0.6291 -0.0606
 5468SOL    HW127863   0.466   2.475   3.634 -3.0018 -1.8080 -0.8562
 5468SOL    HW227864   0.458   2.348   3.563 -0.5445  0.6848  1.4533
 5469SOL     OW27865   4.111   0.288  16.440  0.5835  0.5006  0.1618
 5469SOL    HW127866   4.020   0.317  16.437  0.3522 -0.0191  1.8756
 5469SOL    HW227867   4.130   0.291  16.534  0.1298  2.2326  0.1962
 5470SOL     OW27868   2.809   1.672  16.654 -0.6448 -0.1739  0.1860
 5470SOL    HW127869   2.822   1.716  16.737  1.4411  0.6339 -0.5750
 5470SOL    HW227870   2.783   1.743  16.595  0.2654  0.4116  0.4932
 5471SOL     OW27871   4.236   0.489  12.027 -0.3127 -0.2308  0.3066
 5471SOL    HW127872   4.170   0.519  12.089 -2.1972  1.4287 -2.4898
 5471SOL    HW227873   4.290   0.566  12.010 -1.6560  0.7537  0.5256
 5472SOL     OW27874   2.251   4.345  15.458 -0.5247  0.3661 -0.1865
 5472SOL    HW127875   2.219   4.403  15.528 -1.7723  0.7109 -1.0324
 5472SOL    HW227876   2.167   4.306  15.433 -2.0271  2.3019  1.7525
 5473SOL     OW27877   3.770   2.106  14.267  0.1942 -0.2041 -0.2743
 5473SOL    HW127878   3.711   2.062  14.206 -0.2070  2.8979 -2.1539
 5473SOL    HW227879   3.852   2.093  14.220  0.6948  1.1136  0.2210
 5474SOL     OW27880   3.767   1.659   7.259  0.2820  0.5221 -0.0802
 5474SOL    HW127881   3.837   1.723   7.278  0.2175  1.1081 -1.7845
 5474SOL    HW227882   3.738   1.639   7.348  0.1339  4.1182  0.6907
 5475SOL     OW27883   4.313   3.482  13.261  0.8206 -0.1005 -0.4423
 5475SOL    HW127884   4.228   3.491  13.305  2.5043  0.6629  2.6572
 5475SOL    HW227885   4.375   3.516  13.327  0.5600  2.2559 -1.3981
 5476SOL     OW27886   1.764   1.455  14.381 -0.2877 -0.1631 -0.4260
 5476SOL    HW127887   1.794   1.407  14.458  2.6534  1.3890 -0.5959
 5476SOL    HW227888   1.842   1.495  14.344 -0.5197  0.5923 -0.0964
 5477SOL     OW27889   0.615   4.399  11.508  0.4426  0.1418  0.3028
 5477SOL    HW127890   0.573   4.474  11.551 -2.3265 -0.9826 -0.4647
 5477SOL    HW227891   0.647   4.435  11.425 -0.9133  1.7163  0.4562
 5478SOL     OW27892   4.682   3.785   5.345  0.3606  0.2125 -0.0013
 5478SOL    HW127893   4.593   3.786   5.309  0.3673 -1.9809 -0.1073
 5478SOL    HW227894   0.012   3.738   5.279 -1.7420  2.1323 -2.9498
 5479SOL     OW27895   1.050   1.928   8.015 -0.4951  0.3068  0.4669
 5479SOL    HW127896   1.145   1.916   8.016 -0.1449  2.9279 -1.5273
 5479SOL    HW227897   1.014   1.896   8.098 -1.1065  0.3957  0.2351
 5480SOL     OW27898   3.093   2.550   3.169 -0.2047 -0.4795 -0.6497
 5480SOL    HW127899   3.012   2.588   3.136  0.7023  2.0704  0.0691
 5480SOL    HW227900   3.064   2.459   3.163  2.5297 -1.2782 -1.9605
 5481SOL     OW27901   3.818   1.703   3.477 -0.2226  0.0284 -0.0393
 5481SOL    HW127902   3.846   1.705   3.569 -2.0232  0.3621  0.4893
 5481SOL    HW227903   3.830   1.795   3.452  1.8515 -0.8633 -2.4469
 5482SOL     OW27904   3.545   0.811  13.766 -0.5788  0.2694  0.3943
 5482SOL    HW127905   3.524   0.718  13.757  2.7734 -0.5121  0.3779
 5482SOL    HW227906   3.455   0.842  13.764 -1.3438 -2.0370 -0.8416
 5483SOL     OW27907   2.563   3.137   7.906 -0.2004 -0.0365 -0.2408
 5483SOL    HW127908   2.611   3.115   7.826  1.2339  0.6109  0.4413
 5483SOL    HW227909   2.583   3.230   7.906  1.6283 -0.4242 -1.7166
 5484SOL     OW27910   4.383   4.210   1.576  0.1752  0.0614 -0.3641
 5484SOL    HW127911   4.398   4.191   1.483  3.6682 -0.8859  0.4349
 5484SOL    HW227912   4.336   4.130   1.599  0.3776  0.2052  0.5330
 5485SOL     OW27913   3.679   1.059   8.075  0.0436 -0.4829 -0.5155
 5485SOL    HW127914   3.757   1.111   8.090 -0.9788  0.3109  2.0492
 5485SOL    HW227915   3.718   0.974   8.053 -2.1988 -1.6393  0.0005
 5486SOL     OW27916   0.749   2.013  16.470  0.6371 -0.1488  0.2895
 5486SOL    HW127917   0.797   2.023  16.388  2.3253 -0.7345  1.2161
 5486SOL    HW227918   0.762   2.103  16.499  0.1193  0.4054 -1.1763
 5487SOL     OW27919   1.734   2.903   6.351  0.1565 -0.2599  0.4523
 5487SOL    HW127920   1.760   2.816   6.381  0.6578  0.1891  1.3280
 5487SOL    HW227921   1.718   2.886   6.258 -2.9234 -0.4543  0.9998
 5488SOL     OW27922   3.036   2.673   2.787  0.2413 -0.3053  0.0758
 5488SOL    HW127923   2.981   2.675   2.865  3.3024 -1.3778  2.2743
 5488SOL    HW227924   2.989   2.728   2.724 -1.5142 -1.6433  0.2155
 5489SOL     OW27925   4.299   2.642   5.819 -0.1151  0.4595 -0.6425
 5489SOL    HW127926   4.252   2.565   5.849 -2.0832  1.4627 -1.1326
 5489SOL    HW227927   4.292   2.631   5.724  1.4014  0.1118 -0.7166
 5490SOL     OW27928   3.165   0.621   3.421 -0.3484 -0.7285  0.8048
 5490SOL    HW127929   3.136   0.708   3.448  0.0043 -0.8469  1.5754
 5490SOL    HW227930   3.256   0.623   3.452  0.7388  1.5910 -2.4195
 5491SOL     OW27931   0.356   2.179   2.049  0.1816  0.5626  0.0185
 5491SOL    HW127932   0.288   2.119   2.018  1.4128 -2.2738  2.7710
 5491SOL    HW227933   0.315   2.262   2.028 -1.0178 -0.4651 -1.7229
 5492SOL     OW27934   1.561   1.913  12.971 -0.6248  0.8601 -0.1066
 5492SOL    HW127935   1.501   1.964  13.025 -0.7139 -0.2781  0.8713
 5492SOL    HW227936   1.499   1.885  12.903 -2.1046 -0.6017  1.8429
 5493SOL     OW27937   2.543   1.340   7.549  0.2946 -0.0044 -0.6575
 5493SOL    HW127938   2.596   1.419   7.555 -1.1016  0.9282 -0.6678
 5493SOL    HW227939   2.574   1.289   7.624  0.5932 -0.1060 -0.8504
 5494SOL     OW27940   1.425   0.818   4.359 -0.3706 -0.0532  0.5658
 5494SOL    HW127941   1.454   0.866   4.437 -3.1960  3.4366 -0.5194
 5494SOL    HW227942   1.510   0.801   4.317 -1.3072 -2.1045 -0.4908
 5495SOL     OW27943   0.715   1.099   6.495 -0.0172  0.0571  0.6257
 5495SOL    HW127944   0.778   1.107   6.567  0.5599  2.8496 -0.1556
 5495SOL    HW227945   0.696   1.193   6.494 -3.3675 -0.6261  2.0763
 5496SOL     OW27946   3.956   1.481   9.385 -0.6039  0.5418 -0.4567
 5496SOL    HW127947   3.952   1.543   9.311  0.9176  0.7048 -0.4079
 5496SOL    HW227948   3.866   1.448   9.382  0.0193 -1.2719  0.9751
 5497SOL     OW27949   3.284   2.398   0.327  0.5356 -0.1729  0.5249
 5497SOL    HW127950   3.318   2.342   0.396  0.9513  0.1639  0.5950
 5497SOL    HW227951   3.270   2.482   0.371  0.8283 -0.9263  2.0689
 5498SOL     OW27952   0.145   3.458   5.590 -0.0903 -0.2822 -0.0414
 5498SOL    HW127953   0.203   3.521   5.548 -0.5873 -1.6645 -2.8151
 5498SOL    HW227954   0.205   3.387   5.612 -1.5835 -1.5783 -0.1061
 5499SOL     OW27955   3.983   2.439   1.599  0.8057 -0.4465 -0.2620
 5499SOL    HW127956   3.894   2.473   1.609  2.2592  2.9761  0.9197
 5499SOL    HW227957   3.984   2.422   1.504  0.6879 -1.7506 -0.0378
 5500SOL     OW27958   4.245   2.289  10.225 -0.3173 -0.1844 -0.5472
 5500SOL    HW127959   4.150   2.289  10.216 -0.2559  0.0263 -1.2356
 5500SOL    HW227960   4.268   2.288  10.132 -0.5503  2.1685 -0.6257
 5501SOL     OW27961   0.912   0.807   7.465 -0.0106  0.1143  0.2230
 5501SOL    HW127962   0.865   0.780   7.544  1.3864 -2.4713  0.1594
 5501SOL    HW227963   0.986   0.747   7.472  1.4303  1.6578 -1.8341
 5502SOL     OW27964   1.909   3.043   5.283  0.0646  0.1932  0.1751
 5502SOL    HW127965   1.891   3.004   5.369 -0.1658  0.3435  0.1967
 5502SOL    HW227966   1.977   2.988   5.245  0.0706 -0.1707  0.7110
 5503SOL     OW27967   1.837   2.531   1.152 -0.7851  0.4866  0.0021
 5503SOL    HW127968   1.768   2.596   1.138 -0.9588  0.2883 -0.0620
 5503SOL    HW227969   1.840   2.517   1.247  0.4227  4.5231  0.5345
 5504SOL     OW27970   1.607   1.906   6.683  0.3570  0.1412  0.5626
 5504SOL    HW127971   1.616   1.940   6.594  0.3773  2.2429  1.3628
 5504SOL    HW227972   1.685   1.947   6.721 -0.0396  3.0807 -1.7443
 5505SOL     OW27973   1.125   0.931   2.229  0.2341  0.2430  0.3338
 5505SOL    HW127974   1.202   0.940   2.173  0.0703 -0.7023 -0.0446
 5505SOL    HW227975   1.123   1.011   2.281  0.5003 -0.2924  1.1704
 5506SOL     OW27976   0.688   0.902  17.603 -0.3011 -0.1057  0.2820
 5506SOL    HW127977   0.725   0.975  17.652 -3.5340  1.3410  0.5936
 5506SOL    HW227978   0.693   0.832  17.667  0.7020  0.5602  0.9304
 5507SOL     OW27979   0.896   1.241   6.932  0.6581 -0.1211  0.2068
 5507SOL    HW127980   0.881   1.196   6.849  3.0278  0.7521 -0.6909
 5507SOL    HW227981   0.852   1.186   6.997 -1.7589  0.4680 -0.9086
 5508SOL     OW27982   1.869   3.238   8.926  0.4029 -0.2451 -0.1265
 5508SOL    HW127983   1.938   3.299   8.954 -0.1042  0.3774 -0.2360
 5508SOL    HW227984   1.904   3.223   8.839 -1.1096 -0.9903 -0.6016
 5509SOL     OW27985   2.400   4.139  11.292 -0.0379 -0.3682  0.2726
 5509SOL    HW127986   2.309   4.154  11.267  0.4230  2.2185  0.1801
 5509SOL    HW227987   2.407   4.047  11.317  0.1407 -0.5812 -0.5588
 5510SOL     OW27988   3.339   0.628  14.048 -0.3614  0.4577 -0.2629
 5510SOL    HW127989   3.369   0.562  13.986  0.4255  0.8966 -0.3598
 5510SOL    HW227990   3.256   0.589  14.074 -0.1265 -0.9291 -1.6040
 5511SOL     OW27991   0.737   1.139   7.613 -0.2615 -0.6661  0.1540
 5511SOL    HW127992   0.665   1.184   7.568  0.3254 -0.3327 -0.4540
 5511SOL    HW227993   0.719   1.152   7.706  2.3402 -1.7514  0.7807
 5512SOL     OW27994   3.498   0.099   2.223 -0.3408  0.0078  0.6136
 5512SOL    HW127995   3.564   0.103   2.154  0.9017  0.7168  1.8397
 5512SOL    HW227996   3.451   0.182   2.216  1.8062  1.1470 -0.5520
 5513SOL     OW27997   1.680   4.672   5.754 -0.1288 -0.2349 -0.0584
 5513SOL    HW127998   1.764   4.625   5.760  0.0953  0.1799  0.0285
 5513SOL    HW227999   1.706   0.038   5.787  1.2038 -0.6514  0.0067
 5514SOL     OW28000   2.795   0.641   2.790  0.2393  0.1180 -0.3377
 5514SOL    HW128001   2.750   0.639   2.706  0.3259  0.7008 -0.3996
 5514SOL    HW228002   2.726   0.624   2.854 -0.5189 -0.5882 -1.3723
 5515SOL     OW28003   4.167   0.452   2.046 -0.0917  0.2597  0.2348
 5515SOL    HW128004   4.213   0.369   2.060  0.3153  0.5973  0.9429
 5515SOL    HW228005   4.096   0.429   1.987  0.1905 -0.4424  0.1671
 5516SOL     OW28006   1.380   3.735   0.298  0.1030 -0.1045  0.5775
 5516SOL    HW128007   1.417   3.725   0.211  1.1706 -0.0277  1.0276
 5516SOL    HW228008   1.346   3.645   0.300  2.2272 -0.9143 -0.1870
 5517SOL     OW28009   0.385   2.715   8.027  0.2022 -0.0137 -0.1692
 5517SOL    HW128010   0.335   2.671   8.096  0.8075 -0.9368 -0.3016
 5517SOL    HW228011   0.320   2.752   7.968 -0.0549 -1.1452 -0.6008
 5518SOL     OW28012   1.649   3.637   5.105  0.4379 -0.2548 -0.0686
 5518SOL    HW128013   1.707   3.570   5.071 -0.0016  0.4951 -2.2791
 5518SOL    HW228014   1.690   3.655   5.189  2.4362  0.3177 -1.1825
 5519SOL     OW28015   0.291   3.821  14.140 -0.0907  0.2084  0.3263
 5519SOL    HW128016   0.308   3.831  14.234 -0.9386  0.4649  0.4538
 5519SOL    HW228017   0.356   3.883  14.107 -1.5235  1.5102 -0.0709
 5520SOL     OW28018   3.062   2.596  12.082  0.3262  0.0860 -0.0509
 5520SOL    HW128019   3.109   2.513  12.087  1.4641  0.7755  0.7789
 5520SOL    HW228020   3.028   2.597  11.992 -1.6440  0.9292  0.7273
 5521SOL     OW28021   0.829   2.018   8.382  0.0488  0.5086 -0.0621
 5521SOL    HW128022   0.905   2.045   8.434  0.9719  1.0306 -1.7030
 5521SOL    HW228023   0.763   2.074   8.423 -0.4317  0.6899 -1.0890
 5522SOL     OW28024   1.055   2.555   4.633 -0.4428  0.5942 -0.2611
 5522SOL    HW128025   0.986   2.553   4.566  0.9484 -0.0451 -1.6530
 5522SOL    HW228026   1.136   2.565   4.584 -1.6184  0.2718 -2.2475
 5523SOL     OW28027   3.373   3.313   4.534  0.0667 -0.4215  0.2959
 5523SOL    HW128028   3.394   3.283   4.623 -1.3075  0.9139  1.0841
 5523SOL    HW228029   3.421   3.395   4.538  0.6759 -0.6964 -1.4582
 5524SOL     OW28030   0.813   3.518   9.119  0.1638 -0.8011  0.2844
 5524SOL    HW128031   0.744   3.474   9.169 -0.0425 -0.1241  0.5945
 5524SOL    HW228032   0.874   3.447   9.101  1.6484  0.0794  1.8281
 5525SOL     OW28033   2.742   2.909   8.744 -0.1615 -0.2936 -0.4028
 5525SOL    HW128034   2.680   2.976   8.717 -0.9627 -0.8647  0.0326
 5525SOL    HW228035   2.815   2.958   8.783  0.6471  0.5797 -3.0013
 5526SOL     OW28036   3.293   2.026   2.861 -0.5416 -0.0810  0.3304
 5526SOL    HW128037   3.220   1.990   2.911 -1.1718 -0.0302 -0.5500
 5526SOL    HW228038   3.247   2.064   2.786 -2.9850 -1.6004  1.0607
 5527SOL     OW28039   0.212   1.385   3.884 -0.3217 -0.0618 -0.0793
 5527SOL    HW128040   0.286   1.325   3.891 -2.5795 -2.7827  0.3284
 5527SOL    HW228041   0.253   1.472   3.885  0.7501 -0.5502 -1.0641
 5528SOL     OW28042   0.120   2.014   6.860  0.0579  0.3719  0.3333
 5528SOL    HW128043   0.034   2.002   6.899  0.0968 -2.0784 -0.3263
 5528SOL    HW228044   0.168   1.950   6.914  1.5012 -1.1106 -2.7306
 5529SOL     OW28045   1.485   1.829   8.868  0.3178  0.1699 -0.2387
 5529SOL    HW128046   1.484   1.882   8.947  1.1086  0.3391 -0.3413
 5529SOL    HW228047   1.577   1.808   8.851  0.6470  0.3012  1.4587
 5530SOL     OW28048   2.089   2.017  14.849  0.1362  0.1554  0.2346
 5530SOL    HW128049   2.164   2.031  14.907  0.8099  0.4929 -0.7087
 5530SOL    HW228050   2.129   2.054  14.770 -0.7572 -0.5813 -0.5713
 5531SOL     OW28051   1.444   0.191   5.081 -0.4373  0.0374 -0.0871
 5531SOL    HW128052   1.492   0.196   5.163  0.9315  0.0131 -0.8937
 5531SOL    HW228053   1.352   0.193   5.109 -0.2544 -0.5258  0.5377
 5532SOL     OW28054   4.248   4.703   7.275 -0.0895 -0.3148  0.1774
 5532SOL    HW128055   4.296   0.066   7.274 -0.2126 -0.2223  1.3528
 5532SOL    HW228056   4.184   4.718   7.345 -1.7469  0.0595 -1.4075
 5533SOL     OW28057   4.260   1.099   4.006  0.1974 -0.4454  0.2459
 5533SOL    HW128058   4.297   1.183   3.977 -0.6052 -0.3096 -0.3921
 5533SOL    HW228059   4.285   1.047   3.930  2.2742  1.6128 -0.5075
 5534SOL     OW28060   2.169   0.218   7.921  0.0002  0.1221  0.0597
 5534SOL    HW128061   2.216   0.166   7.856 -0.5510 -0.1928 -0.0796
 5534SOL    HW228062   2.189   0.309   7.898 -2.2467 -0.1997 -3.1863
 5535SOL     OW28063   3.224   3.597   2.622 -0.1044  0.0927  0.5415
 5535SOL    HW128064   3.168   3.659   2.576 -3.1436 -2.6819  0.4812
 5535SOL    HW228065   3.215   3.516   2.571  1.5034  1.9887 -2.7102
 5536SOL     OW28066   0.867   2.680   5.090 -1.1220 -0.4218 -0.4334
 5536SOL    HW128067   0.915   2.762   5.096 -1.3783 -0.1327 -2.1583
 5536SOL    HW228068   0.912   2.639   5.016 -0.6022  1.1832 -1.0144
 5537SOL     OW28069   2.547   3.992   8.119 -0.6570  0.3381 -0.1481
 5537SOL    HW128070   2.525   4.085   8.124  1.5657  0.9336 -1.3667
 5537SOL    HW228071   2.642   3.997   8.118 -0.7802  2.5537 -0.9175
 5538SOL     OW28072   3.170   4.390   1.128  0.1064 -0.2180  0.1191
 5538SOL    HW128073   3.115   4.372   1.051 -0.0054  1.7118 -0.2613
 5538SOL    HW228074   3.256   4.365   1.094  0.2771  0.3466  0.1347
 5539SOL     OW28075   3.792   0.894   8.800  0.2364  0.1411  0.2067
 5539SOL    HW128076   3.756   0.805   8.791 -0.5627  0.5796 -0.9778
 5539SOL    HW228077   3.884   0.874   8.784  0.5003 -0.2948  2.3993
 5540SOL     OW28078   4.075   0.248   0.279  0.8207  0.0913  0.4888
 5540SOL    HW128079   4.118   0.217   0.358 -0.9083 -0.1367  1.3418
 5540SOL    HW228080   4.097   0.179   0.217 -0.6469  0.0041  0.0606
 5541SOL     OW28081   1.538   3.767  14.285 -0.2846 -0.7284 -0.1021
 5541SOL    HW128082   1.623   3.807  14.302 -1.5138  0.9981  1.9286
 5541SOL    HW228083   1.488   3.849  14.285 -3.5030 -2.6855 -2.7412
 5542SOL     OW28084   0.938   4.588   6.626  0.7465  0.1914 -0.0469
 5542SOL    HW128085   0.926   4.615   6.535 -2.3129 -0.2595  0.2188
 5542SOL    HW228086   0.849   4.594   6.660  0.6170  1.0591 -0.5345
 5543SOL     OW28087   3.038   4.459  10.952  0.1182  0.4894  0.6801
 5543SOL    HW128088   3.044   4.471  11.047 -0.3465  1.1867  0.6247
 5543SOL    HW228089   2.965   4.521  10.941 -0.5299  0.0507  2.4385
 5544SOL     OW28090   0.256   4.706  16.753 -0.1335 -0.5245 -0.3468
 5544SOL    HW128091   0.324   4.673  16.811 -0.0376  1.5349  0.6704
 5544SOL    HW228092   0.240   0.071  16.791  1.8647  0.0639 -0.8497
 5545SOL     OW28093   2.807   0.248  11.783  0.2479  0.1272 -0.3855
 5545SOL    HW128094   2.860   0.219  11.857 -2.9628 -2.1173  1.0286
 5545SOL    HW228095   2.803   0.343  11.798 -0.0966  0.0897 -0.2462
 5546SOL     OW28096   2.404   0.784   7.906 -0.6440  0.1193  0.4910
 5546SOL    HW128097   2.384   0.825   7.991 -2.5394 -1.1941  0.6790
 5546SOL    HW228098   2.340   0.816   7.843 -0.3029 -1.6447 -0.7368
 5547SOL     OW28099   1.172   0.843   4.584  0.5585 -0.0104  0.1538
 5547SOL    HW128100   1.224   0.895   4.524  0.9056 -1.2961 -0.6731
 5547SOL    HW228101   1.172   0.764   4.530 -0.1377 -1.4620  2.2636
 5548SOL     OW28102   0.981   4.492   4.587 -0.8402  0.4993 -0.2583
 5548SOL    HW128103   0.920   4.519   4.519 -0.1299 -1.9364 -1.8550
 5548SOL    HW228104   0.914   4.446   4.638 -2.5691  2.7865 -0.4491
 5549SOL     OW28105   0.694   4.044   5.016  0.4921 -0.4859 -0.0080
 5549SOL    HW128106   0.770   4.046   4.957  0.6102 -1.5037  0.1127
 5549SOL    HW228107   0.715   4.110   5.082 -0.8097 -0.1429  0.0589
 5550SOL     OW28108   2.530   4.671   3.784 -0.5723  0.0244  0.4586
 5550SOL    HW128109   2.599   4.607   3.765  0.1269  0.7242  0.6693
 5550SOL    HW228110   2.456   4.620   3.750 -1.2303  0.2569  1.5548
 5551SOL     OW28111   4.103   1.267   6.958  0.0840  0.1992 -0.3864
 5551SOL    HW128112   4.119   1.327   7.031  3.1033  1.3675 -2.0069
 5551SOL    HW228113   4.195   1.251   6.936 -0.0489 -0.0014 -0.8102
 5552SOL     OW28114   0.982   3.973   2.571  0.4033  0.3067 -0.2175
 5552SOL    HW128115   0.952   3.885   2.592  0.2322  0.7895  1.5219
 5552SOL    HW228116   1.067   3.955   2.531  0.6480 -0.6602  0.7347
 5553SOL     OW28117   1.074   3.658   7.068 -0.1861 -0.2059  0.5492
 5553SOL    HW128118   1.009   3.703   7.014  1.2904  0.2267 -0.8471
 5553SOL    HW228119   1.152   3.711   7.056 -1.7022  1.8258 -0.3847
 5554SOL     OW28120   4.337   2.350   8.519 -0.2294 -0.0643  0.3360
 5554SOL    HW128121   4.272   2.358   8.589 -0.8011  0.4502 -0.2614
 5554SOL    HW228122   4.276   2.305   8.462 -0.9254  1.9170 -0.4686
 5555SOL     OW28123   4.230   0.411   8.852  0.7418  0.0932  0.4959
 5555SOL    HW128124   4.310   0.374   8.815  0.0563 -2.3448  1.4648
 5555SOL    HW228125   4.191   0.442   8.769  0.2476 -1.2282  0.2356
 5556SOL     OW28126   2.082   2.642   3.135  0.0996  0.0928 -0.5650
 5556SOL    HW128127   2.154   2.659   3.075 -1.5966 -1.3099 -2.9926
 5556SOL    HW228128   2.005   2.660   3.081  0.5825  0.3033 -1.1766
 5557SOL     OW28129   3.600   2.339   4.962 -0.4063  0.2745 -0.4009
 5557SOL    HW128130   3.657   2.341   5.039  0.1612  0.0212 -0.8113
 5557SOL    HW228131   3.521   2.379   4.997  1.5183  3.0580  0.7110
 5558SOL     OW28132   1.480   3.719  10.081 -0.2873  0.3261 -0.5319
 5558SOL    HW128133   1.519   3.689  10.163 -1.9762  1.0404  0.5308
 5558SOL    HW228134   1.485   3.814  10.092  0.9482  0.3660 -1.4058
 5559SOL     OW28135   2.826   4.407   6.782  0.0148  0.0469 -0.1870
 5559SOL    HW128136   2.790   4.491   6.810  0.1876 -0.0744  0.3842
 5559SOL    HW228137   2.912   4.413   6.823  0.3093 -0.5388 -0.7057
 5560SOL     OW28138   4.243   1.410   0.753 -0.0728 -0.3245 -0.0816
 5560SOL    HW128139   4.299   1.333   0.763 -0.1097 -0.6542 -2.3861
 5560SOL    HW228140   4.156   1.371   0.741  0.8729 -2.7831  0.9966
 5561SOL     OW28141   2.894   3.382   2.449  0.3953  0.7249 -0.3884
 5561SOL    HW128142   2.847   3.435   2.384 -0.2072 -0.8767 -1.2769
 5561SOL    HW228143   2.876   3.429   2.530  0.4560  1.0969 -0.5927
 5562SOL     OW28144   3.472   0.869  14.126  0.5422 -0.6859 -0.1704
 5562SOL    HW128145   3.544   0.820  14.167  0.5037 -2.3605 -2.1539
 5562SOL    HW228146   3.440   0.804  14.064 -0.6235  1.4694 -1.7988
 5563SOL     OW28147   2.203   2.255   4.219  0.0501  0.2024  0.5018
 5563SOL    HW128148   2.173   2.169   4.190 -0.2102 -0.2324  2.0486
 5563SOL    HW228149   2.209   2.246   4.315 -1.6149  2.9414  0.8799
 5564SOL     OW28150   1.565   3.078   3.967 -0.3114  0.2304 -0.3846
 5564SOL    HW128151   1.511   3.028   3.904 -0.3725 -0.2374  0.0401
 5564SOL    HW228152   1.617   3.135   3.911  0.0888  0.3139  0.0797
 5565SOL     OW28153   0.237   1.724   0.020  0.4194  0.5540 -0.2155
 5565SOL    HW128154   0.326   1.751   0.040  0.7815  0.5131 -1.7851
 5565SOL    HW228155   0.218   1.768  17.621 -3.8879  0.8869  0.9643
 5566SOL     OW28156   0.822   0.282  17.320  0.3506 -0.1066 -0.1125
 5566SOL    HW128157   0.814   0.189  17.339 -1.2520  0.7747  3.5755
 5566SOL    HW228158   0.841   0.278  17.226  1.2853  0.4307  0.0516
 5567SOL     OW28159   3.581   3.607  15.577  0.4007 -0.4892  0.1927
 5567SOL    HW128160   3.590   3.611  15.672 -2.8476 -0.7798  0.5223
 5567SOL    HW228161   3.500   3.557  15.567 -0.9667  1.1386  2.9996
 5568SOL     OW28162   1.550   0.623   8.106 -0.1496  0.0611 -0.2251
 5568SOL    HW128163   1.459   0.649   8.092 -0.1221  0.0176 -0.4952
 5568SOL    HW228164   1.590   0.602   8.021 -2.2388  3.3915 -2.0434
 5569SOL     OW28165   0.441   2.821   7.283  0.0819 -1.2043  0.3966
 5569SOL    HW128166   0.446   2.843   7.376 -0.4801  0.0173  0.1422
 5569SOL    HW228167   0.474   2.900   7.239  2.2580 -1.4643  1.5786
 5570SOL     OW28168   0.754   0.543   9.499  0.0885  0.6011 -0.4577
 5570SOL    HW128169   0.727   0.490   9.423 -0.5502  1.7820 -1.0543
 5570SOL    HW228170   0.668   0.552   9.541  0.3694  0.6251  0.1147
 5571SOL     OW28171   1.188   2.381   3.770 -0.3127 -0.0775  0.2185
 5571SOL    HW128172   1.153   2.463   3.804  0.2804  0.7753 -1.2330
 5571SOL    HW228173   1.206   2.401   3.678  0.6605 -0.6558  0.2734
 5572SOL     OW28174   2.403   4.270   8.673 -0.3317 -0.1696 -0.6540
 5572SOL    HW128175   2.492   4.274   8.636  0.4682 -0.0429  1.2714
 5572SOL    HW228176   2.412   4.201   8.739 -0.6480 -0.4078 -0.8662
 5573SOL     OW28177   1.297   2.019   6.907 -0.2606  0.2739  0.0107
 5573SOL    HW128178   1.341   2.040   6.989 -0.4503  0.5728  0.0379
 5573SOL    HW228179   1.328   1.930   6.888  0.0988  1.0675 -3.1353
 5574SOL     OW28180   0.176   1.197   2.994  0.8555  0.7474 -0.0314
 5574SOL    HW128181   0.129   1.166   2.917  2.0537 -1.0451 -0.0535
 5574SOL    HW228182   0.114   1.200   3.067 -0.4402 -0.8338 -1.0890
 5575SOL     OW28183   2.180   1.381   8.527  0.7650  0.1083 -0.1383
 5575SOL    HW128184   2.224   1.464   8.510 -1.0110  0.8764 -1.0362
 5575SOL    HW228185   2.090   1.405   8.507  0.5648  0.3416  1.0336
 5576SOL     OW28186   3.903   3.865   4.357 -0.0475 -0.6247 -0.5828
 5576SOL    HW128187   3.979   3.835   4.306  0.9806  0.1993  0.4604
 5576SOL    HW228188   3.944   3.871   4.444 -1.7805  0.2628  0.1689
 5577SOL     OW28189   3.811   3.687  15.937 -0.1991  0.6706  0.1858
 5577SOL    HW128190   3.753   3.758  15.965 -0.6547  0.5606 -0.4561
 5577SOL    HW228191   3.769   3.606  15.968  0.2559 -0.1255 -1.2612
 5578SOL     OW28192   2.721   4.114  16.569 -0.4611 -0.5380 -0.4148
 5578SOL    HW128193   2.787   4.061  16.524 -1.0049 -0.2125 -1.5935
 5578SOL    HW228194   2.656   4.135  16.502  0.2295 -1.0077 -1.2304
 5579SOL     OW28195   0.608   0.054   7.897 -0.3307  0.0581 -0.1276
 5579SOL    HW128196   0.670   0.117   7.860 -0.1851  0.7437  1.2872
 5579SOL    HW228197   0.561   0.104   7.965  0.3042  0.8254 -0.2536
 5580SOL     OW28198   1.055   2.863   1.295 -0.0595 -0.0110 -0.1805
 5580SOL    HW128199   0.990   2.823   1.238 -1.3020  0.2134  1.0709
 5580SOL    HW228200   1.065   2.946   1.247 -1.4958 -1.2497 -2.5919
 5581SOL     OW28201   0.081   0.396   4.127 -0.2192 -0.1735  0.0169
 5581SOL    HW128202   0.075   0.491   4.119  0.3869 -0.2565 -1.3893
 5581SOL    HW228203   0.114   0.377   4.039  0.8224 -0.2199  0.4201
 5582SOL     OW28204   2.004   3.517   4.017 -0.1399  0.4303  0.6073
 5582SOL    HW128205   1.956   3.561   3.947  0.1254  1.6373  1.1872
 5582SOL    HW228206   1.936   3.473   4.068 -0.2801 -1.6258 -1.3507
 5583SOL     OW28207   3.974   0.519   6.664 -0.0924  0.1318 -0.3900
 5583SOL    HW128208   3.923   0.539   6.742  2.0758  1.9829  0.5579
 5583SOL    HW228209   3.903   0.524   6.599  0.7550 -0.2918 -1.3415
 5584SOL     OW28210   0.100   1.389  17.534  0.6415 -0.2885  0.0502
 5584SOL    HW128211   0.157   1.433  17.470 -2.0748  3.5768  0.2915
 5584SOL    HW228212   0.148   1.408  17.615 -0.2418 -0.3258  0.5763
 5585SOL     OW28213   2.016   2.193   5.953  0.6411  0.0338  0.2482
 5585SOL    HW128214   2.107   2.223   5.949  0.7755 -0.6138 -1.8956
 5585SOL    HW228215   2.016   2.114   6.007 -0.2134  0.3974  0.7870
 5586SOL     OW28216   3.221   0.697   5.134 -0.1638  0.4742  0.6099
 5586SOL    HW128217   3.240   0.737   5.219  0.9447 -2.4216  1.7361
 5586SOL    HW228218   3.231   0.604   5.154 -0.1499  0.4106  0.2920
 5587SOL     OW28219   2.081   0.184   4.456  0.1705 -0.3629  0.2303
 5587SOL    HW128220   2.117   0.240   4.388  1.2346 -0.2117  0.9232
 5587SOL    HW228221   2.045   0.112   4.404 -1.4370  0.1515  0.6290
 5588SOL     OW28222   3.468   3.291   4.809 -0.0860  0.5288 -0.1499
 5588SOL    HW128223   3.434   3.350   4.876 -1.6567 -1.4315  0.7394
 5588SOL    HW228224   3.506   3.227   4.869  0.0646  0.0596 -0.7425
 5589SOL     OW28225   1.682   1.104   3.427  0.6324  0.7198 -0.5476
 5589SOL    HW128226   1.725   1.089   3.343  2.5935  0.0085  0.5942
 5589SOL    HW228227   1.608   1.044   3.415  1.3788 -0.2570 -0.2780
 5590SOL     OW28228   3.326   0.088   3.496 -0.0661  0.2379  0.2855
 5590SOL    HW128229   3.414   0.067   3.527 -0.7653 -1.3632  1.2140
 5590SOL    HW228230   3.336   0.174   3.456  1.8378  1.0752  2.5483
 5591SOL     OW28231   2.492   0.056  12.041 -0.2519 -0.0545  0.2817
 5591SOL    HW128232   2.540   0.117  12.097  1.9280 -0.6940 -0.9162
 5591SOL    HW228233   2.496   0.099  11.956  0.1001  1.7224  1.1965
 5592SOL     OW28234   0.067   0.213   2.882 -0.0193 -0.1506 -0.0468
 5592SOL    HW128235   4.706   0.184   2.922 -0.6311  1.9184  0.1720
 5592SOL    HW228236   0.069   0.305   2.907  0.1512 -0.3206  0.5531
 5593SOL     OW28237   3.443   1.479   4.414  0.4644 -0.0996 -0.0798
 5593SOL    HW128238   3.442   1.424   4.492  0.3803 -0.3791 -0.2750
 5593SOL    HW228239   3.403   1.559   4.447  1.6581  0.1575  0.7627
 5594SOL     OW28240   1.759   0.675  11.829  0.1016  0.2373  0.5601
 5594SOL    HW128241   1.672   0.683  11.868  0.9153  0.1681  2.3936
 5594SOL    HW228242   1.783   0.599  11.881  1.1623 -0.7345 -1.3619
 5595SOL     OW28243   2.023   3.196  10.958  0.6813  0.3650 -0.4566
 5595SOL    HW128244   1.973   3.231  10.884 -2.2194 -1.8024  0.4667
 5595SOL    HW228245   1.956   3.204  11.025 -2.0694 -3.1218 -2.7701
 5596SOL     OW28246   3.405   2.734   5.534 -0.1819  0.3845 -0.3844
 5596SOL    HW128247   3.493   2.701   5.514 -0.8833 -2.3761  1.1536
 5596SOL    HW228248   3.352   2.692   5.466  1.8903  0.0894 -1.8066
 5597SOL     OW28249   3.884   4.184   6.819 -0.4669  0.2093 -0.4013
 5597SOL    HW128250   3.803   4.132   6.815 -0.2714 -0.1960  1.1099
 5597SOL    HW228251   3.885   4.190   6.914  0.3510  0.4724 -0.4244
 5598SOL     OW28252   1.554   1.795   8.179 -0.3057 -0.0475 -0.6501
 5598SOL    HW128253   1.567   1.793   8.274 -1.1859 -0.9458 -0.5484
 5598SOL    HW228254   1.464   1.763   8.183 -0.0410 -0.2930  4.0403
 5599SOL     OW28255   2.307   1.776  10.056 -0.5462 -0.3555 -0.1341
 5599SOL    HW128256   2.377   1.779   9.991  0.5086  1.9488  1.0990
 5599SOL    HW228257   2.360   1.757  10.134  1.0750 -1.6404 -1.5360
 5600SOL     OW28258   2.642   2.571  12.995  0.0903  0.4035 -0.2597
 5600SOL    HW128259   2.640   2.588  12.901  0.2596  1.4080 -0.0779
 5600SOL    HW228260   2.588   2.645  13.023 -0.9941 -0.5519  0.1388
 5601SOL     OW28261   2.128   2.347   5.559  0.0891 -0.5127  0.2996
 5601SOL    HW128262   2.215   2.306   5.566  0.2114 -0.2934  0.0669
 5601SOL    HW228263   2.097   2.375   5.645 -0.0515  0.6217 -0.1287
 5602SOL     OW28264   4.093   1.721   1.391 -0.4019 -0.4802 -0.1382
 5602SOL    HW128265   4.171   1.680   1.353  0.8782  3.1359 -1.4879
 5602SOL    HW228266   4.126   1.736   1.480 -0.3614  2.7964 -0.7106
 5603SOL     OW28267   1.502   4.280  16.609 -0.0889  0.1460 -0.7754
 5603SOL    HW128268   1.527   4.318  16.525  0.5856  0.6927 -0.3295
 5603SOL    HW228269   1.581   4.239  16.646 -0.6820 -0.8015 -0.5518
 5604SOL     OW28270   0.964   1.600   3.923 -0.3738  0.1354 -0.3214
 5604SOL    HW128271   0.920   1.646   3.995 -1.3711  2.6366 -2.5213
 5604SOL    HW228272   0.892   1.600   3.860  0.1952 -1.8421 -0.9649
 5605SOL     OW28273   0.518   2.113   4.283  0.0512  0.2693  0.2367
 5605SOL    HW128274   0.570   2.076   4.211 -0.0887 -0.0395  0.2979
 5605SOL    HW228275   0.467   2.035   4.304  0.2637 -0.4579 -1.9204
 5606SOL     OW28276   0.547   1.449   3.638  0.0613 -0.1843  0.7137
 5606SOL    HW128277   0.459   1.481   3.622  0.9884  2.0369 -0.0194
 5606SOL    HW228278   0.579   1.462   3.549  0.6147  0.8056  1.0507
 5607SOL     OW28279   2.763   2.788   4.863  0.3921  0.2711 -0.9743
 5607SOL    HW128280   2.772   2.882   4.880  0.8575  0.4119 -2.0448
 5607SOL    HW228281   2.727   2.784   4.775 -0.1067  0.7265 -0.7906
 5608SOL     OW28282   3.272   0.043  12.704 -0.7446  0.1883  0.0933
 5608SOL    HW128283   3.332   0.005  12.640 -1.3142 -1.8183  0.7460
 5608SOL    HW228284   3.334   0.092  12.757  1.3325 -3.2764  0.8653
 5609SOL     OW28285   0.601   1.877   2.182  0.0804  0.2918  0.6205
 5609SOL    HW128286   0.528   1.833   2.138  0.5677 -0.2419  0.3321
 5609SOL    HW228287   0.552   1.924   2.248  2.3861 -0.8012  3.1156
 5610SOL     OW28288   0.880   3.329  14.441 -0.2255  0.3093  0.0543
 5610SOL    HW128289   0.866   3.401  14.380  0.3418  1.0879  0.8507
 5610SOL    HW228290   0.827   3.265  14.393 -1.0422 -0.7195  2.3367
 5611SOL     OW28291   4.306   3.347   7.428 -0.1912 -0.2017  0.4424
 5611SOL    HW128292   4.283   3.297   7.506  1.0894  0.1576  1.0399
 5611SOL    HW228293   4.278   3.280   7.367  1.2182  0.1652 -0.5995
 5612SOL     OW28294   1.117   0.275   3.717  0.1752  0.4110 -0.1812
 5612SOL    HW128295   1.071   0.191   3.713 -1.4262  1.1237  2.6945
 5612SOL    HW228296   1.207   0.244   3.703  0.4635  1.0256  0.2996
 5613SOL     OW28297   1.572   4.447   8.050 -0.1922 -0.2081  0.1439
 5613SOL    HW128298   1.658   4.447   8.092 -0.5586  0.5133  0.8831
 5613SOL    HW228299   1.547   4.537   8.067  0.0335 -0.6969  2.9687
 5614SOL     OW28300   3.742   4.668   4.391  0.2339 -0.2187  0.0824
 5614SOL    HW128301   3.785   0.033   4.395  1.0442 -0.6547  0.8151
 5614SOL    HW228302   3.824   4.619   4.399 -0.4115 -1.7252 -2.7278
 5615SOL     OW28303   3.545   0.124   3.664  0.0862 -0.3815 -0.0374
 5615SOL    HW128304   3.488   0.201   3.660  1.5971  0.6385 -2.4677
 5615SOL    HW228305   3.604   0.148   3.735  1.3034  1.0040 -1.5089
 5616SOL     OW28306   3.243   0.300   3.054  0.1684 -0.2857 -0.0483
 5616SOL    HW128307   3.282   0.379   3.091  0.0284 -0.6999  0.9950
 5616SOL    HW228308   3.277   0.302   2.964  1.2126  1.3410  0.3917
 5617SOL     OW28309   0.600   0.294  11.563 -0.0126  0.6298  0.3124
 5617SOL    HW128310   0.564   0.380  11.584  1.6425  1.1204  1.2320
 5617SOL    HW228311   0.642   0.263  11.644 -0.6337 -1.2876 -0.0857
 5618SOL     OW28312   1.155   1.747  10.665 -0.2036  0.4361 -0.0504
 5618SOL    HW128313   1.179   1.745  10.572 -0.3157 -1.6978 -0.0514
 5618SOL    HW228314   1.083   1.683  10.661  0.4906 -0.4347  1.8147
 5619SOL     OW28315   3.529   2.513   1.091  0.1519 -0.0582 -0.1007
 5619SOL    HW128316   3.507   2.507   1.184 -2.2107 -0.0563 -0.6468
 5619SOL    HW228317   3.616   2.475   1.088  0.8796  1.6346 -0.5527
 5620SOL     OW28318   4.166   2.910   4.761 -0.3000  0.4425  0.2376
 5620SOL    HW128319   4.227   2.934   4.691 -1.9379  1.5322 -0.8190
 5620SOL    HW228320   4.216   2.863   4.828  1.4173  0.5989 -0.9423
 5621SOL     OW28321   4.377   0.844   4.105  0.6844  0.2321 -0.7454
 5621SOL    HW128322   4.384   0.927   4.152  1.0124  0.2256 -0.7837
 5621SOL    HW228323   4.344   0.866   4.018  0.2364 -0.0061 -0.6370
 5622SOL     OW28324   3.320   0.034  15.481  0.0682  0.1654  0.3614
 5622SOL    HW128325   3.253   4.689  15.462 -0.1164  0.1450  1.1183
 5622SOL    HW228326   3.280   0.065  15.562 -2.8420  1.4043 -1.5680
 5623SOL     OW28327   2.978   4.090   5.739 -0.6625 -0.5071  0.1182
 5623SOL    HW128328   2.956   4.165   5.795 -1.0774  0.7381 -1.7384
 5623SOL    HW228329   3.032   4.129   5.671 -1.2903 -0.1092 -0.1530
 5624SOL     OW28330   4.584   3.284  16.727 -0.8700  0.1952 -0.0480
 5624SOL    HW128331   4.618   3.200  16.757 -0.0425  0.2421 -0.8981
 5624SOL    HW228332   4.507   3.289  16.784 -2.1678 -1.4419 -1.6781
 5625SOL     OW28333   1.165   1.051   8.307 -0.5222  0.0648 -0.6315
 5625SOL    HW128334   1.223   1.018   8.376 -0.0184  0.4010 -0.8924
 5625SOL    HW228335   1.169   1.146   8.311  1.1007 -0.1271  2.5454
 5626SOL     OW28336   1.954   2.897   1.760 -0.3192  0.4973  0.7468
 5626SOL    HW128337   1.895   2.844   1.813 -1.0851  0.5868 -0.0243
 5626SOL    HW228338   1.959   2.850   1.677  1.7702  0.3098  0.9718
 5627SOL     OW28339   0.968   2.067   6.360  0.3798  0.6314  0.8869
 5627SOL    HW128340   1.053   2.026   6.377  0.7691  0.0329 -2.4868
 5627SOL    HW228341   0.908   1.992   6.360  1.0179  0.1210  4.1523
 5628SOL     OW28342   3.813   1.665   4.535  0.8498 -0.1506  0.0298
 5628SOL    HW128343   3.719   1.674   4.519  1.0950  0.8760 -0.8208
 5628SOL    HW228344   3.835   1.744   4.584  1.8343 -0.5545  0.2528
 5629SOL     OW28345   1.406   3.278   6.930 -0.6486 -0.1099  0.1728
 5629SOL    HW128346   1.372   3.283   7.019 -1.5359  3.1442 -0.3521
 5629SOL    HW228347   1.499   3.300   6.942 -1.3002  2.0410  1.2936
 5630SOL     OW28348   3.050   1.663   4.010 -0.3021 -0.3539 -0.2011
 5630SOL    HW128349   2.979   1.602   4.027 -1.1728  1.0626  1.1762
 5630SOL    HW228350   3.120   1.600   3.991 -0.0236 -0.0702 -0.1259
 5631SOL     OW28351   1.703   0.007   1.703  0.0067 -0.5426 -0.6299
 5631SOL    HW128352   1.679   0.043   1.618  2.7508  1.1006 -0.7294
 5631SOL    HW228353   1.620   4.689   1.730 -0.9327  0.8130 -1.6220
 5632SOL     OW28354   1.738   1.161   8.994 -0.4074  0.5644  0.3381
 5632SOL    HW128355   1.660   1.202   8.958  0.2135  1.1309 -0.3737
 5632SOL    HW228356   1.700   1.089   9.045  0.9901 -0.2701  0.2354
 5633SOL     OW28357   2.187   0.293  13.908 -0.2575 -0.0775 -0.1471
 5633SOL    HW128358   2.136   0.306  13.828  2.7315 -0.9001 -2.1740
 5633SOL    HW228359   2.118   0.286  13.974  0.1371  0.5770  0.3328
 5634SOL     OW28360   2.004   2.326   7.620  0.0952  0.7268 -0.3119
 5634SOL    HW128361   2.073   2.392   7.613  1.7332 -0.9714 -0.0897
 5634SOL    HW228362   2.038   2.253   7.671  3.0188  2.7712  0.7033
 5635SOL     OW28363   1.550   3.353   9.363  0.1380  0.1971 -0.8774
 5635SOL    HW128364   1.583   3.349   9.273  1.8348 -1.1538 -0.1820
 5635SOL    HW228365   1.632   3.318   9.397  0.2629  4.3809  3.0674
 5636SOL     OW28366   0.279   3.194   2.017  0.1152 -1.0579  0.0796
 5636SOL    HW128367   0.245   3.171   2.103  1.8149  1.0281  1.2961
 5636SOL    HW228368   0.327   3.114   1.998  1.4768 -0.6135  1.7539
 5637SOL     OW28369   3.956   1.785  13.086 -0.2386  0.3797 -0.2895
 5637SOL    HW128370   3.966   1.739  13.169 -0.9431 -0.4082 -0.6515
 5637SOL    HW228371   3.878   1.836  13.106 -2.3494 -1.9000 -2.8203
 5638SOL     OW28372   2.003   2.394   8.468 -0.5263 -0.2778  0.1069
 5638SOL    HW128373   1.951   2.362   8.395  2.2291 -0.5948 -1.7368
 5638SOL    HW228374   2.096   2.394   8.443 -0.6494 -0.6185 -0.3582
 5639SOL     OW28375   3.579   0.176   6.141  0.1837  0.3599 -0.2595
 5639SOL    HW128376   3.499   0.149   6.186 -0.8114 -0.2501 -2.3730
 5639SOL    HW228377   3.562   0.269   6.155  0.8884  0.0384  2.6689
 5640SOL     OW28378   2.958   2.492   5.677 -0.1688 -0.4842 -0.0733
 5640SOL    HW128379   2.953   2.561   5.611  0.5977  0.0839  0.4596
 5640SOL    HW228380   2.915   2.423   5.628  1.0000 -0.2157 -1.4925
 5641SOL     OW28381   2.517   2.602   5.708  0.7710 -0.3705  0.1075
 5641SOL    HW128382   2.567   2.567   5.635  0.5279 -0.4015 -0.0453
 5641SOL    HW228383   2.580   2.575   5.775  0.5896 -1.9131 -0.3220
 5642SOL     OW28384   2.672   1.225   3.108 -0.6132  0.3060 -0.1216
 5642SOL    HW128385   2.660   1.217   3.203  1.3688 -1.6213 -0.0425
 5642SOL    HW228386   2.710   1.144   3.075 -1.3846 -0.4145  0.7595
 5643SOL     OW28387   0.966   0.720  15.953 -0.3774 -0.3747  0.2994
 5643SOL    HW128388   0.979   0.640  16.005 -0.6398  0.4858  1.6920
 5643SOL    HW228389   0.871   0.725  15.945 -0.4374 -0.8228  0.7351
 5644SOL     OW28390   4.583   4.088   4.731  0.0971 -0.3939 -0.2453
 5644SOL    HW128391   4.501   4.095   4.683  0.8501  2.3813 -1.1057
 5644SOL    HW228392   4.543   4.058   4.813 -1.1138  0.5682 -0.4846
 5645SOL     OW28393   0.516   1.634   5.327 -0.5617 -0.1008  0.1828
 5645SOL    HW128394   0.527   1.728   5.311 -2.4979 -0.1556 -1.4041
 5645SOL    HW228395   0.447   1.624   5.261  0.7940  1.3483 -1.4669
 5646SOL     OW28396   3.181   1.498  11.776  0.5449 -0.1591 -0.3868
 5646SOL    HW128397   3.106   1.554  11.755 -0.3110 -1.2954 -0.3246
 5646SOL    HW228398   3.148   1.419  11.734 -2.1133  1.5130 -1.4952
 5647SOL     OW28399   2.873   2.165   1.673  0.1785  1.1689 -0.1104
 5647SOL    HW128400   2.880   2.129   1.585  0.3741  2.2361 -0.5281
 5647SOL    HW228401   2.778   2.171   1.687  0.4549 -1.0814  2.7427
 5648SOL     OW28402   4.584   3.049   2.102  0.3300  0.4352  0.1477
 5648SOL    HW128403   4.520   3.094   2.158 -0.6359 -0.5954 -0.1137
 5648SOL    HW228404   4.625   3.116   2.048 -0.2276  1.8200  1.4548
 5649SOL     OW28405   1.704   0.186   4.747 -0.0618 -0.2167 -0.1120
 5649SOL    HW128406   1.609   0.180   4.750  0.0110 -1.9301 -1.0370
 5649SOL    HW228407   1.735   0.148   4.665  0.2547 -0.7410  0.2554
 5650SOL     OW28408   2.460   0.665  14.077 -0.6541  0.3405  0.0398
 5650SOL    HW128409   2.404   0.688  14.002 -0.3794  0.0521 -0.2525
 5650SOL    HW228410   2.531   0.726  14.055 -0.5063 -0.0849 -0.6650
 5651SOL     OW28411   0.563   3.701   8.512  0.0175 -0.1926  0.4228
 5651SOL    HW128412   0.494   3.750   8.558 -0.1845  1.4514 -1.6526
 5651SOL    HW228413   0.586   3.637   8.579 -1.4936  0.6589  1.7623
 5652SOL     OW28414   0.672   2.850  15.911 -0.3703 -0.8172 -0.0726
 5652SOL    HW128415   0.609   2.863  15.841 -0.1601  3.8536  0.5902
 5652SOL    HW228416   0.619   2.830  15.988  1.6949 -1.8972  1.0985
 5653SOL     OW28417   4.021   1.080   5.316  0.4394  0.1000 -0.1853
 5653SOL    HW128418   3.984   1.042   5.237 -2.5546 -2.1659  2.2982
 5653SOL    HW228419   4.110   1.045   5.322 -0.0629 -0.9423  1.1820
 5654SOL     OW28420   0.912   0.582  16.967 -0.5867  0.1228  0.5044
 5654SOL    HW128421   0.960   0.609  17.045  0.3115  0.4369 -0.1527
 5654SOL    HW228422   0.828   0.617  16.997  0.2416  2.8514 -0.3934
 5655SOL     OW28423   3.534   0.187   1.838 -0.0599  0.3296 -0.2301
 5655SOL    HW128424   3.558   0.112   1.892 -0.9071 -0.2178 -0.6159
 5655SOL    HW228425   3.570   0.256   1.894 -2.0311  0.9456  0.3007
 5656SOL     OW28426   4.492   1.131   3.640 -0.4078 -0.2676  0.6595
 5656SOL    HW128427   4.547   1.094   3.709 -0.3760  1.9370  1.8238
 5656SOL    HW228428   4.510   1.222   3.663  0.6453 -0.5976  1.1656
 5657SOL     OW28429   0.776   4.507   2.437 -0.8273 -0.0415 -0.0046
 5657SOL    HW128430   0.748   4.416   2.439 -1.2757  0.1577  2.7715
 5657SOL    HW228431   0.697   4.558   2.456 -0.3847  1.2944 -1.7256
 5658SOL     OW28432   0.242   1.789  15.629 -0.1230  0.2692  0.2341
 5658SOL    HW128433   0.180   1.855  15.596 -0.5814  0.2049  0.9728
 5658SOL    HW228434   0.244   1.802  15.724  0.3910  0.8014  0.1544
 5659SOL     OW28435   4.576   3.080   2.691 -0.3050 -0.6877 -0.0273
 5659SOL    HW128436   4.597   3.054   2.601 -1.1086  1.2472 -0.7734
 5659SOL    HW228437   4.560   3.172   2.671 -0.9506 -0.7255  0.3239
 5660SOL     OW28438   4.586   3.615   4.929 -0.9461  0.3014 -0.1126
 5660SOL    HW128439   4.546   3.568   5.002 -0.8954  1.1067  0.4406
 5660SOL    HW228440   4.571   3.559   4.853 -0.4218  2.4560 -1.8245
 5661SOL     OW28441   1.914   0.466   7.096  0.6375  0.9989  0.1429
 5661SOL    HW128442   1.903   0.380   7.054 -0.6320  0.9193  0.6646
 5661SOL    HW228443   1.919   0.450   7.190  3.0919  0.3904 -0.0848
 5662SOL     OW28444   4.232   1.657   0.862  0.2621 -0.1249 -0.5418
 5662SOL    HW128445   4.319   1.687   0.835 -0.5486  0.9027 -2.0036
 5662SOL    HW228446   4.232   1.570   0.823 -2.3838  0.6002 -2.1414
 5663SOL     OW28447   0.233   0.927   4.264 -0.1414  0.5175 -0.5314
 5663SOL    HW128448   0.270   0.917   4.351 -0.4859 -1.2294 -0.5743
 5663SOL    HW228449   0.138   0.926   4.277 -0.1243  0.1653 -0.4307
 5664SOL     OW28450   3.908   0.277  15.014  0.1384 -0.3831  0.2489
 5664SOL    HW128451   3.858   0.232  14.946  0.9127 -0.2870 -0.3863
 5664SOL    HW228452   3.984   0.306  14.964 -1.4035 -1.2607 -2.6244
 5665SOL     OW28453   0.386   3.981   7.092 -0.3905  0.1975 -0.2849
 5665SOL    HW128454   0.317   4.010   7.152  0.0352  0.1850  0.2160
 5665SOL    HW228455   0.377   4.043   7.020  1.8335  0.3678 -0.4080
 5666SOL     OW28456   3.197   1.483   8.039  0.1921 -0.3788 -0.1879
 5666SOL    HW128457   3.156   1.569   8.024  1.5187  0.4155  0.6893
 5666SOL    HW228458   3.210   1.441   7.954  0.7509  1.5271 -1.0415
 5667SOL     OW28459   2.562   3.809   2.541  0.3120 -0.0753  0.0554
 5667SOL    HW128460   2.488   3.847   2.589  0.5836 -1.5074  1.6078
 5667SOL    HW228461   2.632   3.802   2.606  0.6437 -0.0826 -0.3031
 5668SOL     OW28462   2.785   3.693   8.816  0.3920 -0.3284 -0.6391
 5668SOL    HW128463   2.865   3.744   8.826  2.2120 -3.7619  2.0853
 5668SOL    HW228464   2.763   3.738   8.734 -3.5398  1.4050  1.3668
 5669SOL     OW28465   1.034   1.800   5.566  0.4296  0.5902 -0.6732
 5669SOL    HW128466   1.122   1.773   5.593  0.6129  0.9506 -0.9027
 5669SOL    HW228467   0.987   1.784   5.648 -0.2261  1.8805 -0.8078
 5670SOL     OW28468   4.391   2.690   2.967 -0.1815 -0.3255  0.3014
 5670SOL    HW128469   4.398   2.759   2.901  1.4856  0.4035  1.2271
 5670SOL    HW228470   4.441   2.626   2.917  0.7720 -0.8166  1.8529
 5671SOL     OW28471   2.299   0.810   2.837  0.1614  0.2551 -0.0303
 5671SOL    HW128472   2.353   0.883   2.868  1.4508 -0.7001 -0.0012
 5671SOL    HW228473   2.277   0.772   2.922  0.0742  1.4928  0.4982
 5672SOL     OW28474   1.712   2.159   5.965 -0.5388  0.2690  0.5041
 5672SOL    HW128475   1.806   2.172   5.966 -0.6633  1.0513  1.3981
 5672SOL    HW228476   1.699   2.135   5.873  0.4997 -0.0968  0.4533
 5673SOL     OW28477   1.102   2.000   2.595  0.0262  0.4229 -0.0864
 5673SOL    HW128478   1.074   1.912   2.571 -0.5484  0.4185  0.6093
 5673SOL    HW228479   1.112   2.035   2.506 -0.1651 -1.2353 -0.7591
 5674SOL     OW28480   1.378   2.227   5.040  0.3910 -0.3870 -0.0887
 5674SOL    HW128481   1.336   2.167   4.978 -4.0071  1.2363  1.2770
 5674SOL    HW228482   1.339   2.202   5.123  1.3440 -0.5585  0.3043
 5675SOL     OW28483   2.535   3.200   6.954 -0.4392 -0.2536  0.1320
 5675SOL    HW128484   2.612   3.176   6.903 -1.3143 -2.0064 -0.3495
 5675SOL    HW228485   2.476   3.244   6.893 -0.6725 -0.7500  0.0031
 5676SOL     OW28486   3.453   1.047  15.544 -0.0313  0.2468 -0.2485
 5676SOL    HW128487   3.508   0.969  15.552 -1.1478 -0.6155 -0.8475
 5676SOL    HW228488   3.374   1.008  15.582 -1.2517  1.8890 -1.1427
 5677SOL     OW28489   1.611   2.436   7.442 -0.2537 -0.4265 -0.3702
 5677SOL    HW128490   1.689   2.380   7.446  0.4945  0.6623  0.1621
 5677SOL    HW228491   1.621   2.461   7.350 -0.9083 -0.9010 -0.5706
 5678SOL     OW28492   1.492   3.940  13.260 -0.7260  0.3464 -0.0164
 5678SOL    HW128493   1.412   3.992  13.266 -2.6977 -2.7866  0.5892
 5678SOL    HW228494   1.490   3.887  13.340 -1.5964 -0.9188 -0.8903
 5679SOL     OW28495   0.086   3.644   5.168 -0.2261  0.4650  0.3152
 5679SOL    HW128496   0.072   3.550   5.156 -1.0599  0.7143 -0.6101
 5679SOL    HW228497   0.169   3.652   5.122  0.7649 -0.4700  1.9574
 5680SOL     OW28498   2.161   2.220   1.582  0.6799  0.5394  0.1203
 5680SOL    HW128499   2.089   2.201   1.522 -0.8370 -1.3926  2.5128
 5680SOL    HW228500   2.227   2.154   1.559  1.8512  1.6842  0.1870
 5681SOL     OW28501   4.238   4.038   4.365  0.9440 -0.0950  0.1991
 5681SOL    HW128502   4.288   3.989   4.430  1.4800  0.9904  0.6111
 5681SOL    HW228503   4.219   3.960   4.313  1.5037 -0.9299  1.2573
 5682SOL     OW28504   1.523   3.210  13.635 -0.5714  0.6554 -0.0585
 5682SOL    HW128505   1.468   3.149  13.684  0.0844 -1.8016 -2.3604
 5682SOL    HW228506   1.609   3.194  13.674 -0.7280  1.2651  0.5417
 5683SOL     OW28507   2.896   2.520  11.712  0.7659  0.5388  0.0542
 5683SOL    HW128508   2.925   2.461  11.642  0.2259 -1.9508  1.9470
 5683SOL    HW228509   2.810   2.535  11.674 -0.6184  2.3154  3.9194
 5684SOL     OW28510   2.982   3.085   3.530  0.4446  0.5087  0.4781
 5684SOL    HW128511   2.981   2.992   3.552  0.8124  0.5594  0.7128
 5684SOL    HW228512   3.069   3.106   3.563  1.4949  0.1741 -2.0581
 5685SOL     OW28513   2.073   4.486   5.280  0.2065 -0.0027  0.2628
 5685SOL    HW128514   2.045   4.573   5.250  1.2683 -0.0045 -0.7377
 5685SOL    HW228515   1.991   4.459   5.322 -0.4764 -0.0385 -1.0954
 5686SOL     OW28516   2.766   2.739   9.482 -0.1341  0.5013  0.5280
 5686SOL    HW128517   2.817   2.661   9.461 -0.2175 -0.3862  3.5209
 5686SOL    HW228518   2.719   2.744   9.399 -0.4490 -0.5670  0.6411
 5687SOL     OW28519   2.257   4.147   6.054  0.1442 -0.1288 -0.3456
 5687SOL    HW128520   2.345   4.185   6.058 -0.1237  0.6281 -1.4638
 5687SOL    HW228521   2.200   4.217   6.085  1.5590  0.3143  1.2418
 5688SOL     OW28522   2.706   3.288   7.242 -0.0139 -0.2783  0.6190
 5688SOL    HW128523   2.749   3.223   7.187  2.0638 -0.0294  1.9613
 5688SOL    HW228524   2.782   3.342   7.258  0.6548 -0.6149 -1.3856
 5689SOL     OW28525   1.101   0.438   7.218  0.1906  0.1636  0.2264
 5689SOL    HW128526   1.176   0.385   7.246  0.1260  1.0825  2.1319
 5689SOL    HW228527   1.029   0.375   7.216 -1.2964  1.7959  2.6960
 5690SOL     OW28528   3.998   3.008   3.038  0.5299  0.0918 -0.4859
 5690SOL    HW128529   4.030   3.032   2.951  1.0547  0.6067 -0.1514
 5690SOL    HW228530   4.013   3.096   3.072 -1.8693  0.6401 -0.8434
 5691SOL     OW28531   3.590   3.460   4.511  0.1642 -0.0034  0.2200
 5691SOL    HW128532   3.659   3.473   4.576  0.5853  0.5230 -0.3308
 5691SOL    HW228533   3.621   3.521   4.444 -0.0350  2.7617  2.6435
 5692SOL     OW28534   2.641   1.662   5.281 -0.3085 -0.4635 -0.2189
 5692SOL    HW128535   2.555   1.645   5.320 -0.1350 -1.0367 -0.0906
 5692SOL    HW228536   2.671   1.573   5.265 -0.5309 -0.9475  1.9839
 5693SOL     OW28537   1.052   0.775   3.217 -0.3581  0.0977 -0.0698
 5693SOL    HW128538   1.124   0.729   3.261  0.9370 -0.5303 -2.8365
 5693SOL    HW228539   0.975   0.731   3.252 -0.6660  0.1159 -0.7261
 5694SOL     OW28540   4.385   3.009   4.587  0.2181 -0.6026  0.4737
 5694SOL    HW128541   4.457   3.055   4.545 -1.3711  0.7712 -0.7557
 5694SOL    HW228542   4.431   2.934   4.625 -0.5187 -1.3839 -0.1691
 5695SOL     OW28543   2.808   1.425   6.252  0.1329  0.4320 -0.5833
 5695SOL    HW128544   2.754   1.500   6.227  2.6402  2.8128  1.1250
 5695SOL    HW228545   2.737   1.364   6.272  0.4571  0.3207  0.1964
 5696SOL     OW28546   1.440   3.332  15.063  0.1682  0.4923 -0.3883
 5696SOL    HW128547   1.368   3.347  15.123 -2.3263 -0.3781 -3.1526
 5696SOL    HW228548   1.404   3.336  14.974 -2.5092  1.1029  0.7224
 5697SOL     OW28549   0.388   2.651   9.020  0.1304 -0.4078 -0.1862
 5697SOL    HW128550   0.465   2.594   9.029  0.4902  0.3503  1.5484
 5697SOL    HW228551   0.446   2.726   9.007  1.9874 -1.5784  1.2462
 5698SOL     OW28552   0.099   0.183   4.809 -0.1294 -0.0957  0.0638
 5698SOL    HW128553   0.083   0.116   4.875  1.8739  2.1183  2.8103
 5698SOL    HW228554   0.041   0.140   4.746  1.6512  0.3024 -1.8499
 5699SOL     OW28555   3.571   4.718   1.631  0.2522 -0.1640 -0.3574
 5699SOL    HW128556   3.562   0.072   1.691  1.1136  0.0308 -0.4771
 5699SOL    HW228557   3.639   0.045   1.584  1.5381 -1.0529  0.6065
 5700SOL     OW28558   0.599   0.496  10.159 -0.4247  0.2844 -0.0336
 5700SOL    HW128559   0.671   0.450  10.201  1.0446  1.8153 -0.8630
 5700SOL    HW228560   0.523   0.441  10.180 -0.4970  0.4399  0.1144
 5701SOL     OW28561   1.561   4.093   1.613  0.8179 -0.0806 -0.5131
 5701SOL    HW128562   1.476   4.129   1.639  1.5949  0.6010  1.0858
 5701SOL    HW228563   1.617   4.156   1.659 -0.1820  0.4361 -0.0183
 5702SOL     OW28564   1.885   3.414  17.122 -0.4787 -0.3621  1.0789
 5702SOL    HW128565   1.838   3.399  17.205  0.2391 -0.0092  1.5521
 5702SOL    HW228566   1.810   3.436  17.067  0.3343  1.5372  0.7557
 5703SOL     OW28567   2.174   3.973   5.842 -0.5221  0.0844 -0.1146
 5703SOL    HW128568   2.264   3.941   5.831 -0.4824  0.1582  0.0081
 5703SOL    HW228569   2.189   4.044   5.903 -1.3609 -0.1597  0.3710
 5704SOL     OW28570   0.005   3.198   1.892 -0.0046  0.0383 -0.1812
 5704SOL    HW128571   0.096   3.177   1.912 -0.8287 -0.0619  3.4652
 5704SOL    HW228572   0.013   3.257   1.817  0.6723 -0.0703 -0.1952
 5705SOL     OW28573   0.274   2.001   8.252 -0.2451  0.8247  0.6012
 5705SOL    HW128574   0.275   2.070   8.318  1.3460  0.8437  0.5700
 5705SOL    HW228575   0.366   1.976   8.258 -0.8249 -1.3245  0.5165
 5706SOL     OW28576   4.189   3.638   8.811 -0.5360 -0.0666  0.0031
 5706SOL    HW128577   4.179   3.579   8.886  1.9925  2.4930  2.3065
 5706SOL    HW228578   4.104   3.630   8.766  0.3416  0.9858 -1.8452
 5707SOL     OW28579   1.999   1.508   3.318  0.3737 -0.0587 -0.2626
 5707SOL    HW128580   1.994   1.482   3.226 -1.6277  2.8176 -0.9891
 5707SOL    HW228581   2.082   1.556   3.311  0.3191  0.1700  0.6350
 5708SOL     OW28582   0.551   3.768  14.745  0.2426 -0.1446  0.8242
 5708SOL    HW128583   0.591   3.823  14.677  2.4073  0.5990  2.7289
 5708SOL    HW228584   0.600   3.792  14.823  1.4108  1.7494 -0.4805
 5709SOL     OW28585   3.486   0.776   3.115  0.4242 -0.1248  0.7156
 5709SOL    HW128586   3.451   0.815   3.036  1.6320 -0.6540 -0.0830
 5709SOL    HW228587   3.525   0.847   3.166  0.0699 -0.1342  0.9979
 5710SOL     OW28588   1.254   2.353   8.540 -0.0867  0.1859  0.8017
 5710SOL    HW128589   1.163   2.377   8.521  0.1755 -0.0573 -0.7223
 5710SOL    HW228590   1.304   2.407   8.479 -2.5387 -0.1085 -1.4786
 5711SOL     OW28591   1.657   1.368  14.650 -0.2136  0.0299  0.3834
 5711SOL    HW128592   1.596   1.419  14.598 -0.2386 -1.2742 -0.8907
 5711SOL    HW228593   1.633   1.412  14.731  1.0946 -1.2630  1.4830
 5712SOL     OW28594   2.008   3.671   9.419 -0.0676  0.2921  0.7161
 5712SOL    HW128595   2.079   3.665   9.483  0.1796 -2.4614  0.2191
 5712SOL    HW228596   2.032   3.753   9.377  1.2940 -0.5206 -0.1067
 5713SOL     OW28597   2.893   2.296   8.027 -0.0705 -0.0238 -0.5642
 5713SOL    HW128598   2.883   2.227   8.092 -0.7415 -1.3373 -2.0521
 5713SOL    HW228599   2.987   2.276   8.019 -0.0270  0.0843 -0.3191
 5714SOL     OW28600   2.040   4.274  12.288 -0.3490 -0.3537  0.2280
 5714SOL    HW128601   2.122   4.237  12.257 -1.4481 -0.5368 -2.3857
 5714SOL    HW228602   2.011   4.211  12.354 -2.0243  0.0640 -0.1155
 5715SOL     OW28603   0.346   4.434   5.616 -0.2330  0.7379 -0.4687
 5715SOL    HW128604   0.429   4.410   5.576  0.0976  0.6003  0.2860
 5715SOL    HW228605   0.375   4.462   5.703 -1.5897  1.2993 -0.2000
 5716SOL     OW28606   2.426   2.200   2.012 -0.6744 -0.2870  0.4215
 5716SOL    HW128607   2.482   2.261   2.059 -1.0028  1.0573 -0.9218
 5716SOL    HW228608   2.358   2.258   1.977 -2.0400 -1.4068  1.2112
 5717SOL     OW28609   3.492   3.677  15.121  0.3344 -0.1813  0.4710
 5717SOL    HW128610   3.456   3.701  15.207  0.2135 -0.4822  0.5045
 5717SOL    HW228611   3.471   3.760  15.079  1.3819 -1.2324 -2.1330
 5718SOL     OW28612   0.147   3.524   9.443  0.2210 -0.0243 -0.2570
 5718SOL    HW128613   0.145   3.596   9.506  1.9440 -1.9180  1.9465
 5718SOL    HW228614   0.055   3.507   9.426  0.1743  0.1300 -0.1596
 5719SOL     OW28615   0.116   1.956   3.869  0.6399 -0.8921  0.0439
 5719SOL    HW128616   0.075   2.034   3.833 -0.1897 -0.1889  2.4798
 5719SOL    HW228617   0.166   2.005   3.934  0.1142  1.4757 -1.3439
 5720SOL     OW28618   2.754   0.039  13.384  0.2415 -0.0212 -0.1492
 5720SOL    HW128619   2.822   0.087  13.431 -0.0508 -2.2502  2.5652
 5720SOL    HW228620   2.791   4.671  13.380 -0.2180 -0.3638  3.3155
 5721SOL     OW28621   3.145   2.172   9.893  0.2893  0.0225  0.1649
 5721SOL    HW128622   3.146   2.152   9.799 -0.5988 -1.9551  0.5807
 5721SOL    HW228623   3.055   2.196   9.915  0.0750 -1.7020  1.1176
 5722SOL     OW28624   4.413   1.350   4.284  0.2442 -0.4999 -0.2715
 5722SOL    HW128625   4.458   1.391   4.210  0.0291  3.0876  1.5996
 5722SOL    HW228626   4.329   1.332   4.242 -0.1130  2.8110 -0.9800
 5723SOL     OW28627   4.491   3.330  14.573  0.0970  0.2641  0.3076
 5723SOL    HW128628   4.566   3.390  14.564 -0.6271  0.9265 -1.2261
 5723SOL    HW228629   4.483   3.296  14.484  0.7480  1.8163 -0.3472
 5724SOL     OW28630   4.266   2.855   7.964  0.4517 -0.3352  0.3191
 5724SOL    HW128631   4.284   2.928   8.023 -2.7813 -0.0584  0.9109
 5724SOL    HW228632   4.171   2.858   7.974  0.3398 -1.4155 -0.4064
 5725SOL     OW28633   1.712   0.245   5.361 -0.1077 -0.2300 -0.1574
 5725SOL    HW128634   1.698   0.178   5.428  3.5997 -1.1108 -0.2207
 5725SOL    HW228635   1.627   0.286   5.350  0.4690  1.0090 -0.0557
 5726SOL     OW28636   0.050   4.402   3.714  0.2006 -0.1745 -0.1066
 5726SOL    HW128637   0.047   4.498   3.716  0.7734 -0.1749  0.8821
 5726SOL    HW228638   0.093   4.383   3.797  1.5225  1.1413 -0.4865
 5727SOL     OW28639   3.536   1.910  16.504 -0.1867 -0.1645  0.2343
 5727SOL    HW128640   3.485   1.987  16.478 -1.4382 -0.6706  1.1568
 5727SOL    HW228641   3.586   1.902  16.423 -0.3995  0.0954  0.0771
 5728SOL     OW28642   2.763   1.936   2.086  0.2919 -0.0248 -0.3966
 5728SOL    HW128643   2.844   1.910   2.132 -0.3857 -2.2856 -0.5321
 5728SOL    HW228644   2.723   1.849   2.084 -0.8815  0.5407 -1.2677
 5729SOL     OW28645   0.475   0.955   7.596  0.2496  0.1594 -0.8659
 5729SOL    HW128646   0.499   0.877   7.645 -0.0440  1.9122  2.0849
 5729SOL    HW228647   0.562   0.970   7.557  1.9273 -1.0741  2.4218
 5730SOL     OW28648   0.927   2.032  12.128  0.3094 -0.1024  0.2896
 5730SOL    HW128649   0.894   2.081  12.052 -0.4394  1.8658  1.9035
 5730SOL    HW228650   0.889   2.085  12.198 -0.4328  0.2572 -0.3796
 5731SOL     OW28651   4.706   2.531   4.980  0.5970 -0.5445  0.3077
 5731SOL    HW128652   0.013   2.532   4.889 -0.5695  3.1557  0.0163
 5731SOL    HW228653   0.068   2.503   5.021 -0.2220  0.5534  2.7056
 5732SOL     OW28654   4.458   3.233   8.880 -0.0466  0.5151 -0.0002
 5732SOL    HW128655   4.521   3.163   8.866  0.1371  0.5377  0.6924
 5732SOL    HW228656   4.485   3.281   8.802 -0.4607  0.9269  0.1080
 5733SOL     OW28657   3.522   1.632   6.309 -0.0684  0.5774  0.8365
 5733SOL    HW128658   3.582   1.706   6.304  0.4641  0.0483 -0.5599
 5733SOL    HW228659   3.441   1.673   6.340 -1.7244 -1.1991 -1.0979
 5734SOL     OW28660   2.598   4.460   1.990  0.1125 -1.0096  0.0565
 5734SOL    HW128661   2.564   4.411   2.064 -0.0589 -1.4779 -0.3279
 5734SOL    HW228662   2.564   4.403   1.921 -0.0688  1.1595 -1.6568
 5735SOL     OW28663   0.254   0.768   2.127  0.3337  0.2802 -0.4819
 5735SOL    HW128664   0.211   0.826   2.190  0.6467 -1.7194  1.5602
 5735SOL    HW228665   0.318   0.831   2.093 -0.4690  0.8472 -0.9544
 5736SOL     OW28666   1.198   1.274  13.868 -0.3327  0.5149  0.1174
 5736SOL    HW128667   1.107   1.248  13.879 -0.1589 -0.7549 -1.3883
 5736SOL    HW228668   1.236   1.195  13.906  0.4822 -0.2549 -2.2694
 5737SOL     OW28669   3.232   4.591   7.294 -1.0787  0.1537  0.5510
 5737SOL    HW128670   3.315   4.544   7.288 -1.7867 -0.7328 -2.5507
 5737SOL    HW228671   3.222   4.593   7.389 -1.1022  1.6615  0.5148
 5738SOL     OW28672   3.202   3.774  15.183  0.3105  0.0393 -0.2335
 5738SOL    HW128673   3.181   3.684  15.157 -1.2925  0.2287  0.3525
 5738SOL    HW228674   3.285   3.766  15.229  0.1165  1.8765  0.4206
 5739SOL     OW28675   2.092   0.860   5.995  0.0322  0.1759 -0.0245
 5739SOL    HW128676   2.024   0.805   5.957  2.3095 -1.5217 -1.6120
 5739SOL    HW228677   2.163   0.797   5.986 -0.3657 -0.0447 -1.5658
 5740SOL     OW28678   0.728   0.647   4.635 -0.0502  0.0053 -0.5856
 5740SOL    HW128679   0.805   0.591   4.623  0.1712  0.0277  0.7710
 5740SOL    HW228680   0.651   0.590   4.632  1.5238 -2.2696  3.0003
 5741SOL     OW28681   1.010   4.408   3.202 -0.0031 -0.2748 -0.0024
 5741SOL    HW128682   1.035   4.403   3.110  2.9028  1.9357  0.6580
 5741SOL    HW228683   0.918   4.426   3.180 -0.0178  0.8163  0.9444
 5742SOL     OW28684   4.158   0.253   1.679  0.2936  0.4440  0.8378
 5742SOL    HW128685   4.232   0.213   1.724  0.6176  0.6549  0.4865
 5742SOL    HW228686   4.171   0.211   1.593  0.7526  0.6752  0.7968
 5743SOL     OW28687   4.191   1.762   8.528  0.0734 -0.5562  0.3669
 5743SOL    HW128688   4.194   1.841   8.473  0.2366 -0.9968 -0.2544
 5743SOL    HW228689   4.264   1.711   8.492 -0.4624 -0.4486 -0.8741
 5744SOL     OW28690   3.053   0.033  16.713 -0.4327  0.2924  0.0182
 5744SOL    HW128691   2.992   0.026  16.639 -0.5896 -1.0727  0.2657
 5744SOL    HW228692   3.050   4.663  16.746  1.2801  0.9197  1.8792
 5745SOL     OW28693   2.252   3.153   6.381 -0.5318 -0.3640 -0.0073
 5745SOL    HW128694   2.218   3.209   6.312 -0.8635 -0.7189 -0.1339
 5745SOL    HW228695   2.267   3.064   6.349 -0.3470  0.3210 -1.8003
 5746SOL     OW28696   4.436   0.145   4.841  0.0793 -1.0550  0.0517
 5746SOL    HW128697   4.365   0.103   4.889 -0.1292 -1.8693 -0.9500
 5746SOL    HW228698   4.488   0.186   4.910 -2.2853  0.8382  0.7191
 5747SOL     OW28699   0.277   3.146   5.025 -0.2475 -0.1578  0.0426
 5747SOL    HW128700   0.363   3.124   5.061 -1.1554 -0.6646  1.8684
 5747SOL    HW228701   0.267   3.240   5.044 -0.8636 -0.5270  1.5197
 5748SOL     OW28702   0.835   1.600   5.006  0.1821  0.0610  0.6519
 5748SOL    HW128703   0.785   1.677   4.978 -0.4039 -0.2334  0.8915
 5748SOL    HW228704   0.823   1.608   5.101 -0.5215  2.1337  0.3850
 5749SOL     OW28705   2.651   2.270  10.678  0.1130  0.0075  0.0063
 5749SOL    HW128706   2.619   2.263  10.588 -0.8488 -0.2164  0.3639
 5749SOL    HW228707   2.605   2.195  10.717  1.1835  0.2025  1.6736
 5750SOL     OW28708   1.442   1.943  16.401  0.4928 -0.2546  0.5532
 5750SOL    HW128709   1.482   1.879  16.343 -1.0546  0.3373 -1.1769
 5750SOL    HW228710   1.394   1.998  16.339  1.2097 -1.5630 -1.1402
 5751SOL     OW28711   4.347   1.194   8.323 -0.1539  0.2777  0.1014
 5751SOL    HW128712   4.325   1.244   8.401 -3.2757  0.3709 -0.8636
 5751SOL    HW228713   4.387   1.260   8.265 -0.9435 -1.0889 -2.0082
 5752SOL     OW28714   2.572   0.756   4.533  0.5779 -0.3311  0.3110
 5752SOL    HW128715   2.616   0.673   4.518 -1.8451 -1.3900 -0.9372
 5752SOL    HW228716   2.650   0.800   4.568 -0.2399  2.0724 -0.8578
 5753SOL     OW28717   3.595   1.812  17.217 -0.1331  0.5291  0.2142
 5753SOL    HW128718   3.527   1.880  17.214  1.0005  1.6397 -0.1044
 5753SOL    HW228719   3.597   1.813  17.121 -1.5632 -0.5528  0.1612
 5754SOL     OW28720   3.987   2.647  15.194  0.0358  0.2143  0.1515
 5754SOL    HW128721   3.909   2.591  15.189 -0.3848  0.7539  0.6354
 5754SOL    HW228722   4.036   2.612  15.120 -1.9464  2.1277 -2.0427
 5755SOL     OW28723   3.558   3.359  11.705 -0.0601 -0.4981  0.7680
 5755SOL    HW128724   3.572   3.369  11.800 -0.3230 -0.7624  0.8370
 5755SOL    HW228725   3.487   3.295  11.703 -0.9959  0.5314  1.1400
 5756SOL     OW28726   4.356   1.624   7.106 -0.0791  0.2004 -0.3445
 5756SOL    HW128727   4.440   1.633   7.062 -0.0682 -0.6163 -0.4886
 5756SOL    HW228728   4.379   1.680   7.180 -0.8783 -0.5420  0.4650
 5757SOL     OW28729   1.936   4.700  15.505 -0.2250  0.1959 -0.7427
 5757SOL    HW128730   1.998   4.665  15.569  0.3466 -0.9250 -1.9112
 5757SOL    HW228731   1.983   4.679  15.425  0.3436  0.7109 -0.5452
 5758SOL     OW28732   2.037   1.715  15.525  0.5544  0.0930  0.5055
 5758SOL    HW128733   2.091   1.717  15.605  0.6762  0.9517  0.4064
 5758SOL    HW228734   2.101   1.694  15.457  2.4286 -0.5408  2.4673
 5759SOL     OW28735   2.438   1.120   8.481  0.9793  0.1690  0.0513
 5759SOL    HW128736   2.496   1.044   8.483  1.2744  0.4195  1.1490
 5759SOL    HW228737   2.353   1.078   8.495  1.2198 -0.8091 -1.4153
 5760SOL     OW28738   3.253   2.908   6.163 -0.4885 -0.3298  0.0521
 5760SOL    HW128739   3.263   2.998   6.134 -0.8716  0.2586  1.7507
 5760SOL    HW228740   3.339   2.874   6.136 -0.0380  0.9052 -0.0533
 5761SOL     OW28741   4.566   1.208   8.677  0.3453  0.2460 -0.1635
 5761SOL    HW128742   4.525   1.181   8.759  1.6073 -1.0304  0.0395
 5761SOL    HW228743   4.569   1.301   8.698  1.3826  0.1606  0.0474
 5762SOL     OW28744   2.069   1.878  10.224  0.1259  0.3329  0.3313
 5762SOL    HW128745   2.152   1.859  10.181  0.9095 -0.3213  2.1371
 5762SOL    HW228746   2.019   1.921  10.154  2.0247 -0.2547 -1.3887
 5763SOL     OW28747   2.867   4.518   3.329  0.3021 -0.3212  0.0706
 5763SOL    HW128748   2.950   4.562   3.315 -1.1258  1.9563 -1.3289
 5763SOL    HW228749   2.859   4.520   3.424  0.8437  2.0404  0.0639
 5764SOL     OW28750   3.991   4.467   8.047  0.2320 -0.7829  0.6709
 5764SOL    HW128751   4.082   4.495   8.037  0.3671 -0.6939  2.1946
 5764SOL    HW228752   3.965   4.479   7.955  0.7182 -0.8156  0.5235
 5765SOL     OW28753   4.435   3.284  12.641  0.0219 -0.0107 -0.2723
 5765SOL    HW128754   4.467   3.336  12.715 -1.8395  1.5294 -0.5346
 5765SOL    HW228755   4.484   3.317  12.566  1.3791  0.7262  0.9446
 5766SOL     OW28756   1.104   0.086   6.100 -0.1904 -0.2602  0.1433
 5766SOL    HW128757   1.155   0.072   6.021 -1.2247 -0.1354 -0.5465
 5766SOL    HW228758   1.032   0.139   6.065  0.2484  0.4085  0.2506
 5767SOL     OW28759   2.263   3.836   0.974  0.3014 -0.3041 -0.3808
 5767SOL    HW128760   2.204   3.886   1.030 -2.3000 -0.7506 -2.7404
 5767SOL    HW228761   2.198   3.786   0.926 -1.6580  2.7777 -0.9143
 5768SOL     OW28762   4.404   2.332  14.786  0.4019  0.7779  0.0301
 5768SOL    HW128763   4.419   2.391  14.713  1.6908  1.7338  1.0674
 5768SOL    HW228764   4.308   2.331  14.782  0.2938  0.5630  2.7213
 5769SOL     OW28765   3.404   3.599   7.737 -0.3799  0.4636  0.5748
 5769SOL    HW128766   3.393   3.643   7.821  1.8931  1.4584  0.3600
 5769SOL    HW228767   3.492   3.624   7.707  0.1065 -0.2946  1.3824
 5770SOL     OW28768   3.723   2.950   4.016 -0.7984 -0.3806  0.4122
 5770SOL    HW128769   3.693   3.017   3.955 -0.9758 -1.5977 -0.8400
 5770SOL    HW228770   3.709   2.990   4.102  0.0421 -0.5269  0.6209
 5771SOL     OW28771   3.937   2.166   9.850 -0.0268 -0.3309 -0.1862
 5771SOL    HW128772   3.936   2.250   9.804  0.0071  0.4726  1.2876
 5771SOL    HW228773   3.850   2.166   9.889  1.2461  1.2495  2.7195
 5772SOL     OW28774   2.542   2.312   4.875  0.2965 -0.1675 -0.3443
 5772SOL    HW128775   2.517   2.322   4.967  3.8823 -2.4730  0.9229
 5772SOL    HW228776   2.515   2.395   4.836 -2.6449 -1.0174 -0.0818
 5773SOL     OW28777   3.304   1.580   5.134 -0.1376 -0.4580  0.4303
 5773SOL    HW128778   3.273   1.574   5.044  1.7394 -2.7675 -0.0645
 5773SOL    HW228779   3.336   1.670   5.126  2.2289 -1.1362  2.3163
 5774SOL     OW28780   0.581   1.644  13.928 -0.4259 -0.4839  0.2162
 5774SOL    HW128781   0.507   1.675  13.980 -1.0398 -2.9050  0.8047
 5774SOL    HW228782   0.638   1.589  13.982  0.5042 -1.5724 -1.8807
 5775SOL     OW28783   3.793   3.520   3.166 -0.2153 -0.3148 -0.0747
 5775SOL    HW128784   3.767   3.475   3.086 -0.3374  0.6519 -0.5841
 5775SOL    HW228785   3.762   3.481   3.248  2.8531  0.2284  1.3757
 5776SOL     OW28786   3.116   3.498   8.930 -0.5031  0.1186  0.4513
 5776SOL    HW128787   3.060   3.574   8.916  0.9803  0.9456 -0.9528
 5776SOL    HW228788   3.156   3.493   8.843 -0.6759 -1.4211  0.4641
 5777SOL     OW28789   2.865   2.985  16.790 -0.3064  0.1641 -0.1238
 5777SOL    HW128790   2.846   2.967  16.698 -1.4792 -1.5925  0.4517
 5777SOL    HW228791   2.864   3.080  16.799 -1.6212  0.1851 -0.5171
 5778SOL     OW28792   1.306   1.899   8.686 -0.0277  0.5055 -0.0555
 5778SOL    HW128793   1.376   1.888   8.750  1.6520  0.6925 -1.8666
 5778SOL    HW228794   1.325   1.988   8.657  1.4243  0.1139 -0.3094
 5779SOL     OW28795   4.392   0.030  11.325 -0.5669 -0.6376  0.3904
 5779SOL    HW128796   4.420   0.121  11.335  1.9170 -1.3451 -0.2141
 5779SOL    HW228797   4.475   4.714  11.296 -0.8317 -0.2197 -0.8944
 5780SOL     OW28798   2.009   3.741   7.565 -0.0762  0.3574 -0.2679
 5780SOL    HW128799   2.090   3.790   7.551  0.8852 -0.8847  0.9632
 5780SOL    HW228800   2.011   3.692   7.483 -2.1959 -1.9850  1.0837
 5781SOL     OW28801   2.880   3.659   4.926  0.3185 -0.2176  0.6031
 5781SOL    HW128802   2.859   3.701   4.843  0.0040  0.8934  1.2519
 5781SOL    HW228803   2.797   3.645   4.971 -0.3809  1.1674 -0.2642
 5782SOL     OW28804   3.265   0.805   7.961  0.0730  0.7982  0.0712
 5782SOL    HW128805   3.254   0.900   7.952  0.4558  0.9757  1.3974
 5782SOL    HW228806   3.191   0.779   7.908  0.2368  0.5729 -0.0445
 5783SOL     OW28807   1.669   1.038   2.333  0.1965 -0.1348 -0.3398
 5783SOL    HW128808   1.589   0.997   2.366 -0.2402  1.2326  0.2989
 5783SOL    HW228809   1.616   1.103   2.286 -0.2891  1.0009  1.7857
 5784SOL     OW28810   1.716   2.067   3.790 -0.6610  0.3144  0.1636
 5784SOL    HW128811   1.800   2.040   3.752 -1.1136  0.9033 -1.2383
 5784SOL    HW228812   1.670   2.105   3.715  0.8890  1.0787 -0.4031
 5785SOL     OW28813   2.965   2.444   7.280  0.1268  0.3274 -0.1157
 5785SOL    HW128814   2.907   2.371   7.303  1.8697 -1.0251 -0.0269
 5785SOL    HW228815   3.000   2.467   7.366  0.3108 -0.1864 -0.0521
 5786SOL     OW28816   3.372   1.150   8.355  0.2366  0.6289  0.1503
 5786SOL    HW128817   3.410   1.062   8.353 -1.2839 -0.0683  2.0119
 5786SOL    HW228818   3.310   1.150   8.281 -0.2936 -2.6464  0.5721
 5787SOL     OW28819   3.833   1.388   7.844 -0.3069 -0.6231  0.4437
 5787SOL    HW128820   3.882   1.323   7.794 -0.8872 -1.2491  0.6947
 5787SOL    HW228821   3.840   1.348   7.930 -0.9611  1.1895  1.3478
 5788SOL     OW28822   3.001   0.189   6.996  0.6135 -0.4450 -0.0220
 5788SOL    HW128823   3.024   0.109   7.044  0.7256  0.0968  0.8205
 5788SOL    HW228824   3.019   0.164   6.906  0.5900 -1.7160  0.3267
 5789SOL     OW28825   4.595   2.586   5.419  0.5188 -0.4846  0.4090
 5789SOL    HW128826   4.569   2.677   5.407 -0.9167 -1.0683 -0.9619
 5789SOL    HW228827   4.562   2.559   5.504  0.2103  1.6250  0.9429
 5790SOL     OW28828   0.762   1.066   7.081  0.1096  0.5138 -0.7364
 5790SOL    HW128829   0.819   1.021   7.143 -1.8011  1.3173  1.6149
 5790SOL    HW228830   0.735   0.992   7.027 -0.4997 -0.6715  1.2176
 5791SOL     OW28831   2.941   1.017   3.886  0.6352  0.0287  0.2410
 5791SOL    HW128832   2.887   0.944   3.917 -1.7772  0.7589 -2.2023
 5791SOL    HW228833   3.006   1.010   3.956  1.5767  2.2823 -0.3926
 5792SOL     OW28834   1.833   1.917  14.855 -0.0153 -0.7750 -0.1367
 5792SOL    HW128835   1.843   1.829  14.817  0.2625 -0.9274  0.2954
 5792SOL    HW228836   1.926   1.936  14.868  0.2096 -2.0960  0.2000
 5793SOL     OW28837   1.602   0.132   7.277  0.1741 -0.1900 -0.4680
 5793SOL    HW128838   1.561   0.191   7.214 -2.3029  0.0247  1.3379
 5793SOL    HW228839   1.680   0.178   7.308  0.3427 -0.4740 -0.4629
 5794SOL     OW28840   4.692   0.210   2.030 -0.0250  0.3303 -0.3318
 5794SOL    HW128841   0.027   0.190   1.955  3.4218 -1.0530  2.6001
 5794SOL    HW228842   4.640   0.281   1.992  0.0810 -0.8310 -2.6934
 5795SOL     OW28843   2.931   1.009  14.671 -0.2035 -0.0143  0.4250
 5795SOL    HW128844   2.868   0.945  14.704  0.0787 -0.6606 -0.2888
 5795SOL    HW228845   3.007   0.993  14.727 -0.2851 -1.4171  0.1376
 5796SOL     OW28846   4.204   3.119  14.890 -0.4517 -0.1861 -0.4267
 5796SOL    HW128847   4.192   3.156  14.977  2.3694 -0.4852  0.0656
 5796SOL    HW228848   4.169   3.184  14.830 -0.6227 -0.2108 -0.3539
 5797SOL     OW28849   3.868   3.377   0.829 -0.3381 -0.0669 -0.1262
 5797SOL    HW128850   3.923   3.362   0.906 -1.3634  1.7710  0.9412
 5797SOL    HW228851   3.904   3.322   0.759  0.1083 -0.5804  0.5144
 5798SOL     OW28852   3.814   1.295   5.424  0.5417  0.3547 -0.4298
 5798SOL    HW128853   3.749   1.244   5.472 -0.6407 -1.1240 -3.5456
 5798SOL    HW228854   3.866   1.227   5.381  2.1326  0.7572  0.8588
 5799SOL     OW28855   2.553   3.534   2.077  0.4643  0.5163 -0.0534
 5799SOL    HW128856   2.553   3.443   2.106 -0.9597  0.7314  0.6303
 5799SOL    HW228857   2.590   3.581   2.151  1.7654 -1.5098  0.5669
 5800SOL     OW28858   0.222   1.186   7.098 -0.5420 -0.7681  0.1670
 5800SOL    HW128859   0.236   1.238   7.177 -0.4648  0.8843 -0.9330
 5800SOL    HW228860   0.131   1.157   7.098  0.4114 -3.7554  2.2820
 5801SOL     OW28861   3.387   4.660   8.418 -0.1321  0.5485  0.0418
 5801SOL    HW128862   3.436   0.020   8.405  1.9371 -0.9449 -1.4708
 5801SOL    HW228863   3.456   4.607   8.459  1.5964  1.7770 -1.2951
 5802SOL     OW28864   0.531   4.718   7.614  0.1822  0.1121  0.3682
 5802SOL    HW128865   0.557   0.021   7.703 -2.4087 -0.6491  1.3242
 5802SOL    HW228866   0.556   0.077   7.567 -1.8738 -0.0475 -0.9738
 5803SOL     OW28867   2.909   4.249   0.441  0.7527  0.0428 -0.0283
 5803SOL    HW128868   2.868   4.336   0.448  2.6104  0.8559  0.5856
 5803SOL    HW228869   2.835   4.205   0.399  0.0051 -1.0117  2.3788
 5804SOL     OW28870   1.354   3.418   2.051  0.1170 -0.2000  0.4199
 5804SOL    HW128871   1.346   3.511   2.069  1.2718 -0.0865  0.2930
 5804SOL    HW228872   1.271   3.384   2.085 -0.9201  1.0115 -0.9016
 5805SOL     OW28873   3.363   0.733   6.858 -0.2372 -0.1568 -0.6766
 5805SOL    HW128874   3.314   0.696   6.931  0.2954 -1.5063 -1.0102
 5805SOL    HW228875   3.398   0.808   6.907 -1.2177  0.2160 -0.5547
 5806SOL     OW28876   4.082   3.547   8.129  0.5872  0.3171 -0.4344
 5806SOL    HW128877   4.094   3.605   8.204 -0.4425  0.0114 -0.0267
 5806SOL    HW228878   4.132   3.599   8.066  1.6591 -2.1518 -1.6087
 5807SOL     OW28879   1.686   2.812   7.399  0.2168  0.5471  0.2718
 5807SOL    HW128880   1.717   2.844   7.314  1.3941 -1.3673 -0.0260
 5807SOL    HW228881   1.613   2.865   7.430 -0.7082  0.9239 -2.5184
 5808SOL     OW28882   3.209   3.603   7.512 -0.1506  0.1384 -0.4447
 5808SOL    HW128883   3.213   3.698   7.507  0.9906  0.1641  1.0380
 5808SOL    HW228884   3.271   3.594   7.584 -0.7576 -3.3784 -0.3303
 5809SOL     OW28885   1.819   2.730   5.753  0.0372  1.1707 -0.4719
 5809SOL    HW128886   1.742   2.702   5.705  1.8956 -0.8617 -2.2698
 5809SOL    HW228887   1.832   2.655   5.811  0.0270  0.5661 -1.2558
 5810SOL     OW28888   3.340   4.312   4.242  0.2884 -0.6493 -0.0389
 5810SOL    HW128889   3.349   4.299   4.336  2.5507 -0.2481 -0.1880
 5810SOL    HW228890   3.391   4.238   4.209 -1.4073 -1.8774  0.0941
 5811SOL     OW28891   4.667   2.286   4.651  0.1828  0.0288 -0.1433
 5811SOL    HW128892   4.625   2.328   4.576 -0.5174 -1.6907 -0.7195
 5811SOL    HW228893   0.036   2.272   4.619  0.5527 -1.9629  1.7745
 5812SOL     OW28894   2.307   0.375   5.263  0.5467 -0.1881  0.0952
 5812SOL    HW128895   2.316   0.457   5.216  1.7086  0.0750  0.7825
 5812SOL    HW228896   2.294   0.313   5.191 -0.3450 -3.2019  2.8581
 5813SOL     OW28897   4.210   3.973   7.831 -0.1927  0.2735 -0.3568
 5813SOL    HW128898   4.196   3.997   7.739  0.6582  0.6847 -0.3808
 5813SOL    HW228899   4.122   3.938   7.845 -0.3660  1.2424  0.9053
 5814SOL     OW28900   4.316   3.652  16.451  0.2337 -0.5042 -0.5642
 5814SOL    HW128901   4.258   3.585  16.415  1.8579 -2.5911  0.6712
 5814SOL    HW228902   4.386   3.593  16.480 -1.1820 -1.4770  0.8133
 5815SOL     OW28903   2.585   0.418   2.113  0.1995  0.3941 -0.0752
 5815SOL    HW128904   2.661   0.379   2.069  0.0319 -2.6021  2.3903
 5815SOL    HW228905   2.558   0.334   2.149 -0.1127  1.2224  1.6149
 5816SOL     OW28906   1.094   3.803   3.264 -0.5062 -0.0297 -0.4263
 5816SOL    HW128907   1.105   3.861   3.188 -0.1812 -1.8842 -1.7888
 5816SOL    HW228908   1.118   3.865   3.333  1.5319 -0.9493 -0.3133
 5817SOL     OW28909   0.435   1.776   8.880 -0.6911 -0.1187  0.0629
 5817SOL    HW128910   0.351   1.820   8.895 -0.1893  1.9283 -3.1048
 5817SOL    HW228911   0.434   1.777   8.784  1.8424  0.9405  0.0547
 5818SOL     OW28912   4.002   0.010  10.396 -0.2272  0.2238 -0.1937
 5818SOL    HW128913   3.928   4.696  10.347  1.0459 -1.2126 -1.1131
 5818SOL    HW228914   4.027   0.083  10.339 -0.7424  0.3378 -0.2702
 5819SOL     OW28915   1.739   2.633   4.892 -0.1591  0.5694  0.5139
 5819SOL    HW128916   1.720   2.654   4.983  0.0115  3.0334 -0.0145
 5819SOL    HW228917   1.694   2.704   4.847 -0.0744  0.0063 -0.4706
 5820SOL     OW28918   0.737   1.530  17.178  0.2984 -0.0803  0.5945
 5820SOL    HW128919   0.678   1.588  17.131  0.7874  0.9245  1.2200
 5820SOL    HW228920   0.811   1.522  17.117  0.7668 -0.4228  1.2054
 5821SOL     OW28921   0.705   1.343   0.281  0.0724 -0.0977 -0.0192
 5821SOL    HW128922   0.628   1.397   0.297 -1.3407 -1.9182 -0.7284
 5821SOL    HW228923   0.678   1.252   0.276 -0.0623  0.1947 -4.9723
 5822SOL     OW28924   0.900   4.112   9.271  0.2889 -0.3617  0.2828
 5822SOL    HW128925   0.930   4.047   9.208  0.4717  0.3649 -0.3797
 5822SOL    HW228926   0.934   4.077   9.353 -0.2726 -0.2070  0.5811
 5823SOL     OW28927   4.024   4.211   4.514 -0.1008  0.3011  0.3891
 5823SOL    HW128928   4.096   4.171   4.464  0.0790  1.1429 -0.0271
 5823SOL    HW228929   4.033   4.153   4.590  1.4128  1.1712  0.8752
 5824SOL     OW28930   4.150   2.419  13.509  0.2717  0.0631 -0.6874
 5824SOL    HW128931   4.168   2.509  13.538  0.9570 -0.3814  0.2573
 5824SOL    HW228932   4.146   2.388  13.600 -0.8961 -0.1474 -0.8204
 5825SOL     OW28933   2.599   1.824   4.001 -0.6569  0.2583 -0.2790
 5825SOL    HW128934   2.569   1.734   3.987  3.1401 -1.1129  0.5732
 5825SOL    HW228935   2.687   1.827   3.965 -0.9398  0.6049 -0.9422
 5826SOL     OW28936   3.820   3.389  12.449  0.1265  0.5830 -0.1632
 5826SOL    HW128937   3.882   3.324  12.416 -1.2841 -1.5209  1.2816
 5826SOL    HW228938   3.864   3.425  12.527  2.2906  0.1310 -1.1625
 5827SOL     OW28939   4.353   0.108   0.216 -0.4445 -0.6288  0.3578
 5827SOL    HW128940   4.435   0.069   0.186 -0.4698  0.4804 -1.1589
 5827SOL    HW228941   4.387   0.185   0.263 -1.3348  1.0620 -1.7593
 5828SOL     OW28942   4.396   1.864   2.039 -0.1483 -0.0061 -0.0310
 5828SOL    HW128943   4.305   1.890   2.050 -0.8719 -1.7907 -1.7240
 5828SOL    HW228944   4.406   1.858   1.944 -1.3401  0.8786 -0.2110
 5829SOL     OW28945   2.097   0.609   4.466  0.8175  0.2026  0.2708
 5829SOL    HW128946   2.067   0.543   4.528  0.3535  0.1538 -0.0124
 5829SOL    HW228947   2.057   0.580   4.385  0.7030 -0.1021  0.4377
 5830SOL     OW28948   3.102   4.403   3.726  0.1424  0.2791 -0.2624
 5830SOL    HW128949   3.193   4.425   3.705  0.1607  2.3440  1.9646
 5830SOL    HW228950   3.059   4.486   3.748 -0.7553 -0.9420  2.5870
 5831SOL     OW28951   4.572   2.240   8.611  0.8353 -0.2596 -1.0348
 5831SOL    HW128952   4.583   2.148   8.588 -2.3708 -0.5134 -1.5127
 5831SOL    HW228953   4.499   2.271   8.557 -0.0003 -1.4481 -0.5873
 5832SOL     OW28954   0.742   0.390   1.814  0.0637 -0.6537  0.0893
 5832SOL    HW128955   0.697   0.367   1.895 -1.1556 -1.5735 -0.8522
 5832SOL    HW228956   0.818   0.425   1.860 -0.3566 -1.2012  1.1839
 5833SOL     OW28957   2.458   0.560   7.582  0.5517  0.3740 -0.0758
 5833SOL    HW128958   2.383   0.586   7.528  1.2125 -0.3096 -1.3440
 5833SOL    HW228959   2.534   0.574   7.525  0.5322  0.9612  0.0398
 5834SOL     OW28960   2.445   2.624  11.410  0.2606 -0.3425 -0.0864
 5834SOL    HW128961   2.352   2.639  11.390 -0.2516 -0.8586  1.8612
 5834SOL    HW228962   2.482   2.692  11.354  0.2147 -2.0775 -2.2156
 5835SOL     OW28963   2.058   3.763   1.484  0.2126 -0.2563 -0.0460
 5835SOL    HW128964   2.026   3.737   1.398 -3.0650 -3.6065  2.1540
 5835SOL    HW228965   2.112   3.690   1.515  1.3438  1.0768  1.1449
 5836SOL     OW28966   4.185   4.303  16.303  0.2336  0.5334  0.1978
 5836SOL    HW128967   4.166   4.392  16.334 -0.1976  0.6979 -0.5434
 5836SOL    HW228968   4.253   4.280  16.366 -0.0945 -0.5123  0.1710
 5837SOL     OW28969   3.155   4.268  15.219  0.2141  0.5520 -0.1934
 5837SOL    HW128970   3.085   4.316  15.176  1.7415  0.9528 -2.2718
 5837SOL    HW228971   3.126   4.182  15.190  0.3026  1.0724 -1.8640
 5838SOL     OW28972   0.931   1.833   7.752  0.6036  0.0097 -0.1625
 5838SOL    HW128973   0.958   1.861   7.840 -1.1853 -0.5078  0.5443
 5838SOL    HW228974   0.879   1.901   7.709 -1.4064 -1.6577 -0.3582
 5839SOL     OW28975   3.963   0.905   4.837  0.0241  0.4843 -0.1752
 5839SOL    HW128976   3.990   0.828   4.888 -2.1817 -0.3378 -0.2385
 5839SOL    HW228977   3.870   0.916   4.854  0.2121  3.4145 -1.1514
 5840SOL     OW28978   3.885   3.106   6.490  0.3397 -0.5769  0.2490
 5840SOL    HW128979   3.968   3.143   6.463 -0.8381  0.6706 -1.6247
 5840SOL    HW228980   3.837   3.115   6.408  0.6539  0.8440  0.2161
 5841SOL     OW28981   3.261   2.905   4.072  0.0021  0.7584 -0.2264
 5841SOL    HW128982   3.165   2.907   4.069 -0.0834 -0.0115  2.1965
 5841SOL    HW228983   3.295   2.987   4.036  0.8914 -0.5173 -2.3071
 5842SOL     OW28984   2.151   0.714   6.895  0.1334  0.1073 -0.1209
 5842SOL    HW128985   2.237   0.688   6.860  0.7254  1.9498 -0.0140
 5842SOL    HW228986   2.170   0.773   6.968 -3.2605  0.1840  0.6993
 5843SOL     OW28987   0.658   2.742  14.114  0.3325  0.6410  0.3804
 5843SOL    HW128988   0.745   2.733  14.076  0.1722  1.2993 -0.1423
 5843SOL    HW228989   0.688   2.733  14.204 -0.4128  0.3769  0.6003
 5844SOL     OW28990   2.596   3.571   5.324 -0.0330  0.1452 -0.3023
 5844SOL    HW128991   2.509   3.566   5.364 -0.6538  1.1130 -1.5137
 5844SOL    HW228992   2.616   3.480   5.346 -0.3125 -0.2147 -1.5259
 5845SOL     OW28993   2.852   1.961   6.961  1.1716  0.4328  0.4551
 5845SOL    HW128994   2.895   1.879   6.940 -1.1444 -1.0829  1.6049
 5845SOL    HW228995   2.897   1.989   7.040 -0.1934 -0.7292  1.6414
 5846SOL     OW28996   1.352   3.029   5.640 -0.3611  0.2010 -0.4520
 5846SOL    HW128997   1.400   2.963   5.690 -0.5204 -0.8695 -1.6891
 5846SOL    HW228998   1.309   2.971   5.577  1.5453  1.3918 -2.8454
 5847SOL     OW28999   4.650   3.041  12.483  0.4127 -0.3610 -0.2138
 5847SOL    HW129000   4.639   3.066  12.391 -2.5582 -1.3406 -0.1500
 5847SOL    HW229001   0.022   3.020  12.477  0.1543 -1.7652  0.7388
 5848SOL     OW29002   4.423   3.511  15.033 -0.3109  0.0146  0.5518
 5848SOL    HW129003   4.466   3.449  14.974 -1.4111  0.5817 -0.8128
 5848SOL    HW229004   4.492   3.538  15.095 -1.6755  0.9581  1.6627
 5849SOL     OW29005   3.871   1.093  13.796  0.3824  0.1015  0.6005
 5849SOL    HW129006   3.876   1.183  13.827 -1.7672  0.5574 -0.3509
 5849SOL    HW229007   3.812   1.055  13.861 -2.4547  0.3433 -1.7992
 5850SOL     OW29008   1.584   0.970   3.909  0.1149  0.0164  1.0328
 5850SOL    HW129009   1.581   1.054   3.955  0.6481  0.1556  0.8132
 5850SOL    HW229010   1.502   0.924   3.926 -0.6671  0.3075 -1.8489
 5851SOL     OW29011   3.542   3.870   1.892 -0.0531 -0.1012 -0.4615
 5851SOL    HW129012   3.567   3.795   1.839  0.1157  0.8571 -1.7383
 5851SOL    HW229013   3.464   3.909   1.851  1.2543  1.4048 -1.5286
 5852SOL     OW29014   2.529   3.041  16.180  0.3296  0.3658  0.4183
 5852SOL    HW129015   2.602   3.091  16.217 -0.5885  1.6200  0.5201
 5852SOL    HW229016   2.479   3.016  16.258 -2.8600  0.4369 -1.6172
 5853SOL     OW29017   3.686   0.204  14.831  0.0395 -0.3313 -0.2581
 5853SOL    HW129018   3.694   0.294  14.801 -1.2786  0.0979  0.6785
 5853SOL    HW229019   3.593   0.186  14.818 -0.1733 -0.4643  1.4301
 5854SOL     OW29020   4.225   1.405   7.981 -0.2917 -0.2537  0.0763
 5854SOL    HW129021   4.214   1.310   7.980  1.7044 -0.4803 -2.3026
 5854SOL    HW229022   4.295   1.420   7.917  0.4914 -1.5423  0.6418
 5855SOL     OW29023   3.757   4.193   2.693  0.6549  0.6134  0.2951
 5855SOL    HW129024   3.715   4.111   2.670 -0.1624  0.3613  2.7298
 5855SOL    HW229025   3.743   4.236   2.608  0.5157  0.3237  0.1724
 5856SOL     OW29026   1.994   2.460   9.540 -0.0142 -0.4331  0.5636
 5856SOL    HW129027   1.915   2.472   9.487  0.3875  2.9939  0.7519
 5856SOL    HW229028   1.995   2.368   9.566  1.5603  0.0161  2.0961
 5857SOL     OW29029   2.440   0.349  10.398 -0.7568  0.4047  0.1031
 5857SOL    HW129030   2.395   0.266  10.416  0.1779  0.0937  1.0276
 5857SOL    HW229031   2.399   0.394  10.472 -2.5590  0.6377 -1.0395
 5858SOL     OW29032   3.296   1.656   6.993 -0.5643 -0.5830 -0.0771
 5858SOL    HW129033   3.280   1.741   6.951  1.5221 -1.2309 -2.1804
 5858SOL    HW229034   3.375   1.660   7.047  0.4209 -1.9714 -1.4091
 5859SOL     OW29035   2.031   3.751   5.214  0.0496 -0.2040  0.8067
 5859SOL    HW129036   2.103   3.689   5.216  1.6881  1.7309  1.8817
 5859SOL    HW229037   1.970   3.701   5.160  1.0669 -0.9994  0.4097
 5860SOL     OW29038   1.315   2.844  15.140 -0.1203  0.2225  0.1966
 5860SOL    HW129039   1.390   2.799  15.179  1.3161  1.3573 -1.2761
 5860SOL    HW229040   1.361   2.920  15.105  0.3327 -0.4370 -0.6521
 5861SOL     OW29041   0.966   2.370  10.440  0.9433  0.0842 -0.4584
 5861SOL    HW129042   0.912   2.309  10.389 -0.3087  0.7821  0.0404
 5861SOL    HW229043   0.946   2.454  10.399 -0.1230  0.6561  1.2503
 5862SOL     OW29044   2.924   1.568   0.675  0.4780  0.0036 -0.4831
 5862SOL    HW129045   2.908   1.476   0.698  0.4806  0.1370  0.0387
 5862SOL    HW229046   2.912   1.571   0.580  0.6745 -0.2649 -0.5172
 5863SOL     OW29047   3.132   4.575   6.871  0.4544 -0.3998  0.3565
 5863SOL    HW129048   3.114   4.617   6.955  2.3189 -0.0561  0.6027
 5863SOL    HW229049   3.203   4.516   6.896  2.0224  0.8483 -1.1673
 5864SOL     OW29050   3.927   0.465  12.193  0.4036  0.6751 -0.0059
 5864SOL    HW129051   3.831   0.466  12.195  0.3979 -1.3985  0.8600
 5864SOL    HW229052   3.941   0.559  12.188  2.2636  0.2659 -2.2288
 5865SOL     OW29053   1.320   1.166  12.214 -0.3762 -0.3110 -0.6908
 5865SOL    HW129054   1.335   1.204  12.127  2.0714 -0.0904 -0.1811
 5865SOL    HW229055   1.225   1.168  12.221 -0.4832  0.7994 -2.2874
 5866SOL     OW29056   1.036   1.733   2.467 -0.3722 -0.2832  0.0012
 5866SOL    HW129057   0.961   1.685   2.500 -0.6889  0.0947 -0.1679
 5866SOL    HW229058   1.006   1.767   2.383 -0.3748  2.2447  0.9935
 5867SOL     OW29059   3.676   0.413  13.401 -0.1547 -0.0178 -0.5101
 5867SOL    HW129060   3.741   0.483  13.400 -0.1510 -0.0178 -0.1673
 5867SOL    HW229061   3.735   0.341  13.383  0.8507  0.6184  0.2454
 5868SOL     OW29062   4.029   2.347  13.022 -0.2405  0.5127  0.1439
 5868SOL    HW129063   4.038   2.382  13.110 -0.7352 -0.3053  0.5211
 5868SOL    HW229064   4.048   2.254  13.029 -3.3933 -0.3609 -2.7611
 5869SOL     OW29065   1.079   2.609   7.679 -0.5474 -0.8552 -0.2448
 5869SOL    HW129066   1.128   2.655   7.611 -2.7825  0.5288 -0.9153
 5869SOL    HW229067   0.990   2.616   7.644 -0.8168 -0.6709  0.4866
 5870SOL     OW29068   0.946   3.744   9.167  0.0141  0.5485 -0.3406
 5870SOL    HW129069   0.999   3.725   9.244  1.1537 -2.2346 -1.8280
 5870SOL    HW229070   0.893   3.664   9.162  3.5149 -1.8233  1.0034
 5871SOL     OW29071   3.752   0.366   1.678 -0.0359  0.2530 -0.0847
 5871SOL    HW129072   3.705   0.390   1.759  0.4803  1.8770 -0.2747
 5871SOL    HW229073   3.683   0.382   1.614 -1.5775  0.0453  1.5314
 5872SOL     OW29074   2.394   2.157   9.603 -0.0506  0.2650 -0.9058
 5872SOL    HW129075   2.479   2.123   9.630 -0.8617 -1.2258 -0.2211
 5872SOL    HW229076   2.355   2.202   9.677 -1.5984  0.8943 -2.0909
 5873SOL     OW29077   3.850   4.486   3.917 -0.7970 -0.2469  0.8304
 5873SOL    HW129078   3.815   4.564   3.959 -2.7098 -0.5459 -0.2160
 5873SOL    HW229079   3.930   4.470   3.968 -1.4541 -1.4294  1.4863
 5874SOL     OW29080   1.960   4.257   4.538  0.0485 -0.2171  0.0757
 5874SOL    HW129081   2.045   4.295   4.514 -0.3021  0.6130  0.1636
 5874SOL    HW229082   1.898   4.308   4.486 -0.3055 -0.6466  0.0691
 5875SOL     OW29083   1.423   2.044   3.538 -0.2246 -0.1557  0.3149
 5875SOL    HW129084   1.460   2.113   3.593 -0.5778  1.2285 -1.1842
 5875SOL    HW229085   1.466   2.057   3.453 -0.5039 -1.0761  0.0297
 5876SOL     OW29086   2.682   3.241   3.772 -0.4664  0.2615  0.2496
 5876SOL    HW129087   2.684   3.158   3.724 -2.0844  0.4697 -0.1784
 5876SOL    HW229088   2.628   3.293   3.712 -0.4843  0.9313  0.8491
 5877SOL     OW29089   0.467   1.464   2.629 -0.6213  0.0245 -0.2440
 5877SOL    HW129090   0.523   1.431   2.699 -1.6380 -2.3910 -0.5643
 5877SOL    HW229091   0.405   1.520   2.675  1.4034  0.3303  2.1156
 5878SOL     OW29092   0.104   3.697   3.397 -0.0562  0.0346 -0.1069
 5878SOL    HW129093   0.074   3.691   3.306  1.2296 -0.4287 -0.5159
 5878SOL    HW229094   0.045   3.655   3.459 -0.1432 -0.7722 -0.7342
 5879SOL     OW29095   3.771   3.069  15.962 -0.0306  0.1880 -0.6945
 5879SOL    HW129096   3.688   3.040  16.001 -0.4236  1.2740 -0.7060
 5879SOL    HW229097   3.801   3.120  16.037  1.9465 -0.0849 -1.3181
 5880SOL     OW29098   3.708   0.264   6.798  0.3115 -0.2080  0.5781
 5880SOL    HW129099   3.730   0.345   6.844  1.2748 -0.9922  1.4828
 5880SOL    HW229100   3.622   0.285   6.760  1.9499  0.4192 -2.8222
 5881SOL     OW29101   4.696   4.090   8.955  0.0311 -0.2319 -0.7637
 5881SOL    HW129102   4.681   4.160   9.018 -1.2174 -2.2513  1.1887
 5881SOL    HW229103   4.610   4.049   8.962  0.9389 -2.2083 -1.0099
 5882SOL     OW29104   1.236   1.579   4.352 -0.6895  0.3317  0.5315
 5882SOL    HW129105   1.293   1.585   4.429  0.7133 -0.5421 -0.4393
 5882SOL    HW229106   1.289   1.636   4.296  0.3057 -0.6816  0.4650
 5883SOL     OW29107   1.245   4.592   1.969 -0.3092 -0.2748 -0.0991
 5883SOL    HW129108   1.200   4.615   1.887  1.9107  1.3426 -0.8674
 5883SOL    HW229109   1.172   4.622   2.023 -0.3608  1.7813 -1.2943
 5884SOL     OW29110   0.066   0.192  16.013  0.1557  0.2011  0.0565
 5884SOL    HW129111   0.050   0.140  15.933  1.4173 -1.3607  0.8115
 5884SOL    HW229112   0.146   0.243  16.002  0.6486 -1.4633 -4.1120
 5885SOL     OW29113   2.726   1.962   6.560  0.0282  0.2724  0.2769
 5885SOL    HW129114   2.793   1.897   6.539  0.2055  0.9541 -1.2209
 5885SOL    HW229115   2.653   1.903   6.578  1.0441 -0.5457  1.7080
 5886SOL     OW29116   0.266   3.631   6.527 -0.5072 -0.6994  0.6461
 5886SOL    HW129117   0.176   3.663   6.517 -0.3237 -0.2316  0.5050
 5886SOL    HW229118   0.273   3.577   6.448 -0.6775 -0.5986  0.5605
 5887SOL     OW29119   0.271   3.306   7.846  0.0428  0.1791  0.4521
 5887SOL    HW129120   0.226   3.335   7.925 -1.0208 -2.6871  0.9032
 5887SOL    HW229121   0.242   3.373   7.784 -2.5329 -1.4610 -0.1287
 5888SOL     OW29122   4.395   2.775   8.466 -0.2429  0.2013 -0.2057
 5888SOL    HW129123   4.334   2.787   8.539 -0.8953 -0.1627 -0.6908
 5888SOL    HW229124   4.367   2.842   8.404 -0.1376  0.0422 -0.4256
 5889SOL     OW29125   1.106   1.731   8.595  0.0337 -0.5796 -0.4960
 5889SOL    HW129126   1.167   1.798   8.626 -0.9805 -0.4133  1.1083
 5889SOL    HW229127   1.089   1.673   8.669  0.7054 -1.1969 -0.8239
 5890SOL     OW29128   3.695   2.155  12.066  0.0138  0.0212  0.2342
 5890SOL    HW129129   3.732   2.094  12.130 -0.7665  1.0089  1.6270
 5890SOL    HW229130   3.747   2.140  11.987  1.0406  1.3321  0.6530
 5891SOL     OW29131   2.348   1.331   4.077 -0.0532  0.0316  0.1003
 5891SOL    HW129132   2.384   1.258   4.128 -0.3859 -0.8035 -0.8581
 5891SOL    HW229133   2.261   1.337   4.117  0.3046 -0.3248  0.9258
 5892SOL     OW29134   0.536   1.597  11.352  0.0114 -0.1404  0.6328
 5892SOL    HW129135   0.561   1.569  11.440 -0.7337 -0.7313  0.6590
 5892SOL    HW229136   0.540   1.692  11.364  1.1606 -0.3830  2.1035
 5893SOL     OW29137   2.413   3.484   7.505 -0.0188 -0.3613  0.3267
 5893SOL    HW129138   2.448   3.479   7.416 -0.6771 -0.8225  0.0987
 5893SOL    HW229139   2.338   3.426   7.491  0.1335  0.5745 -4.1901
 5894SOL     OW29140   3.366   1.425   6.410 -0.0905  0.0985 -0.2308
 5894SOL    HW129141   3.343   1.480   6.484  1.6064  0.1602  0.2658
 5894SOL    HW229142   3.433   1.474   6.361 -0.4790 -0.3064 -1.1723
 5895SOL     OW29143   2.079   2.969  11.199 -0.8618 -0.0556 -0.4856
 5895SOL    HW129144   2.022   3.028  11.149  0.2944  0.9881 -0.5602
 5895SOL    HW229145   2.154   3.027  11.208  0.3634 -1.9415  1.4697
 5896SOL     OW29146   2.314   2.825   0.094  0.0784  0.4492  0.2071
 5896SOL    HW129147   2.312   2.750   0.034  0.9450  1.3886 -1.0124
 5896SOL    HW229148   2.398   2.865   0.069  0.7017 -1.2412 -0.4811
 5897SOL     OW29149   2.822   0.113   8.565 -0.1964 -0.1903  0.3684
 5897SOL    HW129150   2.737   0.071   8.554 -0.4257  0.7855 -1.5737
 5897SOL    HW229151   2.800   0.184   8.626 -3.0168 -1.9957  1.4504
 5898SOL     OW29152   2.247   3.768   3.238 -0.1039  0.3866 -0.2040
 5898SOL    HW129153   2.216   3.856   3.259  1.8482  1.0016  0.0691
 5898SOL    HW229154   2.169   3.721   3.267  1.1990 -1.0214  0.9989
 5899SOL     OW29155   0.006   3.370   8.268  0.2439 -0.0850  0.0602
 5899SOL    HW129156   0.029   3.322   8.348  1.1719 -0.9432 -0.7398
 5899SOL    HW229157   4.662   3.426   8.311  1.8758  0.3374  1.9710
 5900SOL     OW29158   3.234   0.265   2.599 -0.0572  0.0876  0.1474
 5900SOL    HW129159   3.267   0.333   2.540  1.0097 -0.5356  0.0214
 5900SOL    HW229160   3.140   0.261   2.581 -0.2273 -0.9207  1.3058
 5901SOL     OW29161   2.585   3.858  17.373 -0.1839  0.3043  0.3954
 5901SOL    HW129162   2.505   3.855  17.321  0.2696 -1.9254 -0.1767
 5901SOL    HW229163   2.540   3.894  17.449 -0.2987  0.8687  0.0636
 5902SOL     OW29164   3.779   4.568   3.426 -0.1031 -0.4822 -0.2611
 5902SOL    HW129165   3.826   4.590   3.506 -1.8305  1.3671  0.2367
 5902SOL    HW229166   3.737   4.652   3.408 -0.6415  0.1889  3.9778
 5903SOL     OW29167   0.622   0.882  16.097 -0.0460 -0.1748 -0.2171
 5903SOL    HW129168   0.651   0.953  16.155 -0.0833 -0.1472 -0.2326
 5903SOL    HW229169   0.574   0.937  16.036 -1.3634 -0.1565  0.8273
 5904SOL     OW29170   3.478   0.434   5.541 -0.0823  0.4434 -0.1250
 5904SOL    HW129171   3.416   0.469   5.605 -1.5413  0.8486 -1.7633
 5904SOL    HW229172   3.559   0.463   5.583  0.2842 -2.6105  1.3062
 5905SOL     OW29173   4.033   3.982   1.694  0.1086  0.2600 -0.0461
 5905SOL    HW129174   3.945   3.944   1.687  0.3818 -0.5872  1.0971
 5905SOL    HW229175   4.033   4.043   1.620 -0.9331 -0.8174 -0.9454
 5906SOL     OW29176   0.466   3.679   2.577 -0.1800  0.1847 -0.9246
 5906SOL    HW129177   0.546   3.628   2.591 -1.1980 -1.5780 -1.5632
 5906SOL    HW229178   0.408   3.604   2.565 -0.3369  0.0544  0.6420
 5907SOL     OW29179   4.594   1.803   6.745  0.0587 -0.0247 -0.3563
 5907SOL    HW129180   4.587   1.885   6.793  1.6779  1.4625 -2.6649
 5907SOL    HW229181   4.646   1.823   6.668 -1.0153  1.8767 -0.5931
 5908SOL     OW29182   1.853   3.518   5.725 -0.5599  0.7205 -0.3049
 5908SOL    HW129183   1.870   3.495   5.817 -0.8348  0.7752 -0.2397
 5908SOL    HW229184   1.757   3.511   5.726 -0.4865 -0.2922 -0.8216
 5909SOL     OW29185   3.197   0.394   6.991 -0.1625 -0.1542  0.2591
 5909SOL    HW129186   3.209   0.407   6.897 -0.0254  1.9300  0.5669
 5909SOL    HW229187   3.124   0.333   6.988  1.5727 -2.1413 -1.4257
 5910SOL     OW29188   4.638   2.952   7.382 -1.0955  0.2071 -0.8155
 5910SOL    HW129189   4.626   3.046   7.390  1.8785  0.4940  0.4060
 5910SOL    HW229190   4.558   2.915   7.345 -0.7655 -0.7862 -0.5423
 5911SOL     OW29191   1.631   4.202   3.142  0.0729 -0.1798 -0.1314
 5911SOL    HW129192   1.565   4.241   3.084  0.3411  0.5942  0.0788
 5911SOL    HW229193   1.680   4.158   3.073 -1.4973 -3.7432  1.0539
 5912SOL     OW29194   2.328   2.251   6.051 -0.2965  0.2645 -0.0050
 5912SOL    HW129195   2.322   2.270   6.145  1.7078 -0.4824  0.2684
 5912SOL    HW229196   2.393   2.316   6.026 -1.6293  1.4611 -0.3816
 5913SOL     OW29197   2.007   1.940   9.959  0.4513 -0.5560 -0.1443
 5913SOL    HW129198   1.923   1.977   9.931  1.3883  1.5829 -0.1499
 5913SOL    HW229199   2.062   1.936   9.881  0.6470 -1.3900  0.0384
 5914SOL     OW29200   3.267   1.585   6.093  0.5646  0.8673  0.1082
 5914SOL    HW129201   3.334   1.516   6.090  0.4724  0.7399  1.0973
 5914SOL    HW229202   3.236   1.585   6.002  1.1237 -1.2884 -0.0910
 5915SOL     OW29203   3.953   2.564   2.434 -0.1710 -0.0279  0.4528
 5915SOL    HW129204   3.999   2.606   2.361 -0.2792  0.6172  0.7490
 5915SOL    HW229205   4.027   2.524   2.480  2.0197  2.5720 -0.7970
 5916SOL     OW29206   4.426   3.180   6.894 -0.2609 -0.2806 -0.0567
 5916SOL    HW129207   4.443   3.213   6.806 -0.9168 -0.5057 -0.2667
 5916SOL    HW229208   4.412   3.086   6.883 -0.4355 -0.4405  1.5915
 5917SOL     OW29209   2.299   3.249  10.990  0.4680 -0.3004 -0.0148
 5917SOL    HW129210   2.206   3.228  10.993  0.2860  0.5548  0.5881
 5917SOL    HW229211   2.327   3.203  11.069  1.7226  0.0452 -0.2637
 5918SOL     OW29212   0.857   2.610   9.111 -0.0338  0.7617 -0.5565
 5918SOL    HW129213   0.888   2.538   9.165 -0.7910 -1.6067 -3.2856
 5918SOL    HW229214   0.779   2.571   9.071  0.4631  0.1832 -0.9650
 5919SOL     OW29215   1.424   2.542   5.577 -0.0682 -0.1122  0.3662
 5919SOL    HW129216   1.329   2.539   5.588 -0.3284  2.3692 -1.1946
 5919SOL    HW229217   1.433   2.565   5.485 -1.2148 -0.0468  0.2774
 5920SOL     OW29218   3.202   4.085  11.036  0.0960  0.3325  0.1644
 5920SOL    HW129219   3.176   3.997  11.010 -2.6747  0.7338  1.6621
 5920SOL    HW229220   3.111   4.114  11.042 -0.5981 -2.0019  0.7817
 5921SOL     OW29221   1.840   0.502  12.037 -0.4008 -0.0181 -0.4603
 5921SOL    HW129222   1.818   0.504  12.130 -1.6775 -2.4631 -0.6947
 5921SOL    HW229223   1.822   0.410  12.019 -0.1162 -0.0699 -0.4756
 5922SOL     OW29224   0.042   1.147  10.166  0.7126 -0.4376  0.4375
 5922SOL    HW129225   0.053   1.115  10.256 -0.4826 -0.2960  0.6412
 5922SOL    HW229226   0.124   1.115  10.129  0.5491  1.9554 -1.9788
 5923SOL     OW29227   2.498   2.110   3.742 -0.7321 -0.3432  0.2313
 5923SOL    HW129228   2.448   2.158   3.807 -1.0665 -0.0763 -0.2250
 5923SOL    HW229229   2.497   2.169   3.666 -1.8009 -2.2361 -1.2396
 5924SOL     OW29230   4.045   2.501   0.583  0.2721  0.1424 -0.0570
 5924SOL    HW129231   3.991   2.480   0.507 -0.9751 -1.7050  1.3324
 5924SOL    HW229232   4.067   2.412   0.612 -3.4846 -0.1237  1.9203
 5925SOL     OW29233   0.201   4.447   4.948  0.6020 -0.1207  0.1949
 5925SOL    HW129234   0.212   4.352   4.958 -0.3100 -0.5861 -3.1995
 5925SOL    HW229235   0.114   4.434   4.910  1.2034 -0.1121 -1.2124
 5926SOL     OW29236   4.609   2.724  11.807 -0.2408 -0.3723 -0.2200
 5926SOL    HW129237   4.625   2.774  11.887 -0.0440 -1.5483  0.4729
 5926SOL    HW229238   4.521   2.760  11.790  0.3412  0.3952 -1.6014
 5927SOL     OW29239   4.295   2.742   5.325  0.1126 -1.1636  0.9554
 5927SOL    HW129240   4.353   2.818   5.339 -2.4237  0.7139  1.1452
 5927SOL    HW229241   4.330   2.710   5.242  0.5106  0.4149  0.5095
 5928SOL     OW29242   4.428   3.256  14.304 -0.7317  0.1314  0.0568
 5928SOL    HW129243   4.335   3.275  14.292 -0.9393 -0.0630  1.3106
 5928SOL    HW229244   4.413   3.162  14.315  2.8136 -0.5435 -0.8744
 5929SOL     OW29245   1.972   2.658  12.219  0.0853 -0.5147  0.2630
 5929SOL    HW129246   1.944   2.707  12.296  0.2930  0.9151 -0.5805
 5929SOL    HW229247   2.051   2.627  12.263  1.3108  1.3514 -0.6134
 5930SOL     OW29248   2.846   3.142   7.075  0.0036 -0.0006  0.3421
 5930SOL    HW129249   2.843   3.094   6.992 -0.5677  1.4890 -0.4949
 5930SOL    HW229250   2.846   3.060   7.125  0.7195 -0.2668 -0.0999
 5931SOL     OW29251   4.409   0.678  13.516  0.4370 -0.1781 -0.1186
 5931SOL    HW129252   4.332   0.723  13.552  0.8935  0.9880 -0.5992
 5931SOL    HW229253   4.361   0.608  13.471  0.5549  0.1185 -0.7054
 5932SOL     OW29254   0.498   3.905   7.630  0.0064 -0.7830  0.2578
 5932SOL    HW129255   0.496   3.995   7.596 -2.6916 -0.4015  1.3681
 5932SOL    HW229256   0.588   3.877   7.620  0.0824 -0.3457 -0.3163
 5933SOL     OW29257   0.549   0.271   9.109 -0.5562 -0.2024  0.3361
 5933SOL    HW129258   0.477   0.317   9.065 -1.5835  1.2939  3.5055
 5933SOL    HW229259   0.588   0.232   9.032 -0.6266  0.6751 -0.1463
 5934SOL     OW29260   3.770   1.722   5.998  0.0391 -0.2467 -0.1173
 5934SOL    HW129261   3.690   1.689   5.958 -0.4204  2.0181 -1.0708
 5934SOL    HW229262   3.740   1.811   6.019  1.7526  1.2016 -3.8817
 5935SOL     OW29263   0.987   3.737   6.110  0.2645 -0.0709 -0.3620
 5935SOL    HW129264   0.908   3.791   6.108  0.4166  0.1362 -0.8019
 5935SOL    HW229265   1.050   3.802   6.142  1.4795 -1.3398 -0.1809
 5936SOL     OW29266   3.986   1.399   5.952 -0.0480 -0.4487 -0.2689
 5936SOL    HW129267   4.054   1.332   5.942  0.5601  0.1710 -0.2603
 5936SOL    HW229268   4.038   1.460   6.004 -0.8325 -0.1808  0.2109
 5937SOL     OW29269   3.771   0.291   5.872 -0.3784  0.2525  0.1040
 5937SOL    HW129270   3.815   0.366   5.914  0.1985  0.6957 -1.2977
 5937SOL    HW229271   3.820   0.275   5.792  1.9924  1.0645  1.3795
 5938SOL     OW29272   0.643   2.725   2.895  0.3334  0.7867  0.1525
 5938SOL    HW129273   0.608   2.646   2.853  0.1808  2.1829 -2.3016
 5938SOL    HW229274   0.724   2.688   2.930 -0.3728 -0.2655  0.7038
 5939SOL     OW29275   4.106   3.235   8.703 -0.4056  0.4353  0.6119
 5939SOL    HW129276   4.155   3.185   8.768 -1.3167  0.5688  1.3975
 5939SOL    HW229277   4.161   3.253   8.627  2.5901 -0.5887  2.5344
 5940SOL     OW29278   3.893   4.062   8.531 -0.0465 -0.4334 -0.9638
 5940SOL    HW129279   3.848   3.982   8.560 -0.4862 -0.0481 -0.5850
 5940SOL    HW229280   3.950   4.019   8.467  1.2438  2.5863 -1.8597
 5941SOL     OW29281   3.531   1.477   6.079  0.1123 -0.4148  0.1686
 5941SOL    HW129282   3.601   1.422   6.117 -0.2280 -1.5659 -0.8933
 5941SOL    HW229283   3.527   1.544   6.148  1.0905 -0.6551  0.4697
 5942SOL     OW29284   2.689   4.698   2.750 -0.1287  0.0430  0.0187
 5942SOL    HW129285   2.675   0.067   2.782  0.2918  0.5184 -1.1210
 5942SOL    HW229286   2.599   4.671   2.734  0.0529 -0.7837  0.3981
 5943SOL     OW29287   0.807   2.550   7.700 -0.2266  0.2395  0.4599
 5943SOL    HW129288   0.768   2.518   7.618  1.2661 -1.4226  0.3921
 5943SOL    HW229289   0.747   2.619   7.728  0.5223  1.1305 -0.1159
 5944SOL     OW29290   1.455   4.179   2.535 -0.2092  0.1547 -0.2302
 5944SOL    HW129291   1.515   4.148   2.468  0.3146  1.5693 -0.4107
 5944SOL    HW229292   1.460   4.274   2.529  2.4941  0.0552  0.5511
 5945SOL     OW29293   2.086   3.947   1.180 -0.1793 -0.3707 -0.4357
 5945SOL    HW129294   2.003   3.992   1.195 -0.4243 -0.9826  0.0448
 5945SOL    HW229295   2.069   3.858   1.211 -1.8547 -0.6005 -2.0263
 5946SOL     OW29296   3.509   2.631  15.763 -0.3896 -0.3134  0.1068
 5946SOL    HW129297   3.431   2.652  15.711 -0.6208  0.5902  0.8299
 5946SOL    HW229298   3.581   2.672  15.716 -2.5017  2.0342 -1.0877
 5947SOL     OW29299   0.956   1.458   7.220  0.2078 -0.0191  0.4639
 5947SOL    HW129300   0.945   1.551   7.239  1.5709 -0.0581  1.4596
 5947SOL    HW229301   0.933   1.414   7.302  2.5068  0.4120  1.3350
 5948SOL     OW29302   2.016   4.345  10.430  0.0422 -0.3038 -0.0867
 5948SOL    HW129303   2.017   4.266  10.484 -1.3371  1.7658  2.9848
 5948SOL    HW229304   1.924   4.336  10.403  0.3662  2.4357 -2.0966
 5949SOL     OW29305   4.293   3.375   2.427 -0.0828 -0.0621 -0.0995
 5949SOL    HW129306   4.247   3.453   2.397  0.4859 -0.4797 -2.0397
 5949SOL    HW229307   4.222   3.331   2.474  0.1843  1.7846  2.0189
 5950SOL     OW29308   4.155   1.659   1.878  0.1164  0.0599  0.8508
 5950SOL    HW129309   4.133   1.740   1.923 -2.0558  0.2856 -0.6128
 5950SOL    HW229310   4.072   1.612   1.866 -0.0505  0.0905  1.8589
 5951SOL     OW29311   3.603   0.235   5.007  0.5905  0.0769  0.2744
 5951SOL    HW129312   3.594   0.142   4.983  2.2589 -0.5552  2.0800
 5951SOL    HW229313   3.565   0.281   4.933 -0.3425 -1.8731 -0.4657
 5952SOL     OW29314   0.447   3.518  10.922 -0.5340 -0.1760  0.1287
 5952SOL    HW129315   0.506   3.564  10.982 -0.9956 -1.1905  1.3562
 5952SOL    HW229316   0.520   3.484  10.871  0.3376 -0.1180  1.3369
 5953SOL     OW29317   2.354   1.526   1.763  0.1824 -0.2905 -0.2641
 5953SOL    HW129318   2.427   1.474   1.796  1.2369 -0.0752 -2.3063
 5953SOL    HW229319   2.384   1.603   1.811 -3.7180 -0.1437  1.9548
 5954SOL     OW29320   1.531   3.684   6.214 -0.2853  0.3683  0.5168
 5954SOL    HW129321   1.584   3.740   6.271 -1.7135  0.7862  1.4337
 5954SOL    HW229322   1.514   3.597   6.250  1.9760 -0.7672 -1.0960
 5955SOL     OW29323   1.492   3.402   2.321  0.6671  0.0229 -0.2993
 5955SOL    HW129324   1.427   3.377   2.255 -0.6958  2.0642  0.2429
 5955SOL    HW229325   1.544   3.471   2.280  0.6222  0.8199  0.9851
 5956SOL     OW29326   0.710   4.401   2.181 -0.5351 -0.1641 -0.3395
 5956SOL    HW129327   0.749   4.333   2.236  0.2593  0.7172  0.1864
 5956SOL    HW229328   0.743   4.479   2.224 -1.4986 -0.2186  0.5160
 5957SOL     OW29329   0.482   4.298   1.912  0.2618  0.3353  0.1712
 5957SOL    HW129330   0.508   4.322   1.823 -0.6788  1.3174  0.1674
 5957SOL    HW229331   0.573   4.282   1.939  1.4447  0.1670 -3.9482
 5958SOL     OW29332   3.217   1.257   5.959 -0.1636  0.1626  0.3936
 5958SOL    HW129333   3.147   1.290   6.015 -1.0934 -0.4451 -0.4120
 5958SOL    HW229334   3.182   1.175   5.924 -2.4581  1.1883  0.2931
 5959SOL     OW29335   1.394   3.850   7.405  0.4739  0.0838 -0.0732
 5959SOL    HW129336   1.449   3.772   7.399  1.1703  0.4979  0.6849
 5959SOL    HW229337   1.461   3.911   7.438 -0.0463  1.2732 -1.2296
 5960SOL     OW29338   0.098   2.591   7.929 -0.3741 -0.0029 -0.1240
 5960SOL    HW129339   0.144   2.524   7.878 -1.0142 -0.5533  0.0238
 5960SOL    HW229340   0.114   2.673   7.882 -1.0090  0.2358  0.0751
 5961SOL     OW29341   1.231   2.163   4.493 -0.0805  0.2330 -0.0674
 5961SOL    HW129342   1.283   2.240   4.517 -0.7251  0.2491  1.2909
 5961SOL    HW229343   1.296   2.104   4.457 -1.9077 -0.9360 -1.4574
 5962SOL     OW29344   2.618   0.644   2.587  0.5383  0.0057 -0.0386
 5962SOL    HW129345   2.530   0.678   2.600  0.5408  0.4549 -1.1682
 5962SOL    HW229346   2.603   0.590   2.509  2.3429  0.9184 -1.0172
 5963SOL     OW29347   3.858   1.944   5.705  0.3325  0.1476 -0.4224
 5963SOL    HW129348   3.840   1.959   5.798 -0.9862 -1.0005 -0.4944
 5963SOL    HW229349   3.773   1.968   5.668  1.3513  0.1785 -2.7383
 5964SOL     OW29350   4.417   2.383  17.115 -0.0284  0.7763  0.5961
 5964SOL    HW129351   4.506   2.407  17.088  1.6671 -3.2363  2.7679
 5964SOL    HW229352   4.382   2.472  17.107 -3.0376 -0.3593  1.2722
 5965SOL     OW29353   0.451   4.253   2.938 -0.0628  0.2272 -0.5758
 5965SOL    HW129354   0.546   4.266   2.936  0.2463 -1.8786  1.0345
 5965SOL    HW229355   0.441   4.197   2.861 -1.1626 -0.8330  0.3464
 5966SOL     OW29356   3.669   0.361  16.619 -0.0918 -0.1891  0.0999
 5966SOL    HW129357   3.690   0.270  16.598 -1.2281 -0.5649  0.5833
 5966SOL    HW229358   3.736   0.410  16.570  0.2247  0.1641  0.8778
 5967SOL     OW29359   1.092   0.397  10.184 -0.2536 -0.5645 -0.1350
 5967SOL    HW129360   1.104   0.333  10.255  0.5101  3.2451  3.1223
 5967SOL    HW229361   1.013   0.437  10.219  0.0602 -0.6795  0.6851
 5968SOL     OW29362   4.411   2.599   6.875 -0.2738  0.2910 -0.1407
 5968SOL    HW129363   4.490   2.562   6.834 -0.2146 -0.3935  0.6035
 5968SOL    HW229364   4.385   2.654   6.801  0.3440  0.5995 -0.1336
 5969SOL     OW29365   4.097   4.143   7.356  0.0421  0.7199  0.3208
 5969SOL    HW129366   4.030   4.169   7.419  0.9466  1.3339  1.0454
 5969SOL    HW229367   4.160   4.118   7.424  0.5998  1.2251 -0.0103
 5970SOL     OW29368   2.102   1.512   7.456 -0.1292 -0.4322 -0.1826
 5970SOL    HW129369   2.026   1.455   7.457  0.2867 -0.9813  0.4660
 5970SOL    HW229370   2.135   1.490   7.369 -0.3022  0.5522 -0.4982
 5971SOL     OW29371   1.609   1.005   6.093 -0.1803 -0.3929  0.2164
 5971SOL    HW129372   1.539   0.993   6.157 -2.4732 -0.0510 -2.2223
 5971SOL    HW229373   1.569   1.003   6.006  0.7564 -1.5974 -0.1727
 5972SOL     OW29374   2.396   3.377   8.449  0.1347 -0.1408  0.0602
 5972SOL    HW129375   2.414   3.426   8.369  0.7571 -1.1982 -0.4454
 5972SOL    HW229376   2.353   3.445   8.501  1.3088  1.0582 -0.5212
 5973SOL     OW29377   0.034   3.694   3.140 -0.4991 -0.1402  0.0027
 5973SOL    HW129378   4.696   3.761   3.102  0.3236  0.4008 -0.2985
 5973SOL    HW229379   0.010   3.617   3.089  2.0187 -1.9632  1.5975
 5974SOL     OW29380   1.568   1.341  16.612  0.4586  0.0503  0.4289
 5974SOL    HW129381   1.645   1.397  16.621  1.2338 -0.9425 -0.1163
 5974SOL    HW229382   1.551   1.313  16.701  2.9511  2.4930  1.6529
 5975SOL     OW29383   3.052   2.280   0.994 -0.3828 -0.8568 -0.4189
 5975SOL    HW129384   3.090   2.350   0.941  2.3827 -1.1709  1.1481
 5975SOL    HW229385   2.961   2.311   0.994  0.0982  0.5277 -0.8414
 5976SOL     OW29386   4.592   2.348  16.418 -0.1644 -0.0615  0.0305
 5976SOL    HW129387   4.580   2.381  16.328  1.3746 -0.5008 -0.3361
 5976SOL    HW229388   4.683   2.377  16.429  0.2158 -0.0339 -3.0072
 5977SOL     OW29389   4.319   3.708  14.114 -0.4863 -0.3853 -0.0869
 5977SOL    HW129390   4.348   3.617  14.103  2.9287  0.6316  0.5865
 5977SOL    HW229391   4.301   3.726  14.022  0.3281 -0.7342 -0.3107
 5978SOL     OW29392   1.346   1.230  11.939  0.0296  0.1378  0.2099
 5978SOL    HW129393   1.314   1.205  11.853 -2.1210  2.5194  0.3374
 5978SOL    HW229394   1.438   1.202  11.941  0.1493  0.3942 -1.8794
 5979SOL     OW29395   3.669   3.351   7.798  0.0991  0.3200 -0.1160
 5979SOL    HW129396   3.618   3.321   7.873  3.4599 -2.2212  1.1564
 5979SOL    HW229397   3.646   3.444   7.797 -1.6773 -0.1091  0.6360
 5980SOL     OW29398   4.103   2.592   5.210  0.4214 -0.6320  0.1145
 5980SOL    HW129399   4.178   2.627   5.258 -0.4351 -0.8882  1.6724
 5980SOL    HW229400   4.125   2.500   5.197 -1.0360 -1.1418  1.1871
 5981SOL     OW29401   4.343   2.249   7.533  0.1582  0.2699 -0.1216
 5981SOL    HW129402   4.419   2.290   7.573  0.0453  1.0129 -0.6845
 5981SOL    HW229403   4.323   2.175   7.591 -0.8805  1.6728  1.2933
 5982SOL     OW29404   2.068   2.751   3.583  0.1772  0.0447  0.1192
 5982SOL    HW129405   2.101   2.696   3.512 -1.3417  1.3007 -1.5731
 5982SOL    HW229406   1.986   2.705   3.605 -0.1109 -0.0502 -1.1489
 5983SOL     OW29407   3.404   1.619   6.640  0.3669 -0.1431  0.6123
 5983SOL    HW129408   3.465   1.582   6.705  1.5044  0.6115 -0.0426
 5983SOL    HW229409   3.446   1.702   6.618 -0.1225  0.3276  1.4263
 5984SOL     OW29410   2.832   0.620   6.122  0.0120  0.4082  0.0489
 5984SOL    HW129411   2.903   0.683   6.119 -1.7057  2.3814  0.6600
 5984SOL    HW229412   2.798   0.628   6.032 -0.1158  0.6343  0.1181
 5985SOL     OW29413   0.039   1.924  11.994 -0.0818 -0.0729 -0.1665
 5985SOL    HW129414   4.719   2.002  11.956 -0.7014 -0.0783  0.4715
 5985SOL    HW229415   0.130   1.919  11.965 -0.3120  1.7493 -1.2151
 5986SOL     OW29416   3.460   3.947   2.399 -0.2531  0.3129 -0.2932
 5986SOL    HW129417   3.467   3.972   2.491  0.6963  2.6609 -1.0115
 5986SOL    HW229418   3.495   3.858   2.394 -2.1260 -0.3662 -1.3294
 5987SOL     OW29419   3.169   1.496   1.501  0.7475 -0.1270 -0.3685
 5987SOL    HW129420   3.144   1.562   1.436 -1.0630 -1.6440 -1.2354
 5987SOL    HW229421   3.081   1.461   1.520  0.8823 -1.4202 -2.0774
 5988SOL     OW29422   2.219   4.516   2.505 -0.3615  0.4405 -0.0128
 5988SOL    HW129423   2.181   4.575   2.440  0.2918  0.1423 -0.6595
 5988SOL    HW229424   2.153   4.447   2.503  0.6157 -0.5089  0.3912
 5989SOL     OW29425   3.152   2.412  12.468  0.5313 -0.3575  0.5640
 5989SOL    HW129426   3.177   2.503  12.451 -0.0468 -0.0214  1.4705
 5989SOL    HW229427   3.196   2.361  12.400 -0.1560 -0.5346  0.2509
 5990SOL     OW29428   3.262   1.089  17.354 -0.0417  0.1372  0.2175
 5990SOL    HW129429   3.246   1.184  17.345  1.7798  0.3009 -1.3445
 5990SOL    HW229430   3.350   1.086  17.391  0.0250 -1.9355 -0.1209
 5991SOL     OW29431   1.872   1.830   4.161 -0.0283 -0.0145 -0.1358
 5991SOL    HW129432   1.786   1.871   4.153  0.3117  0.8064  0.4490
 5991SOL    HW229433   1.869   1.760   4.095  0.8713  0.4612 -0.6897
 5992SOL     OW29434   0.130   1.965   7.883  0.0034 -0.3193 -0.2302
 5992SOL    HW129435   0.085   2.049   7.889 -0.1347 -0.2366 -2.4311
 5992SOL    HW229436   0.200   1.985   7.821  1.0964 -1.5527  0.5871
 5993SOL     OW29437   2.440   2.836  17.128 -0.1829  0.1170  0.1767
 5993SOL    HW129438   2.529   2.819  17.097 -0.0243 -0.5971  1.0079
 5993SOL    HW229439   2.450   2.905  17.193  1.7468  0.2713 -0.2726
 5994SOL     OW29440   3.189   2.540   8.040  0.4984 -0.2128 -0.3989
 5994SOL    HW129441   3.240   2.466   8.073 -0.0012 -0.1400  0.5451
 5994SOL    HW229442   3.112   2.524   8.095  0.0958 -0.4733 -1.0358
 5995SOL     OW29443   2.283   0.617   5.143 -0.2542 -0.2186  0.1387
 5995SOL    HW129444   2.323   0.664   5.071 -0.2562 -0.9821 -0.3624
 5995SOL    HW229445   2.191   0.618   5.115 -0.1827  1.2836 -0.0158
 5996SOL     OW29446   3.881   1.915   1.357 -0.2651 -0.1098  0.5686
 5996SOL    HW129447   3.844   1.834   1.323 -0.1596  1.5154 -3.4112
 5996SOL    HW229448   3.964   1.880   1.390 -0.0748  1.4413  1.7326
 5997SOL     OW29449   1.051   2.822   9.312  0.0776 -0.2943 -0.1416
 5997SOL    HW129450   1.107   2.871   9.371 -0.6858 -0.7992  1.0038
 5997SOL    HW229451   1.094   2.737   9.312  1.3311  0.3551  0.5953
 5998SOL     OW29452   2.515   3.507  16.811  0.5147 -0.4819 -0.3202
 5998SOL    HW129453   2.515   3.519  16.906 -2.9638  0.4953 -0.4690
 5998SOL    HW229454   2.584   3.568  16.787 -0.2440 -0.3732 -2.2559
 5999SOL     OW29455   2.838   3.704   1.885  0.3268 -0.1115  0.0382
 5999SOL    HW129456   2.856   3.628   1.941  0.1585 -0.9044 -0.9747
 5999SOL    HW229457   2.777   3.664   1.823  0.9439 -0.0924 -0.5813
 6000SOL     OW29458   0.660   0.371   6.009 -0.3200  0.2468 -0.6417
 6000SOL    HW129459   0.585   0.339   5.959  0.1325 -0.8040 -0.6462
 6000SOL    HW229460   0.638   0.464   6.005  2.0783  0.9305  2.4455
 6001SOL     OW29461   0.325   0.327   8.116  0.0841  0.5748  0.3555
 6001SOL    HW129462   0.260   0.274   8.162  1.5651 -0.4517  1.2634
 6001SOL    HW229463   0.391   0.261   8.094 -0.9783 -1.2458  2.6130
 6002SOL     OW29464   3.769   2.230   0.306  0.0553 -0.3443 -0.1721
 6002SOL    HW129465   3.700   2.165   0.294 -3.2457  2.7311  2.2621
 6002SOL    HW229466   3.790   2.211   0.397 -2.4014  2.0519  0.9139
 6003SOL     OW29467   0.243   3.008   4.012 -0.4873  0.0097 -0.4249
 6003SOL    HW129468   0.259   3.059   3.933 -0.5557  0.9084  0.1381
 6003SOL    HW229469   0.149   2.996   4.000 -0.5608  0.4517 -0.2768
 6004SOL     OW29470   1.431   4.087  10.476 -0.6693 -0.1984 -0.1372
 6004SOL    HW129471   1.348   4.040  10.470 -0.8168 -0.0337  0.5610
 6004SOL    HW229472   1.490   4.013  10.464  0.4585  0.7031 -0.1659
 6005SOL     OW29473   0.119   2.416   3.628  0.1482 -0.0438  0.3507
 6005SOL    HW129474   0.076   2.439   3.545  1.9081 -1.8591 -1.0801
 6005SOL    HW229475   0.179   2.486   3.653  0.7625 -0.2677 -0.5237
 6006SOL     OW29476   3.476   3.415   4.042  0.5051  0.2307 -0.2421
 6006SOL    HW129477   3.438   3.331   4.068  2.2424 -1.1107 -2.0185
 6006SOL    HW229478   3.564   3.378   4.032 -0.5829 -2.4121 -0.0226
 6007SOL     OW29479   0.618   3.307   5.513 -0.4864  0.6219  0.1747
 6007SOL    HW129480   0.576   3.232   5.554  1.4853 -0.1719  0.7129
 6007SOL    HW229481   0.559   3.320   5.438 -0.9933 -0.1503  0.4446
 6008SOL     OW29482   4.521   1.472   2.546 -0.2021 -0.0158  0.2833
 6008SOL    HW129483   4.584   1.470   2.474 -0.4600 -0.7488  0.0793
 6008SOL    HW229484   4.504   1.565   2.564  0.5158  0.2452 -0.3883
 6009SOL     OW29485   3.614   2.787   2.899 -0.0351  0.0396 -0.1556
 6009SOL    HW129486   3.684   2.747   2.847 -0.3403  0.2894 -0.7589
 6009SOL    HW229487   3.566   2.706   2.918 -0.3369  0.3323  0.3186
 6010SOL     OW29488   4.431   0.783  17.214 -0.2883 -0.3689  0.0638
 6010SOL    HW129489   4.511   0.731  17.223 -0.3441 -0.5043 -0.2219
 6010SOL    HW229490   4.356   0.734  17.248 -0.1945  0.7829  1.9456
 6011SOL     OW29491   0.849   3.553   4.537  0.2229 -0.1857 -0.8956
 6011SOL    HW129492   0.781   3.488   4.520 -2.4611  2.2745  0.3441
 6011SOL    HW229493   0.891   3.519   4.616  0.2849  0.1121 -0.7997
 6012SOL     OW29494   2.618   1.605   2.814  0.9966 -0.2575 -0.3734
 6012SOL    HW129495   2.645   1.691   2.847  0.1031  0.3132 -1.1474
 6012SOL    HW229496   2.666   1.553   2.879 -1.6697  0.6116  2.2661
 6013SOL     OW29497   0.688   4.582   1.048  0.6827  0.3876 -0.4120
 6013SOL    HW129498   0.616   4.552   0.993  1.3388 -0.8311 -0.5961
 6013SOL    HW229499   0.659   4.674   1.048  1.2043  0.5503  1.2660
 6014SOL     OW29500   1.737   0.271   8.544  0.0510 -0.5058 -0.2734
 6014SOL    HW129501   1.724   0.286   8.450  1.4846 -1.4610 -0.6303
 6014SOL    HW229502   1.664   0.218   8.575 -0.8679  0.7930 -0.2359
 6015SOL     OW29503   2.913   0.448   2.040  0.0646  0.6268  0.0613
 6015SOL    HW129504   3.007   0.463   2.025 -0.0650  0.1386 -1.2260
 6015SOL    HW229505   2.890   0.485   2.126 -0.2361  0.0829  0.2155
 6016SOL     OW29506   3.751   3.105  15.451 -0.1356 -0.1895  0.3797
 6016SOL    HW129507   3.680   3.048  15.478 -2.0192  2.0571  0.1443
 6016SOL    HW229508   3.721   3.193  15.471 -1.6082  0.3381 -4.1492
 6017SOL     OW29509   0.858   2.626   0.524 -0.8802  0.3183 -0.7471
 6017SOL    HW129510   0.781   2.612   0.469  0.0451 -0.6253 -1.8072
 6017SOL    HW229511   0.932   2.621   0.464 -0.4654  0.2409 -0.2303
 6018SOL     OW29512   1.697   1.832  16.520  0.0452 -0.3879  0.0854
 6018SOL    HW129513   1.622   1.885  16.492 -0.3386 -0.8008  0.3292
 6018SOL    HW229514   1.736   1.895  16.580  0.7887 -0.3411 -0.4534
 6019SOL     OW29515   2.929   2.254  12.901  0.5586  0.1621 -0.2128
 6019SOL    HW129516   2.999   2.304  12.945 -0.2718  0.0799  1.2028
 6019SOL    HW229517   2.988   2.220  12.834  1.5301  1.0248  0.2015
 6020SOL     OW29518   1.127   2.689  11.787 -0.3293 -0.0010  0.6517
 6020SOL    HW129519   1.209   2.718  11.827 -1.2874 -0.0741  2.6711
 6020SOL    HW229520   1.067   2.764  11.788 -1.1528 -0.6494 -0.9836
 6021SOL     OW29521   1.616   1.903   0.559  0.3218 -0.6675  0.1489
 6021SOL    HW129522   1.682   1.848   0.601 -0.4430 -2.3372 -0.8753
 6021SOL    HW229523   1.644   1.990   0.590  0.0806 -0.5840  0.1397
 6022SOL     OW29524   1.886   3.347   4.226 -0.1416 -0.4648 -0.0150
 6022SOL    HW129525   1.971   3.304   4.218  1.6397  2.7486  1.6723
 6022SOL    HW229526   1.858   3.311   4.310 -1.8857 -0.5384 -0.6349
 6023SOL     OW29527   3.711   4.138  15.099 -0.4498  0.7115  0.3944
 6023SOL    HW129528   3.794   4.177  15.127  0.3068  1.4303 -2.8466
 6023SOL    HW229529   3.687   4.080  15.171 -0.0564  0.4786  0.3387
 6024SOL     OW29530   3.980   2.659   4.320 -0.1788  0.2104 -0.2557
 6024SOL    HW129531   3.895   2.624   4.296 -1.5510  2.1543  1.8133
 6024SOL    HW229532   3.968   2.740   4.370  0.9146  0.5217 -0.4852
 6025SOL     OW29533   3.163   3.277   2.118  0.1726  0.5402  0.5304
 6025SOL    HW129534   3.223   3.227   2.174  0.2659  2.1111  1.8412
 6025SOL    HW229535   3.195   3.239   2.037  1.0911 -2.5328  2.3357
 6026SOL     OW29536   0.164   0.289   7.654 -0.5890  0.7361  0.2530
 6026SOL    HW129537   0.111   0.276   7.733  1.3057  0.4244  1.4730
 6026SOL    HW229538   0.137   0.221   7.592  0.2141  0.2168  0.4763
 6027SOL     OW29539   3.770   3.024  10.158  0.5578 -0.0178  0.3942
 6027SOL    HW129540   3.866   3.027  10.160  0.5181  0.9733  0.9611
 6027SOL    HW229541   3.744   2.951  10.102  0.8797  1.9466 -2.3428
 6028SOL     OW29542   2.014   3.710   9.062  0.4136  0.8063  0.3487
 6028SOL    HW129543   2.051   3.723   9.149  2.1130  0.3055 -0.3009
 6028SOL    HW229544   1.931   3.664   9.075  0.4736 -0.7805 -4.6366
 6029SOL     OW29545   3.797   3.011  12.326  0.3560  0.3937  0.3998
 6029SOL    HW129546   3.846   2.990  12.406  0.6758  0.5749  0.2534
 6029SOL    HW229547   3.846   3.090  12.304 -0.5627  1.3323  1.7772
 6030SOL     OW29548   4.436   0.917  15.684 -0.3081 -0.4986  0.1537
 6030SOL    HW129549   4.459   1.004  15.650 -0.3025 -0.5094  0.1301
 6030SOL    HW229550   4.467   0.929  15.774  1.0589 -0.9982 -0.2572
 6031SOL     OW29551   0.931   1.679   5.831 -0.0476  0.0774  0.0689
 6031SOL    HW129552   0.838   1.659   5.818 -0.1259 -0.0561  0.8467
 6031SOL    HW229553   0.934   1.704   5.923  2.0775  1.1179 -0.2835
 6032SOL     OW29554   1.493   0.629  16.942 -0.0115  0.4624  0.2546
 6032SOL    HW129555   1.451   0.579  16.872 -1.0884 -0.5418  1.5967
 6032SOL    HW229556   1.475   0.576  17.020 -1.8528 -0.9371 -1.1036
 6033SOL     OW29557   2.867   2.984  12.068  0.1857  0.1445  0.0149
 6033SOL    HW129558   2.778   3.021  12.070  0.7945  1.5865  0.5428
 6033SOL    HW229559   2.920   3.056  12.035  0.5933  0.8670  2.2542
 6034SOL     OW29560   1.138   4.251  10.321  0.3171  0.0781 -0.0577
 6034SOL    HW129561   1.233   4.269  10.322  0.3872 -0.2897 -0.3293
 6034SOL    HW229562   1.107   4.239  10.411 -1.7748 -0.1047 -0.8225
 6035SOL     OW29563   0.373   3.212  17.660 -0.3109 -0.2633  0.4983
 6035SOL    HW129564   0.356   3.258   0.058  2.2826 -1.1793  1.5586
 6035SOL    HW229565   0.288   3.224  17.620  0.6547 -0.0335 -1.4629
 6036SOL     OW29566   0.197   1.458   0.111 -0.5207  0.2250  0.0661
 6036SOL    HW129567   0.290   1.438   0.110 -0.2832  1.1923  1.6743
 6036SOL    HW229568   0.202   1.551   0.090  0.8546 -0.1795 -1.3720
 6037SOL     OW29569   2.899   2.284   9.931  0.4759  0.3097 -0.0157
 6037SOL    HW129570   2.927   2.372   9.907  1.6689 -0.0645  0.0076
 6037SOL    HW229571   2.831   2.312   9.992 -0.4788 -2.9806  0.4251
 6038SOL     OW29572   4.613   0.509   3.838  0.0325  0.1210 -0.2539
 6038SOL    HW129573   4.644   0.420   3.853 -0.7295  0.1148  1.2311
 6038SOL    HW229574   4.520   0.487   3.830 -0.7062  3.0984  0.1048
 6039SOL     OW29575   1.935   3.255   7.074 -0.0583  0.8974  0.9741
 6039SOL    HW129576   1.897   3.264   7.162 -1.3019 -0.6307  0.5833
 6039SOL    HW229577   1.917   3.339   7.031  1.1537  1.9626  2.5179
 6040SOL     OW29578   3.360   3.558   6.916 -0.2676  0.2788  0.2697
 6040SOL    HW129579   3.295   3.581   6.849  0.8243  1.0927 -0.4909
 6040SOL    HW229580   3.342   3.621   6.986 -0.1604  1.6085 -0.9005
 6041SOL     OW29581   1.208   3.373  17.510  0.7256  0.0137  0.2533
 6041SOL    HW129582   1.195   3.315  17.586 -0.4134 -0.5933 -0.4056
 6041SOL    HW229583   1.293   3.347  17.475  0.8160  0.2845  0.2750
 6042SOL     OW29584   3.631   4.053  13.456  0.0539  0.2513 -0.3793
 6042SOL    HW129585   3.574   4.119  13.495  0.8003  1.0258 -0.6050
 6042SOL    HW229586   3.577   3.974  13.463 -1.0266  1.1788  1.6874
 6043SOL     OW29587   2.792   4.285   7.100  0.4027  0.3308 -0.0596
 6043SOL    HW129588   2.798   4.202   7.054 -0.2626  0.0595  0.3387
 6043SOL    HW229589   2.697   4.291   7.114  0.4054  0.9538 -0.3155
 6044SOL     OW29590   0.825   3.479  16.288 -0.2321  0.1165  0.3122
 6044SOL    HW129591   0.919   3.494  16.299 -0.0999 -0.1904 -0.3451
 6044SOL    HW229592   0.824   3.385  16.271 -0.6589 -0.3521  2.9869
 6045SOL     OW29593   2.592   3.906   5.165 -0.0064  0.3723  0.7204
 6045SOL    HW129594   2.556   3.994   5.179  0.8886  0.9019 -0.3127
 6045SOL    HW229595   2.519   3.860   5.124  1.0168 -0.8477  0.2707
 6046SOL     OW29596   3.952   0.171   2.702 -0.0011 -0.3439 -0.5660
 6046SOL    HW129597   3.868   0.213   2.722  0.0689 -0.6042  0.2872
 6046SOL    HW229598   4.008   0.203   2.773 -1.2742  3.2755 -1.1761
 6047SOL     OW29599   0.992   1.838   1.847 -0.1554  0.3262 -0.0208
 6047SOL    HW129600   1.071   1.835   1.901 -2.1637 -0.2130  2.9017
 6047SOL    HW229601   1.018   1.897   1.777  0.5401 -1.2701 -1.1162
 6048SOL     OW29602   3.300   4.033   5.750 -0.2385  0.1235 -0.4669
 6048SOL    HW129603   3.206   4.028   5.766 -0.1521 -0.6461 -0.2337
 6048SOL    HW229604   3.323   4.118   5.790  0.8918 -0.1096 -0.6276
 6049SOL     OW29605   0.280   2.791   1.151 -0.1384 -0.1411  0.0460
 6049SOL    HW129606   0.210   2.848   1.119  0.4996  0.8974  0.4680
 6049SOL    HW229607   0.269   2.725   1.083  0.5601 -0.3193  0.1012
 6050SOL     OW29608   2.588   2.211   1.527  0.3705 -0.2677  0.3118
 6050SOL    HW129609   2.585   2.293   1.577  1.5990 -0.1666  0.2286
 6050SOL    HW229610   2.625   2.234   1.442 -0.8744  2.2018  0.4264
 6051SOL     OW29611   0.451   3.418   6.675 -0.1342 -0.7399  0.5174
 6051SOL    HW129612   0.518   3.430   6.742 -2.2517  1.0254  2.2869
 6051SOL    HW229613   0.489   3.345   6.626  0.5577 -0.5446  0.7589
 6052SOL     OW29614   0.769   2.443  16.089  0.3475 -0.3192 -0.2122
 6052SOL    HW129615   0.821   2.494  16.027 -2.6799  2.2149 -0.6864
 6052SOL    HW229616   0.684   2.475  16.060  0.2826 -1.6287 -1.4505
 6053SOL     OW29617   2.648   3.000  13.921 -0.4505  0.5784 -0.0941
 6053SOL    HW129618   2.578   2.948  13.882  0.2487  1.4373 -2.5219
 6053SOL    HW229619   2.703   2.933  13.962 -2.5988 -0.2145  1.4355
 6054SOL     OW29620   4.528   1.099  16.651  0.5398  0.4419 -0.2877
 6054SOL    HW129621   4.523   1.025  16.591  3.3864  0.4176 -0.4876
 6054SOL    HW229622   4.522   1.174  16.592 -0.9296 -0.5587 -1.4059
 6055SOL     OW29623   3.643   0.306   0.713 -0.4194 -0.0573  0.6366
 6055SOL    HW129624   3.599   0.254   0.781  0.1805  0.9035  1.7595
 6055SOL    HW229625   3.610   0.266   0.632  0.6761  1.6661 -0.6438
 6056SOL     OW29626   1.370   1.746   7.586 -0.1002  0.0040 -0.1201
 6056SOL    HW129627   1.344   1.817   7.644 -0.2994  0.0997 -0.3256
 6056SOL    HW229628   1.305   1.732   7.518 -0.3606 -2.7719  0.6764
 6057SOL     OW29629   3.828   3.070   6.862 -0.5646  0.0381 -0.0810
 6057SOL    HW129630   3.907   3.109   6.900  0.0445  0.2844 -1.5900
 6057SOL    HW229631   3.790   3.146   6.818  0.5122  0.1949 -0.7440
 6058SOL     OW29632   1.221   0.453   6.709 -0.0712  0.0387  0.3012
 6058SOL    HW129633   1.295   0.393   6.722  1.3855  1.4785 -1.3330
 6058SOL    HW229634   1.188   0.433   6.622 -2.5869  2.7168  0.6219
 6059SOL     OW29635   0.014   3.285   9.198 -0.4135 -0.1637  0.1015
 6059SOL    HW129636   0.066   3.354   9.157  0.9621 -2.1768 -1.5991
 6059SOL    HW229637   0.080   3.215   9.203 -0.8821 -0.6405 -0.3697
 6060SOL     OW29638   1.215   2.068  13.542  0.7750  0.7499 -0.6487
 6060SOL    HW129639   1.218   1.997  13.607  1.5680  0.4581 -0.9968
 6060SOL    HW229640   1.208   2.015  13.463 -2.6024 -0.1949  0.2980
 6061SOL     OW29641   0.519   2.335   2.550 -0.2042  0.4285  0.2097
 6061SOL    HW129642   0.615   2.338   2.554 -0.0406 -3.0222 -1.2871
 6061SOL    HW229643   0.493   2.307   2.463  1.1306  1.7451 -0.6062
 6062SOL     OW29644   1.626   3.160  17.618 -0.2222 -0.3417 -0.2367
 6062SOL    HW129645   1.605   3.068  17.601 -0.8153 -0.4542  1.1669
 6062SOL    HW229646   1.632   3.168   0.029  0.7179 -0.1010 -0.3062
 6063SOL     OW29647   0.048   1.610   0.776 -0.8105 -0.2130  0.3944
 6063SOL    HW129648   0.036   1.571   0.689 -0.5943  1.0195 -0.1958
 6063SOL    HW229649   0.032   1.700   0.748 -0.7084  0.4135  2.3649
 6064SOL     OW29650   3.436   0.174   4.105 -0.0729  0.0142 -0.2514
 6064SOL    HW129651   3.427   0.098   4.047 -0.5950  0.2590 -0.4875
 6064SOL    HW229652   3.501   0.234   4.069 -0.0707  0.3423  0.3049
 6065SOL     OW29653   2.760   3.632   9.114 -0.2757  0.4732 -0.3521
 6065SOL    HW129654   2.696   3.570   9.148  2.7821 -2.4455  0.0945
 6065SOL    HW229655   2.720   3.670   9.035  0.4484  3.1451  0.5491
 6066SOL     OW29656   1.704   1.975   7.751  0.2960 -0.5428  0.9517
 6066SOL    HW129657   1.649   2.048   7.781  0.8506  0.0504  0.5115
 6066SOL    HW229658   1.723   1.929   7.833 -3.1956 -2.1867  0.8117
 6067SOL     OW29659   4.532   1.723   4.635 -0.6496  0.1251 -0.3402
 6067SOL    HW129660   4.452   1.734   4.686  0.4493 -1.0879  1.6325
 6067SOL    HW229661   4.502   1.771   4.557 -2.9713  0.9210  1.0532
 6068SOL     OW29662   1.710   2.596   8.972  0.1926 -0.2406 -0.4411
 6068SOL    HW129663   1.662   2.661   8.920 -2.4001 -0.3735  1.7785
 6068SOL    HW229664   1.773   2.652   9.015  0.7989 -2.2005  1.2275
 6069SOL     OW29665   0.920   0.219   7.245 -0.3051  0.5233  0.6360
 6069SOL    HW129666   0.829   0.202   7.270  0.0502 -1.5542  0.4795
 6069SOL    HW229667   0.959   0.162   7.311 -0.0695  2.0708  1.8314
 6070SOL     OW29668   3.400   2.088  10.402 -0.0954 -0.2337  0.1910
 6070SOL    HW129669   3.320   2.064  10.356  0.8888 -0.9300 -1.1371
 6070SOL    HW229670   3.429   1.998  10.418 -0.5951 -0.3669  0.3585
 6071SOL     OW29671   1.685   4.193  10.952 -0.0588  0.0652  0.3138
 6071SOL    HW129672   1.699   4.111  10.999 -2.2113  0.2345  1.2351
 6071SOL    HW229673   1.765   4.199  10.899 -0.1315  1.2702  0.3479
 6072SOL     OW29674   0.466   0.209  10.163  0.0386 -0.0835 -0.3093
 6072SOL    HW129675   0.427   0.123  10.147  1.1342 -0.4852 -0.8582
 6072SOL    HW229676   0.449   0.217  10.257 -1.1093  2.7134 -0.7728
 6073SOL     OW29677   1.848   0.042   4.558 -0.0715 -0.3657 -0.2541
 6073SOL    HW129678   1.942   0.048   4.575 -0.0855 -1.8980  0.3644
 6073SOL    HW229679   1.850   0.095   4.478 -2.7513  0.2501  0.1010
 6074SOL     OW29680   0.840   3.192  16.219 -0.5577 -0.3444 -0.3458
 6074SOL    HW129681   0.852   3.110  16.171  1.9134 -0.3495  0.2573
 6074SOL    HW229682   0.779   3.168  16.288 -0.4599  2.3986  0.6803
 6075SOL     OW29683   1.569   4.187   4.492  1.3762 -0.6027  0.0752
 6075SOL    HW129684   1.493   4.197   4.550  1.4144 -1.3800  0.2691
 6075SOL    HW229685   1.533   4.229   4.414 -0.3786  1.2199  1.8806
 6076SOL     OW29686   3.189   3.858   4.069 -0.3751  0.0737 -0.7134
 6076SOL    HW129687   3.228   3.860   4.156 -0.9561  0.1129 -0.4509
 6076SOL    HW229688   3.169   3.951   4.062  2.7179  0.6723 -1.1859
 6077SOL     OW29689   4.540   2.512   2.837  0.6558 -0.3346 -0.3108
 6077SOL    HW129690   4.536   2.420   2.863 -2.2773  0.1951  1.0123
 6077SOL    HW229691   4.512   2.507   2.745  4.1609 -1.0589 -1.3697
 6078SOL     OW29692   0.062   2.212   7.592  0.4260  0.1811 -0.5198
 6078SOL    HW129693   0.130   2.193   7.527  1.0033  0.7254 -0.0719
 6078SOL    HW229694   0.018   2.278   7.539  1.0218  0.2357 -0.9476
 6079SOL     OW29695   2.703   2.903   0.224  0.3349 -0.0307  0.2162
 6079SOL    HW129696   2.774   2.866   0.171 -0.4334  0.4665 -1.1547
 6079SOL    HW229697   2.638   2.834   0.236  1.4114 -1.2407 -0.7981
 6080SOL     OW29698   2.740   0.618   8.147 -0.7197  0.1409  0.3183
 6080SOL    HW129699   2.674   0.561   8.186 -0.7112 -0.6819 -0.8586
 6080SOL    HW229700   2.784   0.662   8.219  0.9127 -0.3019 -0.4026
 6081SOL     OW29701   0.537   2.015  15.241  0.0264 -0.0577 -0.8066
 6081SOL    HW129702   0.580   1.978  15.164 -2.9106 -2.7796 -1.1515
 6081SOL    HW229703   0.589   1.978  15.312  1.3387  3.9064  0.2625
 6082SOL     OW29704   3.588   1.667   7.537 -0.4824 -0.1295 -0.9588
 6082SOL    HW129705   3.571   1.679   7.631  1.7790 -1.2338 -0.4048
 6082SOL    HW229706   3.664   1.610   7.549 -0.0978  0.6386  0.3050
 6083SOL     OW29707   2.420   1.797   1.869  0.2400 -0.0605 -0.1510
 6083SOL    HW129708   2.399   1.802   1.963 -1.2210  1.5890 -0.5565
 6083SOL    HW229709   2.499   1.851   1.875 -0.1651  0.5936 -0.7402
 6084SOL     OW29710   2.645   1.862  11.181  0.2879 -0.3325 -0.9702
 6084SOL    HW129711   2.629   1.768  11.171 -2.7840  0.2997 -2.0060
 6084SOL    HW229712   2.677   1.886  11.094  0.0163 -1.7631 -1.4630
 6085SOL     OW29713   1.485   3.877   8.138  0.1686  0.0261 -0.5313
 6085SOL    HW129714   1.580   3.887   8.147  0.3730 -0.7713 -1.7468
 6085SOL    HW229715   1.460   3.959   8.179  1.3955 -0.4927  1.2566
 6086SOL     OW29716   3.720   3.180   5.854 -0.6680  0.4196  0.6459
 6086SOL    HW129717   3.670   3.185   5.773  0.2024  1.4801  0.1670
 6086SOL    HW229718   3.800   3.137   5.823  0.0312  1.9312  0.3385
 6087SOL     OW29719   3.866   2.200  13.767  0.2734 -0.0087 -0.1917
 6087SOL    HW129720   3.863   2.238  13.855  1.4915 -0.5468  0.0825
 6087SOL    HW229721   3.853   2.106  13.781 -0.9735 -0.0331 -1.4658
 6088SOL     OW29722   2.851   2.551   3.819 -0.2305  0.1109  0.3378
 6088SOL    HW129723   2.820   2.464   3.844 -1.0950 -0.7718 -3.7250
 6088SOL    HW229724   2.772   2.601   3.841 -1.0264 -1.2533  0.5443
 6089SOL     OW29725   3.374   2.815  10.562 -0.2744  0.5521  0.4223
 6089SOL    HW129726   3.432   2.892  10.563  0.4768  0.0186 -2.5343
 6089SOL    HW229727   3.285   2.847  10.547  0.2021  2.1692  1.0359
 6090SOL     OW29728   2.576   0.690  12.217 -0.5844 -0.1004 -0.0107
 6090SOL    HW129729   2.606   0.643  12.294 -0.6375 -0.5634 -0.2719
 6090SOL    HW229730   2.604   0.780  12.234  1.3720 -1.1213  2.1131
 6091SOL     OW29731   2.925   1.400   1.456 -0.7813 -0.0358  0.2019
 6091SOL    HW129732   2.872   1.376   1.380  0.0436  0.1205 -0.4190
 6091SOL    HW229733   2.872   1.472   1.491  1.2214  0.8930  1.2603
 6092SOL     OW29734   1.584   0.360  17.003  0.8196 -0.9042  0.0190
 6092SOL    HW129735   1.578   0.310  17.084  1.0676 -0.2326  0.4531
 6092SOL    HW229736   1.615   0.298  16.937 -0.7749 -0.9490 -0.7022
 6093SOL     OW29737   2.389   2.358   7.917 -0.5346  0.0127  0.2624
 6093SOL    HW129738   2.467   2.366   7.972 -0.2403 -0.7915 -0.0294
 6093SOL    HW229739   2.335   2.301   7.972 -0.3220  0.3577  0.8266
 6094SOL     OW29740   1.175   2.928  14.842 -0.0415  0.3978  0.3374
 6094SOL    HW129741   1.246   2.866  14.821  0.7730  2.3250 -2.6382
 6094SOL    HW229742   1.109   2.867  14.875  1.7216 -2.6283 -1.7266
 6095SOL     OW29743   4.201   1.114   7.932  0.2292  0.4336  0.2272
 6095SOL    HW129744   4.172   1.118   8.023  1.4853 -0.2545  0.6526
 6095SOL    HW229745   4.278   1.058   7.940 -0.0233  0.1695  0.7466
 6096SOL     OW29746   3.768   3.922   1.597  0.2456  0.5650 -0.2516
 6096SOL    HW129747   3.751   3.918   1.503 -2.9971 -0.0793  0.3819
 6096SOL    HW229748   3.677   3.922   1.627  0.9071  3.6031  1.7754
 6097SOL     OW29749   2.217   2.144   8.829  0.0203  0.5668  0.4324
 6097SOL    HW129750   2.243   2.129   8.920  1.1232 -0.3586 -0.0309
 6097SOL    HW229751   2.277   2.209   8.794  0.8480 -0.9118 -0.8842
 6098SOL     OW29752   2.084   0.896   9.391  0.4030  0.0457 -0.2656
 6098SOL    HW129753   2.097   0.914   9.485 -0.1263  0.0731 -0.1947
 6098SOL    HW229754   2.017   0.961   9.369  0.0648  0.3890  1.7259
 6099SOL     OW29755   0.685   0.057   2.762  0.1142  0.0439  0.2238
 6099SOL    HW129756   0.740   0.037   2.686  0.8624 -1.8162  1.2486
 6099SOL    HW229757   0.644   0.137   2.730  0.7422  0.6470  0.9402
 6100SOL     OW29758   3.467   0.036   3.128 -0.0450  0.3459 -0.2137
 6100SOL    HW129759   3.387   4.719   3.164 -0.0659  0.8569  0.2819
 6100SOL    HW229760   3.417   0.102   3.080  0.4091  1.8733  1.4179
 6101SOL     OW29761   2.080   1.999  11.833  0.0234 -0.1299  0.0048
 6101SOL    HW129762   2.056   2.009  11.741  0.5458 -0.1847 -0.1414
 6101SOL    HW229763   2.168   2.035  11.849  0.3120 -0.6739 -0.3400
 6102SOL     OW29764   4.587   1.574   2.019  0.5366  0.5721  0.2716
 6102SOL    HW129765   4.653   1.514   2.053  0.2051  0.4700  0.7339
 6102SOL    HW229766   4.506   1.555   2.066 -0.3386  1.0020 -1.0520
 6103SOL     OW29767   1.127   3.989   8.424 -0.0287 -0.0385 -0.2461
 6103SOL    HW129768   1.102   3.897   8.433  0.4907 -0.3169 -1.5175
 6103SOL    HW229769   1.038   4.023   8.431  0.7530  2.1486 -0.8633
 6104SOL     OW29770   4.168   4.385  11.216  0.7258 -0.0667  0.4371
 6104SOL    HW129771   4.091   4.328  11.215  1.2195 -0.7370  0.6538
 6104SOL    HW229772   4.236   4.318  11.212 -1.0848 -1.7589 -1.6085
 6105SOL     OW29773   2.261   2.231   3.301  0.1973 -0.0702 -0.1797
 6105SOL    HW129774   2.275   2.228   3.206  2.3766 -0.6640  0.1739
 6105SOL    HW229775   2.341   2.274   3.331  0.1611 -1.5508  2.0419
 6106SOL     OW29776   2.417   2.544   5.259 -0.4163  0.4035  0.0498
 6106SOL    HW129777   2.367   2.561   5.339 -0.4395 -0.6131  0.2509
 6106SOL    HW229778   2.442   2.452   5.254 -1.1939  0.0912  1.9851
 6107SOL     OW29779   4.344   4.015  14.872  0.1770 -0.4810 -0.1531
 6107SOL    HW129780   4.383   3.958  14.938  0.7687 -0.6443 -0.6481
 6107SOL    HW229781   4.287   3.960  14.818 -0.5742  1.5907 -1.4876
 6108SOL     OW29782   4.332   1.030   2.439 -0.3180  0.3760 -0.5514
 6108SOL    HW129783   4.334   0.936   2.420 -2.1184  0.2435 -0.0797
 6108SOL    HW229784   4.392   1.069   2.375  0.7256 -0.5476 -0.1505
 6109SOL     OW29785   1.504   0.695   4.711  0.4107 -0.4957  0.4136
 6109SOL    HW129786   1.468   0.628   4.769  0.9134 -0.6949  0.4921
 6109SOL    HW229787   1.495   0.654   4.625 -0.4234  3.3467 -1.3364
 6110SOL     OW29788   0.775   3.024   1.082  0.6694 -0.0448 -0.1167
 6110SOL    HW129789   0.776   3.068   1.167  0.8852 -0.5070  0.1189
 6110SOL    HW229790   0.804   3.097   1.026 -0.5177  0.7110  0.2354
 6111SOL     OW29791   4.527   2.213   6.609  0.0661 -0.0448  0.0738
 6111SOL    HW129792   4.581   2.264   6.669 -0.0559  1.0912 -0.7656
 6111SOL    HW229793   4.511   2.296   6.563 -0.8056 -0.3583 -0.1768
 6112SOL     OW29794   2.208   2.234  17.329  0.8101  0.4311  0.0461
 6112SOL    HW129795   2.158   2.315  17.331 -0.4968 -0.3532 -1.2622
 6112SOL    HW229796   2.202   2.194  17.416 -2.7200 -0.8126 -0.7757
 6113SOL     OW29797   2.087   2.698   8.207 -0.1281  0.2736  0.0022
 6113SOL    HW129798   2.111   2.626   8.148 -1.4418  1.7398 -2.3196
 6113SOL    HW229799   2.171   2.723   8.244  0.6865 -0.3027 -1.4757
 6114SOL     OW29800   0.603   2.259  17.542 -0.2415  0.5980  0.9860
 6114SOL    HW129801   0.571   2.317  17.472  2.1544  0.1722 -0.4772
 6114SOL    HW229802   0.650   2.326  17.592  0.7622  0.8957 -0.3550
 6115SOL     OW29803   3.276   2.374   3.733  0.3552  0.2432  0.6351
 6115SOL    HW129804   3.255   2.453   3.783  2.4588  1.5724 -0.6105
 6115SOL    HW229805   3.331   2.414   3.667  0.1424 -0.5225 -0.0096
 6116SOL     OW29806   0.872   3.791   2.073 -0.0044 -0.3330 -0.1605
 6116SOL    HW129807   0.804   3.750   2.127  0.9511 -3.2405 -1.1906
 6116SOL    HW229808   0.942   3.731   2.101  2.4550  2.6134 -0.0291
 6117SOL     OW29809   2.382   1.089   1.573  0.2598  0.3377 -0.2635
 6117SOL    HW129810   2.358   0.997   1.571  1.7075 -0.0069 -1.0447
 6117SOL    HW229811   2.340   1.121   1.493 -0.0948  1.5414  0.3896
 6118SOL     OW29812   0.964   1.796  15.873  0.1498 -0.0563 -0.3553
 6118SOL    HW129813   1.035   1.843  15.829 -1.0423  1.3398 -0.7838
 6118SOL    HW229814   0.971   1.709  15.834  0.2501 -1.0801  1.9648
 6119SOL     OW29815   3.540   1.422   7.830 -0.3459  0.2842 -0.4401
 6119SOL    HW129816   3.632   1.441   7.815 -0.0606  1.4098  2.8705
 6119SOL    HW229817   3.510   1.436   7.740  0.2813  3.7713 -0.1275
 6120SOL     OW29818   3.095   2.853  12.114 -0.0248 -0.0841  0.2131
 6120SOL    HW129819   3.086   2.763  12.085 -0.6815 -0.2254  0.8532
 6120SOL    HW229820   3.008   2.892  12.104  0.0662  0.0045 -0.2084
 6121SOL     OW29821   2.637   2.204   8.764  0.7885 -0.1308 -0.0092
 6121SOL    HW129822   2.682   2.140   8.819  2.2548  1.7386  0.9908
 6121SOL    HW229823   2.582   2.255   8.824  0.8799  2.6242 -2.2596
 6122SOL     OW29824   0.777   1.327   2.037  0.1539  0.2861 -0.4414
 6122SOL    HW129825   0.743   1.265   2.102  0.4410  0.8062  0.2057
 6122SOL    HW229826   0.755   1.266   1.966 -0.9536 -0.2880  0.3888
 6123SOL     OW29827   3.196   3.140   2.481 -0.2467 -0.3764  0.2929
 6123SOL    HW129828   3.226   3.090   2.406  0.6771  1.2544 -0.4159
 6123SOL    HW229829   3.262   3.113   2.545 -1.1291 -2.8190  0.1760
 6124SOL     OW29830   4.402   1.095  16.889 -0.7671 -0.2029  0.3101
 6124SOL    HW129831   4.314   1.074  16.859 -1.4117  2.4606  0.3668
 6124SOL    HW229832   4.456   1.083  16.811 -1.3926 -1.1528  0.0223
 6125SOL     OW29833   2.399   0.535  16.975 -0.3047  0.0065  0.0632
 6125SOL    HW129834   2.471   0.579  17.020 -0.1003  2.8561 -3.0692
 6125SOL    HW229835   2.427   0.443  16.974 -0.1226  0.0773 -0.9897
 6126SOL     OW29836   4.063   4.394   2.664  0.0308 -0.2828  0.1156
 6126SOL    HW129837   4.026   4.402   2.752  1.0992 -0.7225  0.6029
 6126SOL    HW229838   4.025   4.470   2.621 -0.5622 -0.6365  0.0147
 6127SOL     OW29839   3.477   0.830  15.707  0.0719 -0.1282 -0.2044
 6127SOL    HW129840   3.546   0.770  15.733  0.3855  0.4056  0.1822
 6127SOL    HW229841   3.442   0.862  15.790  0.6117  1.3194 -0.5330
 6128SOL     OW29842   0.860   3.417  13.619 -0.3704  0.2243 -0.4030
 6128SOL    HW129843   0.829   3.327  13.615  0.3261 -0.2409  4.4701
 6128SOL    HW229844   0.948   3.396  13.649 -0.6672 -0.9654 -0.3909
 6129SOL     OW29845   2.484   0.142   3.993 -0.0699  0.1458  0.7838
 6129SOL    HW129846   2.508   0.071   3.933  0.6127 -0.2155  1.4758
 6129SOL    HW229847   2.400   0.113   4.027  0.2585 -1.8164 -0.0680
 6130SOL     OW29848   1.181   2.242   7.302 -0.2139  0.6298 -0.3529
 6130SOL    HW129849   1.128   2.309   7.261 -0.1248 -0.3515 -2.0648
 6130SOL    HW229850   1.237   2.304   7.348 -0.9735  0.4473  0.8205
 6131SOL     OW29851   4.345   0.640   8.152 -0.4084 -0.4785 -0.2027
 6131SOL    HW129852   4.364   0.568   8.092  0.4862  0.8283 -1.5047
 6131SOL    HW229853   4.426   0.691   8.149  0.5767 -1.9672  1.0206
 6132SOL     OW29854   1.485   2.169  17.575  0.3509 -0.4525  0.3862
 6132SOL    HW129855   1.525   2.082  17.583 -0.0496 -0.7729 -1.1162
 6132SOL    HW229856   1.399   2.135  17.550  0.4417 -0.0774 -0.4414
 6133SOL     OW29857   4.510   1.634   3.050 -1.1982  0.4037 -0.0411
 6133SOL    HW129858   4.532   1.564   2.989 -0.2560  0.0968  0.6539
 6133SOL    HW229859   4.489   1.583   3.128  1.0295 -1.3194 -0.5912
 6134SOL     OW29860   3.661   2.214   0.632  0.5086  0.0612 -0.1279
 6134SOL    HW129861   3.754   2.195   0.618  0.9631  0.9363  1.6730
 6134SOL    HW229862   3.639   2.129   0.668 -2.8073  0.1388 -1.9858
 6135SOL     OW29863   1.040   1.419   4.951  0.0207 -0.3852  0.1236
 6135SOL    HW129864   0.997   1.504   4.963 -3.2217 -2.2329  1.5246
 6135SOL    HW229865   1.021   1.385   4.863 -2.9221  2.2805 -0.2886
 6136SOL     OW29866   0.847   3.933   8.994  0.0371 -0.7459 -0.2766
 6136SOL    HW129867   0.883   3.931   8.906  1.7692 -3.0428  0.5089
 6136SOL    HW229868   0.895   3.862   9.036  1.0770 -0.9837 -1.8620
 6137SOL     OW29869   0.656   2.894   4.776  0.7949  0.4588  0.5927
 6137SOL    HW129870   0.680   2.867   4.687  0.1867 -0.7594  0.8072
 6137SOL    HW229871   0.646   2.812   4.823  0.4277 -0.0754 -0.4063
 6138SOL     OW29872   1.307   1.891   3.011  0.0059  0.2476  0.3882
 6138SOL    HW129873   1.279   1.808   2.975  0.9788  0.0944 -0.0255
 6138SOL    HW229874   1.251   1.910   3.087  0.9299  0.8795  0.9176
 6139SOL     OW29875   4.506   1.764   2.277  0.5807  0.0614  0.0655
 6139SOL    HW129876   4.423   1.736   2.316  0.3820 -2.4574 -2.1024
 6139SOL    HW229877   4.477   1.792   2.190 -0.8362 -0.6797  0.2854
 6140SOL     OW29878   1.598   1.406   6.859  0.5089 -0.2165 -0.4369
 6140SOL    HW129879   1.605   1.383   6.766 -2.0951 -0.9663 -0.4555
 6140SOL    HW229880   1.521   1.360   6.892  0.9543 -2.0141 -1.9003
 6141SOL     OW29881   4.614   1.507  13.166 -0.7998  0.1176 -0.1713
 6141SOL    HW129882   4.586   1.467  13.084  1.9883  0.3169 -1.1902
 6141SOL    HW229883   4.617   1.599  13.141  1.9313  0.2850  0.7493
 6142SOL     OW29884   4.237   1.289   5.791  0.0181  0.3312 -0.4279
 6142SOL    HW129885   4.230   1.274   5.697 -2.5300 -1.4066  0.0251
 6142SOL    HW229886   4.218   1.382   5.788  1.8953  0.7597  1.1872
 6143SOL     OW29887   1.153   0.409   1.338  0.0605  0.0102  0.3276
 6143SOL    HW129888   1.082   0.468   1.315 -0.7652  0.3721  3.6798
 6143SOL    HW229889   1.129   0.378   1.425  1.0314 -0.3938  0.4578
 6144SOL     OW29890   3.010   4.555  10.686 -0.2499 -0.7459 -0.7154
 6144SOL    HW129891   3.098   4.594  10.689 -0.5352 -0.2899  1.8518
 6144SOL    HW229892   3.002   4.536  10.593  3.3357  2.3150 -1.6433
 6145SOL     OW29893   2.022   0.472   2.674  0.2207 -0.5738 -0.0094
 6145SOL    HW129894   2.005   0.554   2.720 -2.2232 -1.3351  0.4581
 6145SOL    HW229895   2.035   0.420   2.753 -0.6197  0.9269  1.1045
 6146SOL     OW29896   1.740   2.017  17.604 -0.3242 -0.0133  0.0501
 6146SOL    HW129897   1.767   2.108  17.598  0.1002 -0.2005 -0.9541
 6146SOL    HW229898   1.816   1.983  17.651 -0.1268 -1.0180 -0.9773
 6147SOL     OW29899   4.552   1.657  15.566 -0.5386  0.4539  0.1996
 6147SOL    HW129900   4.601   1.734  15.595 -2.0339  0.9960  1.3015
 6147SOL    HW229901   4.570   1.596  15.637  0.0484 -0.4202 -0.7107
 6148SOL     OW29902   2.661   0.423   7.414 -0.1858 -0.1256  0.4549
 6148SOL    HW129903   2.733   0.463   7.464  0.5260  0.3229 -0.9236
 6148SOL    HW229904   2.608   0.394   7.488 -0.4486  2.5980  1.3397
 6149SOL     OW29905   1.219   4.131   5.732  0.0526  0.0770 -0.2142
 6149SOL    HW129906   1.312   4.126   5.752 -0.1448  1.4996  1.0695
 6149SOL    HW229907   1.214   4.161   5.641 -2.1356 -0.5832 -0.3171
 6150SOL     OW29908   2.577   2.109   8.086 -0.4804  0.3742 -0.2021
 6150SOL    HW129909   2.502   2.109   8.146  0.2107 -0.2044  0.6733
 6150SOL    HW229910   2.599   2.202   8.086  2.6650 -0.3431  0.4396
 6151SOL     OW29911   4.065   2.118   2.258 -0.2102 -0.0277  0.3629
 6151SOL    HW129912   4.156   2.109   2.287  0.3142  2.2709 -0.6345
 6151SOL    HW229913   4.076   2.198   2.208 -0.3222  1.3031  2.4741
 6152SOL     OW29914   0.210   3.267   2.902  0.6066  0.6694  0.4345
 6152SOL    HW129915   0.290   3.228   2.867  0.3204  2.6775 -2.4981
 6152SOL    HW229916   0.149   3.206   2.861  0.6567  1.4368 -0.7858
 6153SOL     OW29917   4.441   1.257   2.028  0.0860 -0.3057  0.0776
 6153SOL    HW129918   4.377   1.297   1.969 -0.9396 -0.0557  1.3716
 6153SOL    HW229919   4.516   1.313   2.005  0.7792 -0.2969  2.3544
 6154SOL     OW29920   4.396   1.263  14.732  0.2302  0.5561  0.1576
 6154SOL    HW129921   4.418   1.353  14.756  2.1345 -0.1184  0.9336
 6154SOL    HW229922   4.417   1.272  14.639 -0.4637  1.6950  0.1128
 6155SOL     OW29923   3.059   1.877   5.277 -0.0130 -0.2101  0.2832
 6155SOL    HW129924   3.112   1.834   5.210  0.2323 -1.0584  1.0162
 6155SOL    HW229925   2.967   1.854   5.263  0.0162 -1.4441  2.0737
 6156SOL     OW29926   3.355   2.881   3.149 -0.8885  0.0406 -0.1548
 6156SOL    HW129927   3.263   2.891   3.174 -0.7267  2.0529 -0.3098
 6156SOL    HW229928   3.357   2.786   3.145  2.0924  0.0290  2.1914
 6157SOL     OW29929   2.621   1.535   6.015 -0.1067  0.1888  0.3374
 6157SOL    HW129930   2.569   1.598   5.966 -0.2905 -0.6716 -0.5878
 6157SOL    HW229931   2.563   1.471   6.058 -2.4240  0.7883 -1.9214
 6158SOL     OW29932   2.124   3.054   0.167  0.2142 -0.1634  0.6090
 6158SOL    HW129933   2.197   3.115   0.159  1.0022 -1.2923 -1.0070
 6158SOL    HW229934   2.177   2.976   0.149 -0.4564 -0.4355 -0.1952
 6159SOL     OW29935   2.234   3.377   2.208  0.3838 -0.0568 -0.0069
 6159SOL    HW129936   2.143   3.363   2.183  1.0246 -2.1972 -1.1471
 6159SOL    HW229937   2.283   3.303   2.171 -1.5965 -0.8459 -1.0647
 6160SOL     OW29938   4.011   1.616   2.574 -0.4233 -0.9250 -0.3622
 6160SOL    HW129939   4.049   1.700   2.599 -0.6693 -0.7631 -0.5325
 6160SOL    HW229940   3.920   1.647   2.576 -0.2594 -0.5382  1.6502
 6161SOL     OW29941   4.584   2.122   2.121 -0.0890  0.3066 -0.1766
 6161SOL    HW129942   4.515   2.087   2.176  1.4475  1.1528  2.2925
 6161SOL    HW229943   4.650   2.054   2.132 -1.1265 -0.3602  1.9193
 6162SOL     OW29944   1.518   0.089   8.636  0.0417  0.0023  0.2504
 6162SOL    HW129945   1.515   4.714   8.636 -1.9359  0.0527  0.9180
 6162SOL    HW229946   1.516   0.109   8.730  1.1143 -2.0979  0.7147
 6163SOL     OW29947   0.790   1.301   4.781 -0.4639  0.0535 -0.5038
 6163SOL    HW129948   0.823   1.242   4.849 -0.7637 -0.4438 -0.7908
 6163SOL    HW229949   0.695   1.290   4.788 -0.1575 -2.6833 -0.7361
 6164SOL     OW29950   2.502   0.281   0.601  0.0658  1.0115 -0.2573
 6164SOL    HW129951   2.580   0.237   0.568  0.1137  1.3665 -0.6195
 6164SOL    HW229952   2.447   0.279   0.523 -0.0417  0.1896 -0.1611
 6165SOL     OW29953   1.900   3.488   2.695  0.6068 -0.2089 -0.7140
 6165SOL    HW129954   1.886   3.555   2.762  1.2391  0.4435 -1.2328
 6165SOL    HW229955   1.838   3.511   2.626  0.7589  2.2687 -0.0153
 6166SOL     OW29956   4.540   4.245   8.665  0.1276 -0.2300 -0.1354
 6166SOL    HW129957   4.624   4.206   8.641  0.1673 -0.2523  0.0394
 6166SOL    HW229958   4.521   4.210   8.752 -0.0172 -1.0574 -0.5025
 6167SOL     OW29959   3.707   4.523   2.198 -0.2496  0.5313  0.4838
 6167SOL    HW129960   3.782   4.521   2.139  0.0220 -0.1048  0.8480
 6167SOL    HW229961   3.669   4.437   2.180  1.2414  0.1782 -0.9989
 6168SOL     OW29962   3.559   2.296   4.287 -0.4898  0.1462  0.0654
 6168SOL    HW129963   3.570   2.363   4.219  1.2037  0.4633  0.6632
 6168SOL    HW229964   3.637   2.242   4.270  0.0054  0.6193  0.8358
 6169SOL     OW29965   0.456   4.267   8.433  0.5143  0.3941 -0.0199
 6169SOL    HW129966   0.470   4.174   8.416  1.3480  0.6549 -0.7886
 6169SOL    HW229967   0.538   4.297   8.473  1.0987 -1.7688  0.3944
 6170SOL     OW29968   0.150   1.789   8.360  0.0174 -0.0222 -0.2126
 6170SOL    HW129969   0.152   1.748   8.273  1.7416 -0.2765 -0.0594
 6170SOL    HW229970   0.207   1.864   8.344  1.1997 -0.8173  0.2378
 6171SOL     OW29971   1.041   1.521   4.619 -0.4803  0.0294  0.5896
 6171SOL    HW129972   1.057   1.606   4.576 -2.7070 -0.1788 -0.6704
 6171SOL    HW229973   0.954   1.537   4.654 -0.9400  0.1374 -0.6009
 6172SOL     OW29974   1.680   3.684   7.422  0.2224 -0.8546 -0.2199
 6172SOL    HW129975   1.711   3.621   7.488  0.6137  1.2094  1.5577
 6172SOL    HW229976   1.604   3.643   7.381 -1.5477  0.6144  1.6058
 6173SOL     OW29977   4.223   2.951   8.336 -0.3341  0.1104  0.0038
 6173SOL    HW129978   4.233   2.994   8.251  2.4986 -0.0930  0.2438
 6173SOL    HW229979   4.129   2.939   8.320 -0.4102  0.8342 -0.0758
 6174SOL     OW29980   4.157   3.115   4.390 -0.1244  0.6071  0.6483
 6174SOL    HW129981   4.219   3.133   4.461 -0.0755  1.1554  0.4636
 6174SOL    HW229982   4.176   3.022   4.377 -2.8808  0.0349  0.7042
 6175SOL     OW29983   1.517   1.600   1.693 -0.0725 -0.0920 -0.3826
 6175SOL    HW129984   1.559   1.684   1.674  0.1508  0.4335  2.4068
 6175SOL    HW229985   1.426   1.625   1.707  0.4270  0.2308  2.2496
 6176SOL     OW29986   2.240   0.167   2.758 -0.2190 -0.1426 -0.0632
 6176SOL    HW129987   2.261   0.113   2.834 -0.3504 -2.0693 -1.4043
 6176SOL    HW229988   2.209   0.243   2.808  2.2380  0.9151 -0.1261
 6177SOL     OW29989   0.418   3.104   6.711  0.3062  0.0007 -0.3147
 6177SOL    HW129990   0.459   3.018   6.725  4.2119  2.2770  2.3411
 6177SOL    HW229991   0.485   3.152   6.664 -0.8903  1.1584 -0.8198
 6178SOL     OW29992   2.273   3.223  11.542  0.4653  0.2769 -0.3626
 6178SOL    HW129993   2.230   3.144  11.574  2.2466 -0.4240  0.2952
 6178SOL    HW229994   2.357   3.187  11.515  0.5069 -0.4481  0.7589
 6179SOL     OW29995   2.458   0.350   3.414  0.6755  0.4921  0.4719
 6179SOL    HW129996   2.451   0.442   3.440  0.8298  0.8114 -0.5858
 6179SOL    HW229997   2.494   0.323   3.498 -0.5195 -3.5082 -0.3299
 6180SOL     OW29998   4.343   3.725  12.309 -0.7425 -0.2379 -0.2520
 6180SOL    HW129999   4.340   3.810  12.354  0.8550  1.3590 -3.1769
 6180SOL    HW230000   4.292   3.737  12.229  1.8823 -1.7278 -2.1153
 6181SOL     OW30001   1.760   2.468   5.838 -0.1798 -0.4890 -0.5391
 6181SOL    HW130002   1.737   2.454   5.930 -0.0569  1.7864 -0.1769
 6181SOL    HW230003   1.695   2.409   5.800 -0.9538  0.1588 -0.2253
 6182SOL     OW30004   1.200   0.663   7.825  0.1672  0.5384 -0.2543
 6182SOL    HW130005   1.155   0.580   7.810  1.3587  0.0490 -1.1021
 6182SOL    HW230006   1.140   0.729   7.792 -0.3834 -0.8209 -1.9866
 6183SOL     OW30007   1.370   1.160   7.762  0.1482  0.4492 -0.4730
 6183SOL    HW130008   1.395   1.135   7.673 -1.0701  0.0045 -0.6829
 6183SOL    HW230009   1.336   1.247   7.742 -0.8731  0.4737  1.4499
 6184SOL     OW30010   3.932   0.200   4.645  0.3644  0.4190  0.3886
 6184SOL    HW130011   3.973   0.152   4.574  0.3900  0.2002  0.5517
 6184SOL    HW230012   4.011   0.216   4.696  1.6617 -1.7666 -0.9220
 6185SOL     OW30013   1.258   2.631  14.695  0.3392  0.0874 -0.0065
 6185SOL    HW130014   1.336   2.587  14.663  0.8020  0.7156  0.2525
 6185SOL    HW230015   1.203   2.621  14.617 -0.5272 -0.3940  0.6574
 6186SOL     OW30016   4.650   1.620  17.597  0.2439 -0.2431  0.3066
 6186SOL    HW130017   4.707   1.545  17.583 -0.5404 -0.9195  0.6948
 6186SOL    HW230018   4.689   1.684  17.538  0.4391  1.0215  1.8250
 6187SOL     OW30019   2.163   4.546  15.639 -0.0032  0.1861 -0.4441
 6187SOL    HW130020   2.139   4.493  15.715  0.2354  0.6906 -0.0188
 6187SOL    HW230021   2.232   4.595  15.683 -0.3543 -0.3821  0.7377
 6188SOL     OW30022   4.173   2.337   5.537 -0.2249  0.4751 -0.0688
 6188SOL    HW130023   4.145   2.313   5.625  1.2190  1.4973  0.6637
 6188SOL    HW230024   4.183   2.431   5.552  0.9593  0.5922 -1.5460
 6189SOL     OW30025   0.315   0.254  13.968 -0.6132  0.9994  0.7103
 6189SOL    HW130026   0.387   0.197  13.941  0.1641  1.7199  1.2497
 6189SOL    HW230027   0.319   0.316  13.895  0.1169  0.3062  0.1637
 6190SOL     OW30028   1.924   0.537   3.521  0.4084 -0.4925 -0.1791
 6190SOL    HW130029   2.010   0.508   3.491  0.2563 -2.3512  1.2317
 6190SOL    HW230030   1.941   0.624   3.558 -1.8000  1.4613 -3.6755
 6191SOL     OW30031   4.165   1.059   5.991 -0.5087 -0.2163  0.6733
 6191SOL    HW130032   4.225   1.007   5.937 -2.7864 -1.5912 -0.5472
 6191SOL    HW230033   4.082   1.042   5.947  0.8292 -1.7542 -1.2717
 6192SOL     OW30034   2.882   0.533   5.621  0.4982 -0.0912  0.9343
 6192SOL    HW130035   2.823   0.579   5.561  0.2642 -0.9078  0.5448
 6192SOL    HW230036   2.881   0.447   5.580 -1.4720 -0.5149  1.8943
 6193SOL     OW30037   4.448   1.158   6.363  0.0461  0.4142 -0.3176
 6193SOL    HW130038   4.526   1.164   6.309  0.0784 -1.6778 -0.5143
 6193SOL    HW230039   4.384   1.177   6.294 -1.2055 -1.6739  0.2644
 6194SOL     OW30040   2.732   2.473   6.201  0.0410  0.0355 -0.4633
 6194SOL    HW130041   2.643   2.508   6.195 -1.1215 -3.1375 -1.9547
 6194SOL    HW230042   2.776   2.536   6.257 -1.6274  0.5604  0.2787
 6195SOL     OW30043   0.147   0.162   8.222  0.3502  0.2220  0.3170
 6195SOL    HW130044   0.114   0.168   8.312 -1.7644 -1.6021 -0.3406
 6195SOL    HW230045   0.092   0.087   8.200  1.2550 -0.9273  1.8958
 6196SOL     OW30046   2.182   2.475   1.558  0.0514 -0.6567  0.0912
 6196SOL    HW130047   2.194   2.383   1.536 -0.0297 -1.6937  4.4383
 6196SOL    HW230048   2.141   2.475   1.645  0.9903 -1.2882  0.5263
 6197SOL     OW30049   1.839   3.359   4.700 -0.8354 -0.8667  0.2217
 6197SOL    HW130050   1.748   3.352   4.729 -1.8811  0.8539 -2.6985
 6197SOL    HW230051   1.862   3.436   4.751 -1.2935 -0.2066 -0.5804
 6198SOL     OW30052   1.439   2.593   6.065  0.4412  0.2277  0.3486
 6198SOL    HW130053   1.462   2.500   6.061 -2.0191 -0.3751 -0.2134
 6198SOL    HW230054   1.482   2.601   6.150  2.3309 -1.1386 -0.4754
 6199SOL     OW30055   3.706   0.838  10.516 -0.4648 -0.5037  0.1305
 6199SOL    HW130056   3.611   0.837  10.523 -0.3183 -2.6551  1.8206
 6199SOL    HW230057   3.727   0.826  10.609  1.2671  1.5679 -0.0013
 6200SOL     OW30058   2.458   4.146   7.195 -0.5913  0.0102  0.2730
 6200SOL    HW130059   2.429   4.055   7.188  1.0272 -0.4352 -0.6187
 6200SOL    HW230060   2.444   4.193   7.113  1.3948 -1.5046 -0.9439
 6201SOL     OW30061   4.176   2.634   9.219 -0.4797  1.0521  0.2565
 6201SOL    HW130062   4.156   2.650   9.311  2.1321  0.6979  0.8712
 6201SOL    HW230063   4.088   2.614   9.186  1.2196 -1.9525 -2.3997
 6202SOL     OW30064   0.730   1.825  16.666  0.0160  0.1990 -0.3666
 6202SOL    HW130065   0.799   1.851  16.727  1.6794 -4.2154 -0.3603
 6202SOL    HW230066   0.735   1.890  16.597  0.6688 -1.2500 -1.6746
 6203SOL     OW30067   3.315   2.268   5.419 -0.1282  0.3912 -0.1641
 6203SOL    HW130068   3.332   2.319   5.498 -1.1491  0.8889 -0.2621
 6203SOL    HW230069   3.220   2.268   5.408 -0.1190  0.8880 -0.2426
 6204SOL     OW30070   1.434   0.356   3.288 -0.4698  0.1721 -0.1295
 6204SOL    HW130071   1.392   0.373   3.204 -0.4362 -1.1358 -0.4229
 6204SOL    HW230072   1.359   0.334   3.344 -0.1951 -0.9682 -0.2067
 6205SOL     OW30073   2.705   1.476  10.132 -0.4739 -0.2037 -0.3122
 6205SOL    HW130074   2.704   1.504  10.224 -3.1356 -0.2513 -0.3089
 6205SOL    HW230075   2.789   1.516  10.112 -0.5880  1.6790  2.9327
 6206SOL     OW30076   0.116   3.692   6.110 -0.0802  0.3070 -0.6613
 6206SOL    HW130077   0.025   3.701   6.081  0.1851  1.6778 -1.0586
 6206SOL    HW230078   0.146   3.627   6.046 -1.0721  0.0829 -0.9024
 6207SOL     OW30079   2.410   4.321  17.162  0.2267  0.5173  0.1218
 6207SOL    HW130080   2.339   4.257  17.158 -1.0848  1.9971 -0.4744
 6207SOL    HW230081   2.402   4.391  17.097 -0.4720 -1.7073 -2.1783
 6208SOL     OW30082   0.721   3.578   8.295 -0.3610  0.4666 -0.2925
 6208SOL    HW130083   0.756   3.531   8.371 -0.5932  0.7417 -0.0173
 6208SOL    HW230084   0.648   3.623   8.337 -0.2338 -1.3561  1.8910
 6209SOL     OW30085   4.468   2.245   6.203  0.4865  0.2174 -0.1905
 6209SOL    HW130086   4.469   2.153   6.174 -1.4879  0.2820 -0.4369
 6209SOL    HW230087   4.554   2.237   6.244  0.8540  0.5692 -0.9056
 6210SOL     OW30088   2.184   3.028   8.275 -0.6200  0.8298 -0.0846
 6210SOL    HW130089   2.253   3.058   8.216 -0.1277 -2.8253 -1.3864
 6210SOL    HW230090   2.113   3.005   8.215  0.0569 -3.4439  0.7518
 6211SOL     OW30091   4.685   0.237  14.645 -0.0992 -0.1157  0.7369
 6211SOL    HW130092   0.013   0.293  14.705  0.4774 -0.7609  0.8708
 6211SOL    HW230093   0.014   0.258  14.565  1.2543 -1.3445  1.2642
 6212SOL     OW30094   4.658   1.405   7.248 -0.0301  0.8888 -0.1666
 6212SOL    HW130095   0.005   1.446   7.194  0.7452  2.1601  1.7681
 6212SOL    HW230096   4.614   1.347   7.186  0.4073  0.5296 -0.1369
 6213SOL     OW30097   2.485   1.286   8.680 -0.9810 -0.0612 -0.1529
 6213SOL    HW130098   2.470   1.248   8.594  1.4719  1.0410 -1.0722
 6213SOL    HW230099   2.415   1.247   8.733 -0.8596 -0.4626 -0.2954
 6214SOL     OW30100   4.478   1.173   5.772 -0.3356  0.2139  0.3784
 6214SOL    HW130101   4.513   1.206   5.689 -0.4346 -0.6717 -0.0218
 6214SOL    HW230102   4.385   1.195   5.777 -0.3330  0.8669 -2.5182
 6215SOL     OW30103   2.556   3.090  17.038 -0.5376 -0.3069  0.3529
 6215SOL    HW130104   2.606   3.160  17.080  1.2022 -2.1277  1.3584
 6215SOL    HW230105   2.619   3.019  17.056 -0.8915 -0.5321  0.7011
 6216SOL     OW30106   1.094   2.086   5.509 -0.3485  0.3950 -0.7007
 6216SOL    HW130107   1.087   2.001   5.552  1.1540  1.5797  1.9288
 6216SOL    HW230108   1.002   2.111   5.521 -0.3732 -0.6257  1.1758
 6217SOL     OW30109   1.792   3.478  16.567 -0.2492  0.1528 -0.1922
 6217SOL    HW130110   1.830   3.481  16.479 -1.0003 -0.2876 -0.5296
 6217SOL    HW230111   1.734   3.553  16.555 -1.6901 -0.7895  0.9807
 6218SOL     OW30112   3.241   1.837   1.511 -0.1768  0.1757 -0.0871
 6218SOL    HW130113   3.313   1.865   1.455  2.4266 -1.8922  2.2629
 6218SOL    HW230114   3.290   1.812   1.589 -1.8690  0.0747  0.9309
 6219SOL     OW30115   0.340   1.310   7.596 -0.3496 -0.0692 -0.4555
 6219SOL    HW130116   0.398   1.301   7.672 -0.3832  0.1153 -0.4073
 6219SOL    HW230117   0.257   1.318   7.643  0.9800 -0.4599  1.9753
 6220SOL     OW30118   3.152   0.659   3.955  0.6068 -0.1812 -0.4938
 6220SOL    HW130119   3.090   0.595   3.921 -0.1914 -0.1483  0.8838
 6220SOL    HW230120   3.175   0.622   4.040 -0.4634 -0.2612 -0.2408
 6221SOL     OW30121   4.091   0.334  12.443 -0.3397 -0.0417  0.1167
 6221SOL    HW130122   4.086   0.240  12.465  1.1744 -0.1663 -0.0783
 6221SOL    HW230123   4.034   0.352  12.369  0.9403  0.8230 -0.6448
 6222SOL     OW30124   3.381   0.899   3.550 -0.3460  0.4672 -0.3007
 6222SOL    HW130125   3.291   0.903   3.581 -0.6355  1.1975 -1.2593
 6222SOL    HW230126   3.433   0.891   3.630  1.1455  4.7845 -0.8789
 6223SOL     OW30127   1.193   2.048  12.089  0.3914 -0.6298 -0.2937
 6223SOL    HW130128   1.182   1.966  12.042  2.6637 -0.6948 -0.6886
 6223SOL    HW230129   1.103   2.070  12.114  1.0547  0.9885  0.6968
 6224SOL     OW30130   4.660   0.630   0.912 -0.2876 -0.4735 -0.5086
 6224SOL    HW130131   4.710   0.550   0.928 -0.1694 -0.8132 -2.5916
 6224SOL    HW230132   4.690   0.645   0.823 -1.0934  1.2018 -0.5023
 6225SOL     OW30133   1.605   3.852  13.876  0.5618 -0.0674 -0.5483
 6225SOL    HW130134   1.613   3.762  13.907  0.4925  0.1893  0.1994
 6225SOL    HW230135   1.594   3.902  13.956  0.5889 -0.8618 -0.0463
 6226SOL     OW30136   0.780   3.124   6.275  0.0407  0.5014 -0.0183
 6226SOL    HW130137   0.874   3.117   6.259  0.1379  1.6864  0.0107
 6226SOL    HW230138   0.751   3.037   6.248  1.6053 -0.1782  0.5334
 6227SOL     OW30139   4.254   1.633  13.096 -0.0249  0.0367 -0.3602
 6227SOL    HW130140   4.270   1.727  13.096 -3.4047  0.6137  0.7162
 6227SOL    HW230141   4.304   1.606  13.173 -1.5795 -0.1227  0.5955
 6228SOL     OW30142   1.053   3.025   6.237  0.1446  0.8545  0.1217
 6228SOL    HW130143   1.051   2.930   6.250 -0.7401  0.7573 -0.7013
 6228SOL    HW230144   1.134   3.040   6.285  0.0754 -0.7577  0.7349
 6229SOL     OW30145   0.312   3.343   8.442  0.4206 -0.6306  0.3035
 6229SOL    HW130146   0.238   3.401   8.461  0.8098  0.5333 -1.8274
 6229SOL    HW230147   0.354   3.341   8.528 -2.3018  1.0445  1.6783
 6230SOL     OW30148   0.979   3.721  10.866  0.0054  0.1479 -0.1764
 6230SOL    HW130149   1.011   3.686  10.783  0.6305 -0.9707  0.5341
 6230SOL    HW230150   0.958   3.639  10.911  1.7921 -0.3727 -0.2685
 6231SOL     OW30151   0.576   1.072  14.699  0.1398 -0.5150  0.0037
 6231SOL    HW130152   0.520   1.137  14.740  0.1168  0.5733 -1.7579
 6231SOL    HW230153   0.561   1.092  14.607 -0.6692 -1.5995 -0.1055
 6232SOL     OW30154   4.253   0.616   5.981  0.3079 -0.5458 -0.1445
 6232SOL    HW130155   4.332   0.662   6.007  0.4741 -0.6294 -0.4972
 6232SOL    HW230156   4.192   0.687   6.000 -0.7788 -1.0467 -1.7438
 6233SOL     OW30157   2.507   0.646  17.306  0.5142  0.2784  0.2366
 6233SOL    HW130158   2.529   0.557  17.280 -1.7055  0.1722 -1.2565
 6233SOL    HW230159   2.413   0.640  17.324  0.4244 -0.1628 -0.3824
 6234SOL     OW30160   0.891   0.910  17.342  0.3905 -0.1794 -0.4673
 6234SOL    HW130161   0.816   0.925  17.399  0.1785  1.2311 -1.1175
 6234SOL    HW230162   0.953   0.875  17.407 -1.8087  0.1674  1.7948
 6235SOL     OW30163   4.126   1.372   2.672 -0.7411 -0.4728  0.2005
 6235SOL    HW130164   4.087   1.324   2.599  0.1567 -1.9350  0.6831
 6235SOL    HW230165   4.073   1.451   2.671 -0.7560 -0.4828  0.2033
 6236SOL     OW30166   1.384   3.292   1.681  0.4210  0.0972  0.7168
 6236SOL    HW130167   1.436   3.320   1.756  0.3553  1.1412  0.3685
 6236SOL    HW230168   1.434   3.216   1.652  0.8706  0.6580  0.0405
 6237SOL     OW30169   0.039   0.810   0.439 -0.3011 -0.0279 -0.4228
 6237SOL    HW130170   4.702   0.876   0.398 -2.9716 -0.7509  2.1297
 6237SOL    HW230171   0.125   0.852   0.439 -1.4406  2.3160  1.6718
 6238SOL     OW30172   3.101   1.013   7.059  0.7446  0.1001  0.3878
 6238SOL    HW130173   3.132   1.019   7.149 -1.1792 -2.4828  1.2265
 6238SOL    HW230174   3.021   1.065   7.062 -0.2685 -1.4836  0.6981
 6239SOL     OW30175   0.765   2.216   4.392  0.0899  0.6734  0.2824
 6239SOL    HW130176   0.837   2.157   4.371  0.0529  2.1292 -4.0053
 6239SOL    HW230177   0.692   2.170   4.351  1.0793 -1.8540  1.3900
 6240SOL     OW30178   2.483   3.770   0.119 -0.0155 -0.1952 -0.7171
 6240SOL    HW130179   2.435   3.770   0.036 -1.1086 -4.1233 -0.1164
 6240SOL    HW230180   2.433   3.830   0.173 -2.4131 -0.8399 -2.2038
 6241SOL     OW30181   1.149   1.712   9.781  0.5448 -0.3298 -0.0310
 6241SOL    HW130182   1.190   1.719   9.695  0.4265 -0.6447 -0.1137
 6241SOL    HW230183   1.171   1.629   9.822  0.4874 -1.2871 -1.9478
 6242SOL     OW30184   1.698   3.569  16.969 -0.0971  0.5079  0.2360
 6242SOL    HW130185   1.692   3.663  16.954 -3.5486  0.0671 -0.9971
 6242SOL    HW230186   1.777   3.544  16.921 -0.7220  0.9549 -1.0230
 6243SOL     OW30187   3.935   0.478  10.775 -0.5532  0.5335  0.0199
 6243SOL    HW130188   3.855   0.430  10.751  0.4522 -1.2306  0.2639
 6243SOL    HW230189   3.976   0.414  10.832 -1.4483  0.1569  0.2488
 6244SOL     OW30190   4.586   2.013   6.103 -0.7850  0.4877  0.4928
 6244SOL    HW130191   4.664   2.053   6.065 -0.2612 -1.1324 -0.1070
 6244SOL    HW230192   4.632   1.974   6.177 -1.6450 -0.6273  0.4352
 6245SOL     OW30193   0.526   0.149   8.165 -0.4635  0.7409  0.4528
 6245SOL    HW130194   0.534   0.194   8.249 -0.7790 -2.2059  2.0824
 6245SOL    HW230195   0.617   0.118   8.168 -0.6351  0.0608 -1.5965
 6246SOL     OW30196   3.636   1.148  16.651  0.1051  0.0691 -0.1968
 6246SOL    HW130197   3.661   1.056  16.637 -2.2961 -0.6620  0.3277
 6246SOL    HW230198   3.694   1.177  16.721 -0.8463 -0.0683  0.6420
 6247SOL     OW30199   1.608   4.225  14.389  0.2807  0.1005 -0.2313
 6247SOL    HW130200   1.654   4.143  14.373 -0.0706  0.0085 -0.7829
 6247SOL    HW230201   1.671   4.270  14.446 -1.4552  1.0472  0.9656
 6248SOL     OW30202   2.388   3.615   9.267  0.0565  0.4078 -0.0025
 6248SOL    HW130203   2.459   3.551   9.276  1.0188  1.3116 -1.2414
 6248SOL    HW230204   2.402   3.658   9.352  2.2895  0.0399 -0.1716
 6249SOL     OW30205   4.307   4.204   3.989  0.2968  0.6019 -0.2172
 6249SOL    HW130206   4.362   4.196   4.067  0.9939  0.5788 -0.7170
 6249SOL    HW230207   4.376   4.236   3.931  1.9569 -0.2246  1.2872
 6250SOL     OW30208   0.410   1.037  11.438 -0.2267  0.1679 -0.1857
 6250SOL    HW130209   0.488   1.082  11.471 -0.8824  0.4781  0.9469
 6250SOL    HW230210   0.439   0.948  11.458  3.1367  0.9153 -1.6053
 6251SOL     OW30211   0.900   1.925   3.547  0.1782 -0.4229  0.3284
 6251SOL    HW130212   0.987   1.890   3.565  0.1112 -0.2120  1.0355
 6251SOL    HW230213   0.840   1.851   3.562 -0.9721  0.7330  1.4193
 6252SOL     OW30214   1.614   3.898   6.405 -0.7471 -0.2058 -0.1056
 6252SOL    HW130215   1.557   3.873   6.478 -2.8567 -3.5588 -2.8514
 6252SOL    HW230216   1.599   3.992   6.403  0.5465 -0.0209 -0.9579
 6253SOL     OW30217   2.667   1.588  10.376 -0.0547  0.8696  0.3475
 6253SOL    HW130218   2.633   1.677  10.378 -0.4119  0.7102  1.4687
 6253SOL    HW230219   2.640   1.560  10.464  3.7706 -1.2896  0.8579
 6254SOL     OW30220   2.458   1.356   6.140  0.2877 -0.5006  0.2687
 6254SOL    HW130221   2.420   1.285   6.089 -2.0196 -0.2174  1.5985
 6254SOL    HW230222   2.391   1.411   6.181  1.2562  0.8664  0.0326
 6255SOL     OW30223   0.978   1.432   3.213  0.1046 -0.1748 -0.3054
 6255SOL    HW130224   1.009   1.518   3.186  0.7401 -0.1101  0.6504
 6255SOL    HW230225   0.886   1.442   3.188 -0.3103  0.0640  1.3136
 6256SOL     OW30226   0.653   1.533   9.093 -0.6102 -0.1708 -0.0746
 6256SOL    HW130227   0.722   1.600   9.097 -1.3046  0.5846 -0.7416
 6256SOL    HW230228   0.689   1.449   9.123 -3.3381 -1.0336  0.7581
 6257SOL     OW30229   3.339   1.807   4.042 -0.3833  0.0788  0.2028
 6257SOL    HW130230   3.293   1.728   4.015 -1.5481  1.4002 -1.7675
 6257SOL    HW230231   3.415   1.779   4.092 -2.1581 -3.9163  0.5845
 6258SOL     OW30232   3.269   4.121   7.898 -0.1094  0.7814  0.2817
 6258SOL    HW130233   3.311   4.204   7.918 -1.9186  1.8000 -0.1523
 6258SOL    HW230234   3.227   4.147   7.815 -0.7042 -1.9930 -0.2847
 6259SOL     OW30235   0.202   2.432   5.138 -0.1155  0.4202 -0.1760
 6259SOL    HW130236   0.245   2.395   5.061 -0.9370 -2.0882  0.5699
 6259SOL    HW230237   0.250   2.389   5.210 -0.0717  0.0931 -0.4005
 6260SOL     OW30238   1.895   3.249   7.812 -0.7800  0.0538 -0.3716
 6260SOL    HW130239   1.824   3.192   7.839  0.1048  0.3633  2.5526
 6260SOL    HW230240   1.922   3.279   7.898 -1.1207 -0.0799 -0.2171
 6261SOL     OW30241   1.447   4.408   2.092  0.2351  0.1952 -0.2712
 6261SOL    HW130242   1.399   4.465   2.032  0.2913 -1.2912 -1.7371
 6261SOL    HW230243   1.459   4.468   2.165 -0.5023  1.8146 -1.4787
 6262SOL     OW30244   0.419   1.289   3.376 -0.4128 -0.7446  0.4596
 6262SOL    HW130245   0.426   1.296   3.281  4.0386 -0.3514  0.8315
 6262SOL    HW230246   0.499   1.246   3.404  0.4655 -0.5409 -1.7587
 6263SOL     OW30247   0.483   2.957   2.977  0.1754 -0.5383  0.9609
 6263SOL    HW130248   0.524   2.876   2.947  1.2638  1.4141 -2.8146
 6263SOL    HW230249   0.483   3.010   2.898  1.6544 -0.5414  0.9553
 6264SOL     OW30250   3.315   1.618   4.832  0.1073  0.9084  0.2373
 6264SOL    HW130251   3.356   1.560   4.769 -0.1621  0.8127  0.1530
 6264SOL    HW230252   3.225   1.590   4.819  1.1663 -1.8438 -1.2491
 6265SOL     OW30253   0.796   0.247   0.057 -0.0147  0.1659  0.1837
 6265SOL    HW130254   0.720   0.210   0.012  0.7812 -1.7635  0.4157
 6265SOL    HW230255   0.834   0.168   0.097 -0.0409  0.8273  1.5150
 6266SOL     OW30256   1.065   0.102   7.427 -0.0582 -0.2462  0.1126
 6266SOL    HW130257   1.134   0.169   7.428 -0.8941  0.6503 -1.1868
 6266SOL    HW230258   1.112   0.027   7.464 -1.0885 -1.6723 -1.4704
 6267SOL     OW30259   2.881   1.395   2.746 -0.1449  0.1551 -0.2504
 6267SOL    HW130260   2.804   1.346   2.775 -0.8601  0.5388 -1.5034
 6267SOL    HW230261   2.943   1.322   2.740  0.0782  0.3451 -0.2443
 6268SOL     OW30262   2.026   0.195   7.514  0.7032 -0.2985 -0.1508
 6268SOL    HW130263   2.108   0.237   7.488 -0.2887  1.9374  0.2535
 6268SOL    HW230264   2.059   0.119   7.561 -1.1747 -0.2567  1.2862
 6269SOL     OW30265   2.339   4.360  10.069 -0.1244  0.7964 -1.1480
 6269SOL    HW130266   2.428   4.341  10.039 -1.0422 -3.0430 -1.4317
 6269SOL    HW230267   2.359   4.362  10.162 -0.8417  0.5743 -0.9912
 6270SOL     OW30268   2.458   3.795   2.073 -0.0171 -0.0569 -0.5376
 6270SOL    HW130269   2.418   3.792   2.160 -1.3959  0.9153 -1.1210
 6270SOL    HW230270   2.450   3.706   2.039  0.4882  0.1625 -1.2237
 6271SOL     OW30271   3.040   4.408  10.408  0.1606  0.0230  0.2100
 6271SOL    HW130272   3.057   4.335  10.467  3.9898 -0.9417 -2.1728
 6271SOL    HW230273   3.057   4.377  10.319  0.7758  2.7461 -0.6329
 6272SOL     OW30274   3.607   4.545   8.525 -0.2256  0.1636 -0.1745
 6272SOL    HW130275   3.689   4.586   8.554  0.2832 -0.9467 -0.0606
 6272SOL    HW230276   3.638   4.471   8.474  0.2832  0.8407 -0.8541
 6273SOL     OW30277   2.644   2.662   5.161  0.0413 -0.7578  0.1008
 6273SOL    HW130278   2.551   2.658   5.185 -0.0136  0.6721  0.1567
 6273SOL    HW230279   2.645   2.710   5.077  0.7805 -1.0275 -0.0441
 6274SOL     OW30280   0.884   4.537   7.387  0.2191  0.1624 -0.1154
 6274SOL    HW130281   0.885   4.482   7.465 -0.3040 -3.1177 -2.3993
 6274SOL    HW230282   0.961   4.588   7.410  0.8872 -0.5361 -0.7725
 6275SOL     OW30283   3.233   0.443  10.289 -0.2517 -0.0771 -0.1951
 6275SOL    HW130284   3.221   0.349  10.276  1.3259 -0.1942 -0.7944
 6275SOL    HW230285   3.171   0.452  10.361 -1.1938  2.1256 -1.2924
 6276SOL     OW30286   2.243   1.702   4.085 -0.7335 -0.0593  0.5489
 6276SOL    HW130287   2.191   1.628   4.114  0.8746  0.2784  4.3588
 6276SOL    HW230288   2.183   1.774   4.065 -0.1003  0.4913  0.6211
 6277SOL     OW30289   0.538   1.936   2.594  0.3817  0.4282 -0.1155
 6277SOL    HW130290   0.498   1.922   2.509  1.5210  1.0390 -0.7478
 6277SOL    HW230291   0.465   1.984   2.633 -2.1096 -0.6043 -3.4900
 6278SOL     OW30292   0.246   3.045  13.754  0.4078 -0.4066  0.7132
 6278SOL    HW130293   0.192   3.123  13.763  1.2303  0.3098 -0.5305
 6278SOL    HW230294   0.270   3.048  13.662  0.0355 -3.6016  0.5067
 6279SOL     OW30295   2.816   2.239   3.554  0.4514  0.0199 -0.2353
 6279SOL    HW130296   2.892   2.278   3.598  0.5983 -0.6963  0.1457
 6279SOL    HW230297   2.819   2.160   3.608  0.2226  0.6229  0.6621
 6280SOL     OW30298   1.297   1.702   9.554 -0.8068 -0.2997 -0.1945
 6280SOL    HW130299   1.385   1.670   9.574  0.3093  1.7823 -1.7504
 6280SOL    HW230300   1.309   1.738   9.465 -3.5247  2.3939  0.5207
 6281SOL     OW30301   2.978   1.091   3.631  0.2617  0.2667 -1.0659
 6281SOL    HW130302   2.945   1.042   3.706  0.4329  2.5775  0.5239
 6281SOL    HW230303   3.020   1.160   3.683  0.1636 -0.8384  0.4696
 6282SOL     OW30304   0.404   0.735   5.908  0.2002 -0.6029  0.1414
 6282SOL    HW130305   0.493   0.726   5.943  0.2273  2.4928  0.8991
 6282SOL    HW230306   0.374   0.798   5.974 -0.6317  0.2968 -1.1077
 6283SOL     OW30307   0.555   0.901   7.988  0.3685  0.0790 -0.0614
 6283SOL    HW130308   0.527   0.890   7.897  0.5257 -0.2353 -0.0699
 6283SOL    HW230309   0.493   0.842   8.032 -1.4108  1.8403 -0.1992
 6284SOL     OW30310   3.123   3.223   7.025 -0.3932  0.2035  0.0454
 6284SOL    HW130311   3.056   3.255   7.086 -1.8436  2.3137 -2.6792
 6284SOL    HW230312   3.093   3.133   7.011 -2.0530  0.9410 -1.0696
 6285SOL     OW30313   3.981   0.970   1.835 -0.3876  0.2209 -0.5884
 6285SOL    HW130314   3.968   0.921   1.754 -2.9455  4.1538 -2.5842
 6285SOL    HW230315   3.957   1.058   1.805 -2.4938 -0.4979 -1.0766
 6286SOL     OW30316   3.631   4.560   2.460 -0.4851 -0.0790 -0.3928
 6286SOL    HW130317   3.717   4.562   2.504 -0.0236 -2.2098 -1.1847
 6286SOL    HW230318   3.654   4.587   2.371  2.8075  1.1327  0.8216
 6287SOL     OW30319   0.667   0.753   5.557  0.1017 -0.0386 -0.6552
 6287SOL    HW130320   0.593   0.733   5.615 -0.8575 -1.2008 -2.2911
 6287SOL    HW230321   0.620   0.807   5.494  2.8339  1.6891 -1.1708
 6288SOL     OW30322   1.561   3.152   8.599 -0.2138 -0.2980  0.0828
 6288SOL    HW130323   1.634   3.089   8.600  0.0744  0.0291 -0.2338
 6288SOL    HW230324   1.487   3.093   8.588 -1.7561  1.6829 -0.0491
 6289SOL     OW30325   4.199   2.859   7.037 -0.0295 -0.3180 -0.5743
 6289SOL    HW130326   4.205   2.769   7.069  2.3926  0.3542  0.8558
 6289SOL    HW230327   4.288   2.879   7.008 -0.0966  0.7818 -0.0215
 6290SOL     OW30328   0.774   1.318   5.179  0.0351  0.7137 -0.5520
 6290SOL    HW130329   0.820   1.328   5.096 -1.8798  0.9754 -1.5567
 6290SOL    HW230330   0.690   1.282   5.152  1.6023 -2.0347 -1.7414
 6291SOL     OW30331   1.850   4.678   2.509  0.2210  0.1549  0.2813
 6291SOL    HW130332   1.845   0.031   2.448 -1.2431 -0.4672 -0.3605
 6291SOL    HW230333   1.916   4.630   2.460  0.6540  1.6168 -0.5638
 6292SOL     OW30334   2.944   0.622   6.957 -0.0425 -0.4046  0.0823
 6292SOL    HW130335   2.992   0.614   7.039  1.0663  0.6977 -0.4799
 6292SOL    HW230336   3.003   0.670   6.900 -0.6222 -1.6217 -1.5313
 6293SOL     OW30337   2.325   1.877   6.601 -1.1045  0.2915 -0.4919
 6293SOL    HW130338   2.341   1.961   6.645 -0.4461 -0.0115 -0.1440
 6293SOL    HW230339   2.412   1.839   6.589 -1.0689 -0.0589  0.8381
 6294SOL     OW30340   1.011   0.855  17.671  0.2034 -0.9134 -0.3596
 6294SOL    HW130341   1.068   0.932  17.671 -2.3218  0.9272 -2.8233
 6294SOL    HW230342   0.944   0.873   0.052  0.4139 -0.7240 -0.1941
 6295SOL     OW30343   0.890   2.449   4.370  0.0531 -0.6056  0.1514
 6295SOL    HW130344   0.835   2.372   4.365  1.0662 -1.4355  1.9330
 6295SOL    HW230345   0.939   2.451   4.288 -1.3503 -0.6443 -0.6775
 6296SOL     OW30346   3.936   4.539   3.644  0.2288  0.7438  0.8855
 6296SOL    HW130347   3.892   4.475   3.699 -0.8298  3.2484  2.9972
 6296SOL    HW230348   3.987   4.474   3.596  1.0731  0.4906  2.1260
 6297SOL     OW30349   1.894   4.372   3.107  0.4708 -0.1820  0.0488
 6297SOL    HW130350   1.862   4.380   3.017 -0.4322 -0.3262  0.3526
 6297SOL    HW230351   1.906   4.280   3.128 -0.3636  0.1899  2.0966
 6298SOL     OW30352   4.189   4.397   6.117 -0.0668  0.3157 -0.2353
 6298SOL    HW130353   4.161   4.334   6.183 -0.3750  2.8025  1.9920
 6298SOL    HW230354   4.248   4.349   6.059  1.6962 -0.9889  2.6289
 6299SOL     OW30355   0.261   1.350   2.379 -0.0259  0.3776 -0.2069
 6299SOL    HW130356   0.321   1.360   2.453 -1.1317 -1.0566  0.8970
 6299SOL    HW230357   0.175   1.328   2.415 -0.6002  1.1985 -1.0536
 6300SOL     OW30358   1.316   0.513   4.821 -0.1325 -0.3083 -0.4909
 6300SOL    HW130359   1.240   0.476   4.867 -0.6462  1.8078  0.3316
 6300SOL    HW230360   1.299   0.466   4.739 -0.8678 -1.1414  0.1336
 6301SOL     OW30361   1.526   4.602  11.704 -0.0391 -0.1248 -0.1432
 6301SOL    HW130362   1.476   4.522  11.687  0.0074  0.0111 -0.9510
 6301SOL    HW230363   1.614   4.567  11.720  0.1162  0.6420  0.6810
 6302SOL     OW30364   0.013   3.680   7.234  0.2469 -0.0984 -0.5335
 6302SOL    HW130365   4.654   3.662   7.182  0.1302 -0.0330 -0.3783
 6302SOL    HW230366   0.022   3.776   7.229 -0.4698 -0.1446 -2.7820
 6303SOL     OW30367   3.047   2.553   5.211 -0.3055  0.2328  0.1586
 6303SOL    HW130368   3.068   2.599   5.130 -0.4007 -1.8809 -1.0859
 6303SOL    HW230369   3.111   2.592   5.271  1.4112  2.0633 -2.8617
 6304SOL     OW30370   4.644   4.631  17.190 -0.8204  0.8015  0.1519
 6304SOL    HW130371   4.631   4.557  17.130 -0.0645 -0.3926  1.4646
 6304SOL    HW230372   0.017   4.647  17.175 -0.9773  3.4009  2.0310
 6305SOL     OW30373   2.990   0.802   1.429  0.3028  0.3820 -0.2499
 6305SOL    HW130374   3.028   0.845   1.506  0.3130 -1.8906  1.0504
 6305SOL    HW230375   2.913   0.773   1.478  0.0885  1.4156  0.0222
 6306SOL     OW30376   0.673   0.552  16.638  0.0191  0.9915  0.2921
 6306SOL    HW130377   0.767   0.549  16.621  0.0986  1.0058  0.7558
 6306SOL    HW230378   0.665   0.610  16.713  1.2203  1.0888  0.3464
 6307SOL     OW30379   2.298   2.886   4.474 -0.3836 -0.5903 -0.0429
 6307SOL    HW130380   2.285   2.808   4.528  0.1560 -0.8592 -0.3007
 6307SOL    HW230381   2.225   2.938   4.506  0.0462  0.0590 -0.1228
 6308SOL     OW30382   1.217   2.714   3.723 -0.8374  0.8029  0.1585
 6308SOL    HW130383   1.163   2.723   3.801  1.2515  1.2048  1.5717
 6308SOL    HW230384   1.147   2.673   3.673  0.9048 -0.4686 -1.2357
 6309SOL     OW30385   0.086   2.844   6.831  0.0086 -0.3746 -0.5330
 6309SOL    HW130386   0.063   2.929   6.793  0.0460  0.1703  0.6489
 6309SOL    HW230387   0.019   2.833   6.898  0.2368  3.6434  0.3902
 6310SOL     OW30388   1.876   2.233   8.666 -0.5007 -0.2184 -0.1110
 6310SOL    HW130389   1.908   2.267   8.749 -3.3531 -0.6745  1.1566
 6310SOL    HW230390   1.941   2.275   8.609  0.7769  0.8790  2.1788
 6311SOL     OW30391   3.728   2.615  10.587 -0.5649 -0.0434  0.2657
 6311SOL    HW130392   3.641   2.577  10.577 -0.0543 -1.5927  1.6049
 6311SOL    HW230393   3.725   2.694  10.533  0.8849  0.2962  0.6749
 6312SOL     OW30394   1.334   0.377   4.339  0.2029 -0.4553  0.3753
 6312SOL    HW130395   1.268   0.331   4.288  1.8653 -0.4877 -1.7422
 6312SOL    HW230396   1.406   0.381   4.277 -1.4776  0.0946 -1.5171
 6313SOL     OW30397   1.057   2.929  11.136 -0.3250  0.3110  0.3901
 6313SOL    HW130398   1.142   2.974  11.142 -0.7035  1.1963 -0.7651
 6313SOL    HW230399   1.000   3.004  11.154  0.2690  0.7281  0.5394
 6314SOL     OW30400   1.861   1.543   4.063  0.0717  0.5378 -0.0874
 6314SOL    HW130401   1.878   1.455   4.095  1.4820  0.4425 -1.0755
 6314SOL    HW230402   1.767   1.541   4.082  0.3163  3.3462  1.3940
 6315SOL     OW30403   0.868   1.347   2.777  0.1977 -0.1611  0.2764
 6315SOL    HW130404   0.775   1.342   2.802  0.8953 -3.4217  2.2156
 6315SOL    HW230405   0.904   1.295   2.848 -1.7192 -1.6286  0.1663
 6316SOL     OW30406   3.563   0.072   9.506 -0.2619  0.6781  0.1632
 6316SOL    HW130407   3.588   0.000   9.448  1.2940  0.8781  0.5846
 6316SOL    HW230408   3.509   0.020   9.565 -1.8831  0.0641 -1.8927
 6317SOL     OW30409   3.167   0.961   4.846  0.3377 -0.3581 -0.3155
 6317SOL    HW130410   3.146   0.887   4.788  0.6520 -1.1590  0.5880
 6317SOL    HW230411   3.173   0.927   4.935 -1.9854  1.8116  0.6634
 6318SOL     OW30412   2.326   4.139   3.056 -0.4538 -0.4170 -0.3873
 6318SOL    HW130413   2.374   4.196   3.116 -1.9680  0.3337  0.1294
 6318SOL    HW230414   2.268   4.090   3.115  0.8989 -0.0788  1.2326
 6319SOL     OW30415   4.194   1.063   2.056  0.3382  0.3433  0.1038
 6319SOL    HW130416   4.267   1.090   2.113 -1.2360  0.4016  2.1004
 6319SOL    HW230417   4.244   1.063   1.974 -1.6924 -1.1639 -1.1149
 6320SOL     OW30418   4.273   0.895  12.628 -0.1796 -0.4407  0.6789
 6320SOL    HW130419   4.312   0.965  12.576 -0.9253  1.0082  2.0955
 6320SOL    HW230420   4.342   0.901  12.695  0.9129  0.9218 -0.5637
 6321SOL     OW30421   1.957   1.581   2.340 -0.2013 -0.0176 -0.0030
 6321SOL    HW130422   1.867   1.583   2.307 -0.3153 -0.7326  0.2656
 6321SOL    HW230423   1.979   1.663   2.294 -2.3847 -0.0309 -1.0719
 6322SOL     OW30424   1.988   2.539   0.831 -0.0555  0.0374 -0.2100
 6322SOL    HW130425   1.970   2.629   0.803  0.9316  0.5238  0.7267
 6322SOL    HW230426   2.031   2.554   0.915 -0.7724 -0.3712  0.2250
 6323SOL     OW30427   4.708   1.833   3.135  1.2014  0.1864 -0.2103
 6323SOL    HW130428   4.680   1.833   3.226 -1.4464 -0.8549 -1.0107
 6323SOL    HW230429   4.653   1.764   3.097 -0.2735  0.6033  1.1857
 6324SOL     OW30430   3.428   0.456  13.463 -0.1976 -0.1439 -0.2922
 6324SOL    HW130431   3.516   0.438  13.430  0.8941  1.0217  2.0169
 6324SOL    HW230432   3.391   0.483  13.379 -2.1788  1.4749  1.1061
 6325SOL     OW30433   3.386   1.965   6.552  0.1733 -0.0612  0.4110
 6325SOL    HW130434   3.473   1.974   6.591 -0.0235  1.9723  0.3897
 6325SOL    HW230435   3.400   1.995   6.462 -1.8257 -1.1339 -0.2490
 6326SOL     OW30436   0.813   4.001   7.020  0.3552  0.3246 -0.0660
 6326SOL    HW130437   0.875   4.063   6.980 -0.9398  0.7399 -1.4282
 6326SOL    HW230438   0.739   4.061   7.023 -1.8865 -2.3129 -4.1762
 6327SOL     OW30439   2.095   1.976   5.055 -0.1491 -0.2935 -0.3177
 6327SOL    HW130440   2.066   1.969   4.964  0.6928  0.4836 -0.6515
 6327SOL    HW230441   2.134   2.064   5.059  0.3977 -0.4998 -1.2221
 6328SOL     OW30442   2.195   1.462   3.835 -0.1321  0.5385  0.4858
 6328SOL    HW130443   2.266   1.517   3.802 -2.6034  2.4597 -1.5861
 6328SOL    HW230444   2.212   1.476   3.929 -0.3777 -1.5657  0.8570
 6329SOL     OW30445   3.510   0.598   8.791 -0.4118  0.4562 -0.4960
 6329SOL    HW130446   3.439   0.539   8.817  0.0450  0.1494  0.0530
 6329SOL    HW230447   3.484   0.671   8.848 -0.7930 -0.5134  0.5653
 6330SOL     OW30448   1.215   4.207   6.470  0.0683 -0.0725  0.2187
 6330SOL    HW130449   1.302   4.247   6.471 -0.2923  0.7272 -0.7003
 6330SOL    HW230450   1.193   4.248   6.387  2.4494  0.0998 -0.3371
 6331SOL     OW30451   3.006   3.376  17.125  0.2500 -0.1648  0.3543
 6331SOL    HW130452   3.014   3.449  17.186 -1.0033 -0.0313  0.3566
 6331SOL    HW230453   3.072   3.315  17.160 -0.5451 -0.3316  1.5689
 6332SOL     OW30454   3.159   1.927   2.100 -0.0823  0.5140  0.1554
 6332SOL    HW130455   3.098   1.873   2.150  0.9067 -1.4432 -0.7348
 6332SOL    HW230456   3.106   1.938   2.021 -0.0303 -0.9092 -0.0737
 6333SOL     OW30457   0.778   2.571  15.835  0.4242 -0.2003 -0.1250
 6333SOL    HW130458   0.692   2.612  15.833  0.1141 -0.9550 -2.4335
 6333SOL    HW230459   0.819   2.657  15.824  0.0851 -0.1205 -0.7965
 6334SOL     OW30460   3.465   0.324   7.021  0.1084  0.2421 -0.1873
 6334SOL    HW130461   3.378   0.363   7.018 -0.3884 -0.9284 -0.6731
 6334SOL    HW230462   3.454   0.248   7.079 -1.5821  1.2799  0.8489
 6335SOL     OW30463   0.269   1.070   3.775 -0.5375  0.2029 -0.5741
 6335SOL    HW130464   0.317   1.010   3.717 -1.2471 -0.8436 -0.0821
 6335SOL    HW230465   0.335   1.137   3.790 -0.8812  0.6767 -1.1465
 6336SOL     OW30466   3.703   0.468  14.688 -0.6149 -0.2396 -0.5057
 6336SOL    HW130467   3.696   0.530  14.761  3.1885  0.8145 -1.0368
 6336SOL    HW230468   3.631   0.495  14.630 -0.4944  1.5927  0.1996
 6337SOL     OW30469   0.718   0.589   8.678 -0.2210 -0.5550  0.3775
 6337SOL    HW130470   0.647   0.647   8.650 -1.7489 -3.1600 -1.0578
 6337SOL    HW230471   0.699   0.501   8.646  1.0535 -1.1691  1.2953
 6338SOL     OW30472   3.927   0.495   3.582 -0.2119 -0.0006 -0.1921
 6338SOL    HW130473   3.927   0.585   3.616 -2.3141 -0.4256  0.8687
 6338SOL    HW230474   3.849   0.485   3.528 -0.2657  1.2898 -0.3717
 6339SOL     OW30475   2.841   2.983   4.256  0.1543 -0.2017  0.1705
 6339SOL    HW130476   2.773   2.968   4.322 -1.6606 -1.5315 -2.0131
 6339SOL    HW230477   2.789   3.026   4.188 -0.2886  0.1735  0.7411
 6340SOL     OW30478   0.462   4.700   5.268 -0.0143  0.1340 -0.5964
 6340SOL    HW130479   0.520   4.626   5.253 -1.3314 -0.6838 -1.6616
 6340SOL    HW230480   0.523   0.048   5.295  0.0587  0.7083 -2.1544
 6341SOL     OW30481   3.211   2.166   9.627  0.0573  0.7975 -0.0173
 6341SOL    HW130482   3.283   2.206   9.676  0.5392 -1.8336  1.3970
 6341SOL    HW230483   3.252   2.123   9.552 -1.9158  1.3461 -1.4407
 6342SOL     OW30484   2.745   0.453   4.538  0.0260 -0.5594  0.1347
 6342SOL    HW130485   2.752   0.492   4.626 -0.6321 -1.7136  0.7066
 6342SOL    HW230486   2.769   0.362   4.559  0.2603 -0.5224  0.0192
 6343SOL     OW30487   0.664   1.638   5.750  0.0437 -0.0253  0.5914
 6343SOL    HW130488   0.626   1.564   5.797  1.1508 -1.1288 -0.2508
 6343SOL    HW230489   0.647   1.614   5.658  0.3726 -1.4139  0.8992
 6344SOL     OW30490   3.575   3.190   6.078 -0.0822  0.2165 -0.3015
 6344SOL    HW130491   3.496   3.149   6.042 -0.2854 -0.9650  1.4776
 6344SOL    HW230492   3.634   3.192   6.003  0.4796 -0.8311  0.1009
 6345SOL     OW30493   2.049   1.217   5.096 -0.2717  0.0820 -0.5103
 6345SOL    HW130494   2.123   1.270   5.067 -1.0730  1.3749 -0.1771
 6345SOL    HW230495   2.090   1.131   5.106  1.7635  1.0413 -0.6263
 6346SOL     OW30496   2.084   1.561   6.353  0.2285  0.4128 -0.0967
 6346SOL    HW130497   2.110   1.600   6.436 -1.0546  2.1518 -0.5181
 6346SOL    HW230498   2.012   1.511   6.392  0.1206 -0.7785 -1.7970
 6347SOL     OW30499   2.842   2.490  15.617  0.4200  0.1520  0.4301
 6347SOL    HW130500   2.823   2.401  15.647  0.6032 -0.2310 -0.5856
 6347SOL    HW230501   2.755   2.510  15.580  0.7452  0.6311 -0.0767
 6348SOL     OW30502   4.284   3.489   6.313  0.1590 -0.3062 -0.2663
 6348SOL    HW130503   4.339   3.429   6.262 -0.0349  0.2059 -1.0799
 6348SOL    HW230504   4.339   3.550   6.362 -1.2557  2.5855 -2.2612
 6349SOL     OW30505   1.563   2.422   4.804 -0.2961 -0.0450  0.4303
 6349SOL    HW130506   1.623   2.487   4.842  0.9340 -0.8081 -0.2050
 6349SOL    HW230507   1.614   2.347   4.775  0.0406 -0.6039  2.4942
 6350SOL     OW30508   3.274   3.805   4.336 -0.0743 -0.4227 -0.1493
 6350SOL    HW130509   3.350   3.749   4.318 -0.6236 -1.3808  0.4998
 6350SOL    HW230510   3.209   3.739   4.312  0.0966 -1.2787  1.8011
 6351SOL     OW30511   1.077   1.229   7.533 -0.6055  0.2118 -0.1109
 6351SOL    HW130512   1.086   1.202   7.442  0.0030  0.1485 -0.0282
 6351SOL    HW230513   0.983   1.211   7.538 -0.2710 -1.8676 -1.0310
 6352SOL     OW30514   4.626   3.261   4.872  0.0391 -0.6854 -0.1056
 6352SOL    HW130515   4.542   3.276   4.829 -0.5568 -0.2221  1.2089
 6352SOL    HW230516   4.599   3.274   4.963 -1.1499 -1.3540 -0.3640
 6353SOL     OW30517   4.637   1.894  17.521 -0.0361 -0.1171  0.1400
 6353SOL    HW130518   4.636   1.985  17.548 -0.1413  0.4421 -1.8041
 6353SOL    HW230519   4.542   1.879  17.522 -0.2879  1.4239 -0.8864
 6354SOL     OW30520   1.738   2.982   8.956 -0.3482 -0.3439  0.0856
 6354SOL    HW130521   1.786   3.059   8.925 -1.3088  0.6869  1.1579
 6354SOL    HW230522   1.728   2.933   8.874  0.8038  0.4907 -0.5549
 6355SOL     OW30523   0.236   2.444   2.018 -0.6137 -0.3588 -0.3057
 6355SOL    HW130524   0.325   2.477   2.034 -1.3698  1.2294  0.6474
 6355SOL    HW230525   0.199   2.521   1.975 -2.7633 -0.3391  1.5762
 6356SOL     OW30526   0.590   3.476   0.398 -0.5610 -0.0072 -0.1520
 6356SOL    HW130527   0.522   3.422   0.438  1.6462 -3.6905 -1.4528
 6356SOL    HW230528   0.560   3.501   0.311 -1.2687 -0.3570 -0.0074
 6357SOL     OW30529   0.568   3.602   3.518 -0.2911 -0.5206 -0.8684
 6357SOL    HW130530   0.508   3.631   3.449 -0.5549  1.6684  0.2795
 6357SOL    HW230531   0.624   3.679   3.533  1.2217 -1.9754  1.0514
 6358SOL     OW30532   2.312   1.084   7.514  0.2970 -0.1483  0.2210
 6358SOL    HW130533   2.304   1.001   7.466 -1.6783 -1.3100  2.5879
 6358SOL    HW230534   2.227   1.123   7.497  0.3048 -0.9720 -1.7764
 6359SOL     OW30535   4.095   3.021   3.412 -0.2660  0.1855  0.1237
 6359SOL    HW130536   4.079   2.948   3.352 -0.0207  2.7566 -3.0686
 6359SOL    HW230537   4.115   2.971   3.491  0.6056  0.1313 -0.1332
 6360SOL     OW30538   1.906   0.883   1.880 -0.3308  0.0806  0.0209
 6360SOL    HW130539   1.992   0.883   1.839 -0.4823 -2.6977 -0.2512
 6360SOL    HW230540   1.858   0.837   1.811  0.7681  0.2640 -0.8589
 6361SOL     OW30541   4.049   4.033   4.937 -0.6665  0.4720  0.1060
 6361SOL    HW130542   4.055   3.948   4.893  0.4469  0.3312  0.5514
 6361SOL    HW230543   4.013   4.006   5.021 -1.0751  0.3691 -0.0983
 6362SOL     OW30544   2.635   2.512  12.020 -0.2621  0.5891  0.5882
 6362SOL    HW130545   2.614   2.542  12.108  0.2491  2.2605  0.1475
 6362SOL    HW230546   2.617   2.586  11.962  0.8874  0.3713 -0.0575
 6363SOL     OW30547   3.303   1.600   5.582  0.4154  0.1199  0.4613
 6363SOL    HW130548   3.365   1.672   5.591  1.5249 -0.7814 -0.0405
 6363SOL    HW230549   3.270   1.603   5.672 -0.7979 -1.7143  0.0695
 6364SOL     OW30550   2.010   1.081   5.369 -0.0421 -0.4121 -0.2966
 6364SOL    HW130551   2.066   1.024   5.420 -0.9257 -0.2105  0.8935
 6364SOL    HW230552   1.985   1.032   5.290 -1.4253 -0.5863  0.2477
 6365SOL     OW30553   3.526   2.439   8.505  0.0717  0.1316 -0.7668
 6365SOL    HW130554   3.524   2.426   8.600  0.4953  1.0260 -0.6373
 6365SOL    HW230555   3.510   2.350   8.473 -1.7230  0.1738 -0.0008
 6366SOL     OW30556   0.785   1.522  11.616  0.4535 -0.5851 -0.0278
 6366SOL    HW130557   0.835   1.571  11.551 -0.6118  0.4202 -0.1034
 6366SOL    HW230558   0.863   1.476  11.646  0.6452 -0.9625 -1.1111
 6367SOL     OW30559   1.493   1.781   5.633  0.5628  0.0629 -0.2926
 6367SOL    HW130560   1.503   1.848   5.701 -1.9088  1.4296 -1.2476
 6367SOL    HW230561   1.569   1.791   5.575 -0.0285  0.4844 -1.0072
 6368SOL     OW30562   1.940   3.609   4.994  0.3291 -0.2788 -0.4172
 6368SOL    HW130563   1.970   3.653   4.914  0.9468 -0.5575 -0.3392
 6368SOL    HW230564   1.954   3.515   4.979 -0.3588 -0.5423  0.6032
 6369SOL     OW30565   0.607   0.614   5.168 -0.2417  0.3881 -0.0528
 6369SOL    HW130566   0.550   0.597   5.243 -1.0894 -2.5120 -1.3631
 6369SOL    HW230567   0.651   0.697   5.187 -0.7314  0.0567  2.5445
 6370SOL     OW30568   3.139   1.620  17.492 -0.0216 -0.1191  0.1749
 6370SOL    HW130569   3.117   1.541  17.442 -0.5106 -0.7251  1.3395
 6370SOL    HW230570   3.083   1.611  17.569 -1.6290 -0.7271 -1.0416
 6371SOL     OW30571   0.342   1.057   4.796  0.3937  0.9475  0.0716
 6371SOL    HW130572   0.330   1.034   4.704 -2.0102 -0.8659  0.8191
 6371SOL    HW230573   0.312   0.977   4.841  0.2963  1.3972  0.8048
 6372SOL     OW30574   2.690   2.851  16.993  0.5985 -0.6337 -0.8923
 6372SOL    HW130575   2.742   2.772  16.979  0.3718 -0.4655 -2.7640
 6372SOL    HW230576   2.725   2.908  16.924 -0.1392 -0.4821 -1.1361
 6373SOL     OW30577   0.492   4.667   9.495  0.0797 -0.1572 -0.1115
 6373SOL    HW130578   0.466   0.010   9.428 -1.0818 -0.9050 -0.3657
 6373SOL    HW230579   0.441   4.686   9.574  0.9787  1.2763  0.1330
 6374SOL     OW30580   0.946   2.930   3.917 -0.0610 -0.7120 -0.0073
 6374SOL    HW130581   0.872   2.957   3.971 -0.3521  0.9984 -1.2588
 6374SOL    HW230582   0.952   2.838   3.944  2.8010 -0.8307 -1.0114
 6375SOL     OW30583   0.047   2.397  13.201 -0.3426  0.6461 -0.0834
 6375SOL    HW130584   0.032   2.490  13.188 -0.3119  0.7348  0.5528
 6375SOL    HW230585   0.090   2.379  13.117 -0.3948  3.0371 -0.6264
 6376SOL     OW30586   3.590   1.448  16.636 -0.2099  0.2120 -0.2165
 6376SOL    HW130587   3.685   1.438  16.628 -0.2809 -0.6186 -0.0138
 6376SOL    HW230588   3.579   1.543  16.635 -0.7725  0.1440 -0.0046
 6377SOL     OW30589   2.403   3.380   5.066 -0.0871  0.0961  0.1907
 6377SOL    HW130590   2.351   3.395   4.987 -0.9749 -0.9212  0.5730
 6377SOL    HW230591   2.368   3.442   5.129  1.4324  1.0242  0.1081
 6378SOL     OW30592   2.116   0.472   7.288  0.6352 -0.3993  0.0564
 6378SOL    HW130593   2.117   0.378   7.268 -1.5400 -0.3505 -0.3428
 6378SOL    HW230594   2.116   0.513   7.201 -1.7975  1.2379  0.8133
 6379SOL     OW30595   0.746   2.462   5.194 -0.3954  0.0213  0.9206
 6379SOL    HW130596   0.796   2.536   5.160 -0.2254 -1.1148 -1.2386
 6379SOL    HW230597   0.775   2.386   5.144  0.0477 -0.3995  1.8156
 6380SOL     OW30598   2.894   4.175   1.290  0.0187  0.5884 -0.9300
 6380SOL    HW130599   2.887   4.206   1.200 -1.2592  0.3015 -0.9384
 6380SOL    HW230600   2.840   4.096   1.290 -0.6253  1.0172  0.2936
 6381SOL     OW30601   1.279   1.309   6.576 -0.1567  0.4353  0.3614
 6381SOL    HW130602   1.196   1.276   6.543  0.7876 -1.4136 -0.1809
 6381SOL    HW230603   1.256   1.329   6.667  0.6008 -2.1360  1.1337
 6382SOL     OW30604   1.934   4.260   7.730  0.0901  0.0005  1.0336
 6382SOL    HW130605   1.918   4.327   7.663 -2.2760 -0.5310  1.0427
 6382SOL    HW230606   1.858   4.263   7.788 -1.6181 -2.2756 -1.0899
 6383SOL     OW30607   1.302   4.103   3.885 -0.2498  0.5930 -0.1191
 6383SOL    HW130608   1.321   4.103   3.979 -1.5175 -1.3908  0.1259
 6383SOL    HW230609   1.369   4.044   3.850  1.9306  1.5851  2.3695
 6384SOL     OW30610   2.535   4.443   7.051  0.1161  0.0564 -0.1036
 6384SOL    HW130611   2.503   4.482   6.970 -0.5871  0.7743  0.5159
 6384SOL    HW230612   2.459   4.470   7.103  0.3181  0.0728  0.1882
 6385SOL     OW30613   1.885   2.533  12.660  0.4648  0.0100 -0.0525
 6385SOL    HW130614   1.831   2.567  12.731 -0.7003  0.2606 -1.0625
 6385SOL    HW230615   1.975   2.550  12.686  1.0059  1.0504 -2.5668
 6386SOL     OW30616   1.758   3.025  11.416 -0.4555  0.0712  0.5071
 6386SOL    HW130617   1.717   2.939  11.412 -2.8154  1.2462 -1.0578
 6386SOL    HW230618   1.845   3.007  11.452  0.1248 -1.6053 -1.6753
 6387SOL     OW30619   0.819   4.169   3.544  0.0534 -0.8011  0.1173
 6387SOL    HW130620   0.809   4.127   3.629 -0.3267 -1.3396 -0.1943
 6387SOL    HW230621   0.819   4.091   3.488 -0.6413  0.2077 -1.2894
 6388SOL     OW30622   2.673   2.482   2.905 -0.1566  0.2599  0.5041
 6388SOL    HW130623   2.703   2.430   2.831 -0.8422 -1.3041  1.3072
 6388SOL    HW230624   2.638   2.416   2.966 -1.9923  0.6401 -0.1557
 6389SOL     OW30625   1.797   4.410   4.372  0.5426  0.0282 -0.0052
 6389SOL    HW130626   1.724   4.449   4.420  1.3273  0.0619  1.1582
 6389SOL    HW230627   1.788   4.466   4.294 -1.3447  1.0540  0.9514
 6390SOL     OW30628   4.491   1.622   7.723 -0.2968  0.8825  0.0605
 6390SOL    HW130629   4.471   1.551   7.783  0.2104  1.4637  0.9260
 6390SOL    HW230630   4.499   1.581   7.637  1.5038  1.4760 -0.0547
 6391SOL     OW30631   1.444   4.648   5.322  0.3011 -0.3281 -0.2109
 6391SOL    HW130632   1.460   4.715   5.388  0.2410 -1.2761  0.7591
 6391SOL    HW230633   1.501   4.680   5.252 -0.9192  4.0167  0.8180
 6392SOL     OW30634   0.490   3.579   0.097  0.1612 -0.1466 -0.0193
 6392SOL    HW130635   0.405   3.576   0.141  0.2230  1.5865  0.2461
 6392SOL    HW230636   0.491   3.673   0.078 -3.0300  0.0249  0.6806
 6393SOL     OW30637   2.287   3.838  17.259 -0.7570 -0.2142 -0.1849
 6393SOL    HW130638   2.269   3.877  17.345  1.6291  3.3749 -1.3231
 6393SOL    HW230639   2.200   3.836  17.220 -0.5823 -1.8787 -0.4969
 6394SOL     OW30640   1.429   0.208  11.100  0.1841  0.1843 -0.1063
 6394SOL    HW130641   1.490   0.249  11.160  0.7871 -2.0962  0.8540
 6394SOL    HW230642   1.489   0.144  11.060  0.2239  0.2773 -0.1952
 6395SOL     OW30643   2.378   4.670   2.673 -0.4552  0.1499 -0.0158
 6395SOL    HW130644   2.339   0.037   2.671  0.3211  0.4634 -1.3078
 6395SOL    HW230645   2.345   4.624   2.596  1.4931 -0.2900 -0.5728
 6396SOL     OW30646   0.484   0.277   5.823  0.5651  0.0149  0.1633
 6396SOL    HW130647   0.451   0.195   5.788 -1.0136  0.7702 -0.1248
 6396SOL    HW230648   0.404   0.316   5.860 -0.2603 -1.4423 -0.1134
 6397SOL     OW30649   2.194   2.934   4.154  0.4844  0.1902 -0.0036
 6397SOL    HW130650   2.266   2.873   4.138  1.6517  1.4625  0.3885
 6397SOL    HW230651   2.150   2.910   4.236  1.4332  0.4574  0.5865
 6398SOL     OW30652   3.876   4.036   5.152  0.2292  0.3085  0.0531
 6398SOL    HW130653   3.805   4.069   5.207 -0.1537  1.4797 -1.1292
 6398SOL    HW230654   3.891   3.943   5.166  2.4515  0.6571  0.0544
 6399SOL     OW30655   1.411   3.728   5.056 -0.0468  0.0998  0.4239
 6399SOL    HW130656   1.496   3.700   5.092  0.5776  0.6181 -0.6501
 6399SOL    HW230657   1.396   3.670   4.981 -1.2386  1.5338 -0.4414
 6400SOL     OW30658   0.338   3.047   9.152 -0.2326  0.4066  0.5019
 6400SOL    HW130659   0.248   3.046   9.186  1.0645 -0.2020  3.8246
 6400SOL    HW230660   0.385   3.015   9.228 -0.1267  3.1510  1.6004
 6401SOL     OW30661   4.442   2.611   7.503  0.3876 -0.2150  0.1870
 6401SOL    HW130662   4.429   2.696   7.544 -1.5028  0.7824 -2.5233
 6401SOL    HW230663   4.359   2.604   7.455 -0.0941  1.6924  0.7714
 6402SOL     OW30664   1.090   3.226   1.886  0.1151  0.2211  0.4863
 6402SOL    HW130665   1.087   3.266   1.799  0.8870  0.4479  0.5679
 6402SOL    HW230666   1.153   3.157   1.870  0.6837  0.9783 -0.5530
 6403SOL     OW30667   2.760   2.674   8.590  0.2808 -0.4194  0.0099
 6403SOL    HW130668   2.708   2.642   8.664  1.5000  0.5041  1.2611
 6403SOL    HW230669   2.735   2.765   8.602  1.7367  0.0796 -0.7829
 6404SOL     OW30670   0.468   4.038  14.074 -0.2620  0.6327 -0.2233
 6404SOL    HW130671   0.429   4.106  14.129 -1.0702 -1.0968  1.3512
 6404SOL    HW230672   0.530   4.086  14.019  0.8710 -1.9809 -1.2026
 6405SOL     OW30673   0.251   3.527   3.850  0.2967 -0.0168  0.2834
 6405SOL    HW130674   0.182   3.461   3.852  0.3597 -0.0623  1.0821
 6405SOL    HW230675   0.274   3.536   3.758  2.0904  2.8071  1.0161
 6406SOL     OW30676   2.140   0.014   6.969 -0.2711 -0.0820  0.5703
 6406SOL    HW130677   2.068   0.063   7.009 -1.3845 -0.2059 -1.2817
 6406SOL    HW230678   2.099   4.688   6.896  0.6613  1.3631 -0.8557
 6407SOL     OW30679   1.913   0.507   4.280  0.2936  0.6313 -0.0304
 6407SOL    HW130680   1.839   0.561   4.307  1.1248 -0.5470  4.5145
 6407SOL    HW230681   1.906   0.511   4.184  0.5197 -2.1433 -0.1644
 6408SOL     OW30682   2.189   3.405  17.168 -0.1530  0.3672 -0.3080
 6408SOL    HW130683   2.097   3.386  17.150  0.0205 -2.0567  1.3613
 6408SOL    HW230684   2.186   3.439  17.258  1.1750 -2.6875  0.8841
 6409SOL     OW30685   4.094   1.377   1.736 -0.3759  0.0241 -0.4680
 6409SOL    HW130686   4.018   1.415   1.780  0.7254 -0.3037  1.6970
 6409SOL    HW230687   4.054   1.326   1.665 -0.9855  3.4082 -2.5503
 6410SOL     OW30688   3.018   0.366  13.308 -0.0511 -0.0019 -0.0339
 6410SOL    HW130689   3.106   0.405  13.314 -0.8563  1.5327  1.6164
 6410SOL    HW230690   3.029   0.318  13.225 -1.1662 -0.2413 -0.0440
 6411SOL     OW30691   3.276   3.155   6.119 -0.8936  0.7407 -0.3172
 6411SOL    HW130692   3.253   3.220   6.186 -2.4454 -0.4880  0.3570
 6411SOL    HW230693   3.252   3.201   6.039  2.2338  0.8148 -1.2241
 6412SOL     OW30694   1.006   2.792   6.519 -0.4566 -0.7681 -0.0491
 6412SOL    HW130695   0.968   2.879   6.514  0.5148 -0.3408 -0.1545
 6412SOL    HW230696   0.938   2.737   6.557  0.6008 -1.0891  1.3498
 6413SOL     OW30697   4.313   1.868  11.146 -0.0622  0.1866 -0.5088
 6413SOL    HW130698   4.313   1.870  11.242 -0.1281  0.2658 -0.5110
 6413SOL    HW230699   4.301   1.776  11.123 -0.8381  0.1659 -0.0445
 6414SOL     OW30700   0.871   0.590   9.852  0.6791 -0.0290 -0.2226
 6414SOL    HW130701   0.930   0.608   9.778  0.1234  0.9579 -0.4391
 6414SOL    HW230702   0.853   0.676   9.889 -0.1539 -0.1175 -0.4189
 6415SOL     OW30703   2.029   1.006   8.558 -0.2482  0.4278  0.2489
 6415SOL    HW130704   2.012   1.044   8.644 -0.3926 -1.6175  1.1024
 6415SOL    HW230705   1.944   1.023   8.518 -0.2384  1.2077  0.5435
 6416SOL     OW30706   3.565   1.701   4.924 -0.0117  0.2682 -0.1582
 6416SOL    HW130707   3.479   1.686   4.884 -0.2026  1.4838 -0.1943
 6416SOL    HW230708   3.588   1.781   4.878 -0.4475  0.7758  0.5109
 6417SOL     OW30709   2.797   1.676   1.836 -0.4265 -0.0235 -0.4164
 6417SOL    HW130710   2.758   1.703   1.920 -0.2560 -0.4115 -0.2096
 6417SOL    HW230711   2.893   1.672   1.842 -0.5829 -1.2481  1.6302
 6418SOL     OW30712   0.773   3.615  13.256  0.4337  0.0248 -0.3248
 6418SOL    HW130713   0.749   3.603  13.348 -1.1178 -0.8045 -0.8365
 6418SOL    HW230714   0.698   3.668  13.230  0.6966  1.0664  0.9938
 6419SOL     OW30715   3.430   2.583   1.332 -0.1306 -0.3862 -0.1216
 6419SOL    HW130716   3.454   2.660   1.384 -0.3383  0.5497 -1.4007
 6419SOL    HW230717   3.347   2.560   1.372 -0.4630  0.5460 -0.2779
 6420SOL     OW30718   1.473   3.388   0.125 -0.0272  1.1520  0.9626
 6420SOL    HW130719   1.433   3.302   0.114 -2.6634  2.5310 -0.1715
 6420SOL    HW230720   1.395   3.443   0.139  0.2838  1.4158  1.6664
 6421SOL     OW30721   1.852   1.931   2.627  0.0922  0.4674  0.0047
 6421SOL    HW130722   1.846   1.981   2.708 -1.4924 -1.1029  0.8704
 6421SOL    HW230723   1.775   1.955   2.576  0.3477 -0.3700 -0.7785
 6422SOL     OW30724   0.413   2.039   5.471  0.2868  0.3875  0.5801
 6422SOL    HW130725   0.497   2.072   5.502  1.3630 -2.9869  1.2284
 6422SOL    HW230726   0.349   2.093   5.517  2.0029  2.7418  0.2366
 6423SOL     OW30727   2.168   2.791   4.892  0.5852 -0.3371  0.4695
 6423SOL    HW130728   2.125   2.876   4.881  2.1100  0.3646 -0.0076
 6423SOL    HW230729   2.114   2.733   4.837 -1.7499  1.1014  1.2392
 6424SOL     OW30730   0.817   2.162   9.375 -0.7265 -0.3425 -0.4807
 6424SOL    HW130731   0.787   2.095   9.315 -4.2831  0.6241  0.2509
 6424SOL    HW230732   0.856   2.103   9.440  1.3172 -0.2449 -1.6181
 6425SOL     OW30733   2.165   2.805  17.189  0.3351 -0.0926  0.3478
 6425SOL    HW130734   2.250   2.840  17.160  0.0846  1.6197  1.6576
 6425SOL    HW230735   2.193   2.774  17.275  1.0499 -0.3617  0.0186
 6426SOL     OW30736   3.021   1.331   7.040  0.5216 -0.2347 -0.4288
 6426SOL    HW130737   2.981   1.337   7.127  0.9056  0.4089 -0.2918
 6426SOL    HW230738   2.983   1.414   7.011  0.2009 -0.5003 -0.7656
 6427SOL     OW30739   1.136   2.824  15.667  0.0698  0.0825  0.7082
 6427SOL    HW130740   1.044   2.819  15.642  0.0931 -2.6910  1.1289
 6427SOL    HW230741   1.185   2.803  15.588 -0.3619  1.8364 -0.0113
 6428SOL     OW30742   1.366   3.118   2.445 -0.3674  0.1371  0.0407
 6428SOL    HW130743   1.459   3.137   2.431  0.1681 -0.5673  2.6179
 6428SOL    HW230744   1.355   3.158   2.531  2.5745  0.7189  0.1348
 6429SOL     OW30745   0.784   1.339   0.725  0.1110  0.9656  0.2602
 6429SOL    HW130746   0.816   1.335   0.815 -1.8006 -1.2178  0.8364
 6429SOL    HW230747   0.733   1.419   0.741 -2.0752 -0.9268  2.7352
 6430SOL     OW30748   4.380   4.653   2.130  0.6532 -0.3361  0.2485
 6430SOL    HW130749   4.441   4.609   2.072  1.4686  1.1433 -0.0219
 6430SOL    HW230750   4.420   4.628   2.213  1.8870 -1.7782 -0.7953
 6431SOL     OW30751   3.674   2.646   7.315 -0.1799  0.6460 -0.3094
 6431SOL    HW130752   3.623   2.620   7.238 -0.7110  1.3388 -0.1912
 6431SOL    HW230753   3.614   2.703   7.364 -0.2026 -0.6372  1.1896
 6432SOL     OW30754   4.591   2.309   9.974 -0.6826  0.2638 -0.3672
 6432SOL    HW130755   4.495   2.300   9.974 -0.7467  0.9750  0.4112
 6432SOL    HW230756   4.603   2.293  10.068  2.3056 -2.0829 -1.1568
 6433SOL     OW30757   3.724   1.370   6.457  0.1495 -0.0182 -0.1198
 6433SOL    HW130758   3.739   1.373   6.362 -0.8164 -2.7648 -0.3465
 6433SOL    HW230759   3.779   1.297   6.486 -0.1863  0.5073  1.8524
 6434SOL     OW30760   0.551   1.882   7.982 -0.8080 -0.2497  0.0307
 6434SOL    HW130761   0.539   1.860   8.075  0.5063  1.9869  0.7498
 6434SOL    HW230762   0.525   1.971   8.005 -1.0670 -0.4981  0.6937
 6435SOL     OW30763   3.554   3.263  12.717  0.1660 -0.5508 -0.2478
 6435SOL    HW130764   3.571   3.338  12.774 -2.9871 -0.0296 -0.0086
 6435SOL    HW230765   3.532   3.206  12.791 -1.8405 -1.3252 -1.4243
 6436SOL     OW30766   3.164   3.221  11.498 -0.5463  0.4672  0.7203
 6436SOL    HW130767   3.248   3.221  11.452 -0.2870  0.4278  1.1835
 6436SOL    HW230768   3.144   3.128  11.496  0.0108  0.3606  0.2164
 6437SOL     OW30769   4.554   4.295  13.447 -0.2163  0.2657  0.2230
 6437SOL    HW130770   4.533   4.388  13.438  0.0804  0.4716  1.7496
 6437SOL    HW230771   4.516   4.263  13.529  0.7515  2.2354  1.4342
 6438SOL     OW30772   4.381   3.733   6.570  0.4412  0.0558 -0.3206
 6438SOL    HW130773   4.441   3.805   6.592 -0.3762  1.7152 -3.4288
 6438SOL    HW230774   4.437   3.658   6.590  0.8742  0.1030 -1.3381
 6439SOL     OW30775   1.755   0.121  11.723 -0.5047 -0.8537  0.1042
 6439SOL    HW130776   1.801   0.177  11.785  0.1456 -0.4206 -0.7683
 6439SOL    HW230777   1.735   0.044  11.777  2.2842 -2.0882 -0.6084
 6440SOL     OW30778   1.237   2.024   3.997 -0.1550 -0.0810 -0.2678
 6440SOL    HW130779   1.173   1.952   3.998 -0.9976  0.6893  0.3846
 6440SOL    HW230780   1.252   2.025   3.903  0.3758  0.0502 -0.1848
 6441SOL     OW30781   3.321   1.360  17.401  0.2127 -0.4254 -0.5198
 6441SOL    HW130782   3.347   1.436  17.349 -0.8727  0.5186  0.3212
 6441SOL    HW230783   3.394   1.353  17.462 -0.3708 -0.8466  0.1266
 6442SOL     OW30784   2.367   4.182  12.432 -1.0158 -0.2889 -0.0249
 6442SOL    HW130785   2.438   4.156  12.491 -0.2310  1.5923 -0.1305
 6442SOL    HW230786   2.414   4.235  12.368  1.4485 -1.6534  0.6628
 6443SOL     OW30787   3.799   1.302   2.572  0.4175 -0.0827 -0.3362
 6443SOL    HW130788   3.747   1.335   2.498 -1.7121 -1.4301  0.5395
 6443SOL    HW230789   3.752   1.309   2.655  0.4883 -1.6760 -0.1693
 6444SOL     OW30790   0.898   1.633   8.444 -0.3258  0.6189 -0.2039
 6444SOL    HW130791   0.887   1.538   8.448 -0.5915  0.7777  2.3511
 6444SOL    HW230792   0.965   1.655   8.508  1.3008 -1.1702 -1.2874
 6445SOL     OW30793   0.570   1.292   8.181 -0.0789  0.1422  0.6018
 6445SOL    HW130794   0.637   1.351   8.215  0.0297  1.0855 -1.2540
 6445SOL    HW230795   0.516   1.288   8.260 -0.1821  4.8587  0.7463
 6446SOL     OW30796   2.969   4.413  15.077  0.2535 -0.2885  0.2292
 6446SOL    HW130797   2.876   4.392  15.074  0.8295 -2.8643  0.2831
 6446SOL    HW230798   2.969   4.497  15.122  1.0362 -0.4714  0.5745
 6447SOL     OW30799   3.889   2.315  14.516  0.3605 -0.7803  0.5189
 6447SOL    HW130800   3.982   2.292  14.508  0.2076 -0.2008 -2.9830
 6447SOL    HW230801   3.886   2.341  14.608  0.9878  2.5115 -0.3630
 6448SOL     OW30802   2.630   0.136   6.238  0.0387  0.1955 -0.2654
 6448SOL    HW130803   2.658   0.162   6.150 -1.0086  0.9177 -0.3769
 6448SOL    HW230804   2.621   0.219   6.283 -0.3144 -0.9665  1.7813
 6449SOL     OW30805   2.973   0.821  13.544  0.2652 -0.7619 -0.0600
 6449SOL    HW130806   3.065   0.844  13.535 -0.0899 -0.1669 -2.1968
 6449SOL    HW230807   2.973   0.736  13.499  1.1420  0.1764 -1.8226
 6450SOL     OW30808   0.230   2.002  12.479 -0.7560 -0.0836  0.0532
 6450SOL    HW130809   0.187   2.083  12.454  2.0435  1.5070  0.4582
 6450SOL    HW230810   0.239   1.958  12.394  2.4845 -0.7808  0.7370
 6451SOL     OW30811   2.870   4.718   7.922 -0.7381 -0.1376 -0.6092
 6451SOL    HW130812   2.774   0.001   7.921 -0.6312  2.6325 -0.8139
 6451SOL    HW230813   2.887   0.086   7.954  1.6461 -0.1581 -1.8982
 6452SOL     OW30814   2.310   4.280  10.769  0.2789  0.2512  0.5094
 6452SOL    HW130815   2.370   4.208  10.787 -1.2017 -0.8720  0.9980
 6452SOL    HW230816   2.318   4.335  10.847 -0.0469  1.6775 -0.4691
 6453SOL     OW30817   0.463   1.783   0.816 -0.0527  0.5473 -0.0003
 6453SOL    HW130818   0.475   1.735   0.898 -0.3802  1.5792  0.6592
 6453SOL    HW230819   0.406   1.853   0.847  1.5240  2.1124 -0.6035
 6454SOL     OW30820   2.387   3.343  10.753  0.4769 -0.2323 -0.3377
 6454SOL    HW130821   2.334   3.271  10.719 -0.7457  0.4376  0.1699
 6454SOL    HW230822   2.358   3.341  10.844 -1.9607 -0.5974 -1.1244
 6455SOL     OW30823   2.178   0.321  11.932  0.2373  0.2611  0.3362
 6455SOL    HW130824   2.230   0.318  11.852  1.0681  2.0035  0.7965
 6455SOL    HW230825   2.180   0.235  11.974 -1.1431  0.2733  0.4436
 6456SOL     OW30826   0.434   0.739  12.794  0.1469 -0.0266 -0.0561
 6456SOL    HW130827   0.459   0.823  12.832 -0.3591  0.7290 -1.3802
 6456SOL    HW230828   0.425   0.759  12.700  0.4781 -0.1377 -0.1121
 6457SOL     OW30829   4.001   2.511  10.603  0.1051 -0.1058  0.0094
 6457SOL    HW130830   3.908   2.525  10.589 -0.6290 -2.4150  2.6964
 6457SOL    HW230831   4.020   2.587  10.658 -3.2355  2.1885 -2.0103
 6458SOL     OW30832   2.664   1.914   2.754  0.0762 -0.4233 -0.4616
 6458SOL    HW130833   2.582   1.900   2.708 -1.2963  1.0030  1.5532
 6458SOL    HW230834   2.723   1.862   2.698 -0.6348 -1.6295 -0.0810
 6459SOL     OW30835   0.100   2.468  16.454  0.2074 -0.0099  0.0963
 6459SOL    HW130836   0.102   2.549  16.403 -1.4661  0.7912  1.2982
 6459SOL    HW230837   0.116   2.494  16.545 -1.7054 -0.5176  0.5694
 6460SOL     OW30838   1.635   3.103  17.284 -0.2969 -0.0323 -0.2623
 6460SOL    HW130839   1.599   3.031  17.232 -1.3690 -1.2898  2.2404
 6460SOL    HW230840   1.726   3.076  17.271 -0.0513  0.3039  0.8042
 6461SOL     OW30841   0.973   3.290   3.833  0.2984 -0.0543  0.2528
 6461SOL    HW130842   1.025   3.217   3.799 -0.5558  1.0637 -3.5256
 6461SOL    HW230843   0.985   3.349   3.758 -0.0991  0.0751  0.2889
 6462SOL     OW30844   2.186   0.400   3.613  0.4510 -0.2406  0.5206
 6462SOL    HW130845   2.195   0.381   3.707  2.1236 -2.8876 -0.1619
 6462SOL    HW230846   2.273   0.437   3.596 -1.6313  4.2757 -0.1633
 6463SOL     OW30847   0.529   0.358   0.957 -0.6182  0.2894 -0.2776
 6463SOL    HW130848   0.462   0.422   0.933 -0.5077 -0.2978 -2.1515
 6463SOL    HW230849   0.502   0.289   0.896  1.4548  0.0404 -0.8861
 6464SOL     OW30850   0.831   3.127   5.553  0.3476 -0.5258 -0.2303
 6464SOL    HW130851   0.800   3.103   5.465  2.3622 -0.1495 -1.0282
 6464SOL    HW230852   0.785   3.206   5.582  0.6025  0.3338 -2.1811
 6465SOL     OW30853   2.677   2.733  11.144 -0.2249 -0.0636  0.3316
 6465SOL    HW130854   2.745   2.761  11.082  1.6548 -2.0354  1.4867
 6465SOL    HW230855   2.650   2.652  11.099 -1.2421  1.9359 -2.6196
 6466SOL     OW30856   3.841   2.799   8.530  0.1251  0.3621  0.4563
 6466SOL    HW130857   3.748   2.821   8.523  0.0778 -0.7018 -1.9360
 6466SOL    HW230858   3.889   2.863   8.477 -1.3086  0.4132 -0.7922
 6467SOL     OW30859   1.262   0.895   6.641 -0.2372  0.0248 -0.1525
 6467SOL    HW130860   1.339   0.935   6.681  1.3625 -1.2908 -1.8402
 6467SOL    HW230861   1.195   0.952   6.678  1.8771  2.3910  0.0324
 6468SOL     OW30862   0.218   4.496   8.191  0.0021 -0.1769 -0.3475
 6468SOL    HW130863   0.247   4.576   8.147 -1.4947 -0.0110 -1.0525
 6468SOL    HW230864   0.130   4.527   8.211  0.1799 -1.4923  2.4489
 6469SOL     OW30865   0.326   2.081   4.070 -0.1930  0.4872  0.3091
 6469SOL    HW130866   0.314   2.088   4.164 -1.0623 -1.5527  0.3455
 6469SOL    HW230867   0.344   2.170   4.040  2.6573 -0.7524 -1.6405
 6470SOL     OW30868   3.489   2.028  12.671  0.1326 -0.0190 -0.1823
 6470SOL    HW130869   3.582   2.006  12.663 -0.3980 -2.6536  1.2871
 6470SOL    HW230870   3.498   2.062  12.760  0.7454  0.4881 -0.4380
 6471SOL     OW30871   3.355   2.385   1.580  0.4654 -0.1255  0.1682
 6471SOL    HW130872   3.354   2.374   1.485 -0.0230 -1.4134  0.3211
 6471SOL    HW230873   3.334   2.294   1.600 -0.0889 -0.2115 -0.8536
 6472SOL     OW30874   3.310   2.970   0.303  0.0371 -0.4049 -0.5198
 6472SOL    HW130875   3.251   2.904   0.268 -1.2319  0.6004 -0.3115
 6472SOL    HW230876   3.249   3.041   0.328  2.0756  1.0143  0.4596
 6473SOL     OW30877   1.287   1.458   4.740 -0.2438  0.4360  0.4317
 6473SOL    HW130878   1.300   1.500   4.825  1.8199  0.1781  0.2367
 6473SOL    HW230879   1.200   1.484   4.710 -0.0107 -1.1244 -1.6216
 6474SOL     OW30880   1.349   4.645  16.746  0.4030 -0.9189 -0.3706
 6474SOL    HW130881   1.303   4.571  16.784 -0.2974 -1.4949 -2.3350
 6474SOL    HW230882   1.280   4.691  16.699  0.4060 -0.0332  0.4863
 6475SOL     OW30883   3.940   1.870   7.339  0.1366  0.2299 -0.4642
 6475SOL    HW130884   3.928   1.952   7.387 -2.6971  0.6971 -1.9447
 6475SOL    HW230885   3.991   1.824   7.406  0.5744  0.5687 -0.5680
 6476SOL     OW30886   2.198   0.539   6.499  0.1217  0.1817 -0.0355
 6476SOL    HW130887   2.149   0.594   6.438  1.9643  2.3290  0.4305
 6476SOL    HW230888   2.281   0.582   6.521  1.1682 -1.7113 -0.2405
 6477SOL     OW30889   1.443   2.603   4.114 -0.4082  0.3519  0.6808
 6477SOL    HW130890   1.443   2.602   4.018 -1.2503  0.5004  0.6737
 6477SOL    HW230891   1.497   2.527   4.133  0.5759  0.5291 -1.4444
 6478SOL     OW30892   3.008   1.944  12.927 -0.4651  0.2976  0.0386
 6478SOL    HW130893   3.078   2.003  12.899  0.0186 -1.4477 -2.4152
 6478SOL    HW230894   3.012   1.951  13.022 -1.3303  0.7834  0.0395
 6479SOL     OW30895   1.889   0.253  16.542 -0.1966  0.3188 -0.3274
 6479SOL    HW130896   1.804   0.210  16.533  0.0913 -0.5867  1.2723
 6479SOL    HW230897   1.860   0.324  16.599  1.6175 -2.5812  4.1973
 6480SOL     OW30898   0.772   4.062   3.818  0.4661  0.2582 -0.8046
 6480SOL    HW130899   0.830   4.079   3.892  0.1938 -0.4351 -0.4346
 6480SOL    HW230900   0.725   3.984   3.849 -2.8060  1.9225 -1.4784
 6481SOL     OW30901   4.687   1.853   1.542 -0.1257 -0.1226  0.1952
 6481SOL    HW130902   0.043   1.907   1.562 -1.0248  1.1449  0.2205
 6481SOL    HW230903   4.662   1.807   1.622 -1.1271  2.1015  1.1437
 6482SOL     OW30904   0.793   2.485   4.823 -0.1381 -0.9077  0.1690
 6482SOL    HW130905   0.723   2.549   4.811 -1.4009 -2.3388 -0.0551
 6482SOL    HW230906   0.870   2.540   4.840 -1.2721  0.1300  1.9201
 6483SOL     OW30907   3.096   0.699   5.688 -0.0008 -0.4580  0.4460
 6483SOL    HW130908   3.027   0.639   5.660 -2.7519  1.5627  2.8574
 6483SOL    HW230909   3.055   0.780   5.658  0.6119  0.9674  3.4016
 6484SOL     OW30910   1.603   0.642   7.073 -0.5090 -0.0189  0.5519
 6484SOL    HW130911   1.601   0.548   7.087  0.6594 -0.0383  0.5567
 6484SOL    HW230912   1.578   0.646   6.980  1.8437  0.0127 -0.0753
 6485SOL     OW30913   0.493   0.269  16.684 -0.1307  0.0115 -0.5335
 6485SOL    HW130914   0.404   0.267  16.720 -0.0777 -2.9516 -0.5877
 6485SOL    HW230915   0.531   0.357  16.695  2.4421 -1.3964  1.8692
 6486SOL     OW30916   4.577   2.226  12.515 -0.1133 -0.0141 -0.1178
 6486SOL    HW130917   4.565   2.270  12.599 -0.8539 -0.4133 -0.0127
 6486SOL    HW230918   4.625   2.151  12.549 -1.6538 -0.1626  1.7695
 6487SOL     OW30919   1.269   3.022  17.399  0.0493  0.3368  0.2288
 6487SOL    HW130920   1.300   2.941  17.359  1.1956 -0.5327  2.8702
 6487SOL    HW230921   1.302   3.013  17.488 -1.8629  0.1167  0.9133
 6488SOL     OW30922   3.272   0.913   6.600 -0.5012 -0.1165 -0.8140
 6488SOL    HW130923   3.238   0.905   6.689 -0.5573 -1.8246 -0.9713
 6488SOL    HW230924   3.254   1.006   6.589 -2.0581 -0.4401 -1.0118
 6489SOL     OW30925   2.476   2.033   7.820  0.2660  0.0557 -0.7910
 6489SOL    HW130926   2.517   2.009   7.903 -1.6009 -3.2223 -0.7932
 6489SOL    HW230927   2.416   1.960   7.803 -1.8788  1.1578  1.9629
 6490SOL     OW30928   1.931   2.449   2.789 -0.4161  0.1984 -0.6860
 6490SOL    HW130929   1.952   2.355   2.782 -0.6559  0.0385  0.6645
 6490SOL    HW230930   1.846   2.462   2.749  0.2094  0.5700 -1.8862
 6491SOL     OW30931   1.962   1.393   8.975 -0.1755  0.5741 -0.3629
 6491SOL    HW130932   1.969   1.412   9.069  2.8287 -1.1862 -0.2346
 6491SOL    HW230933   2.036   1.448   8.948 -2.2799  1.5940 -4.1563
 6492SOL     OW30934   2.507   0.868   6.710  0.1741  0.0509  0.0234
 6492SOL    HW130935   2.569   0.938   6.689  0.8930 -0.8617 -0.8950
 6492SOL    HW230936   2.440   0.883   6.644 -0.2797  1.5909  0.8239
 6493SOL     OW30937   0.255   1.270   9.240  0.2105  1.1535 -0.6711
 6493SOL    HW130938   0.204   1.190   9.226  0.5423  0.5910  1.3422
 6493SOL    HW230939   0.337   1.252   9.195  0.7912 -1.3068  1.4144
 6494SOL     OW30940   4.078   2.991   5.121 -0.3185  0.7629 -0.2092
 6494SOL    HW130941   4.156   2.963   5.168 -2.7428 -0.4537  3.1617
 6494SOL    HW230942   4.070   2.915   5.062  0.8608  0.7806 -0.3895
 6495SOL     OW30943   4.411   1.428   2.220 -0.1933 -0.1462  0.0273
 6495SOL    HW130944   4.420   1.355   2.159 -0.2002  1.1462 -1.5124
 6495SOL    HW230945   4.350   1.408   2.291 -3.0531  0.2500 -2.3015
 6496SOL     OW30946   1.867   0.348   6.259  0.2281  0.2984  0.1601
 6496SOL    HW130947   1.934   0.350   6.191  1.6339  0.0647  1.5467
 6496SOL    HW230948   1.907   0.296   6.328  0.1436 -0.8065 -0.6206
 6497SOL     OW30949   2.535   1.973   1.167 -0.7370  0.2289 -0.1263
 6497SOL    HW130950   2.492   1.900   1.123  0.0944 -1.1889  1.4387
 6497SOL    HW230951   2.612   1.920   1.183  1.1823  2.4204 -2.0305
 6498SOL     OW30952   1.922   2.031   7.252 -0.4302 -0.2696 -0.1317
 6498SOL    HW130953   1.940   1.955   7.197 -2.8985  0.5205 -2.0711
 6498SOL    HW230954   1.905   1.984   7.334 -3.5208 -0.1965 -0.7124
 6499SOL     OW30955   2.778   0.859   1.991 -0.6429  0.2428  0.2437
 6499SOL    HW130956   2.752   0.837   2.081 -0.5131  1.0534  0.4775
 6499SOL    HW230957   2.692   0.843   1.953  0.5465 -1.3684 -1.7583
 6500SOL     OW30958   1.208   1.133   5.962  0.3848  0.6200  0.1376
 6500SOL    HW130959   1.136   1.122   6.024  0.7390 -0.0834  0.4217
 6500SOL    HW230960   1.178   1.083   5.886 -0.2006  1.7795 -0.3880
 6501SOL     OW30961   4.309   1.822   6.133 -0.0607 -0.1998 -0.3253
 6501SOL    HW130962   4.284   1.765   6.060 -0.7261 -1.2779  0.7434
 6501SOL    HW230963   4.385   1.860   6.089  0.1216 -0.3587 -0.1466
 6502SOL     OW30964   4.471   1.383   8.160 -0.5264 -0.0081  0.4759
 6502SOL    HW130965   4.460   1.475   8.185 -1.2566 -0.0284  0.2508
 6502SOL    HW230966   4.454   1.394   8.066  1.0236  0.8891  0.3053
 6503SOL     OW30967   0.836   0.898   0.289  0.1964  0.1616 -0.3260
 6503SOL    HW130968   0.821   0.933   0.377  0.3032  0.8211 -0.5663
 6503SOL    HW230969   0.883   0.973   0.252  1.7418 -1.6509 -2.0085
 6504SOL     OW30970   2.559   3.643   8.565 -0.5372 -0.4808 -0.4186
 6504SOL    HW130971   2.641   3.692   8.576 -0.5699 -0.3184 -0.9139
 6504SOL    HW230972   2.501   3.718   8.578  0.3057  0.0199  0.5202
 6505SOL     OW30973   3.798   4.092  11.917  0.0512 -0.3865  0.3892
 6505SOL    HW130974   3.702   4.099  11.913 -0.0293 -0.8136  1.4401
 6505SOL    HW230975   3.816   4.177  11.956  1.2680  0.3601 -1.8076
 6506SOL     OW30976   1.761   3.250   2.743 -0.4819  0.7113  0.6483
 6506SOL    HW130977   1.830   3.316   2.734  0.0206  0.1796  0.5704
 6506SOL    HW230978   1.826   3.180   2.735 -0.1300  1.2284 -0.8885
 6507SOL     OW30979   4.279   3.953   3.213 -0.1131  0.4703  0.6911
 6507SOL    HW130980   4.204   3.902   3.182  1.3815 -0.0473 -2.0439
 6507SOL    HW230981   4.291   4.008   3.135 -0.7627  0.8079  0.8221
 6508SOL     OW30982   2.440   3.021  15.279 -0.3044 -0.6088 -1.0438
 6508SOL    HW130983   2.474   3.033  15.367 -2.2422 -0.2003 -0.3585
 6508SOL    HW230984   2.437   3.111  15.246 -0.8236 -0.7705 -1.4363
 6509SOL     OW30985   2.511   0.104   4.353  0.0651  0.1690  0.0780
 6509SOL    HW130986   2.459   0.055   4.290  1.6969 -2.2254  0.5810
 6509SOL    HW230987   2.589   0.135   4.306 -1.0576  0.1177 -1.8128
 6510SOL     OW30988   1.136   4.224  16.123 -0.5811 -0.1626 -0.2147
 6510SOL    HW130989   1.178   4.207  16.207 -3.0165 -0.6975  0.8893
 6510SOL    HW230990   1.134   4.319  16.131  0.6387 -0.0858 -0.7910
 6511SOL     OW30991   4.102   4.187   6.256  0.0225  0.1578  0.0227
 6511SOL    HW130992   4.049   4.109   6.272  0.3254 -0.2051 -0.7454
 6511SOL    HW230993   4.171   4.180   6.321  0.0179 -1.5833 -0.1746
 6512SOL     OW30994   2.181   1.251   3.656  0.0018 -0.2088  0.3936
 6512SOL    HW130995   2.094   1.273   3.622  0.3151  1.2624  0.5816
 6512SOL    HW230996   2.204   1.331   3.703 -1.2786 -0.6765  1.8194
 6513SOL     OW30997   2.323   1.518   0.054  0.6460 -0.3100  0.0548
 6513SOL    HW130998   2.345   1.470   0.134  2.9524  0.1053 -0.3190
 6513SOL    HW230999   2.394   1.583   0.050  0.2756  0.1718  1.1626
 6514SOL     OW31000   1.169   1.320   7.106 -0.1374 -0.4845 -0.6072
 6514SOL    HW131001   1.132   1.262   7.171 -2.5539  1.0987 -0.5555
 6514SOL    HW231002   1.089   1.373   7.098  0.0256 -0.0414  0.7937
 6515SOL     OW31003   1.382   3.193   0.349  0.0777  0.0134 -0.1321
 6515SOL    HW131004   1.362   3.100   0.347 -1.6520  0.3651  0.8871
 6515SOL    HW231005   1.305   3.220   0.399 -0.3448  1.5673 -1.6057
 6516SOL     OW31006   0.210   2.267   5.555  0.2857 -0.0633  0.6741
 6516SOL    HW131007   0.160   2.199   5.600 -0.0465 -0.3649 -0.1510
 6516SOL    HW231008   0.136   2.315   5.518 -0.8366 -1.4231  1.1868
 6517SOL     OW31009   0.909   1.597  15.664 -0.0375  0.3848  0.6750
 6517SOL    HW131010   0.836   1.555  15.710 -0.1548  0.4181  0.5196
 6517SOL    HW231011   0.860   1.673  15.632  1.1147  1.1693  0.7721
 6518SOL     OW31012   1.652   0.488   7.883 -0.6768  0.3656  0.2283
 6518SOL    HW131013   1.719   0.420   7.873 -0.9014  0.8157 -4.5415
 6518SOL    HW231014   1.602   0.483   7.802  0.3105  2.4936 -0.5043
 6519SOL     OW31015   0.713   4.027   4.689 -0.7063  0.2431  0.2919
 6519SOL    HW131016   0.701   3.942   4.646 -1.4594  1.2785 -1.5062
 6519SOL    HW231017   0.627   4.066   4.701 -1.2316 -1.1589  1.1128
 6520SOL     OW31018   2.759   3.184   2.305  0.0171 -0.3355  0.2167
 6520SOL    HW131019   2.825   3.137   2.252  0.0316 -0.8086  0.6551
 6520SOL    HW231020   2.806   3.253   2.352 -2.6343  1.1471  0.6461
 6521SOL     OW31021   4.532   0.203  16.109  0.0221 -0.9989  0.0492
 6521SOL    HW131022   4.620   0.185  16.074 -0.4451  0.3120 -1.8045
 6521SOL    HW231023   4.512   0.287  16.066  1.1842  0.6607  2.7430
 6522SOL     OW31024   1.545   3.896   4.457 -0.5109 -0.1123 -0.0139
 6522SOL    HW131025   1.580   3.984   4.446 -1.5800  0.3094 -0.0662
 6522SOL    HW231026   1.472   3.919   4.513  1.3115  1.9244  1.4970
 6523SOL     OW31027   0.376   0.931   9.109 -0.2595  0.2014 -0.5563
 6523SOL    HW131028   0.415   0.977   9.036 -0.8967  0.7379 -0.5625
 6523SOL    HW231029   0.440   0.939   9.180 -0.3647 -1.6219 -0.2448
 6524SOL     OW31030   2.703   3.029  14.929 -0.3688  0.1189 -0.6609
 6524SOL    HW131031   2.630   3.014  14.869 -1.6244  0.8888  0.6941
 6524SOL    HW231032   2.710   3.124  14.920  0.3305  0.0540 -0.7981
 6525SOL     OW31033   3.911   4.657   2.534  0.3397  0.4937  0.3570
 6525SOL    HW131034   3.965   4.688   2.461  0.9204 -1.5377 -0.0641
 6525SOL    HW231035   3.932   4.719   2.604 -0.1675 -1.3094  2.0877
 6526SOL     OW31036   1.392   3.314   9.129 -0.2832  0.2961 -0.1026
 6526SOL    HW131037   1.379   3.221   9.110  0.8565  0.2777 -0.7632
 6526SOL    HW231038   1.487   3.309   9.130 -0.2968 -0.2839 -1.8172
 6527SOL     OW31039   3.683   2.713  11.344  0.0561 -0.0318  0.4082
 6527SOL    HW131040   3.649   2.729  11.256 -2.1280  2.3128  1.6631
 6527SOL    HW231041   3.758   2.772  11.343 -1.1959  1.5735  1.0636
 6528SOL     OW31042   0.681   2.471   0.823  0.2437 -0.0012  0.3781
 6528SOL    HW131043   0.767   2.492   0.859 -0.1312  1.8011  0.2434
 6528SOL    HW231044   0.695   2.463   0.729 -3.1483 -0.7071 -0.0596
 6529SOL     OW31045   2.694   1.803  10.654 -0.7517 -0.5134 -0.0129
 6529SOL    HW131046   2.666   1.711  10.652  0.8517 -1.0369  2.0261
 6529SOL    HW231047   2.652   1.832  10.573  1.3387 -0.7575 -1.1848
 6530SOL     OW31048   3.267   4.687  11.045  0.7588 -0.2571  0.6651
 6530SOL    HW131049   3.335   0.010  10.993  1.2427 -1.3980  0.3522
 6530SOL    HW231050   3.233   0.045  11.089 -1.3310 -1.0469  0.4435
 6531SOL     OW31051   0.600   4.399   8.117  0.1227  0.1701 -0.3386
 6531SOL    HW131052   0.673   4.456   8.093 -0.9284  2.6243  2.2649
 6531SOL    HW231053   0.642   4.347   8.186 -1.0852 -0.3111  0.0333
 6532SOL     OW31054   1.022   0.114   1.068  0.0037  0.5982 -0.0243
 6532SOL    HW131055   0.953   0.168   1.107 -0.3182 -0.1403  0.4207
 6532SOL    HW231056   1.011   0.139   0.977 -2.7655  1.3230  0.5162
 6533SOL     OW31057   0.327   2.364  11.183  0.5337  0.6956  0.0036
 6533SOL    HW131058   0.322   2.411  11.099 -2.8259 -0.8032 -0.6217
 6533SOL    HW231059   0.282   2.281  11.166  0.8172  0.3053  1.1577
 6534SOL     OW31060   2.653   3.883   4.185 -0.1189 -0.3871 -0.1660
 6534SOL    HW131061   2.625   3.850   4.099 -0.2576  0.8206 -0.5826
 6534SOL    HW231062   2.712   3.817   4.220 -0.1351 -0.0113  0.5559
 6535SOL     OW31063   1.576   2.435   4.392  0.2373 -0.4437  0.0918
 6535SOL    HW131064   1.555   2.367   4.328 -0.2666  1.6704 -1.9922
 6535SOL    HW231065   1.532   2.412   4.474 -0.9368 -0.7399 -0.6286
 6536SOL     OW31066   0.717   1.255  10.369 -0.2819 -0.0540  0.2981
 6536SOL    HW131067   0.671   1.181  10.330 -1.0135  1.3035 -1.4333
 6536SOL    HW231068   0.773   1.204  10.427  0.3843  1.3823  0.9225
 6537SOL     OW31069   3.810   1.131   8.960  0.6825  0.4880 -0.6261
 6537SOL    HW131070   3.716   1.118   8.945  0.5133  1.8569 -0.7757
 6537SOL    HW231071   3.827   1.048   8.917 -0.6090 -0.0760 -0.0521
 6538SOL     OW31072   4.079   1.938   4.062  0.3992 -0.1299  0.3846
 6538SOL    HW131073   4.069   2.033   4.067 -0.8220 -0.2356 -0.0569
 6538SOL    HW231074   4.164   1.917   4.102  0.7761  0.8516  0.0897
 6539SOL     OW31075   2.156   4.341  16.588  0.3860 -0.4402 -0.7817
 6539SOL    HW131076   2.098   4.405  16.546  0.0493  1.2197  2.2383
 6539SOL    HW231077   2.089   4.279  16.614 -1.1571  2.1033  1.2719
 6540SOL     OW31078   0.780   0.532   4.288  0.6236 -0.2062 -0.4314
 6540SOL    HW131079   0.776   0.626   4.271 -0.7086  0.2248  2.3313
 6540SOL    HW231080   0.842   0.506   4.220  3.6825  2.6396  1.2407
 6541SOL     OW31081   0.023   3.914   4.609  0.4727  0.0470 -0.2268
 6541SOL    HW131082   0.111   3.952   4.606  0.0124  0.9365 -1.9436
 6541SOL    HW231083   4.699   3.979   4.663  0.8277 -1.0669  1.4482
 6542SOL     OW31084   2.539   1.170  11.261  0.1999 -0.1626 -0.6628
 6542SOL    HW131085   2.483   1.174  11.183  0.8107 -0.1214 -1.0947
 6542SOL    HW231086   2.519   1.253  11.304 -0.0953  0.5534 -2.1660
 6543SOL     OW31087   4.275   3.716   4.551  0.4907  0.1093 -0.2546
 6543SOL    HW131088   4.243   3.668   4.474  1.4682  0.5042 -0.9034
 6543SOL    HW231089   4.366   3.735   4.527  0.5994  2.7533  2.2316
 6544SOL     OW31090   1.054   3.986   1.840  0.2142 -0.0646  0.6450
 6544SOL    HW131091   1.027   4.014   1.752  1.1061  0.6927  0.6129
 6544SOL    HW231092   0.991   3.915   1.848 -0.0462 -0.0006 -0.7061
 6545SOL     OW31093   1.629   2.259   6.677 -0.7312  0.5486 -0.0973
 6545SOL    HW131094   1.708   2.284   6.630  1.1672 -0.1122  2.8174
 6545SOL    HW231095   1.661   2.186   6.730  1.5206  0.2784 -1.8659
 6546SOL     OW31096   4.122   1.698  17.293  0.4232 -0.3388  0.2393
 6546SOL    HW131097   4.081   1.733  17.372  0.9307  0.2741  0.2280
 6546SOL    HW231098   4.203   1.749  17.291 -0.3487  0.9517  1.8565
 6547SOL     OW31099   0.454   2.364   4.217  0.3988 -0.1298 -0.4680
 6547SOL    HW131100   0.474   2.274   4.243 -1.9631 -0.5817 -0.2084
 6547SOL    HW231101   0.465   2.415   4.297 -1.1310 -1.7893  0.7806
 6548SOL     OW31102   3.410   0.102   7.198  0.3785 -0.0728 -0.2366
 6548SOL    HW131103   3.408   0.173   7.262 -2.5056  0.3132 -0.7670
 6548SOL    HW231104   3.347   0.039   7.232  0.4002  0.2834  0.4555
 6549SOL     OW31105   2.601   1.263   3.613  0.0620  0.4429  0.7807
 6549SOL    HW131106   2.662   1.259   3.687 -3.1217 -1.7020  3.2984
 6549SOL    HW231107   2.522   1.242   3.663  0.6827 -2.1719  0.6401
 6550SOL     OW31108   0.255   1.469   5.329  0.6054 -0.5518 -0.2918
 6550SOL    HW131109   0.204   1.407   5.278 -0.6610 -0.6643  1.0837
 6550SOL    HW231110   0.236   1.443   5.420 -0.8307 -0.1285 -0.4749
 6551SOL     OW31111   0.989   4.014  12.694 -0.9549  0.2540  0.2241
 6551SOL    HW131112   1.025   4.102  12.709 -1.7839  0.4485  1.0808
 6551SOL    HW231113   1.070   3.977  12.659 -0.0665  0.3831  2.1396
 6552SOL     OW31114   1.253   0.831   7.156 -0.0764  0.3019 -0.5466
 6552SOL    HW131115   1.236   0.788   7.239  0.8534  0.9547 -0.0162
 6552SOL    HW231116   1.174   0.806   7.108  1.2545 -0.1485 -2.5112
 6553SOL     OW31117   3.045   3.598  11.500 -0.2524  0.2558 -0.2762
 6553SOL    HW131118   3.018   3.585  11.409  0.3940  0.1135 -0.4510
 6553SOL    HW231119   3.022   3.690  11.511 -3.5359 -0.3151 -2.4948
 6554SOL     OW31120   2.733   2.523   5.847 -0.0428  0.2401 -0.0567
 6554SOL    HW131121   2.761   2.578   5.920  0.5622 -1.8745  1.3233
 6554SOL    HW231122   2.804   2.549   5.789  1.2638  1.2834  1.9954
 6555SOL     OW31123   3.869   3.905   2.700  0.3066  0.1384 -0.5014
 6555SOL    HW131124   3.791   3.877   2.747  0.4605  0.0083 -0.3226
 6555SOL    HW231125   3.929   3.862   2.761 -1.1603  0.0380  0.8468
 6556SOL     OW31126   0.154   1.851  12.254  0.1396  0.6157 -0.1794
 6556SOL    HW131127   0.068   1.810  12.268  0.3368 -0.1409 -1.1613
 6556SOL    HW231128   0.157   1.847  12.159 -0.3388 -1.5654 -0.0969
 6557SOL     OW31129   0.759   3.702  16.127 -0.9000 -0.4221 -0.0390
 6557SOL    HW131130   0.800   3.681  16.043  0.4195 -0.6077  0.6400
 6557SOL    HW231131   0.793   3.625  16.173 -0.3341 -0.5959 -0.7534
 6558SOL     OW31132   0.697   3.864   3.541  0.3257  0.8016 -0.0465
 6558SOL    HW131133   0.736   3.911   3.467 -0.0400  0.7889 -0.2532
 6558SOL    HW231134   0.772   3.863   3.600  1.1188 -0.7163 -1.0653
 6559SOL     OW31135   3.198   1.898   4.245 -0.0212 -0.1020  0.2777
 6559SOL    HW131136   3.246   1.858   4.173  2.0151  2.6398  0.1131
 6559SOL    HW231137   3.232   1.987   4.238  1.1869 -0.4711  1.4345
 6560SOL     OW31138   3.657   0.423   0.114 -0.7118 -0.1403  0.1019
 6560SOL    HW131139   3.677   0.335   0.081  0.9030 -0.4244  1.8489
 6560SOL    HW231140   3.627   0.398   0.202  1.1380 -1.4693  0.3653
 6561SOL     OW31141   2.584   1.569  15.771 -0.5074 -0.1287  0.0281
 6561SOL    HW131142   2.585   1.657  15.732 -1.1139 -0.4750 -0.7618
 6561SOL    HW231143   2.503   1.528  15.743 -0.6617  1.7588 -2.2591
 6562SOL     OW31144   2.541   1.645   6.341 -0.0570  0.2601 -0.2234
 6562SOL    HW131145   2.473   1.621   6.278  0.7027  1.2515 -1.4315
 6562SOL    HW231146   2.604   1.703   6.298  0.5042  1.7764  2.6130
 6563SOL     OW31147   3.376   4.235   2.086  0.3076 -0.0461  0.2475
 6563SOL    HW131148   3.326   4.154   2.086 -1.3148  0.9446  1.7360
 6563SOL    HW231149   3.461   4.198   2.108 -0.1096 -0.4539  1.1446
 6564SOL     OW31150   0.799   4.459  12.800  0.3804  0.2022 -0.1586
 6564SOL    HW131151   0.734   4.392  12.818 -2.2734  3.0199  0.8626
 6564SOL    HW231152   0.883   4.420  12.825  0.4668 -0.8009 -2.0877
 6565SOL     OW31153   1.607   2.874   6.784  0.0273  0.9222  0.3519
 6565SOL    HW131154   1.630   2.920   6.703  0.2829 -0.3988 -0.3282
 6565SOL    HW231155   1.649   2.927   6.852  2.1153 -1.7436  1.1213
 6566SOL     OW31156   3.431   2.869   7.024  0.0218 -0.1235  0.2167
 6566SOL    HW131157   3.420   2.918   6.942 -0.8337 -1.4921 -0.4932
 6566SOL    HW231158   3.520   2.900   7.043  0.7154 -1.4419 -0.8571
 6567SOL     OW31159   3.075   0.521   8.255 -0.5854  0.5522 -0.6012
 6567SOL    HW131160   3.034   0.481   8.332 -0.1746 -1.9045 -1.6441
 6567SOL    HW231161   3.061   0.614   8.274 -0.1921  0.3723  0.5706
 6568SOL     OW31162   2.880   3.293   4.450  0.0770  0.0141 -0.5751
 6568SOL    HW131163   2.958   3.344   4.473 -0.4966 -0.3462  2.0941
 6568SOL    HW231164   2.883   3.309   4.355 -1.5227  3.1962 -0.0637
 6569SOL     OW31165   2.487   1.356   7.131  0.1903  0.3776 -0.9815
 6569SOL    HW131166   2.507   1.285   7.193 -3.0339 -0.6735 -1.1787
 6569SOL    HW231167   2.489   1.301   7.053 -2.8880 -1.5798  0.3172
 6570SOL     OW31168   2.746   1.902   1.641 -0.2742 -0.2105 -0.3733
 6570SOL    HW131169   2.758   1.820   1.690 -0.3264 -0.0891 -0.1551
 6570SOL    HW231170   2.690   1.956   1.698 -2.6030 -0.3788 -2.5129
 6571SOL     OW31171   2.478   2.806   4.230  0.4087 -0.4853 -0.1314
 6571SOL    HW131172   2.503   2.896   4.210  0.8813 -0.0118  2.6698
 6571SOL    HW231173   2.444   2.828   4.316 -1.0110 -2.8825 -0.0897
 6572SOL     OW31174   1.575   0.327   5.805 -0.0578 -0.1268  0.3728
 6572SOL    HW131175   1.565   0.420   5.784  0.7222 -0.5570 -1.8773
 6572SOL    HW231176   1.500   0.317   5.864  0.9713 -0.8989  1.5411
 6573SOL     OW31177   0.021   4.353  14.323 -0.0924 -0.0537 -0.2774
 6573SOL    HW131178   0.010   4.340  14.418 -1.2228  1.5492 -0.1861
 6573SOL    HW231179   4.696   4.434  14.297  0.4006  0.7780  1.4108
 6574SOL     OW31180   0.093   1.282   3.673 -0.4654  0.5058  0.0570
 6574SOL    HW131181   0.124   1.331   3.749  0.6844 -1.4490  0.8537
 6574SOL    HW231182   0.146   1.204   3.688 -0.0657  0.8638  0.5229
 6575SOL     OW31183   2.690   2.943   3.186 -0.4712  0.0707 -0.1808
 6575SOL    HW131184   2.669   2.946   3.093  1.2452 -1.6421 -0.6374
 6575SOL    HW231185   2.606   2.966   3.225  0.5875  3.1083  0.2519
 6576SOL     OW31186   0.757   2.008   6.118  0.4459  0.4691 -0.2944
 6576SOL    HW131187   0.749   2.023   6.023  2.6338  3.2841 -0.0365
 6576SOL    HW231188   0.783   2.096   6.144 -0.0607  1.2462 -2.3569
 6577SOL     OW31189   0.576   2.681  12.243  0.0278 -0.8475 -0.4478
 6577SOL    HW131190   0.608   2.729  12.167 -0.7947 -1.4156 -1.1475
 6577SOL    HW231191   0.602   2.741  12.314  0.0877  1.3111 -2.2924
 6578SOL     OW31192   4.140   1.988   8.394 -0.4923 -0.2907 -0.0924
 6578SOL    HW131193   4.055   1.976   8.352 -0.5873  0.3029 -0.0806
 6578SOL    HW231194   4.181   2.049   8.332 -0.3614  1.3899  1.6354
 6579SOL     OW31195   4.561   2.811   6.060  0.0691 -0.2413  0.5741
 6579SOL    HW131196   4.496   2.847   5.999  1.2012  0.3602 -0.2727
 6579SOL    HW231197   4.610   2.760   5.995 -1.1268  0.8223 -1.1667
 6580SOL     OW31198   3.359   3.749  16.048  0.2605  0.5539  0.9523
 6580SOL    HW131199   3.356   3.766  16.142 -0.9152  0.2156  0.9742
 6580SOL    HW231200   3.269   3.777  16.030  0.6860  1.6941  0.6010
 6581SOL     OW31201   0.275   3.929   3.364 -0.4456  0.2904 -0.5249
 6581SOL    HW131202   0.244   3.838   3.365 -1.8083  0.7592 -0.7310
 6581SOL    HW231203   0.364   3.917   3.329 -0.6610  0.6255 -1.1857
 6582SOL     OW31204   4.268   4.696  16.025  0.9224  0.2984 -0.7203
 6582SOL    HW131205   4.181   0.001  16.058  1.2051  0.8682 -0.4131
 6582SOL    HW231206   4.322   0.031  16.081  0.3737 -1.2444  1.3415
 6583SOL     OW31207   1.016   2.113   4.309 -0.8314 -0.9272  0.2257
 6583SOL    HW131208   1.052   2.125   4.221 -0.9387 -3.2915 -0.1520
 6583SOL    HW231209   1.082   2.143   4.372  0.2048 -0.9456 -0.8655
 6584SOL     OW31210   4.572   0.909   9.387 -0.7570  0.6459  0.2684
 6584SOL    HW131211   4.501   0.846   9.399  0.6407 -0.8616  0.5237
 6584SOL    HW231212   4.538   0.988   9.430  0.7298  1.2059  0.3889
 6585SOL     OW31213   0.933   0.623   0.226 -0.8141 -0.1466  0.6189
 6585SOL    HW131214   0.915   0.590   0.314 -1.3777 -0.2200  0.4765
 6585SOL    HW231215   0.897   0.710   0.242 -0.8209 -0.2409  1.1231
 6586SOL     OW31216   4.348   1.758   6.397 -0.6416 -0.6553  0.1877
 6586SOL    HW131217   4.443   1.746   6.401 -0.4455  1.3354  1.4426
 6586SOL    HW231218   4.345   1.769   6.302 -0.9758 -1.4095  0.1139
 6587SOL     OW31219   2.309   1.376   2.587 -0.4213 -0.4116  0.1553
 6587SOL    HW131220   2.402   1.372   2.609 -0.9026  1.3697  2.6284
 6587SOL    HW231221   2.299   1.469   2.564 -0.6841 -0.2992  0.7149
 6588SOL     OW31222   1.822   4.332   6.895 -0.0668  0.2599 -0.6470
 6588SOL    HW131223   1.908   4.353   6.859 -0.0794  1.3158 -0.0763
 6588SOL    HW231224   1.784   4.410   6.937  0.3860 -0.8994  1.9167
 6589SOL     OW31225   3.717   1.700  13.265  0.5074 -0.0525 -0.0190
 6589SOL    HW131226   3.710   1.794  13.283  0.8522  0.2971 -1.7217
 6589SOL    HW231227   3.811   1.691  13.282  0.6380  2.0432  0.3658
 6590SOL     OW31228   4.623   1.513   3.358  0.1127 -0.3705 -0.0979
 6590SOL    HW131229   4.602   1.606   3.366  0.6737 -0.3813  1.5756
 6590SOL    HW231230   4.538   1.474   3.338  0.6084 -0.5788 -1.8022
 6591SOL     OW31231   2.868   2.613  11.353 -0.4468  0.4342 -0.8175
 6591SOL    HW131232   2.799   2.631  11.289 -1.2095  4.8976  1.2494
 6591SOL    HW231233   2.946   2.604  11.298 -0.1562 -1.3531 -0.1084
 6592SOL     OW31234   0.737   0.942   5.925  0.0881 -0.3415 -0.1285
 6592SOL    HW131235   0.785   1.010   5.878  2.9101 -1.5414  1.0193
 6592SOL    HW231236   0.806   0.892   5.969 -0.4639 -0.5179  0.5340
 6593SOL     OW31237   1.945   2.812   8.487 -0.1265  0.1415  0.2042
 6593SOL    HW131238   1.945   2.755   8.564  0.8965  0.5714  0.5243
 6593SOL    HW231239   2.035   2.844   8.485  0.2117 -0.9335 -1.7193
 6594SOL     OW31240   4.100   2.845  13.194  0.1536 -0.6099  0.1608
 6594SOL    HW131241   4.165   2.898  13.148 -1.3667  1.0958 -0.0384
 6594SOL    HW231242   4.122   2.753  13.178 -1.5428 -1.2161  1.2504
 6595SOL     OW31243   1.166   3.611   0.541  0.4231 -1.4606 -0.0714
 6595SOL    HW131244   1.223   3.674   0.496  0.0969 -0.6415  0.6597
 6595SOL    HW231245   1.081   3.654   0.529  0.8846 -0.9060 -1.4288
 6596SOL     OW31246   3.121   2.008   6.642  0.3217 -0.3032 -0.0033
 6596SOL    HW131247   3.212   2.021   6.616  0.3421  0.2397  0.3314
 6596SOL    HW231248   3.134   1.956   6.721 -1.1227  1.5797  1.4829
 6597SOL     OW31249   4.676   2.727   4.431 -0.0790 -0.2511 -0.0861
 6597SOL    HW131250   4.598   2.747   4.379 -0.5532 -1.3264  0.1965
 6597SOL    HW231251   0.012   2.798   4.402 -1.0932  0.5496 -0.1383
 6598SOL     OW31252   2.070   0.368   2.906 -0.0816  0.2194 -0.0233
 6598SOL    HW131253   1.978   0.347   2.922 -0.1072 -0.3021 -0.8281
 6598SOL    HW231254   2.079   0.415   2.989 -1.7906 -2.5014  1.7024
 6599SOL     OW31255   0.422   2.297   5.751  0.1651 -0.3118 -0.2129
 6599SOL    HW131256   0.331   2.287   5.722  0.2338  0.2501 -0.6269
 6599SOL    HW231257   0.428   2.217   5.803  1.0842 -0.2125 -0.1773
 6600SOL     OW31258   3.206   3.358  16.909  0.1258  0.1513 -0.7139
 6600SOL    HW131259   3.252   3.299  16.969  1.1337  0.1495 -1.4806
 6600SOL    HW231260   3.157   3.402  16.978  1.8995  3.2802 -1.4317
 6601SOL     OW31261   1.328   3.152   7.902 -0.0661 -0.2497  0.3491
 6601SOL    HW131262   1.391   3.223   7.893 -0.0159 -0.4610 -0.9712
 6601SOL    HW231263   1.312   3.145   7.996 -2.5513 -0.6212 -0.1048
 6602SOL     OW31264   3.877   4.561  11.689 -0.3017 -0.8767 -0.3586
 6602SOL    HW131265   3.802   4.507  11.711 -0.3561 -0.8880 -0.5745
 6602SOL    HW231266   3.885   4.559  11.594  0.9662  2.2443 -0.3072
 6603SOL     OW31267   3.309   3.198  11.180  0.2684  0.0707 -0.5536
 6603SOL    HW131268   3.327   3.105  11.194  1.2289  0.1310 -1.3568
 6603SOL    HW231269   3.337   3.193  11.088  0.6635  2.9276 -0.5993
 6604SOL     OW31270   3.288   2.269   6.270  0.0045  0.3337  0.7065
 6604SOL    HW131271   3.230   2.200   6.236  1.2065  0.2196 -1.1517
 6604SOL    HW231272   3.233   2.340   6.302 -0.0818 -0.1445  1.6046
 6605SOL     OW31273   0.604   0.874   4.919  0.4968  0.4263  0.3199
 6605SOL    HW131274   0.532   0.868   4.982  0.8578  0.0422  0.6973
 6605SOL    HW231275   0.674   0.889   4.983 -0.7256  0.2838  1.7029
 6606SOL     OW31276   0.531   4.500   7.250 -0.1488  0.3642 -0.3102
 6606SOL    HW131277   0.600   4.434   7.249  0.2612  0.7725  1.9026
 6606SOL    HW231278   0.521   4.527   7.158  0.0713 -1.3298 -0.8421
 6607SOL     OW31279   0.915   1.736   7.266  0.2687  0.5958  0.1538
 6607SOL    HW131280   0.916   1.811   7.206 -0.6955 -0.4366 -1.1471
 6607SOL    HW231281   0.830   1.740   7.308  0.6138  2.0390  0.7161
 6608SOL     OW31282   4.701   2.667   5.814  0.2291 -0.2208  0.3106
 6608SOL    HW131283   4.631   2.603   5.802 -0.3246  0.4126  0.1600
 6608SOL    HW231284   0.045   2.611   5.859  1.2172 -0.3284 -1.2567
 6609SOL     OW31285   1.942   0.112  13.561 -0.1520  0.2339  0.0864
 6609SOL    HW131286   1.882   0.041  13.579  0.9052 -0.5001  0.7067
 6609SOL    HW231287   1.895   0.181  13.607 -1.9781 -0.9875  0.0283
 6610SOL     OW31288   1.153   2.032  10.333  0.0923  0.6832 -0.1521
 6610SOL    HW131289   1.118   2.028  10.422  1.9721 -0.9641  0.5225
 6610SOL    HW231290   1.192   2.119  10.323 -0.4658  1.1291  1.5495
 6611SOL     OW31291   1.193   0.804  11.919 -0.7719  0.5972 -0.4318
 6611SOL    HW131292   1.258   0.872  11.900 -0.7763  1.0507  1.1722
 6611SOL    HW231293   1.165   0.773  11.832 -0.4226  1.0649 -0.7101
 6612SOL     OW31294   3.678   3.848   0.837 -0.2198 -0.3637 -0.1609
 6612SOL    HW131295   3.726   3.872   0.915  2.1341  0.0704 -1.7515
 6612SOL    HW231296   3.639   3.930   0.806 -0.9874 -0.5829  0.2032
 6613SOL     OW31297   0.049   3.639   4.323 -0.6568 -0.6170  1.0208
 6613SOL    HW131298   0.038   3.725   4.282 -0.2946 -0.9012  0.3302
 6613SOL    HW231299   0.100   3.586   4.262 -2.5205 -0.1560 -0.9105
 6614SOL     OW31300   0.277   4.492   7.758 -0.0150 -0.0507 -0.5125
 6614SOL    HW131301   0.343   4.435   7.799  0.1737  0.2830 -0.3520
 6614SOL    HW231302   0.218   4.422   7.732  0.3696  0.1349 -1.8594
 6615SOL     OW31303   1.634   4.428   3.275  0.2040 -0.8907  0.0415
 6615SOL    HW131304   1.542   4.446   3.253  0.4395 -2.6877 -2.5545
 6615SOL    HW231305   1.649   4.340   3.239 -0.2254 -2.1658  2.9902
 6616SOL     OW31306   4.576   0.648   3.112  0.1241 -0.1284 -0.6060
 6616SOL    HW131307   4.550   0.634   3.021  1.8008 -1.7578 -0.8425
 6616SOL    HW231308   4.646   0.583   3.118  0.8398  0.6610 -0.4289
 6617SOL     OW31309   1.405   3.753   7.904  0.0943  0.7936 -0.2305
 6617SOL    HW131310   1.491   3.780   7.872  0.0248 -1.6357 -2.4635
 6617SOL    HW231311   1.430   3.765   7.995 -0.5942  2.5009 -0.2658
 6618SOL     OW31312   2.777   3.426   8.763  0.3416  0.0409  0.4084
 6618SOL    HW131313   2.805   3.512   8.795  0.7714 -0.7143  2.0286
 6618SOL    HW231314   2.682   3.442   8.762  0.8750  3.1366  0.8058
 6619SOL     OW31315   0.105   0.406  10.383  0.0611 -0.0219 -0.2892
 6619SOL    HW131316   0.199   0.420  10.394  0.1728 -0.5084 -0.6440
 6619SOL    HW231317   0.104   0.310  10.387  0.1159 -0.1566 -3.2667
 6620SOL     OW31318   2.884   1.777  10.334 -0.1834  0.3635 -0.0015
 6620SOL    HW131319   2.943   1.770  10.258  0.0368 -0.5376  0.2583
 6620SOL    HW231320   2.879   1.682  10.342  1.8674  0.2559  0.0444
 6621SOL     OW31321   0.411   0.330   7.552 -0.0945  0.0660 -0.3562
 6621SOL    HW131322   0.367   0.408   7.518 -1.1056  0.0910  1.0197
 6621SOL    HW231323   0.337   0.282   7.589 -1.3421  1.0253 -1.5802
 6622SOL     OW31324   3.436   3.454   0.867  0.1457 -0.0417 -0.9124
 6622SOL    HW131325   3.437   3.359   0.852 -0.4628  0.2191 -2.5441
 6622SOL    HW231326   3.346   3.465   0.896  0.4358 -0.8338  0.3038
 6623SOL     OW31327   1.341   0.621   5.371  0.8209  0.2937  0.1594
 6623SOL    HW131328   1.297   0.679   5.308 -0.1268 -1.6991 -0.9931
 6623SOL    HW231329   1.266   0.614   5.430 -0.9276 -0.4710 -2.1403
 6624SOL     OW31330   3.639   2.463  15.471  0.0710  0.1481  0.3121
 6624SOL    HW131331   3.725   2.439  15.437 -0.7003  0.1185 -1.6368
 6624SOL    HW231332   3.656   2.447  15.564 -0.3255 -1.1237  0.1662
 6625SOL     OW31333   2.132   0.881   0.682 -0.5427 -0.0930  0.2568
 6625SOL    HW131334   2.210   0.897   0.736 -0.5394 -3.0487  1.1319
 6625SOL    HW231335   2.081   0.827   0.742  1.3492 -1.7185  0.3885
 6626SOL     OW31336   4.223   1.958   3.695 -0.1651 -0.0097  0.2767
 6626SOL    HW131337   4.169   1.899   3.748 -1.7519 -0.1800 -1.5516
 6626SOL    HW231338   4.173   2.038   3.707  0.1836  0.3202 -0.4875
 6627SOL     OW31339   0.819   0.204  10.940 -0.0069 -0.0067  0.2003
 6627SOL    HW131340   0.786   0.153  11.015 -1.4283  0.8202  0.1382
 6627SOL    HW231341   0.900   0.237  10.979 -0.0057 -2.3847  2.2681
 6628SOL     OW31342   2.801   2.455   3.379  0.2987 -0.2759 -0.2488
 6628SOL    HW131343   2.841   2.426   3.460 -0.6401  1.9437  1.0126
 6628SOL    HW231344   2.735   2.509   3.423 -1.6019 -0.4579 -2.8832
 6629SOL     OW31345   4.044   4.226   8.174  0.5013 -0.6379 -0.2804
 6629SOL    HW131346   4.061   4.254   8.264 -1.4283 -0.8913  0.1653
 6629SOL    HW231347   4.009   4.303   8.128  0.4116  0.0509  0.9423
 6630SOL     OW31348   2.353   0.086  13.775  0.0733  0.2067 -0.3028
 6630SOL    HW131349   2.276   0.051  13.732  1.0743 -1.1089 -1.0321
 6630SOL    HW231350   2.317   0.168  13.808 -3.5195 -2.0631  1.3506
 6631SOL     OW31351   2.099   0.950   5.073  0.2798  0.4324  0.2630
 6631SOL    HW131352   2.049   0.876   5.037  2.1276 -0.2948 -0.7578
 6631SOL    HW231353   2.182   0.910   5.095  0.6266  1.8037  1.4343
 6632SOL     OW31354   1.580   3.623   3.184  0.2768  0.2515 -0.0245
 6632SOL    HW131355   1.489   3.631   3.157  0.7069 -1.2234 -1.9413
 6632SOL    HW231356   1.606   3.713   3.164  2.6156 -1.2474 -3.8309
 6633SOL     OW31357   1.679   1.588   8.521  0.0992  0.5689 -0.3487
 6633SOL    HW131358   1.711   1.619   8.436  1.1698 -0.1130 -0.1958
 6633SOL    HW231359   1.753   1.536   8.553  1.3177  2.8033  0.4717
 6634SOL     OW31360   2.897   4.636   5.906 -0.2647 -0.7021 -0.0483
 6634SOL    HW131361   2.825   4.641   5.843  0.6289  0.4673 -0.9729
 6634SOL    HW231362   2.970   4.667   5.853  0.2714  0.5739  1.4255
 6635SOL     OW31363   0.363   4.628   2.266 -0.1473  0.2609 -0.5092
 6635SOL    HW131364   0.366   4.545   2.218 -0.1862 -0.0839  0.0821
 6635SOL    HW231365   0.275   4.638   2.302  0.2547  1.0654  0.2282
 6636SOL     OW31366   2.786   1.293   3.828  0.2058  0.3221 -0.3790
 6636SOL    HW131367   2.870   1.264   3.792  0.6069  2.0077 -0.8014
 6636SOL    HW231368   2.808   1.296   3.921  1.5511  0.1658 -0.6854
 6637SOL     OW31369   4.144   0.849  13.395 -0.3875 -0.1688  0.2629
 6637SOL    HW131370   4.134   0.788  13.468  2.1358  0.3026  0.9822
 6637SOL    HW231371   4.109   0.927  13.438  0.1915 -0.5865  1.4854
 6638SOL     OW31372   0.133   3.446   4.157  0.3572  0.4489 -0.1243
 6638SOL    HW131373   0.092   3.390   4.223  1.2019 -1.0687 -0.8996
 6638SOL    HW231374   0.201   3.392   4.118  1.6150  2.1957 -0.3618
 6639SOL     OW31375   3.602   1.761   1.740 -0.2561 -0.0879  0.3140
 6639SOL    HW131376   3.655   1.833   1.705  0.0900  0.3477  1.7569
 6639SOL    HW231377   3.663   1.712   1.796  0.2855  0.1419 -0.0697
 6640SOL     OW31378   1.221   2.188   7.824 -0.1489  0.2961 -0.0743
 6640SOL    HW131379   1.284   2.244   7.778  0.9635 -0.3398  0.6680
 6640SOL    HW231380   1.281   2.150   7.889 -3.1451  0.6070  2.8673
 6641SOL     OW31381   2.812   2.553  17.349 -0.0714  0.4142 -0.0600
 6641SOL    HW131382   2.769   2.593  17.425 -1.1063 -0.4327 -0.2081
 6641SOL    HW231383   2.860   2.630  17.319 -1.2785  1.5239  0.7826
 6642SOL     OW31384   3.753   0.757   3.973  0.2091  0.2200 -0.3034
 6642SOL    HW131385   3.666   0.797   3.975  0.4166  0.6093  1.0609
 6642SOL    HW231386   3.726   0.667   3.992  0.9378  0.2251  0.7533
 6643SOL     OW31387   1.790   0.707   2.430 -0.6675 -0.0003  0.5296
 6643SOL    HW131388   1.872   0.721   2.383 -0.7378 -0.2828  0.3229
 6643SOL    HW231389   1.796   0.780   2.492 -1.7967 -0.5751  1.3209
 6644SOL     OW31390   3.791   3.111   0.257  0.3772 -0.0857  0.7095
 6644SOL    HW131391   3.725   3.054   0.217  0.8878 -0.1378 -0.0487
 6644SOL    HW231392   3.740   3.148   0.329  0.8029  0.9695  0.4765
 6645SOL     OW31393   3.217   0.674   2.222  0.2474 -0.1690  0.1967
 6645SOL    HW131394   3.305   0.636   2.222 -1.6180 -4.5575  0.0277
 6645SOL    HW231395   3.192   0.615   2.150 -2.4622  1.0788  0.1308
 6646SOL     OW31396   0.733   3.592  15.606 -0.0895 -0.0519 -0.2014
 6646SOL    HW131397   0.773   3.645  15.538 -0.7643  1.0465  0.2656
 6646SOL    HW231398   0.670   3.645  15.654 -1.2809 -0.3151 -1.5010
 6647SOL     OW31399   0.645   0.920   3.474  0.1637  0.1352  0.0683
 6647SOL    HW131400   0.565   0.923   3.528 -0.3206 -0.9947 -0.5884
 6647SOL    HW231401   0.667   1.013   3.476  2.4139 -0.3444 -2.9684
 6648SOL     OW31402   3.038   2.406  15.427 -0.8358 -0.1433 -0.1821
 6648SOL    HW131403   2.972   2.436  15.490  0.1845  0.1249  0.7647
 6648SOL    HW231404   2.978   2.365  15.365 -0.1802  0.5161 -1.2612
 6649SOL     OW31405   1.511   4.043   7.591 -0.0558  0.1705 -0.1322
 6649SOL    HW131406   1.450   4.069   7.661 -0.2023  1.7341 -0.8344
 6649SOL    HW231407   1.549   3.968   7.637 -0.2974  1.3158  1.9380
 6650SOL     OW31408   0.671   0.712   9.163 -0.0210 -0.0944  0.0818
 6650SOL    HW131409   0.665   0.793   9.214  0.3577  0.4631 -0.7464
 6650SOL    HW231410   0.646   0.743   9.076  2.0589  0.4949 -0.3270
 6651SOL     OW31411   3.318   1.823   8.585  0.3369  0.3031 -0.9849
 6651SOL    HW131412   3.256   1.890   8.615 -1.2414 -0.9675 -1.4383
 6651SOL    HW231413   3.365   1.856   8.508  1.7083 -2.1636 -1.1883
 6652SOL     OW31414   4.088   3.941  13.771  0.3807  0.2865 -0.5999
 6652SOL    HW131415   3.993   3.951  13.768  0.4672  1.4161  0.2675
 6652SOL    HW231416   4.114   4.032  13.756  0.7321  0.3374  0.3083
 6653SOL     OW31417   3.214   4.614   7.583 -0.0911 -0.4780  0.6374
 6653SOL    HW131418   3.223   4.707   7.563  2.0401 -0.9153 -0.4691
 6653SOL    HW231419   3.219   4.613   7.679 -0.7368  1.2073  0.6820
 6654SOL     OW31420   0.002   1.520   8.025 -0.0157  0.2939  0.1042
 6654SOL    HW131421   4.688   1.607   8.008 -0.5245 -0.3186 -1.9444
 6654SOL    HW231422   0.072   1.518   7.960  0.7361  1.3243  0.8840
 6655SOL     OW31423   3.568   4.690  15.587 -0.0973 -0.2602  0.5720
 6655SOL    HW131424   3.498   0.010  15.536  1.7846 -0.5195 -2.2256
 6655SOL    HW231425   3.509   4.625  15.625  0.6834 -0.3007  1.7417
 6656SOL     OW31426   0.285   3.710   3.058  0.1625  0.4060 -0.4886
 6656SOL    HW131427   0.298   3.797   3.019 -0.5669  0.3543 -0.8435
 6656SOL    HW231428   0.199   3.704   3.100  0.8289  1.2308  0.9919
 6657SOL     OW31429   4.007   1.689   6.209  0.0006  0.1536  0.3345
 6657SOL    HW131430   3.990   1.700   6.303  0.0362  0.6522  0.2835
 6657SOL    HW231431   3.921   1.663   6.175  0.5748 -0.7434 -0.4193
 6658SOL     OW31432   3.840   0.613  17.670  0.3677  0.5330 -0.9026
 6658SOL    HW131433   3.785   0.536   0.001  0.7747  0.5155  0.4637
 6658SOL    HW231434   3.901   0.590   0.056  0.3427  1.6209 -0.5292
 6659SOL     OW31435   2.526   3.867   2.965 -0.3646 -0.7919 -0.3307
 6659SOL    HW131436   2.546   3.960   2.953 -1.8268 -0.3840  0.3350
 6659SOL    HW231437   2.462   3.860   2.894 -2.4999  1.4877  1.3560
 6660SOL     OW31438   3.662   4.621   6.623 -0.2593 -0.0889  0.3199
 6660SOL    HW131439   3.661   4.539   6.673 -1.4510 -0.0611  0.3380
 6660SOL    HW231440   3.702   4.587   6.543  2.4686  2.6713  0.5236
 6661SOL     OW31441   4.427   2.013  15.921  0.2669 -0.2742  0.3611
 6661SOL    HW131442   4.516   2.015  15.956 -0.2139  0.5020  1.5758
 6661SOL    HW231443   4.375   2.068  15.981 -1.8269 -1.1519 -0.6680
 6662SOL     OW31444   2.333   1.093   6.275  0.0831  0.1859 -0.1301
 6662SOL    HW131445   2.371   1.071   6.190  1.0539  1.2351  0.0307
 6662SOL    HW231446   2.241   1.097   6.249 -0.6059 -1.0773  2.1902
 6663SOL     OW31447   0.646   2.395   5.914  0.0712  0.0131  0.2310
 6663SOL    HW131448   0.647   2.301   5.899  2.3384  0.4229 -2.1337
 6663SOL    HW231449   0.595   2.420   5.837  0.5198  0.3714  0.0532
 6664SOL     OW31450   3.393   1.201   4.390 -0.0659  0.0380 -0.0919
 6664SOL    HW131451   3.331   1.236   4.454  0.9794 -0.3483  1.1399
 6664SOL    HW231452   3.409   1.277   4.333 -3.5576 -0.2779 -1.4266
 6665SOL     OW31453   1.365   2.587   8.404  0.0626 -0.3635 -0.1006
 6665SOL    HW131454   1.456   2.559   8.393  0.6134  1.0390  0.8571
 6665SOL    HW231455   1.377   2.675   8.369 -1.2965  0.9928  2.8650
 6666SOL     OW31456   0.403   2.895  10.836  0.3611  0.2127 -0.6888
 6666SOL    HW131457   0.313   2.916  10.863  0.8687  0.6842  0.6473
 6666SOL    HW231458   0.450   2.977  10.850  2.2799 -1.2415  1.4326
 6667SOL     OW31459   2.079   4.129   7.284 -0.0987  0.1310  0.4204
 6667SOL    HW131460   2.153   4.152   7.340  2.4069 -3.3666 -1.4208
 6667SOL    HW231461   2.041   4.057   7.334 -0.2332 -0.5072 -0.5956
 6668SOL     OW31462   2.415   4.480   5.556 -0.2031 -0.2019 -0.8924
 6668SOL    HW131463   2.375   4.422   5.491 -0.1454 -1.5476  0.2873
 6668SOL    HW231464   2.423   4.422   5.632 -2.7892  0.7935  0.1573
 6669SOL     OW31465   3.614   0.666   7.607 -0.3727 -0.4310  0.0652
 6669SOL    HW131466   3.660   0.619   7.676  1.9541  0.2017 -1.0778
 6669SOL    HW231467   3.673   0.671   7.533  0.5175 -1.1978  0.7191
 6670SOL     OW31468   1.191   4.596   7.198 -0.0881 -0.0991  0.6940
 6670SOL    HW131469   1.143   4.679   7.197 -2.8072 -1.7147 -1.7645
 6670SOL    HW231470   1.189   4.574   7.291 -1.0986  2.4538  1.2854
 6671SOL     OW31471   2.259   2.797   2.912  0.2376 -0.5162 -0.0110
 6671SOL    HW131472   2.336   2.754   2.949 -0.1222  0.0586  1.4340
 6671SOL    HW231473   2.212   2.730   2.862  1.1075 -0.1869 -1.2711
 6672SOL     OW31474   4.412   3.530   5.481 -0.0572 -0.4304  0.0572
 6672SOL    HW131475   4.467   3.506   5.556 -1.4203 -0.9864  0.8761
 6672SOL    HW231476   4.389   3.622   5.498 -1.5525 -0.5786 -1.2097
 6673SOL     OW31477   0.242   2.587   0.238 -0.6116 -0.4562  0.1841
 6673SOL    HW131478   0.155   2.554   0.263 -1.0651  1.9876  1.8498
 6673SOL    HW231479   0.229   2.680   0.257 -0.8587  0.1528 -3.1172
 6674SOL     OW31480   2.131   1.660   7.685  0.1496 -0.5691 -0.6555
 6674SOL    HW131481   2.118   1.612   7.603 -3.0053  1.3500 -1.2655
 6674SOL    HW231482   2.068   1.616   7.742 -0.3217  0.3599 -0.4621
 6675SOL     OW31483   3.792   0.136   7.653 -0.1210 -0.5700  0.6918
 6675SOL    HW131484   3.767   0.144   7.745 -1.2486  0.6615  0.2803
 6675SOL    HW231485   3.856   0.206   7.646  0.8460 -1.3899  1.3062
 6676SOL     OW31486   4.170   0.044   9.245  0.0856 -0.1330  0.6390
 6676SOL    HW131487   4.117   4.687   9.231 -1.1622  0.7223  0.6484
 6676SOL    HW231488   4.146   0.088   9.163 -0.7427  1.3617  1.6824
 6677SOL     OW31489   2.157   3.912   5.455  0.7905  0.1251 -0.0642
 6677SOL    HW131490   2.141   3.840   5.395  1.1082 -0.1297  0.1555
 6677SOL    HW231491   2.068   3.931   5.484  1.1472  0.2448  0.9835
 6678SOL     OW31492   1.767   0.729   4.475  0.0063 -0.1540 -0.0909
 6678SOL    HW131493   1.739   0.818   4.497  0.4569 -0.2681  0.9496
 6678SOL    HW231494   1.848   0.749   4.428  0.5538  0.4952  1.1177
 6679SOL     OW31495   0.588   2.747   4.207 -0.2229  0.4164  0.2167
 6679SOL    HW131496   0.583   2.697   4.288 -2.0033 -0.7191 -0.5919
 6679SOL    HW231497   0.499   2.779   4.198 -0.1383  0.7667  0.6454
 6680SOL     OW31498   3.987   2.978  13.679  0.1764  0.8387  0.0737
 6680SOL    HW131499   3.991   2.945  13.589 -3.8715  2.0281 -0.5706
 6680SOL    HW231500   4.035   2.913  13.730  1.0815  1.5556  0.1290
 6681SOL     OW31501   1.162   4.214  12.615 -0.3196  0.4415  0.0725
 6681SOL    HW131502   1.248   4.199  12.655 -0.7693  0.9285  1.1993
 6681SOL    HW231503   1.171   4.221  12.520  0.2574 -1.1057  0.0006
 6682SOL     OW31504   0.643   3.919   8.214  0.3101 -0.5955 -0.3372
 6682SOL    HW131505   0.568   3.977   8.195 -0.1208 -1.2155 -0.5132
 6682SOL    HW231506   0.641   3.861   8.138 -0.6504  3.1071 -3.1869
 6683SOL     OW31507   2.680   4.036  10.090  0.7970  0.4854  0.7564
 6683SOL    HW131508   2.718   4.070  10.172 -0.1209 -0.6248  1.6436
 6683SOL    HW231509   2.648   4.117  10.051 -0.0472 -0.2633 -0.0783
 6684SOL     OW31510   3.977   3.247  16.922 -0.1799 -0.2895  0.2531
 6684SOL    HW131511   3.990   3.319  16.860  1.8421 -1.5117 -0.7399
 6684SOL    HW231512   4.055   3.269  16.974 -1.1189  3.4759  0.0852
 6685SOL     OW31513   3.089   4.445   8.237  0.4441  0.0304 -0.5451
 6685SOL    HW131514   3.134   4.439   8.321  0.2291  0.2182 -0.4165
 6685SOL    HW231515   3.159   4.467   8.175  1.0480  0.6975  0.3705
 6686SOL     OW31516   2.190   2.778   6.076  0.4155 -0.0536  0.1805
 6686SOL    HW131517   2.100   2.745   6.082  0.6295 -0.5444  0.6356
 6686SOL    HW231518   2.230   2.712   6.019  1.5780 -0.6094  1.6388
 6687SOL     OW31519   1.199   1.705   3.956 -0.7645  0.2456 -0.2056
 6687SOL    HW131520   1.220   1.704   3.862 -2.7262 -0.8734 -0.6307
 6687SOL    HW231521   1.111   1.668   3.954 -0.7060  0.2466 -3.3327
 6688SOL     OW31522   2.399   1.394   9.059 -0.7131 -0.5432 -0.4572
 6688SOL    HW131523   2.441   1.446   8.991  0.1254 -2.4676 -1.4110
 6688SOL    HW231524   2.454   1.320   9.084  0.5724  0.4608 -0.3197
 6689SOL     OW31525   1.751   2.453  14.611 -0.3236 -0.1235  0.1750
 6689SOL    HW131526   1.771   2.374  14.663 -1.7655 -0.3495  0.3664
 6689SOL    HW231527   1.829   2.505  14.630 -0.0193 -0.1666 -0.9498
 6690SOL     OW31528   3.229   3.563   6.664  0.0929 -0.0173  0.6080
 6690SOL    HW131529   3.153   3.514   6.694  0.6884 -0.2647  1.7205
 6690SOL    HW231530   3.282   3.494   6.624 -0.6053  0.1652 -0.6273
 6691SOL     OW31531   0.925   2.184   6.592  0.2995  0.0034  0.0504
 6691SOL    HW131532   0.943   2.167   6.499  0.4196  1.5602 -0.2193
 6691SOL    HW231533   0.901   2.094   6.610  0.1725 -0.0287 -0.2823
 6692SOL     OW31534   0.772   2.209   8.147 -0.5479  0.4911 -0.5601
 6692SOL    HW131535   0.829   2.217   8.071  0.2508  0.8644  0.0730
 6692SOL    HW231536   0.828   2.169   8.214  0.6639  2.4055 -0.4090
 6693SOL     OW31537   0.920   4.673   6.369  0.9879  0.1418  0.1885
 6693SOL    HW131538   0.994   0.011   6.387  0.2135  0.8229  1.1809
 6693SOL    HW231539   0.965   4.594   6.339  0.3548 -0.5371  1.0146
 6694SOL     OW31540   3.942   2.571   9.102 -0.0456  0.1184 -0.0088
 6694SOL    HW131541   3.855   2.604   9.079 -0.8683 -2.2896 -0.2895
 6694SOL    HW231542   3.918   2.485   9.068  1.8032  0.4907 -2.3165
 6695SOL     OW31543   1.083   0.199   6.937  0.3073 -0.0307 -0.7393
 6695SOL    HW131544   1.015   0.133   6.950 -0.6484  1.1053  0.1346
 6695SOL    HW231545   1.132   0.176   6.859  1.8366  0.9933 -0.0886
 6696SOL     OW31546   2.943   0.779  12.558 -0.1013 -0.6115 -0.5607
 6696SOL    HW131547   3.008   0.777  12.487  0.7634  3.5672  0.1082
 6696SOL    HW231548   2.869   0.734  12.518  0.0744 -1.5436  0.1704
 6697SOL     OW31549   1.188   0.157  13.792  0.2625 -0.3088  0.0901
 6697SOL    HW131550   1.171   0.216  13.865  1.9959  0.3037  0.0036
 6697SOL    HW231551   1.181   0.219  13.720  1.9347 -1.2250 -0.8526
 6698SOL     OW31552   4.299   0.289   4.648 -0.3430  0.3799  0.0402
 6698SOL    HW131553   4.326   0.380   4.655  2.7841 -0.4536 -1.1898
 6698SOL    HW231554   4.336   0.244   4.724 -1.7250 -2.2788 -0.8362
 6699SOL     OW31555   2.743   0.382  13.288 -0.4932 -0.0076 -0.0840
 6699SOL    HW131556   2.691   0.447  13.241  0.0497  0.0318 -0.6216
 6699SOL    HW231557   2.833   0.414  13.299 -0.3257 -1.0601  1.6865
 6700SOL     OW31558   2.732   4.357   8.886  0.7304 -0.0812  0.2303
 6700SOL    HW131559   2.751   4.428   8.948 -0.1874  0.9997 -0.7239
 6700SOL    HW231560   2.751   4.403   8.804  1.7132 -1.8482 -0.5378
 6701SOL     OW31561   2.301   1.405   7.645 -0.5953 -0.2267  0.6389
 6701SOL    HW131562   2.243   1.410   7.569  0.5075  0.1392 -0.1856
 6701SOL    HW231563   2.370   1.350   7.607 -0.3615  1.0361 -0.7692
 6702SOL     OW31564   1.957   1.660   9.890  0.8117  0.3340 -0.4731
 6702SOL    HW131565   2.045   1.637   9.919  0.7108  0.1996 -0.2688
 6702SOL    HW231566   1.953   1.747   9.931  0.8173  0.0225  0.1937
 6703SOL     OW31567   0.642   1.823   4.970 -0.1306 -0.8881 -0.7984
 6703SOL    HW131568   0.620   1.843   5.061 -1.1357 -2.1788 -0.7494
 6703SOL    HW231569   0.670   1.907   4.935  0.6366 -0.2851  1.2546
 6704SOL     OW31570   1.165   2.973   2.772  0.2235 -0.2939 -0.3873
 6704SOL    HW131571   1.244   2.947   2.819 -0.8997 -2.4384  0.3245
 6704SOL    HW231572   1.152   3.053   2.822  0.2807 -0.5393  0.0176
 6705SOL     OW31573   2.018   4.169   8.024 -0.1197  0.1471 -1.0146
 6705SOL    HW131574   2.024   4.236   8.092  0.3455 -0.0322 -0.8815
 6705SOL    HW231575   2.057   4.204   7.944  1.9127 -1.1875 -0.5908
 6706SOL     OW31576   1.689   2.466   1.887  0.0709  0.3867  0.6127
 6706SOL    HW131577   1.728   2.493   1.804  3.3755  2.8345  2.9782
 6706SOL    HW231578   1.763   2.458   1.948  0.1997  0.5038  0.4724
 6707SOL     OW31579   0.681   3.790   7.332  0.5614  0.3816 -0.1985
 6707SOL    HW131580   0.676   3.763   7.424  2.3743  0.5260 -0.0567
 6707SOL    HW231581   0.777   3.791   7.321  0.4978  0.4504 -0.7624
 6708SOL     OW31582   0.023   1.650   9.042  0.2126 -0.0502  0.0118
 6708SOL    HW131583   0.067   1.735   9.042  0.5475 -0.2072  1.4809
 6708SOL    HW231584   4.649   1.661   9.054  0.4516  1.2402  0.7724
 6709SOL     OW31585   0.692   3.680   6.148  0.2317  0.3680 -0.5507
 6709SOL    HW131586   0.750   3.619   6.193 -0.0665  1.7873  1.7433
 6709SOL    HW231587   0.711   3.657   6.057  1.5119 -0.4137 -0.0781
 6710SOL     OW31588   1.560   3.698   8.985  0.2001 -0.2613  0.2947
 6710SOL    HW131589   1.486   3.642   8.965 -0.2699 -0.4210  2.5425
 6710SOL    HW231590   1.545   3.767   8.920 -2.1245 -2.2363 -1.2394
 6711SOL     OW31591   0.944   1.053  15.106  0.0666  0.4677  0.0228
 6711SOL    HW131592   0.883   1.004  15.050 -0.3601  0.4589  0.4944
 6711SOL    HW231593   0.996   1.102  15.042  2.2086  0.0241  1.4433
 6712SOL     OW31594   3.043   2.027  17.089  0.4415  0.4111 -0.0153
 6712SOL    HW131595   3.112   2.052  17.149 -0.7349  0.4333  1.3447
 6712SOL    HW231596   3.059   2.090  17.019 -0.1334 -1.0018 -1.4133
 6713SOL     OW31597   4.266   3.088  16.853 -0.0325 -0.0095 -0.2674
 6713SOL    HW131598   4.223   3.003  16.845  0.8291 -0.3342 -1.4222
 6713SOL    HW231599   4.240   3.125  16.768  0.5820 -1.0018 -0.8950
 6714SOL     OW31600   3.089   0.887   3.477 -0.4153  0.6995  0.0177
 6714SOL    HW131601   3.041   0.921   3.401  1.2970  3.3701  0.1450
 6714SOL    HW231602   3.044   0.942   3.542 -3.6311  0.0864 -1.6943
 6715SOL     OW31603   3.353   1.078   3.928  0.0256 -0.4784 -0.4681
 6715SOL    HW131604   3.379   1.134   3.854 -0.1714  1.2229  0.7503
 6715SOL    HW231605   3.443   1.059   3.956 -0.5443 -1.1521  0.8900
 6716SOL     OW31606   3.017   3.200  11.940 -0.3531 -0.5898 -0.1607
 6716SOL    HW131607   2.966   3.182  11.862  2.7041 -0.7695 -2.1112
 6716SOL    HW231608   2.985   3.287  11.964 -0.1638  0.3466 -3.3529
 6717SOL     OW31609   0.292   1.709   8.570  0.1948  0.5000 -0.0589
 6717SOL    HW131610   0.250   1.688   8.486  0.6561  1.0922 -0.4376
 6717SOL    HW231611   0.287   1.804   8.572  1.6460  0.5904 -0.2975
 6718SOL     OW31612   1.795   0.380   2.968  0.0244  0.7861 -0.0408
 6718SOL    HW131613   1.789   0.347   3.057 -0.0409 -1.6427 -0.9639
 6718SOL    HW231614   1.754   0.467   2.972  1.6460  1.5076  1.2843
 6719SOL     OW31615   1.855   2.784  11.311 -0.0778 -0.5398 -0.2627
 6719SOL    HW131616   1.774   2.746  11.345 -1.2427  1.5635 -0.6644
 6719SOL    HW231617   1.830   2.813  11.224  0.0565  1.1746  0.2643
 6720SOL     OW31618   2.874   4.352   7.769  0.0645 -0.3603  0.1691
 6720SOL    HW131619   2.920   4.384   7.691  0.4365  0.0415  0.5595
 6720SOL    HW231620   2.890   4.260   7.747 -0.4717 -0.2058 -0.8567
 6721SOL     OW31621   0.828   3.985   3.337 -0.4150 -0.2475 -0.3680
 6721SOL    HW131622   0.876   3.946   3.265  0.0795 -0.3001 -0.0038
 6721SOL    HW231623   0.814   4.076   3.310 -0.4927  0.3021  1.5421
 6722SOL     OW31624   2.111   3.967  12.252  0.1659 -0.6008 -0.8808
 6722SOL    HW131625   2.176   4.016  12.202 -2.4811  2.6321 -1.1713
 6722SOL    HW231626   2.061   3.946  12.173  0.6870  2.2594 -1.9628
 6723SOL     OW31627   2.290   0.026   2.092  0.5508  0.6604 -0.3083
 6723SOL    HW131628   2.340   0.034   2.011 -0.1966  0.6260 -0.7681
 6723SOL    HW231629   2.215   4.697   2.062  0.4946  0.2953  0.4235
 6724SOL     OW31630   2.286   3.092   8.775 -0.1440 -0.4485 -0.3467
 6724SOL    HW131631   2.337   3.142   8.839  2.8375 -0.1976 -2.9071
 6724SOL    HW231632   2.340   3.100   8.696 -1.2496  1.2439 -0.9239
 6725SOL     OW31633   0.655   1.722   8.541  0.2388 -0.3278 -0.5060
 6725SOL    HW131634   0.600   1.646   8.520  0.8946 -0.9814  0.1216
 6725SOL    HW231635   0.737   1.681   8.514  0.3243 -0.7104  0.3314
 6726SOL     OW31636   1.998   4.155   5.718  0.2285 -0.2281  0.0519
 6726SOL    HW131637   1.949   4.088   5.669  1.3065  0.0336 -1.3794
 6726SOL    HW231638   2.049   4.092   5.770  2.9989  1.6143 -0.4595
 6727SOL     OW31639   3.448   4.257   9.713  0.0974  0.4834  0.3791
 6727SOL    HW131640   3.358   4.290   9.722 -0.3583 -0.7974  0.4391
 6727SOL    HW231641   3.450   4.245   9.618 -0.5598  1.0105  0.2961
 6728SOL     OW31642   0.357   0.791   4.485 -0.4234  0.3442  0.2908
 6728SOL    HW131643   0.443   0.827   4.504 -0.4259 -0.3303  1.5289
 6728SOL    HW231644   0.376   0.699   4.464  0.9603  1.0780 -1.6246
 6729SOL     OW31645   1.948   1.279   4.129  0.0833  0.2268 -0.0229
 6729SOL    HW131646   1.864   1.235   4.142  0.8249 -1.1974 -0.0662
 6729SOL    HW231647   2.014   1.210   4.133  0.3200  0.3394 -2.2765
 6730SOL     OW31648   0.039   2.246   8.260 -0.2756 -0.2314  0.2044
 6730SOL    HW131649   4.698   2.319   8.265  0.2346  0.3015 -1.5570
 6730SOL    HW231650   0.111   2.301   8.230 -1.8554  2.0335  0.5794
 6731SOL     OW31651   1.296   2.876  15.448  0.4461  0.0538  0.0134
 6731SOL    HW131652   1.392   2.876  15.446  0.4849 -1.4704  1.1106
 6731SOL    HW231653   1.277   2.875  15.355 -1.4971 -0.2875  0.4103
 6732SOL     OW31654   1.784   1.808   2.973 -0.0369 -0.2368 -0.5055
 6732SOL    HW131655   1.712   1.834   3.029  0.4434  2.8958 -1.3364
 6732SOL    HW231656   1.813   1.893   2.939  2.1847 -0.9135 -0.3486
 6733SOL     OW31657   3.506   3.970   7.956 -0.0201 -0.1393  0.4845
 6733SOL    HW131658   3.491   3.911   8.030  2.1599 -3.0671 -1.3884
 6733SOL    HW231659   3.418   4.004   7.942 -0.4274 -1.0018  0.9839
 6734SOL     OW31660   2.317   3.171   8.103 -0.0711  0.8111  0.2225
 6734SOL    HW131661   2.301   3.132   8.017 -1.4963 -0.4935  1.0707
 6734SOL    HW231662   2.410   3.193   8.099  0.9771 -3.7702 -1.0392
 6735SOL     OW31663   0.601   4.151  17.300  0.0243  0.7482 -0.2056
 6735SOL    HW131664   0.603   4.056  17.286  1.5072  0.5817  1.2173
 6735SOL    HW231665   0.689   4.162  17.266  0.5959 -1.1258  0.6679
 6736SOL     OW31666   1.245   4.411  12.959 -0.2790  0.5836  0.7364
 6736SOL    HW131667   1.271   4.498  12.986  3.3732  0.7217 -3.2082
 6736SOL    HW231668   1.181   4.389  13.027  0.1747 -1.7752  0.4243
 6737SOL     OW31669   2.402   4.238   3.301 -0.0133  0.7044  0.0597
 6737SOL    HW131670   2.332   4.303   3.297 -0.5931  0.0236 -0.7060
 6737SOL    HW231671   2.480   4.287   3.274  1.3118 -1.8746 -0.7249
 6738SOL     OW31672   2.843   3.852   5.270 -0.0750 -0.1587  0.4162
 6738SOL    HW131673   2.791   3.819   5.343 -0.1080  0.9451  0.8847
 6738SOL    HW231674   2.769   3.874   5.213 -0.6071  0.1977  1.2622
 6739SOL     OW31675   0.456   2.953   8.227 -0.1562  0.0442  0.2779
 6739SOL    HW131676   0.422   2.990   8.146 -1.3759 -1.9983 -0.1348
 6739SOL    HW231677   0.551   2.950   8.213 -0.4596 -0.2270 -1.6362
 6740SOL     OW31678   0.615   4.497  16.289  0.0177 -0.3979  0.4723
 6740SOL    HW131679   0.677   4.430  16.317 -0.8001 -1.4857 -0.3140
 6740SOL    HW231680   0.666   4.537  16.219 -2.4262 -1.3282 -1.8057
 6741SOL     OW31681   2.510   3.074   4.180 -0.0332  0.0642 -0.4607
 6741SOL    HW131682   2.517   3.153   4.126  3.5530  0.7197  1.0125
 6741SOL    HW231683   2.466   3.106   4.259  2.8408  1.7671  0.4218
 6742SOL     OW31684   1.501   2.034   7.415 -0.1416  0.0346  0.6504
 6742SOL    HW131685   1.555   2.030   7.494  0.8032 -0.3883 -0.0173
 6742SOL    HW231686   1.528   1.953   7.371  0.7687  1.3101 -1.1671
 6743SOL     OW31687   2.640   1.940   2.384  0.0852  0.4580  0.0821
 6743SOL    HW131688   2.672   1.998   2.315 -2.5051 -0.7311 -2.1448
 6743SOL    HW231689   2.584   1.880   2.334 -0.8981  0.7125  0.8625
 6744SOL     OW31690   3.047   0.825   6.126 -1.2782  0.1246  0.0184
 6744SOL    HW131691   3.043   0.819   6.221 -2.8730  2.3728  0.1121
 6744SOL    HW231692   3.135   0.800   6.100 -0.6801  0.0569  2.1277
 6745SOL     OW31693   3.928   2.353  11.937  0.1630 -0.1447  0.2562
 6745SOL    HW131694   3.958   2.267  11.966 -0.6506 -0.3345  0.5280
 6745SOL    HW231695   3.958   2.412  12.007  0.6932  0.3137 -0.3614
 6746SOL     OW31696   3.310   1.524   9.607  0.0663 -0.8378  0.2037
 6746SOL    HW131697   3.320   1.515   9.701 -1.2412  0.8573  0.5036
 6746SOL    HW231698   3.289   1.432   9.589  0.1297 -0.5599 -1.3535
 6747SOL     OW31699   0.923   1.288   3.987  0.0880  1.0600 -0.1357
 6747SOL    HW131700   0.902   1.354   3.921  1.9100 -0.4448 -2.2423
 6747SOL    HW231701   1.009   1.266   3.952 -0.5857  1.5239 -2.0792
 6748SOL     OW31702   3.915   2.457   0.339  0.0105  0.4283  0.4996
 6748SOL    HW131703   3.862   2.521   0.291 -0.3640 -0.2704 -0.0331
 6748SOL    HW231704   3.864   2.377   0.321  1.4945 -0.2728 -0.6512
 6749SOL     OW31705   3.989   2.802   5.552  0.8407  0.4979 -0.3446
 6749SOL    HW131706   3.903   2.832   5.524  1.0354  1.0789 -0.3340
 6749SOL    HW231707   3.971   2.758   5.635  0.5315  0.7396 -0.2840
 6750SOL     OW31708   4.170   0.531   8.607 -0.2087  0.3922  0.0164
 6750SOL    HW131709   4.227   0.565   8.538 -1.6984 -0.4649 -1.6293
 6750SOL    HW231710   4.108   0.481   8.554 -1.2994  0.2217  1.4498
 6751SOL     OW31711   3.941   2.942   8.881 -0.3032  0.1985 -0.2433
 6751SOL    HW131712   3.944   3.000   8.957 -1.9007 -2.2979  1.7154
 6751SOL    HW231713   4.014   2.882   8.896 -0.5145  0.4581  1.8056
 6752SOL     OW31714   2.527   4.669   5.832 -0.3271 -0.0390  0.2700
 6752SOL    HW131715   2.489   4.686   5.745 -0.7298  0.1899  0.4894
 6752SOL    HW231716   2.598   4.610   5.808 -0.6667  0.1463 -1.2016
 6753SOL     OW31717   4.634   4.291  12.701 -0.4034  0.0884 -0.5244
 6753SOL    HW131718   0.003   4.310  12.672  0.0824  1.7855  2.0690
 6753SOL    HW231719   4.592   4.372  12.672  2.5166  0.9895 -2.2373
 6754SOL     OW31720   2.946   1.333  12.583  0.6064  0.1073 -0.0113
 6754SOL    HW131721   2.903   1.417  12.563  0.8272  0.4924  1.1118
 6754SOL    HW231722   2.954   1.338  12.679  1.3386  0.9000 -0.1123
 6755SOL     OW31723   4.268   1.351  13.137 -0.5240  0.3037  0.1109
 6755SOL    HW131724   4.244   1.432  13.092 -0.4652 -0.0418 -0.5403
 6755SOL    HW231725   4.272   1.382  13.227 -0.3783  1.7935 -0.4080
 6756SOL     OW31726   0.769   1.738  15.232 -0.5073  0.4562  0.1428
 6756SOL    HW131727   0.773   1.644  15.252  1.1279  0.5497  0.2895
 6756SOL    HW231728   0.838   1.732  15.165 -1.0184  1.4938 -0.4832
 6757SOL     OW31729   0.450   2.426   0.229 -0.4130 -0.6962  0.2831
 6757SOL    HW131730   0.365   2.469   0.224 -0.7482 -1.4012  0.0043
 6757SOL    HW231731   0.510   2.478   0.283 -2.4445  1.7326  0.1970
 6758SOL     OW31732   0.869   2.725   0.986  0.5252 -0.0840 -0.1125
 6758SOL    HW131733   0.845   2.693   1.073 -3.6076  3.7536  0.1802
 6758SOL    HW231734   0.794   2.784   0.981  1.5433  1.4193  2.4936
 6759SOL     OW31735   4.602   1.817   2.814 -0.3764  0.3968 -0.3331
 6759SOL    HW131736   4.560   1.750   2.867 -1.3800  0.5298 -0.9715
 6759SOL    HW231737   4.686   1.771   2.811 -0.5260  0.1138 -0.1801
 6760SOL     OW31738   2.837   3.657   9.616  0.0350  0.0423  0.1248
 6760SOL    HW131739   2.748   3.631   9.643 -0.9396  1.5596 -1.6534
 6760SOL    HW231740   2.890   3.615   9.684 -1.2386 -2.7865 -0.6334
 6761SOL     OW31741   1.060   4.557   5.947  0.3793 -0.0554 -0.4977
 6761SOL    HW131742   1.092   4.479   5.993 -2.0920 -0.3878  0.6412
 6761SOL    HW231743   1.036   4.611   6.022  0.1119 -2.4590  1.1371
 6762SOL     OW31744   2.297   3.189  16.060  0.4336  0.1956  0.1076
 6762SOL    HW131745   2.376   3.138  16.078  0.6973 -0.1650 -2.1758
 6762SOL    HW231746   2.232   3.120  16.057 -0.7630  1.4418 -2.4510
 6763SOL     OW31747   1.534   0.133   5.565  0.0088 -0.1004 -0.4367
 6763SOL    HW131748   1.557   0.058   5.620  0.0820 -0.3513 -0.8057
 6763SOL    HW231749   1.553   0.202   5.628  1.9679 -1.7547  0.7829
 6764SOL     OW31750   0.206   1.893   8.997 -0.3064 -0.2877  0.1297
 6764SOL    HW131751   0.219   1.943   9.078  0.9618 -0.0539 -0.2140
 6764SOL    HW231752   0.154   1.952   8.942 -0.9361 -1.3934 -0.4675
 6765SOL     OW31753   4.087   3.535  13.370 -0.0719 -0.2279  0.4420
 6765SOL    HW131754   4.004   3.487  13.369  0.6700 -1.5086 -0.8757
 6765SOL    HW231755   4.049   3.622  13.376 -0.1497 -0.1200 -1.4039
 6766SOL     OW31756   0.960   3.662   2.977 -0.3372  0.4438  0.0742
 6766SOL    HW131757   1.033   3.607   3.006  0.6175  0.8184 -1.6428
 6766SOL    HW231758   0.885   3.632   3.029 -1.2551  1.1149 -0.8632
 6767SOL     OW31759   4.719   1.267  10.718 -0.1372  0.1237  0.1304
 6767SOL    HW131760   4.675   1.279  10.634  0.4804  0.4611 -0.1417
 6767SOL    HW231761   0.052   1.189  10.701  0.0838  0.5925 -1.3441
 6768SOL     OW31762   0.895   3.455   5.149  0.0480 -0.4635 -0.2862
 6768SOL    HW131763   0.878   3.548   5.163 -0.3467 -0.4345 -0.9525
 6768SOL    HW231764   0.984   3.443   5.183  0.1748  1.3506  0.0100
 6769SOL     OW31765   1.500   3.983  12.143 -0.1418 -0.1847 -0.2146
 6769SOL    HW131766   1.481   4.071  12.177  1.4865  0.7306 -1.6042
 6769SOL    HW231767   1.594   3.996  12.125  0.2385 -3.7287 -0.8205
 6770SOL     OW31768   2.729   3.750  15.974  0.1642 -0.0206  0.4592
 6770SOL    HW131769   2.810   3.700  15.989 -0.3348 -1.0341 -0.2004
 6770SOL    HW231770   2.754   3.837  16.006  0.4247 -0.1959  0.7369
 6771SOL     OW31771   1.700   1.811   1.479 -0.8714 -0.1796  0.1249
 6771SOL    HW131772   1.710   1.904   1.456 -1.4086 -0.6398 -1.9462
 6771SOL    HW231773   1.715   1.761   1.399  0.2900  0.6617 -0.1846
 6772SOL     OW31774   3.000   2.940  17.485 -0.4302  0.1997 -0.0306
 6772SOL    HW131775   2.983   2.884  17.409 -0.1248  0.5260 -0.3356
 6772SOL    HW231776   3.087   2.910  17.511  0.2415  1.2066 -1.0971
 6773SOL     OW31777   1.431   0.466   7.381 -0.3360  0.4229 -0.4416
 6773SOL    HW131778   1.485   0.542   7.364 -1.0087  0.9627 -0.1642
 6773SOL    HW231779   1.475   0.404   7.322 -0.7412  0.7098 -1.0503
 6774SOL     OW31780   2.285   1.203   0.737 -0.2934 -0.3840 -0.5459
 6774SOL    HW131781   2.330   1.126   0.702 -1.3010 -0.8617 -0.7632
 6774SOL    HW231782   2.344   1.275   0.714 -0.8286 -0.1213 -1.0853
 6775SOL     OW31783   0.016   1.024   3.827  0.0789 -0.1230 -0.0273
 6775SOL    HW131784   0.010   0.929   3.817  1.5971 -0.2156 -0.1346
 6775SOL    HW231785   0.111   1.035   3.831  0.0103  0.5824 -0.3551
 6776SOL     OW31786   1.056   4.090  10.832  0.3212 -0.2594 -0.3022
 6776SOL    HW131787   1.102   4.006  10.819  0.7874  0.1441 -1.2486
 6776SOL    HW231788   1.127   4.139  10.872 -1.3071  1.6217  0.2911
 6777SOL     OW31789   1.076   0.705   2.731 -0.6316  0.2327  0.3944
 6777SOL    HW131790   1.100   0.635   2.670  0.0855 -1.0201  2.0806
 6777SOL    HW231791   1.153   0.708   2.789 -0.7133  3.5111  0.3436
 6778SOL     OW31792   0.392   0.260  16.327  0.1189 -0.3842  0.3189
 6778SOL    HW131793   0.447   0.302  16.393 -1.7418  0.7441  1.1332
 6778SOL    HW231794   0.405   0.319  16.252 -1.0691 -0.9420 -0.3294
 6779SOL     OW31795   0.598   3.729   6.826 -0.5561  0.0092  0.1568
 6779SOL    HW131796   0.628   3.783   6.900  0.0255  1.0157 -0.8214
 6779SOL    HW231797   0.677   3.710   6.775  1.1982  0.8000  2.5426
 6780SOL     OW31798   1.374   0.746   5.980 -0.0762  0.0868  0.2470
 6780SOL    HW131799   1.415   0.704   6.056  0.1331  0.2675  0.2333
 6780SOL    HW231800   1.445   0.791   5.935 -0.5561 -0.5545 -1.1487
 6781SOL     OW31801   1.020   4.644   8.957  0.4623  0.0050 -0.1833
 6781SOL    HW131802   0.962   4.673   8.887 -0.2646 -1.0346 -0.0162
 6781SOL    HW231803   0.981   4.558   8.974  1.0011 -0.4999 -1.5778
 6782SOL     OW31804   4.299   3.355  16.374  0.1489 -0.8515  0.1145
 6782SOL    HW131805   4.343   3.347  16.289  1.3254  1.5029  0.5234
 6782SOL    HW231806   4.212   3.387  16.352  0.3361 -0.1131  0.4553
 6783SOL     OW31807   2.371   1.505   4.329  0.2241 -0.4152  0.7710
 6783SOL    HW131808   2.294   1.528   4.277  1.4376 -2.2600 -1.8369
 6783SOL    HW231809   2.334   1.432   4.380 -0.1105  0.8774  2.3784
 6784SOL     OW31810   1.623   0.368   6.684  0.4625  0.7996  0.5559
 6784SOL    HW131811   1.680   0.291   6.689  0.7712  0.9400 -1.0695
 6784SOL    HW231812   1.642   0.383   6.592 -0.6403 -2.3486 -0.1775
 6785SOL     OW31813   3.934   0.186   2.113 -0.3805 -0.1389  0.1400
 6785SOL    HW131814   3.929   0.258   2.176 -0.7906  0.9292 -1.0999
 6785SOL    HW231815   3.937   0.238   2.033  0.1942  0.3908  0.5019
 6786SOL     OW31816   0.432   3.718  13.505 -0.3975 -0.5392  0.4835
 6786SOL    HW131817   0.404   3.792  13.450  0.4462 -0.2979  0.3831
 6786SOL    HW231818   0.527   3.727  13.499 -0.3524 -0.0852  1.7465
 6787SOL     OW31819   0.183   0.345   3.870 -0.1508 -0.0881 -0.1486
 6787SOL    HW131820   0.246   0.404   3.827 -0.8943  0.6470 -0.2340
 6787SOL    HW231821   0.169   0.296   3.789 -0.6291  1.9874 -1.3323
 6788SOL     OW31822   3.660   3.668   4.849 -0.0421  0.0084  0.1903
 6788SOL    HW131823   3.683   3.712   4.931 -1.7843  1.5088 -0.1288
 6788SOL    HW231824   3.565   3.677   4.854 -0.2095 -1.4662 -0.4261
 6789SOL     OW31825   3.923   1.208  14.787 -0.5339 -0.2218  0.4688
 6789SOL    HW131826   3.855   1.181  14.724 -0.7570 -0.2873  0.7374
 6789SOL    HW231827   3.950   1.120  14.815  0.0514 -0.6734 -1.5206
 6790SOL     OW31828   2.854   1.599   1.221 -0.4931 -0.0219 -0.4483
 6790SOL    HW131829   2.877   1.644   1.302 -0.4691  1.3354 -1.2069
 6790SOL    HW231830   2.773   1.635   1.186 -1.2961 -1.2467  0.1585
 6791SOL     OW31831   4.489   3.015  14.631  0.3843  0.1199 -0.7559
 6791SOL    HW131832   4.557   3.077  14.606  1.0304 -1.7825 -3.6332
 6791SOL    HW231833   4.447   3.005  14.546  0.7525  1.4330 -1.0944
 6792SOL     OW31834   4.260   0.759   6.782  0.0941  0.2776 -0.0721
 6792SOL    HW131835   4.305   0.768   6.698 -0.1453 -0.4043 -0.2777
 6792SOL    HW231836   4.302   0.678   6.811 -0.9693  0.1111  1.0178
 6793SOL     OW31837   2.171   1.401   5.281 -0.4738  0.5407 -0.0788
 6793SOL    HW131838   2.257   1.364   5.266 -1.6314 -2.0449 -0.3308
 6793SOL    HW231839   2.121   1.321   5.265 -0.6633  0.7301 -0.4385
 6794SOL     OW31840   3.682   1.273   3.431 -0.6770 -0.1094  0.5732
 6794SOL    HW131841   3.630   1.255   3.352  1.7011 -0.3503 -0.9432
 6794SOL    HW231842   3.630   1.344   3.468 -1.2325 -0.9721  1.4559
 6795SOL     OW31843   3.669   0.518   4.817 -0.0220 -0.4281 -0.4651
 6795SOL    HW131844   3.637   0.438   4.776 -1.1214 -1.6298  2.6968
 6795SOL    HW231845   3.708   0.558   4.740  2.2661  1.0554  1.4425
 6796SOL     OW31846   4.152   0.488   9.108  0.1696  0.7126 -0.0746
 6796SOL    HW131847   4.057   0.488   9.100  0.1837 -1.4339 -0.2547
 6796SOL    HW231848   4.177   0.465   9.019  0.2695 -1.3572  0.4733
 6797SOL     OW31849   2.134   2.584   6.389 -0.6572  0.5828  0.3856
 6797SOL    HW131850   2.227   2.598   6.406 -0.5890  0.9318 -0.3010
 6797SOL    HW231851   2.091   2.669   6.394 -2.6006 -0.3514 -0.0681
 6798SOL     OW31852   4.286   0.712  12.859 -0.1878 -0.0847 -0.2913
 6798SOL    HW131853   4.247   0.659  12.790 -0.7742 -1.6268  1.2215
 6798SOL    HW231854   4.206   0.727  12.909 -1.1349 -1.8841 -1.2809
 6799SOL     OW31855   3.473   2.137  15.289 -0.1302 -0.8195 -0.0544
 6799SOL    HW131856   3.434   2.185  15.361 -2.1484 -0.3644 -1.4407
 6799SOL    HW231857   3.393   2.098  15.252 -0.5163 -1.0982  1.0626
 6800SOL     OW31858   0.990   0.895  17.093  0.6099 -0.0221  0.7740
 6800SOL    HW131859   1.036   0.814  17.112  1.3137  0.3572  0.6984
 6800SOL    HW231860   0.957   0.918  17.179  0.3189 -2.0980  1.2173
 6801SOL     OW31861   2.601   0.317  11.063  0.2610 -0.0757 -0.6154
 6801SOL    HW131862   2.613   0.396  11.011 -2.8171  0.1098 -1.0556
 6801SOL    HW231863   2.694   0.296  11.070  0.1957  0.0980  0.6603
 6802SOL     OW31864   0.896   1.839   3.027 -0.4016 -0.4449 -0.0502
 6802SOL    HW131865   0.819   1.835   2.970 -0.5523 -2.1865  0.2624
 6802SOL    HW231866   0.940   1.909   2.979  3.1268 -1.5927  1.5574
 6803SOL     OW31867   2.051   1.053   1.595  0.3047 -0.0027 -0.0800
 6803SOL    HW131868   2.124   1.107   1.625  1.1968 -0.2541 -1.7913
 6803SOL    HW231869   2.069   0.972   1.643 -0.9274  0.8324  1.7815
 6804SOL     OW31870   0.156   2.331  16.141 -0.2915  0.0691 -0.2894
 6804SOL    HW131871   0.096   2.316  16.214 -0.3701 -0.8529 -0.5426
 6804SOL    HW231872   0.106   2.304  16.063 -0.0693  0.3157 -0.5142
 6805SOL     OW31873   0.296   4.463   6.853 -0.4949 -0.1917  0.3006
 6805SOL    HW131874   0.314   4.504   6.768 -1.7659  0.7157  0.4571
 6805SOL    HW231875   0.388   4.457   6.876  0.5586  3.9282 -2.7436
 6806SOL     OW31876   1.942   0.487  10.905 -0.0462 -0.4538 -0.5655
 6806SOL    HW131877   1.948   0.521  10.994 -0.4734 -0.5969 -0.4818
 6806SOL    HW231878   1.992   0.406  10.917  0.4327 -0.2470 -1.2068
 6807SOL     OW31879   3.161   2.494   6.392  0.0213  0.1982 -0.3640
 6807SOL    HW131880   3.139   2.482   6.485 -0.4370 -0.3477 -0.5438
 6807SOL    HW231881   3.175   2.589   6.398  2.1793 -0.2072  1.2633
 6808SOL     OW31882   1.498   1.387   2.521  0.5214 -0.3873  0.6738
 6808SOL    HW131883   1.504   1.353   2.431 -3.0592 -1.2278  0.7343
 6808SOL    HW231884   1.405   1.411   2.529  1.3131  2.3363  1.4336
 6809SOL     OW31885   3.723   2.911   1.075  0.2914  0.1367  0.0828
 6809SOL    HW131886   3.648   2.864   1.039 -0.5061  1.0069  0.6248
 6809SOL    HW231887   3.685   2.943   1.156  0.2841 -0.5415  0.3507
 6810SOL     OW31888   1.565   2.325   9.621 -0.3695 -0.3120  0.2954
 6810SOL    HW131889   1.528   2.363   9.700 -2.6170 -2.0798  0.1132
 6810SOL    HW231890   1.593   2.397   9.565  2.6765 -0.6061  1.4474
 6811SOL     OW31891   4.589   4.695   3.346  0.0467  0.1820  0.4784
 6811SOL    HW131892   4.569   0.017   3.430 -0.2379  0.1125  0.4474
 6811SOL    HW231893   4.514   4.637   3.333  1.5276 -1.9737  1.6386
 6812SOL     OW31894   1.561   1.228   6.355 -0.0966 -0.2903 -0.1873
 6812SOL    HW131895   1.492   1.252   6.293  0.8498  0.3129 -0.9998
 6812SOL    HW231896   1.639   1.276   6.326  0.0260 -0.4662 -0.1450
 6813SOL     OW31897   2.638   2.699   4.555 -0.0968 -0.5583  0.0748
 6813SOL    HW131898   2.580   2.655   4.493 -1.8221  0.4324  0.9808
 6813SOL    HW231899   2.652   2.788   4.522 -1.9738 -0.5425 -0.6604
 6814SOL     OW31900   3.241   0.163   7.510 -0.2588 -0.2785 -0.1732
 6814SOL    HW131901   3.285   0.231   7.561 -2.4183 -0.2345  1.6117
 6814SOL    HW231902   3.187   0.224   7.459 -0.5993  0.0263  0.5533
 6815SOL     OW31903   1.244   0.078  13.293 -0.0405 -0.0073  0.1881
 6815SOL    HW131904   1.159   0.110  13.322  0.9525  1.2025  1.8075
 6815SOL    HW231905   1.298   0.135  13.349  0.3151  1.2530 -1.4364
 6816SOL     OW31906   2.301   2.556   5.922 -0.3563  0.0827  0.7477
 6816SOL    HW131907   2.251   2.505   5.858  2.4011 -1.4480 -0.1724
 6816SOL    HW231908   2.375   2.583   5.868 -1.0585 -1.9458 -1.2306
 6817SOL     OW31909   0.589   0.127   7.092  0.2016 -0.5076 -0.4102
 6817SOL    HW131910   0.639   0.079   7.159 -0.9204 -2.2486 -0.8240
 6817SOL    HW231911   0.508   0.150   7.136  0.8465  1.9654 -0.5427
 6818SOL     OW31912   0.473   1.413  14.166 -0.0469 -0.6271  1.1871
 6818SOL    HW131913   0.445   1.504  14.159  0.4926 -0.5914 -0.4939
 6818SOL    HW231914   0.386   1.372  14.173 -0.4436  0.6230  3.6894
 6819SOL     OW31915   3.878   1.637   5.725 -0.2506 -0.2647  0.7671
 6819SOL    HW131916   3.837   1.720   5.701 -2.0761 -1.6188 -0.8553
 6819SOL    HW231917   3.873   1.650   5.820 -2.3903  0.0162  0.6109
 6820SOL     OW31918   1.401   3.973   0.428 -0.0554 -0.0586 -0.4903
 6820SOL    HW131919   1.383   3.969   0.522  2.8986  2.1406  0.1847
 6820SOL    HW231920   1.376   3.888   0.393  0.4728  0.3547 -1.8720
 6821SOL     OW31921   3.350   4.490   4.767 -0.1306 -0.5917  1.0444
 6821SOL    HW131922   3.316   4.452   4.848  0.8031  2.0549  2.6884
 6821SOL    HW231923   3.441   4.462   4.777  0.3718  1.1183  1.3728
 6822SOL     OW31924   4.401   3.075  16.053 -0.6599  0.2782  0.4064
 6822SOL    HW131925   4.463   3.144  16.077  1.1619 -0.8010 -1.1728
 6822SOL    HW231926   4.441   3.001  16.097  0.2769  0.4505 -0.1397
 6823SOL     OW31927   3.767   0.493   9.372  0.1434  0.4008 -0.5612
 6823SOL    HW131928   3.691   0.500   9.429  0.2369 -2.4534 -0.0833
 6823SOL    HW231929   3.752   0.576   9.327 -1.6459  0.2742 -0.1732
 6824SOL     OW31930   3.144   2.349   4.041  0.0697 -0.3700  0.2292
 6824SOL    HW131931   3.156   2.265   4.085  0.4300 -0.2473  0.3664
 6824SOL    HW231932   3.060   2.380   4.075  0.4929 -0.9245  1.7948
 6825SOL     OW31933   1.664   0.094  16.188  0.2093 -0.0249  0.5873
 6825SOL    HW131934   1.738   0.092  16.248  0.0376 -0.2390  0.7942
 6825SOL    HW231935   1.703   0.093  16.101  1.6430 -1.6183  1.2546
 6826SOL     OW31936   1.414   0.609  14.692  0.1969 -0.1786 -0.6156
 6826SOL    HW131937   1.340   0.614  14.754 -0.5144 -0.1151 -1.4716
 6826SOL    HW231938   1.475   0.673  14.729 -0.4144 -1.4375  2.6350
 6827SOL     OW31939   3.861   0.841  10.301 -0.4059  0.3132  0.0907
 6827SOL    HW131940   3.801   0.833  10.375 -2.0214 -1.1966 -1.3784
 6827SOL    HW231941   3.865   0.935  10.283  1.7040  0.0219 -1.0115
 6828SOL     OW31942   4.086   2.336   2.102 -0.0780 -0.1454  0.3253
 6828SOL    HW131943   4.161   2.386   2.133  0.0323 -0.3665  0.4129
 6828SOL    HW231944   4.018   2.400   2.080 -1.2685 -2.0935 -1.6803
 6829SOL     OW31945   0.404   1.601   0.626  0.8819 -0.7272  0.7841
 6829SOL    HW131946   0.389   1.530   0.688 -0.7626 -1.6879 -0.6944
 6829SOL    HW231947   0.436   1.673   0.679 -0.1651 -1.1605  1.9859
 6830SOL     OW31948   1.377   3.038   6.090  0.3701 -0.3394 -0.0967
 6830SOL    HW131949   1.347   3.129   6.091  1.5973  0.0750 -0.1021
 6830SOL    HW231950   1.329   2.995   6.019  1.5511  0.8102 -1.5919
 6831SOL     OW31951   3.080   2.925  11.266  0.5020  0.7543  0.0614
 6831SOL    HW131952   3.026   2.917  11.345 -1.5406 -1.0683 -1.5216
 6831SOL    HW231953   3.171   2.939  11.293  0.6972  0.3888 -0.4101
 6832SOL     OW31954   0.331   4.012  14.372  0.2690 -0.4326 -0.4138
 6832SOL    HW131955   0.331   3.935  14.429 -1.4905  0.6198  0.9858
 6832SOL    HW231956   0.314   4.081  14.436 -2.4711 -0.6765 -0.8855
 6833SOL     OW31957   0.475   4.238  16.249 -0.0663  0.6689 -0.1714
 6833SOL    HW131958   0.525   4.319  16.246  3.4308 -1.4467  0.7852
 6833SOL    HW231959   0.541   4.183  16.207 -2.4501 -1.1250 -1.5433
 6834SOL     OW31960   2.879   3.644  10.843  0.1027 -0.3060 -0.5299
 6834SOL    HW131961   2.901   3.609  10.757 -0.8514 -1.7897 -0.1712
 6834SOL    HW231962   2.961   3.681  10.877 -0.5159  0.4280  0.1621
 6835SOL     OW31963   2.532   1.546   7.812  0.5208  1.0384 -0.4921
 6835SOL    HW131964   2.472   1.486   7.768 -0.5856  1.3455  0.6061
 6835SOL    HW231965   2.535   1.498   7.895  0.9266  0.6716 -0.7189
 6836SOL     OW31966   3.993   4.652   6.476 -0.2388  0.0186 -0.0099
 6836SOL    HW131967   3.952   4.656   6.563 -1.0889  0.0476 -0.4171
 6836SOL    HW231968   3.920   4.632   6.418 -0.5982  0.4015  0.3096
 6837SOL     OW31969   2.353   1.569   9.327 -0.3100 -0.1701 -0.0651
 6837SOL    HW131970   2.447   1.555   9.339 -0.6243 -3.0501 -0.8327
 6837SOL    HW231971   2.358   1.655   9.285 -1.5303 -0.0626 -0.0015
 6838SOL     OW31972   3.153   1.175   6.434 -0.1909  0.2915  0.1224
 6838SOL    HW131973   3.104   1.231   6.495 -2.3890  1.3480 -2.6320
 6838SOL    HW231974   3.200   1.247   6.392 -1.4226  0.0352 -1.6889
 6839SOL     OW31975   4.244   0.038   7.859  0.7689 -0.0142 -0.1417
 6839SOL    HW131976   4.222   4.697   7.789  2.2390  1.7550 -2.1721
 6839SOL    HW231977   4.155   0.059   7.887  0.3009 -2.3966  0.1937
 6840SOL     OW31978   2.879   1.984  16.791  0.2160 -0.7601  0.1747
 6840SOL    HW131979   2.889   1.904  16.842  1.9397 -0.8311 -0.2687
 6840SOL    HW231980   2.877   2.043  16.867  4.8900  1.4933 -1.4362
 6841SOL     OW31981   3.338   2.893  14.901  0.4326 -0.3862  0.9569
 6841SOL    HW131982   3.316   2.985  14.909 -0.0045 -0.1941 -2.2063
 6841SOL    HW231983   3.372   2.892  14.811 -0.4333 -0.3504  0.6243
 6842SOL     OW31984   4.009   1.292   0.662 -0.0235 -0.3023  0.4823
 6842SOL    HW131985   3.920   1.259   0.670 -0.5151  1.2570  1.3048
 6842SOL    HW231986   3.996   1.386   0.651 -1.5928 -0.4529  1.0816
 6843SOL     OW31987   1.560   1.481   8.800  0.4683 -0.6847 -0.4595
 6843SOL    HW131988   1.556   1.455   8.892  0.0013 -1.8230 -0.8083
 6843SOL    HW231989   1.651   1.510   8.793  0.3108  0.1247  0.8839
 6844SOL     OW31990   2.676   1.138   6.824 -0.3692 -0.5970  0.1339
 6844SOL    HW131991   2.704   1.178   6.742 -0.9260  2.3033  1.3648
 6844SOL    HW231992   2.583   1.160   6.830 -0.1861 -0.0339  0.8310
 6845SOL     OW31993   3.441   0.636   3.480 -0.5546 -0.0996 -0.1793
 6845SOL    HW131994   3.525   0.641   3.435  0.3972  2.2312  1.8398
 6845SOL    HW231995   3.426   0.731   3.479 -0.2389 -0.0457  0.5882
 6846SOL     OW31996   2.076   3.879   8.612  0.0521 -0.3328  0.1717
 6846SOL    HW131997   2.043   3.934   8.683  0.7392 -2.0531  1.8128
 6846SOL    HW231998   2.109   3.945   8.551  0.7442 -1.9922 -1.2462
 6847SOL     OW31999   3.445   1.741  13.853 -0.3742 -0.0947  0.2666
 6847SOL    HW132000   3.533   1.731  13.815 -0.5483  0.1106 -0.1937
 6847SOL    HW232001   3.429   1.835  13.860  0.9850  0.2066 -0.5032
 6848SOL     OW32002   3.029   1.314   8.446 -0.4126 -0.4144  0.4290
 6848SOL    HW132003   3.081   1.382   8.488 -2.0093  0.7046  0.5834
 6848SOL    HW232004   2.938   1.329   8.472 -0.4365 -0.6497  0.4759
 6849SOL     OW32005   0.104   2.835   2.095 -0.2888 -0.2450 -0.0989
 6849SOL    HW132006   0.112   2.811   2.003 -0.8139 -0.1707 -0.1611
 6849SOL    HW232007   0.019   2.797   2.118 -0.4302  0.2919  0.2698
 6850SOL     OW32008   3.777   2.399   2.331  0.9044  0.3761 -0.2081
 6850SOL    HW132009   3.806   2.430   2.245  0.5982 -0.8060 -0.7323
 6850SOL    HW232010   3.845   2.449   2.376 -0.2754  1.5416  0.3058
 6851SOL     OW32011   0.661   0.347  15.386  0.4159  0.2160  0.1048
 6851SOL    HW132012   0.621   0.319  15.468  1.2213  1.0537  0.7857
 6851SOL    HW232013   0.684   0.436  15.411  1.8427 -0.0554 -0.2053
 6852SOL     OW32014   2.547   3.392  13.092  0.0433  0.1584  0.0156
 6852SOL    HW132015   2.603   3.373  13.017 -0.5230  2.6748 -1.0442
 6852SOL    HW232016   2.586   3.344  13.164  2.4833  0.8105 -0.8795
 6853SOL     OW32017   3.952   1.377  16.430  0.1290  0.6584 -0.6485
 6853SOL    HW132018   3.979   1.351  16.518  2.1012 -1.4406 -1.8512
 6853SOL    HW232019   3.977   1.469  16.433  2.1402  0.0929 -0.1666
 6854SOL     OW32020   0.763   3.113  10.719  0.9420 -0.0359 -0.1048
 6854SOL    HW132021   0.858   3.127  10.714  1.1130 -0.6368  1.5545
 6854SOL    HW232022   0.745   3.128  10.626  0.0276 -3.0759 -0.3838
 6855SOL     OW32023   4.714   4.664   8.155  0.1644 -0.3321 -0.1523
 6855SOL    HW132024   0.017   4.635   8.067 -0.7119 -0.8541 -0.2141
 6855SOL    HW232025   4.620   4.662   8.142 -0.0243  0.6236  1.1020
 6856SOL     OW32026   3.652   2.390   9.101 -0.2631 -0.0169 -0.0607
 6856SOL    HW132027   3.591   2.316   9.098 -1.5910  1.0902 -0.8431
 6856SOL    HW232028   3.719   2.370   9.035 -0.9085 -2.4479  0.0158
 6857SOL     OW32029   0.771   4.626   9.467 -0.0558  0.2708 -0.1199
 6857SOL    HW132030   0.768   4.543   9.419  2.7599 -0.7722  1.5390
 6857SOL    HW232031   0.680   4.656   9.475 -0.2915  0.3005 -2.8406
 6858SOL     OW32032   3.097   0.296   5.773 -0.0406 -0.1677 -0.2431
 6858SOL    HW132033   3.142   0.378   5.792  0.1799 -0.2956 -0.2139
 6858SOL    HW232034   3.041   0.292   5.851 -0.3066  2.8730 -0.2656
 6859SOL     OW32035   2.473   1.744   2.245 -0.6287 -0.4287 -0.2550
 6859SOL    HW132036   2.503   1.699   2.323  0.0751 -0.2155 -0.4032
 6859SOL    HW232037   2.403   1.687   2.213 -1.2184  1.0370 -1.6328
 6860SOL     OW32038   1.980   0.153   3.697 -0.5635 -0.0491 -0.1074
 6860SOL    HW132039   2.065   0.140   3.739 -0.2512 -0.4448 -0.8557
 6860SOL    HW232040   1.962   0.068   3.658  1.5060 -0.4668 -0.1068
 6861SOL     OW32041   0.189   4.650   5.357  0.6072 -0.1713  0.1316
 6861SOL    HW132042   0.272   4.679   5.321  1.0646  3.0152  3.7622
 6861SOL    HW232043   0.183   4.701   5.437  1.1023 -1.8805  1.2582
 6862SOL     OW32044   1.114   0.662   4.157 -0.3377 -1.0165 -0.7323
 6862SOL    HW132045   1.143   0.698   4.073  2.2628 -0.8600  0.2161
 6862SOL    HW232046   1.110   0.744   4.205  0.6100 -1.6668  0.4597
 6863SOL     OW32047   4.279   4.042   1.345  0.2412 -0.3748 -0.0183
 6863SOL    HW132048   4.202   4.082   1.385  1.5070  0.0263  1.9813
 6863SOL    HW232049   4.276   3.955   1.384  2.6797  0.0489  1.0537
 6864SOL     OW32050   2.056   0.676   8.061 -0.4925  0.0606 -0.3794
 6864SOL    HW132051   2.129   0.734   8.084  0.5370 -0.1941 -3.0099
 6864SOL    HW232052   1.996   0.740   8.023  0.1203 -0.9881 -3.1424
 6865SOL     OW32053   3.045   2.950   6.962  0.3182  0.5528  0.5187
 6865SOL    HW132054   3.130   2.918   6.931  0.3246  0.8064  0.2776
 6865SOL    HW232055   2.983   2.906   6.904  0.0769 -1.6384  2.4271
 6866SOL     OW32056   4.120   2.058   5.948  0.2778 -0.5960  0.1233
 6866SOL    HW132057   4.207   2.050   5.910  0.4773 -1.7182  0.8272
 6866SOL    HW232058   4.145   2.114   6.022  1.3767 -0.5114 -0.3156
 6867SOL     OW32059   2.447   2.838   7.979  0.1238  0.2224  0.6143
 6867SOL    HW132060   2.442   2.789   8.061 -0.5564  0.3365  0.6472
 6867SOL    HW232061   2.473   2.919   8.024  0.4353  0.0765  0.6949
 6868SOL     OW32062   1.335   4.454   6.363  0.2299  0.7124  0.6034
 6868SOL    HW132063   1.425   4.459   6.396  0.7601  0.1025 -0.7710
 6868SOL    HW232064   1.340   4.512   6.286 -1.2026  0.3791  0.2537
 6869SOL     OW32065   2.002   2.372   9.967 -0.6715  0.4052  0.4547
 6869SOL    HW132066   2.082   2.425   9.965 -0.8115  0.6255  0.7759
 6869SOL    HW232067   1.935   2.439   9.979 -0.4384 -0.0689  4.1737
 6870SOL     OW32068   4.594   2.718  10.690 -0.4134 -0.2211  0.2007
 6870SOL    HW132069   4.552   2.645  10.644 -0.1137 -0.6557  0.6186
 6870SOL    HW232070   4.658   2.672  10.744 -0.3317 -2.7998 -2.0912
 6871SOL     OW32071   3.204   0.507   4.698  0.2817 -0.4750 -0.5793
 6871SOL    HW132072   3.255   0.494   4.778  1.7332  2.1501 -1.0820
 6871SOL    HW232073   3.272   0.478   4.637  0.0474 -0.2299 -0.9556
 6872SOL     OW32074   2.878   0.911   7.749 -0.1661 -0.3927  0.4787
 6872SOL    HW132075   2.918   0.826   7.765  0.1008 -0.0370  1.6870
 6872SOL    HW232076   2.950   0.966   7.780 -0.2226  0.1542 -0.3532
 6873SOL     OW32077   4.360   3.450  17.544  0.0467 -0.1736  0.1433
 6873SOL    HW132078   4.339   3.534  17.583  1.1505  0.2555 -0.1899
 6873SOL    HW232079   4.327   3.395  17.615  0.4854  0.1486  0.5960
 6874SOL     OW32080   3.111   0.044   0.486 -0.0832  0.0121  0.4759
 6874SOL    HW132081   3.028   0.029   0.531 -2.3702  2.2081 -2.9726
 6874SOL    HW232082   3.157   0.098   0.550  1.2153 -1.7115  0.9894
 6875SOL     OW32083   0.083   3.738   8.433  0.0084  0.0282 -0.0240
 6875SOL    HW132084   0.031   3.770   8.360  0.0421 -2.3354 -1.0524
 6875SOL    HW232085   0.172   3.756   8.401 -0.5345  1.5190 -0.7123
 6876SOL     OW32086   0.488   0.771  17.490  0.0238 -0.6891 -0.3202
 6876SOL    HW132087   0.568   0.819  17.511  1.2668 -2.0876 -1.8203
 6876SOL    HW232088   0.463   0.803  17.403 -2.0577  1.8742  1.2004
 6877SOL     OW32089   3.057   1.535   0.079  0.4727  0.1557 -0.5141
 6877SOL    HW132090   3.005   1.513   0.156 -0.3282  1.6076 -0.6396
 6877SOL    HW232091   3.096   1.450   0.059 -1.0819 -0.2604 -1.7664
 6878SOL     OW32092   3.726   2.424   0.933  0.0834  0.3765 -0.0938
 6878SOL    HW132093   3.787   2.351   0.919 -1.7680 -0.5632 -3.3445
 6878SOL    HW232094   3.749   2.479   0.858 -0.6875  1.3119  0.3579
 6879SOL     OW32095   2.065   1.791  13.760  0.0704 -0.2835 -0.2189
 6879SOL    HW132096   2.037   1.786  13.668 -0.1462 -3.2850  0.0213
 6879SOL    HW232097   1.977   1.766  13.788  1.2831 -1.8232  2.1244
 6880SOL     OW32098   3.953   0.237  17.434  0.1774 -0.5442 -0.7154
 6880SOL    HW132099   3.913   0.253  17.520 -0.5522 -1.1780 -0.9428
 6880SOL    HW232100   3.953   0.142  17.444 -0.7401 -0.4177  0.4389
 6881SOL     OW32101   1.273   1.442   4.067 -0.2346  0.1459  0.1077
 6881SOL    HW132102   1.216   1.487   4.129 -1.3657 -2.2356  0.8054
 6881SOL    HW232103   1.271   1.509   3.998 -0.2426 -0.0936 -0.1262
 6882SOL     OW32104   0.127   3.154  10.472  0.3373  0.2460 -0.2103
 6882SOL    HW132105   0.046   3.202  10.454 -0.6654 -1.9598 -1.5934
 6882SOL    HW232106   0.104   3.126  10.561  0.5161 -1.1411 -0.5962
 6883SOL     OW32107   3.043   0.842   6.414  0.3604 -0.6086  0.3257
 6883SOL    HW132108   2.977   0.892   6.462 -0.9242  0.3071 -2.4104
 6883SOL    HW232109   3.120   0.838   6.470  1.4554 -2.0414 -1.2557
 6884SOL     OW32110   4.641   1.940   7.610  0.0614 -0.8402  0.2116
 6884SOL    HW132111   4.699   2.013   7.629  0.0322 -0.8324  0.2697
 6884SOL    HW232112   4.619   1.948   7.517 -0.3286 -1.7052  0.2297
 6885SOL     OW32113   0.933   4.484   7.933 -0.2310  0.0453 -0.1671
 6885SOL    HW132114   0.889   4.445   7.858 -0.8699  0.3137  0.0634
 6885SOL    HW232115   0.942   4.572   7.895  0.9721 -0.2989 -0.6694
 6886SOL     OW32116   1.871   4.350   8.787 -0.4832  0.0486  0.6723
 6886SOL    HW132117   1.786   4.329   8.827 -0.4545  0.5466  0.9875
 6886SOL    HW232118   1.915   4.266   8.776  2.1976  1.3340  1.6873
 6887SOL     OW32119   2.636   4.223   0.411  0.8290  0.7706  0.1078
 6887SOL    HW132120   2.598   4.204   0.497 -0.1348  1.2287 -0.2177
 6887SOL    HW232121   2.562   4.187   0.363 -0.5753  0.0838  2.7845
 6888SOL     OW32122   0.968   2.930  12.060  0.2182  0.4446  0.1928
 6888SOL    HW132123   0.972   2.944  11.965  0.4079 -2.1437 -0.1724
 6888SOL    HW232124   0.943   3.019  12.087 -2.6545 -0.2042 -0.2550
 6889SOL     OW32125   4.313   0.880  15.988  0.0623 -0.0419  0.9187
 6889SOL    HW132126   4.332   0.803  16.042 -1.9532 -0.6077  0.8035
 6889SOL    HW232127   4.320   0.829  15.908  0.3503 -0.3166  1.1192
 6890SOL     OW32128   0.230   2.473   7.713 -0.3890  0.2082  0.3331
 6890SOL    HW132129   0.288   2.398   7.702 -0.9631 -0.4315  1.6680
 6890SOL    HW232130   0.256   2.537   7.646  1.4615 -1.3146 -0.3757
 6891SOL     OW32131   1.071   4.182   1.181 -0.0113  0.1336  0.5193
 6891SOL    HW132132   0.983   4.200   1.149  0.1654 -2.0840 -1.2489
 6891SOL    HW232133   1.047   4.205   1.271 -0.3654  1.1425  0.1648
 6892SOL     OW32134   3.200   3.205   7.892 -0.4491  0.3701  0.2109
 6892SOL    HW132135   3.117   3.209   7.940 -1.1314  3.9453 -1.2761
 6892SOL    HW232136   3.182   3.177   7.802 -0.8420  0.8187  0.1517
 6893SOL     OW32137   2.456   1.635   7.407  0.0796 -0.2570 -0.1138
 6893SOL    HW132138   2.512   1.604   7.478  0.1220 -2.5081 -1.1191
 6893SOL    HW232139   2.405   1.558   7.379 -1.4107  1.0912 -1.1149
 6894SOL     OW32140   3.144   2.737  10.917  0.5265 -0.2209  0.4181
 6894SOL    HW132141   3.171   2.654  10.876  1.0374 -1.1177  2.5668
 6894SOL    HW232142   3.160   2.714  11.009  0.3404 -1.3356  0.1762
 6895SOL     OW32143   0.342   0.612   5.042 -0.3723 -0.1292 -0.0569
 6895SOL    HW132144   0.432   0.605   5.074 -0.2157  1.8263 -0.1172
 6895SOL    HW232145   0.330   0.529   4.996 -4.9427  2.1113 -2.8930
 6896SOL     OW32146   2.422   1.146   7.801 -0.3030  0.2646  0.2374
 6896SOL    HW132147   2.350   1.161   7.862  0.3354  1.7335  0.6135
 6896SOL    HW232148   2.390   1.072   7.749 -0.8160 -0.7676  1.9944
 6897SOL     OW32149   0.931   1.140   2.984  0.0457 -0.3798  0.2749
 6897SOL    HW132150   0.989   1.065   2.974  0.5327  0.2994 -2.0226
 6897SOL    HW232151   1.003   1.193   3.019  0.4559 -1.3950  0.9650
 6898SOL     OW32152   0.098   2.601   2.357 -0.1439  0.0144  0.0463
 6898SOL    HW132153   0.098   2.507   2.336  1.7355 -0.1660  0.8732
 6898SOL    HW232154   0.192   2.617   2.349 -0.4336  1.1451 -1.2673
 6899SOL     OW32155   2.687   2.323   6.917 -0.1610  0.1201 -0.1213
 6899SOL    HW132156   2.706   2.249   6.859 -0.0970  2.1607 -2.6909
 6899SOL    HW232157   2.643   2.274   6.987 -2.7017  1.4303 -0.7864
 6900SOL     OW32158   3.056   4.412   0.620 -0.5483  0.1199 -0.6043
 6900SOL    HW132159   3.048   4.348   0.549  1.1662 -0.8998  0.1207
 6900SOL    HW232160   2.975   4.458   0.598 -1.1700  0.8226  3.1880
 6901SOL     OW32161   2.745   3.252   1.855  0.0254 -0.1462 -0.0558
 6901SOL    HW132162   2.696   3.223   1.778 -0.9686  1.3631  0.0124
 6901SOL    HW232163   2.683   3.300   1.909  1.9218  1.2603  0.8684
 6902SOL     OW32164   1.507   0.948   7.521  0.3411  0.1817 -0.3035
 6902SOL    HW132165   1.516   0.891   7.445  0.1054 -2.4000  1.5980
 6902SOL    HW232166   1.486   0.889   7.594  0.2487 -0.1859 -0.6243
 6903SOL     OW32167   3.916   2.157   0.539  0.3325  0.5163 -0.0470
 6903SOL    HW132168   3.968   2.206   0.602 -0.6138  0.8218  0.4973
 6903SOL    HW232169   3.997   2.122   0.503  1.6734  1.3787  2.1500
 6904SOL     OW32170   3.540   2.109   5.473 -0.3202  0.0577 -0.1439
 6904SOL    HW132171   3.487   2.180   5.436 -0.6766  0.0970  0.4445
 6904SOL    HW232172   3.551   2.145   5.561  0.5596  0.2261 -0.3242
 6905SOL     OW32173   2.775   2.411   0.097  0.2045 -0.8806 -0.2842
 6905SOL    HW132174   2.838   2.383   0.030  0.0236  0.1847 -0.8979
 6905SOL    HW232175   2.697   2.406   0.043 -0.2865 -0.1705  0.3589
 6906SOL     OW32176   0.057   0.166   8.461 -0.5385  0.1638  0.3279
 6906SOL    HW132177   4.713   0.221   8.504 -1.8763 -1.8191  0.8324
 6906SOL    HW232178   0.134   0.185   8.515 -0.0888 -2.1537  0.5229
 6907SOL     OW32179   4.378   2.739  15.011  0.5663 -0.1675 -0.0292
 6907SOL    HW132180   4.405   2.667  15.068 -1.9279  0.0206  1.3873
 6907SOL    HW232181   4.294   2.762  15.050  1.1328  0.3988  0.8393
 6908SOL     OW32182   2.826   2.621  16.979  0.1213  0.5601  0.3029
 6908SOL    HW132183   2.777   2.561  17.034  1.0062  0.8152  1.3609
 6908SOL    HW232184   2.869   2.558  16.921  0.6683  0.7853  0.4635
 6909SOL     OW32185   2.404   2.102   6.694 -0.0977  0.0153 -0.0530
 6909SOL    HW132186   2.480   2.062   6.737 -0.8874  0.5821  1.8728
 6909SOL    HW232187   2.398   2.184   6.743 -1.1533  1.2497 -2.2743
 6910SOL     OW32188   4.357   3.243   5.121  0.0169  0.0331  0.1514
 6910SOL    HW132189   4.321   3.231   5.209 -0.6769  0.1508 -0.1179
 6910SOL    HW232190   4.395   3.329   5.138  0.3769 -0.1190  0.1007
 6911SOL     OW32191   0.713   0.425  15.951 -0.4781  0.1424  0.2067
 6911SOL    HW132192   0.787   0.477  15.981  1.4890 -1.6875 -1.4693
 6911SOL    HW232193   0.684   0.468  15.871 -0.0855  2.8761  1.5539
 6912SOL     OW32194   3.606   1.501   5.617  0.2017 -0.0283  0.2775
 6912SOL    HW132195   3.567   1.517   5.531  1.8204 -0.4450 -0.5270
 6912SOL    HW232196   3.549   1.432   5.651 -1.2393 -0.2346 -2.6082
 6913SOL     OW32197   3.532   2.249  17.401 -0.2519 -0.0025 -0.1361
 6913SOL    HW132198   3.482   2.319  17.441 -0.2528  0.8331 -1.5996
 6913SOL    HW232199   3.517   2.264  17.307  0.5077  0.2250 -0.2252
 6914SOL     OW32200   4.126   1.571   4.867 -0.1883  0.8754 -0.0209
 6914SOL    HW132201   4.156   1.595   4.955  3.0919 -2.5710 -0.2174
 6914SOL    HW232202   4.212   1.536   4.845 -0.0582  1.5934 -0.6532
 6915SOL     OW32203   2.510   2.586   2.576 -0.3588  0.1463 -0.2937
 6915SOL    HW132204   2.574   2.657   2.577  0.4632 -0.6280  1.0973
 6915SOL    HW232205   2.554   2.517   2.625 -2.0630 -1.9737 -1.7331
 6916SOL     OW32206   2.759   3.997   0.648  0.2218 -0.3605 -0.5030
 6916SOL    HW132207   2.715   4.081   0.656  0.4031 -0.3274  0.0994
 6916SOL    HW232208   2.710   3.967   0.571  0.2865 -1.2577 -0.1957
 6917SOL     OW32209   3.191   4.355  17.610  0.7964  0.1918  0.5683
 6917SOL    HW132210   3.266   4.298  17.593 -0.2342 -0.1845 -2.7332
 6917SOL    HW232211   3.196   4.357   0.021  2.7139 -0.7446  0.4992
 6918SOL     OW32212   4.520   3.494  13.470 -0.3032  0.7044  0.2550
 6918SOL    HW132213   4.571   3.570  13.441 -0.8976  0.8058 -0.5468
 6918SOL    HW232214   4.556   3.491  13.558 -2.8333 -1.7223  1.1984
 6919SOL     OW32215   1.146   0.398   6.176 -1.1184 -0.0620  0.7135
 6919SOL    HW132216   1.114   0.338   6.109 -1.3929  1.9550 -0.9736
 6919SOL    HW232217   1.240   0.390   6.189 -0.8428  2.2303  0.2007
 6920SOL     OW32218   2.586   4.390   3.985  0.3179 -0.0578  0.0214
 6920SOL    HW132219   2.626   4.310   4.019  0.4046  0.9556  2.2708
 6920SOL    HW232220   2.540   4.345   3.914 -0.3469 -0.6882  0.8672
 6921SOL     OW32221   4.607   3.141   4.550 -0.5606  0.0456  0.5023
 6921SOL    HW132222   4.606   3.213   4.613 -0.3327  1.1872 -0.7824
 6921SOL    HW232223   4.685   3.091   4.572 -0.0899 -0.1633 -1.6372
 6922SOL     OW32224   2.366   2.053   5.215  0.2429  0.3169 -0.1671
 6922SOL    HW132225   2.359   1.996   5.292 -2.4757  1.6336  0.5331
 6922SOL    HW232226   2.379   1.991   5.143 -1.8400  0.1388 -0.3905
 6923SOL     OW32227   1.633   3.382   8.433  0.5157  0.5090  0.1611
 6923SOL    HW132228   1.719   3.386   8.475  0.3770  1.9313  0.2937
 6923SOL    HW232229   1.591   3.321   8.493  0.8467  1.2176  1.1231
 6924SOL     OW32230   0.983   1.632   9.143  0.4071 -0.0431  0.2587
 6924SOL    HW132231   0.950   1.679   9.220  0.5756 -2.2189  1.6527
 6924SOL    HW232232   1.072   1.664   9.128 -0.0925  2.3868  2.5964
 6925SOL     OW32233   0.277   4.158   6.258 -0.7561  0.4029  0.0983
 6925SOL    HW132234   0.285   4.152   6.163 -3.1289  2.3317 -0.2188
 6925SOL    HW232235   0.337   4.232   6.272  1.6429 -1.4460 -0.4876
 6926SOL     OW32236   0.739   3.621   8.028 -0.2992  0.0540 -0.0239
 6926SOL    HW132237   0.768   3.640   8.118 -1.4242 -1.0719  0.5770
 6926SOL    HW232238   0.725   3.711   8.000 -0.5784 -0.0101 -0.0839
 6927SOL     OW32239   1.588   0.592   3.024 -0.0688  0.6088 -0.1710
 6927SOL    HW132240   1.519   0.608   3.088 -0.7995 -1.7114 -0.3715
 6927SOL    HW232241   1.627   0.679   3.023  0.2891  0.4504 -0.5350
 6928SOL     OW32242   2.320   3.987  14.646  0.1427 -0.6820 -0.2100
 6928SOL    HW132243   2.312   3.899  14.608  0.9019 -0.5885 -0.5808
 6928SOL    HW232244   2.361   3.956  14.726 -1.9001  0.8793  1.4570
 6929SOL     OW32245   0.352   1.747   5.594  0.2184  0.0732  0.2051
 6929SOL    HW132246   0.389   1.820   5.545 -1.2036  0.9225  0.4093
 6929SOL    HW232247   0.284   1.715   5.535 -0.1546 -1.9495  1.7093
 6930SOL     OW32248   4.266   2.688   1.046 -0.3201  0.7346 -0.1905
 6930SOL    HW132249   4.219   2.629   0.987  0.3497  0.9377 -0.9433
 6930SOL    HW232250   4.199   2.756   1.058  0.2945  1.2192  0.4977
 6931SOL     OW32251   2.385   1.914   5.469 -0.0666 -0.4914 -0.3105
 6931SOL    HW132252   2.403   1.820   5.474 -1.1587 -0.6658  0.4399
 6931SOL    HW232253   2.312   1.918   5.531 -2.2300 -0.5361 -2.8363
 6932SOL     OW32254   4.463   1.385   3.709 -0.2508 -0.0389  0.0001
 6932SOL    HW132255   4.382   1.425   3.739  0.3136 -0.1772  1.6692
 6932SOL    HW232256   4.528   1.454   3.723 -1.1638  0.6183  0.9716
 6933SOL     OW32257   0.228   4.241   8.283  0.1754 -0.0886 -0.0496
 6933SOL    HW132258   0.218   4.328   8.245 -2.1521 -1.5753 -2.8702
 6933SOL    HW232259   0.309   4.258   8.332  0.2294 -2.3455  0.6715
 6934SOL     OW32260   0.342   4.162   6.902 -0.5571 -0.1141 -0.1577
 6934SOL    HW132261   0.407   4.164   6.831  0.6416  4.8801  1.0803
 6934SOL    HW232262   0.258   4.152   6.858 -0.0823 -1.8310 -0.6841
 6935SOL     OW32263   2.389   4.674   9.870  0.1381  0.9644 -0.5781
 6935SOL    HW132264   2.421   4.708   9.954 -0.2540 -3.6842  1.4691
 6935SOL    HW232265   2.469   4.664   9.818  0.8083 -1.4705  0.8977
 6936SOL     OW32266   4.567   4.688   0.334 -0.9037  0.1285 -0.3165
 6936SOL    HW132267   4.650   4.677   0.288 -1.4871 -1.0141 -1.0748
 6936SOL    HW232268   4.596   4.692   0.426 -2.3925  0.1984  0.1399
 6937SOL     OW32269   1.853   0.279   7.870 -0.3963 -0.1029  0.3775
 6937SOL    HW132270   1.935   0.326   7.854 -1.4745  1.6260 -0.1012
 6937SOL    HW232271   1.854   0.255   7.963 -1.6415  1.0454  0.6988
 6938SOL     OW32272   0.708   3.775  11.816  0.5737 -0.9300  0.6479
 6938SOL    HW132273   0.790   3.796  11.772 -0.2552 -1.0017 -0.9288
 6938SOL    HW232274   0.727   3.695  11.864  0.5889 -0.9255  0.6491
 6939SOL     OW32275   0.579   2.795   5.506 -0.2624  0.1243  0.3987
 6939SOL    HW132276   0.590   2.712   5.461 -1.6357 -0.3179  0.8547
 6939SOL    HW232277   0.608   2.788   5.597  0.6553  0.7367  0.1489
 6940SOL     OW32278   2.704   3.726  11.601  0.0577  0.5452 -0.0649
 6940SOL    HW132279   2.644   3.765  11.664 -1.8130  0.8634 -2.0505
 6940SOL    HW232280   2.654   3.654  11.563 -1.2769  1.6445 -0.3794
 6941SOL     OW32281   2.883   2.460   9.450 -0.5075 -0.3397  0.0383
 6941SOL    HW132282   2.890   2.448   9.544  1.6591  0.9552  0.0553
 6941SOL    HW232283   2.917   2.381   9.408  1.2474  1.3414 -1.7473
 6942SOL     OW32284   2.932   1.648   7.932  0.0603 -0.0835 -0.6125
 6942SOL    HW132285   2.916   1.738   7.962  3.6383 -0.1653  1.5647
 6942SOL    HW232286   2.970   1.670   7.847  3.0033 -0.3651  0.6532
 6943SOL     OW32287   1.572   2.457  13.330 -0.1996  0.0104 -0.8570
 6943SOL    HW132288   1.521   2.427  13.255 -2.5478  2.4902 -0.2725
 6943SOL    HW232289   1.504   2.439  13.395 -0.9659  1.4614 -1.2650
 6944SOL     OW32290   0.754   2.482  14.589  0.2668 -0.0478 -0.2203
 6944SOL    HW132291   0.751   2.460  14.682 -3.0043 -0.1495 -0.3490
 6944SOL    HW232292   0.836   2.433  14.581  0.2945 -0.4094  2.3548
 6945SOL     OW32293   1.783   2.541  10.030  0.2715 -0.5861 -0.1422
 6945SOL    HW132294   1.833   2.564  10.109  1.2829  0.0518 -0.9697
 6945SOL    HW232295   1.715   2.606  10.013  0.6269 -0.1952 -0.0744
 6946SOL     OW32296   4.047   0.856  16.123 -0.4227  0.1483 -0.6399
 6946SOL    HW132297   4.135   0.846  16.086 -0.5109  0.0289 -0.8112
 6946SOL    HW232298   4.054   0.929  16.185 -1.1764 -0.9614  0.7571
 6947SOL     OW32299   3.464   2.696  17.550 -0.4807 -0.8421 -0.1064
 6947SOL    HW132300   3.431   2.645  17.624 -0.3335 -1.0091 -0.1563
 6947SOL    HW232301   3.554   2.708  17.580  0.0592 -3.6200 -0.6360
 6948SOL     OW32302   1.193   2.795   8.048  0.0184 -0.3520 -0.7037
 6948SOL    HW132303   1.110   2.774   8.090 -0.2260  0.2595 -0.8822
 6948SOL    HW232304   1.235   2.841   8.121 -2.9260  2.4149 -0.7484
 6949SOL     OW32305   1.221   4.713  12.798  0.0355  0.3466 -0.8157
 6949SOL    HW132306   1.254   4.700  12.887 -1.3793 -0.3921 -0.4058
 6949SOL    HW232307   1.228   0.088  12.796 -1.1837  0.4468 -0.2962
 6950SOL     OW32308   4.179   3.818   7.367  0.6181  0.0796  0.2775
 6950SOL    HW132309   4.142   3.842   7.452 -0.4870 -2.1228  0.4221
 6950SOL    HW232310   4.117   3.747   7.350 -0.3949  1.1040 -0.3255
 6951SOL     OW32311   0.394   3.803   8.699  0.0141  0.1597  0.5750
 6951SOL    HW132312   0.303   3.833   8.703 -0.1107 -0.3371  1.5866
 6951SOL    HW232313   0.418   3.822   8.790 -0.3263 -1.6087  1.0437
 6952SOL     OW32314   0.160   0.527   2.595  0.0112  0.3071  0.3530
 6952SOL    HW132315   0.083   0.571   2.560 -0.0090 -0.1006 -0.1212
 6952SOL    HW232316   0.143   0.511   2.688  1.3330  0.3717  0.6026
 6953SOL     OW32317   2.568   0.282   8.905  0.0704  0.1412  0.1066
 6953SOL    HW132318   2.623   0.258   8.979  3.3737  0.8676 -2.1292
 6953SOL    HW232319   2.485   0.269   8.951 -0.6792  0.8158 -1.0436
 6954SOL     OW32320   3.018   3.208   8.964 -0.1337  0.2491  0.0702
 6954SOL    HW132321   3.094   3.153   8.946  0.1062  1.1372 -1.6976
 6954SOL    HW232322   3.052   3.291   8.997  0.7498  0.1657 -0.6191
 6955SOL     OW32323   2.571   0.864   1.813 -0.2222  0.2614 -0.4795
 6955SOL    HW132324   2.584   0.847   1.719  3.0623  1.3163 -0.1976
 6955SOL    HW232325   2.479   0.837   1.823  0.0985 -0.5137  0.2677
 6956SOL     OW32326   2.411   2.622   1.501 -0.2530 -0.6807 -0.5741
 6956SOL    HW132327   2.330   2.574   1.518 -0.0389 -0.6408  0.5652
 6956SOL    HW232328   2.405   2.629   1.405  0.3073 -0.6967 -0.6136
 6957SOL     OW32329   4.610   3.691   1.629  0.3256  0.3016  0.1018
 6957SOL    HW132330   4.599   3.780   1.664  0.5310  0.7019 -0.8754
 6957SOL    HW232331   4.581   3.643   1.707 -0.7492  0.3149 -0.3016
 6958SOL     OW32332   3.695   2.340   1.837  0.1136 -0.4322  0.2144
 6958SOL    HW132333   3.767   2.279   1.853  0.0600 -0.8468 -1.1492
 6958SOL    HW232334   3.678   2.329   1.743 -0.0860 -1.4838  0.3778
 6959SOL     OW32335   4.042   0.225  15.383 -0.0167  0.6324  0.1009
 6959SOL    HW132336   4.096   0.298  15.350 -0.0165  1.8186  2.7529
 6959SOL    HW232337   3.974   0.268  15.434  1.0046 -0.0000  2.0080
 6960SOL     OW32338   2.113   0.014   5.643  0.3353 -0.0152 -0.1857
 6960SOL    HW132339   2.177   4.710   5.577  0.7922 -0.2555  0.3458
 6960SOL    HW232340   2.118   4.674   5.717  2.2198  0.5595  0.1576
 6961SOL     OW32341   0.043   4.248   3.985  0.1070  0.0450 -0.1188
 6961SOL    HW132342   0.130   4.226   3.952 -0.1766  0.0458 -0.8917
 6961SOL    HW232343   0.072   4.335   4.014  0.2492 -0.7072  1.9509
 6962SOL     OW32344   2.469   3.402  17.223  0.4960  0.2869 -0.5378
 6962SOL    HW132345   2.486   3.396  17.317 -1.0919  0.6201 -0.2356
 6962SOL    HW232346   2.374   3.414  17.216  0.4105 -0.2560 -0.3112
 6963SOL     OW32347   4.179   0.602   3.384  0.0662 -0.5629 -0.2550
 6963SOL    HW132348   4.133   0.594   3.301 -0.4150  2.8818 -0.3483
 6963SOL    HW232349   4.201   0.696   3.384  1.0366 -0.7878 -1.0275
 6964SOL     OW32350   2.353   2.985   2.711 -0.5075 -0.1074 -0.0593
 6964SOL    HW132351   2.290   2.917   2.735  0.0356 -0.8045 -0.5940
 6964SOL    HW232352   2.327   3.020   2.627  0.4163 -1.4691 -0.9236
 6965SOL     OW32353   0.549   4.618   8.430 -0.1505  0.1086  0.1433
 6965SOL    HW132354   0.525   4.597   8.339  1.4299 -2.2315  0.2654
 6965SOL    HW232355   0.489   4.558   8.474  0.7545 -0.4558  0.5886
 6966SOL     OW32356   0.050   3.566   9.078  0.0109 -0.3130 -0.2719
 6966SOL    HW132357   0.040   3.640   9.019  0.6835 -0.1872 -0.2276
 6966SOL    HW232358   0.131   3.597   9.119 -0.5763  0.6561  0.1676
 6967SOL     OW32359   1.838   0.466   5.095  0.1711 -0.3141 -0.3025
 6967SOL    HW132360   1.765   0.527   5.082 -0.0693 -0.4194  0.5479
 6967SOL    HW232361   1.876   0.471   5.007 -1.2913 -0.2903 -0.9398
 6968SOL     OW32362   1.205   3.037   2.180 -0.3947  1.0135  0.0813
 6968SOL    HW132363   1.177   3.123   2.149 -0.0124  1.5238  1.1371
 6968SOL    HW232364   1.201   3.055   2.274  0.2821 -1.1781  0.5366
 6969SOL     OW32365   0.696   0.274   7.499 -0.0288  0.3429 -0.2106
 6969SOL    HW132366   0.724   0.354   7.454 -1.7826  1.7585  1.2295
 6969SOL    HW232367   0.604   0.291   7.518  0.0996  0.1804  0.5659
 6970SOL     OW32368   0.272   1.282   1.146 -0.1106  0.1187  0.3244
 6970SOL    HW132369   0.176   1.278   1.142  0.0204 -2.6120 -0.2888
 6970SOL    HW232370   0.282   1.370   1.110  1.9586 -0.5645 -0.7299
 6971SOL     OW32371   0.609   0.306   2.040  0.4528 -0.2661  0.5243
 6971SOL    HW132372   0.549   0.327   2.112 -0.5694 -0.8585 -0.1587
 6971SOL    HW232373   0.592   0.212   2.046 -0.4307 -0.0297  1.5967
 6972SOL     OW32374   1.432   2.381  17.394  0.0644  0.1532 -0.1624
 6972SOL    HW132375   1.450   2.293  17.428  0.1956 -0.4481 -1.7858
 6972SOL    HW232376   1.469   2.435  17.463  1.6558 -0.1546 -0.7757
 6973SOL     OW32377   0.141   2.107  10.562  0.1336  0.2570  0.3052
 6973SOL    HW132378   0.094   2.141  10.637 -3.1409 -1.0270 -1.1441
 6973SOL    HW232379   0.225   2.078  10.596  0.2692  0.9652  0.5666
 6974SOL     OW32380   1.041   3.758  12.844  0.2742  0.1177  0.1154
 6974SOL    HW132381   1.037   3.792  12.754  1.9591 -0.9622 -0.3742
 6974SOL    HW232382   1.136   3.763  12.855  0.3333  1.1189 -0.8273
 6975SOL     OW32383   3.779   2.758   6.275  0.1452  0.4494 -0.2154
 6975SOL    HW132384   3.774   2.666   6.300 -0.9770  0.1287 -1.6326
 6975SOL    HW232385   3.761   2.750   6.181 -0.8401 -0.7556  0.0778
 6976SOL     OW32386   2.524   1.159   7.304  0.2791 -0.1289  0.1504
 6976SOL    HW132387   2.540   1.197   7.390  0.9412 -0.1187  0.0230
 6976SOL    HW232388   2.495   1.069   7.324  3.5815 -0.4413  3.6109
 6977SOL     OW32389   1.987   3.833  10.958  0.0552 -0.4679  0.4206
 6977SOL    HW132390   1.906   3.834  10.907 -0.7816  0.5481  1.7589
 6977SOL    HW232391   1.970   3.760  11.018 -0.7460  1.1300  2.1465
 6978SOL     OW32392   4.532   2.117  16.545  0.6540 -0.1073 -0.3118
 6978SOL    HW132393   4.451   2.113  16.597 -0.0274 -0.3557 -1.4056
 6978SOL    HW232394   4.546   2.210  16.526 -4.2045  0.0821 -2.8940
 6979SOL     OW32395   1.870   0.226   2.087  0.3803  0.1556  0.2480
 6979SOL    HW132396   1.903   0.241   1.999 -0.1498  0.4471  0.1063
 6979SOL    HW232397   1.955   0.233   2.131  0.5560 -0.4621  0.0083
 6980SOL     OW32398   0.594   3.373   8.160  0.5416  0.3064  0.3997
 6980SOL    HW132399   0.633   3.326   8.234  0.3514  0.1134  0.3795
 6980SOL    HW232400   0.653   3.448   8.157  0.9160 -0.0532 -1.3242
 6981SOL     OW32401   2.528   2.022   5.775  0.7274 -0.1487  0.2612
 6981SOL    HW132402   2.541   2.043   5.683 -1.5533 -0.2382 -0.0654
 6981SOL    HW232403   2.611   2.059   5.806  1.3492 -1.4917  0.1676
 6982SOL     OW32404   2.209   3.678   4.129  0.3073  0.1324  0.1855
 6982SOL    HW132405   2.150   3.616   4.085 -0.6194  1.3411 -0.2656
 6982SOL    HW232406   2.182   3.658   4.218  0.6840 -0.1786  0.2307
 6983SOL     OW32407   2.817   1.455   2.461  0.3747 -0.5371 -0.1846
 6983SOL    HW132408   2.881   1.447   2.532  0.0701  1.2342  0.3061
 6983SOL    HW232409   2.742   1.441   2.519  0.6857  1.8288  0.8059
 6984SOL     OW32410   2.803   3.507   2.657  0.4783 -0.2320  0.3733
 6984SOL    HW132411   2.715   3.488   2.624  0.7495  1.7106 -1.4911
 6984SOL    HW232412   2.790   3.526   2.750  3.2442  1.7786  0.3477
 6985SOL     OW32413   0.341   2.295   4.946  0.0767 -0.6223 -0.4373
 6985SOL    HW132414   0.388   2.257   4.872 -0.3918 -1.9581 -0.0514
 6985SOL    HW232415   0.412   2.297   5.010  0.7552 -0.4231 -1.2042
 6986SOL     OW32416   1.194   2.005   7.444  0.5601  0.3764 -0.1523
 6986SOL    HW132417   1.290   2.011   7.440  0.9559 -3.9105  1.8368
 6986SOL    HW232418   1.175   2.087   7.400  0.5740  1.6864  2.2687
 6987SOL     OW32419   3.937   0.132   8.156  0.3054  0.0471  0.0134
 6987SOL    HW132420   3.939   0.106   8.249  4.6002  2.1659  0.4915
 6987SOL    HW232421   4.029   0.157   8.155 -0.0829  1.2876 -2.7539
 6988SOL     OW32422   4.516   0.724   6.304 -0.3745 -0.2515 -0.5209
 6988SOL    HW132423   4.525   0.748   6.212  0.6777  0.3594 -0.2605
 6988SOL    HW232424   4.597   0.675   6.316  0.9785  1.2139 -3.5638
 6989SOL     OW32425   3.507   3.040  10.200 -0.3050 -0.0914  0.1509
 6989SOL    HW132426   3.600   3.054  10.181  0.0817 -1.0071  1.4286
 6989SOL    HW232427   3.501   2.947  10.221 -2.2981  0.0225  0.0776
 6990SOL     OW32428   3.147   0.861   1.717 -0.5278  0.0059 -0.3408
 6990SOL    HW132429   3.234   0.900   1.721 -0.7645  0.4195  0.6792
 6990SOL    HW232430   3.144   0.821   1.804  0.6813  0.6391 -0.0048
 6991SOL     OW32431   2.644   3.707  16.270  0.0392  0.4536  0.0281
 6991SOL    HW132432   2.714   3.683  16.331 -1.1815 -0.1117  1.1904
 6991SOL    HW232433   2.671   3.656  16.193  0.2726  0.8742 -0.1676
 6992SOL     OW32434   4.237   3.676  17.007  0.1403  0.3065  0.3780
 6992SOL    HW132435   4.308   3.721  17.053  1.6454 -0.1446 -1.5262
 6992SOL    HW232436   4.270   3.671  16.917 -0.0661  0.2441  0.3052
 6993SOL     OW32437   3.175   3.563   0.078 -0.6767 -0.3423  0.8529
 6993SOL    HW132438   3.253   3.619   0.072 -1.7885  1.0351 -1.0450
 6993SOL    HW232439   3.221   3.493   0.124 -0.0432  1.2007  2.6048
 6994SOL     OW32440   0.610   4.537   5.041  0.6010  0.3187  0.0914
 6994SOL    HW132441   0.607   4.594   4.964 -1.0566  2.1869  1.5385
 6994SOL    HW232442   0.573   4.457   5.004 -0.7982  1.1307 -0.2695
 6995SOL     OW32443   4.287   0.678   1.158  0.7027 -0.3790 -0.4037
 6995SOL    HW132444   4.306   0.616   1.088 -1.5356 -1.3067 -0.1850
 6995SOL    HW232445   4.379   0.704   1.160  0.1029  1.6966 -0.2513
 6996SOL     OW32446   3.487   1.297   0.456 -0.4067  0.3727 -0.0696
 6996SOL    HW132447   3.472   1.210   0.492 -2.7882 -0.0395 -2.0739
 6996SOL    HW232448   3.558   1.334   0.508 -1.8210  1.4057  1.1141
 6997SOL     OW32449   2.030   1.020   2.254 -0.3656 -0.3672  0.6054
 6997SOL    HW132450   2.089   0.947   2.240 -0.4454 -0.2219 -0.4911
 6997SOL    HW232451   2.046   1.081   2.182 -1.3535 -1.1492 -0.2629
 6998SOL     OW32452   3.764   1.317   4.109 -0.4856 -0.0628 -0.1613
 6998SOL    HW132453   3.797   1.377   4.176 -2.0717  0.2098  0.3838
 6998SOL    HW232454   3.809   1.352   4.032  1.0009  0.4638  0.9637
 6999SOL     OW32455   3.822   4.457   7.453  0.1704  0.8016 -0.2573
 6999SOL    HW132456   3.831   4.523   7.384 -0.7818  1.0207 -0.1765
 6999SOL    HW232457   3.890   4.486   7.513  0.3507 -0.5555  0.1909
 7000SOL     OW32458   0.111   1.445  15.976  0.8307  0.1960 -0.1463
 7000SOL    HW132459   0.134   1.519  16.033 -0.8556  0.6117 -0.0089
 7000SOL    HW232460   0.169   1.465  15.903  1.7766 -0.4369  0.4184
 7001SOL     OW32461   3.202   1.018   5.326 -0.3954  0.0667 -0.3134
 7001SOL    HW132462   3.163   1.098   5.290  2.1091  0.2526 -2.6037
 7001SOL    HW232463   3.124   0.973   5.358  1.2492 -0.6638  2.6667
 7002SOL     OW32464   2.905   3.033  17.119  0.3967  0.1774  0.1868
 7002SOL    HW132465   2.847   3.087  17.173  1.2343 -0.7181  1.9711
 7002SOL    HW232466   2.845   3.012  17.047  0.1266  0.6294  0.2809
 7003SOL     OW32467   2.468   1.480  13.491  0.4757  0.4468 -0.5522
 7003SOL    HW132468   2.453   1.406  13.550 -3.0178  2.7786  1.4598
 7003SOL    HW232469   2.538   1.438  13.441  0.4307  0.6617 -0.7949
 7004SOL     OW32470   4.297   1.918  13.090  0.1171  0.0212 -0.2025
 7004SOL    HW132471   4.315   1.892  13.000  2.1550 -1.7783  0.7131
 7004SOL    HW232472   4.366   1.981  13.109 -0.4379  1.0191 -1.5455
 7005SOL     OW32473   0.178   0.596   8.005 -0.4443  0.3999 -0.0623
 7005SOL    HW132474   0.110   0.541   8.044 -1.4430  2.3698  1.0049
 7005SOL    HW232475   0.166   0.576   7.912  0.0393  1.0633 -0.2650
 7006SOL     OW32476   1.482   0.936   4.575  0.0594 -0.5642  0.1819
 7006SOL    HW132477   1.447   1.017   4.611  0.6946 -0.2781  0.1495
 7006SOL    HW232478   1.462   0.880   4.650 -0.8932 -0.2305  0.1808
 7007SOL     OW32479   3.653   3.088  10.935 -0.5490  0.2080  0.0359
 7007SOL    HW132480   3.636   3.064  11.027  3.0119 -2.0237  0.1003
 7007SOL    HW232481   3.571   3.127  10.906 -0.2552  0.9160  0.1511
 7008SOL     OW32482   2.064   3.327   8.119 -0.5889 -1.5438  0.2759
 7008SOL    HW132483   2.123   3.397   8.148 -2.0098 -1.0249  1.8847
 7008SOL    HW232484   2.125   3.253   8.125  3.0191  1.4616  0.9542
 7009SOL     OW32485   1.449   3.612  17.223 -0.1309 -0.2386  0.0051
 7009SOL    HW132486   1.427   3.568  17.140 -0.6395 -1.0159  0.5439
 7009SOL    HW232487   1.361   3.603  17.260  0.1040  0.1678  0.6463
 7010SOL     OW32488   0.261   2.869   5.123  0.0440 -0.0289  0.9844
 7010SOL    HW132489   0.253   2.789   5.175  0.3265 -0.4458  0.3824
 7010SOL    HW232490   0.325   2.924   5.169  1.8068 -1.7116  0.5736
 7011SOL     OW32491   3.952   0.145   5.030  0.4662  0.0363 -0.7837
 7011SOL    HW132492   3.872   0.094   5.045 -0.6554  2.1263  0.3148
 7011SOL    HW232493   3.952   0.202   5.108 -0.1241 -1.6223  0.4302
 7012SOL     OW32494   0.201   1.495   3.110 -0.5193  0.0141  0.2277
 7012SOL    HW132495   0.151   1.424   3.150 -0.1628 -0.7598 -0.7012
 7012SOL    HW232496   0.171   1.486   3.019 -1.2942  2.5723  0.2199
 7013SOL     OW32497   1.422   3.463   8.884  0.2812 -0.4509 -0.1650
 7013SOL    HW132498   1.436   3.409   8.963 -1.8452  2.2794  2.0688
 7013SOL    HW232499   1.511   3.455   8.849  1.0940  0.8711  1.5926
 7014SOL     OW32500   4.276   3.206  15.151  0.2681 -0.0580  0.6381
 7014SOL    HW132501   4.333   3.132  15.131 -1.4737 -1.8135  2.2168
 7014SOL    HW232502   4.245   3.175  15.236 -0.6642 -1.2083 -0.1434
 7015SOL     OW32503   2.391   2.598   6.443  0.2832 -0.4648 -0.8980
 7015SOL    HW132504   2.451   2.583   6.515 -1.8036 -1.0976  0.7070
 7015SOL    HW232505   2.449   2.616   6.369  0.9341 -0.1609 -0.3127
 7016SOL     OW32506   2.752   3.122   9.047  0.0175  0.1736  0.6692
 7016SOL    HW132507   2.815   3.181   9.006 -2.0981  1.7232 -0.3577
 7016SOL    HW232508   2.811   3.047   9.057 -0.7164 -0.6177 -0.8799
 7017SOL     OW32509   4.065   1.576  16.609 -0.3384  0.0434 -0.1947
 7017SOL    HW132510   4.003   1.520  16.655 -0.7140  0.6807  0.0760
 7017SOL    HW232511   4.146   1.540  16.645 -0.0369 -0.1825 -1.0865
 7018SOL     OW32512   3.757   1.362  12.216 -0.3017  0.4891  0.3393
 7018SOL    HW132513   3.703   1.438  12.237  1.6543  2.2173 -0.8104
 7018SOL    HW232514   3.691   1.314  12.167  0.8553 -1.3832  0.6154
 7019SOL     OW32515   1.228   4.136   8.956  0.2976 -0.1128 -0.0666
 7019SOL    HW132516   1.178   4.058   8.980  0.0886  0.4125  1.1817
 7019SOL    HW232517   1.251   4.113   8.866  1.2182 -0.7889  0.3467
 7020SOL     OW32518   0.401   1.991   8.600 -0.3090 -0.0692 -0.5391
 7020SOL    HW132519   0.496   1.982   8.602 -0.3792 -0.6347  0.6697
 7020SOL    HW232520   0.385   2.055   8.531 -1.5618  0.7244  0.4921
 7021SOL     OW32521   0.498   3.538   7.417 -0.2427 -0.2094 -0.3589
 7021SOL    HW132522   0.412   3.566   7.386  0.4012  0.0032 -1.9777
 7021SOL    HW232523   0.546   3.538   7.334  0.7034  1.5434  0.1906
 7022SOL     OW32524   2.561   3.158   3.503 -0.5656  0.1849 -0.6291
 7022SOL    HW132525   2.594   3.070   3.521  0.2277  1.1380  2.4461
 7022SOL    HW232526   2.641   3.197   3.469  0.2882 -1.3062 -0.3361
 7023SOL     OW32527   3.324   2.394  11.416  0.4752  0.5574 -0.1246
 7023SOL    HW132528   3.395   2.406  11.479  1.3294 -0.1226 -0.9740
 7023SOL    HW232529   3.335   2.472  11.361  0.3610  0.6588 -0.0059
 7024SOL     OW32530   1.794   0.057   8.187 -0.0105  0.2692 -0.2097
 7024SOL    HW132531   1.888   0.060   8.208 -0.3988  0.2597  1.5715
 7024SOL    HW232532   1.804   0.001   8.110  0.3627 -2.1098  1.5499
 7025SOL     OW32533   4.074   4.303   8.745  0.3099 -0.1141  0.2348
 7025SOL    HW132534   4.068   4.212   8.774 -2.8069  0.1173  0.2961
 7025SOL    HW232535   4.114   4.349   8.819  2.7342 -1.7072 -0.1198
 7026SOL     OW32536   3.371   4.354   7.999  0.3402  0.0639 -0.3532
 7026SOL    HW132537   3.388   4.440   7.961 -1.7804  0.1432 -1.1334
 7026SOL    HW232538   3.424   4.363   8.078 -1.0954  1.6859  0.4182
 7027SOL     OW32539   3.059   1.724   2.521  0.1785 -0.1118  0.1158
 7027SOL    HW132540   3.068   1.629   2.508 -0.6858 -0.3529  1.2648
 7027SOL    HW232541   3.138   1.759   2.480 -0.7400 -1.2267 -2.6322
 7028SOL     OW32542   3.228   2.645   0.437 -0.4729  0.0949  0.2424
 7028SOL    HW132543   3.269   2.726   0.470  0.4268  0.3903 -1.5856
 7028SOL    HW232544   3.140   2.664   0.405 -0.5293  0.9991  0.9175
 7029SOL     OW32545   4.259   3.665   2.401 -0.3827 -0.1987 -0.7391
 7029SOL    HW132546   4.307   3.748   2.404 -0.8906  0.0483  0.4186
 7029SOL    HW232547   4.238   3.645   2.493 -0.7291 -1.0863 -1.0082
 7030SOL     OW32548   3.863   0.421   2.265 -0.6923 -0.2657  0.4470
 7030SOL    HW132549   3.925   0.406   2.336 -0.0196 -0.9652 -0.2951
 7030SOL    HW232550   3.901   0.501   2.229  0.5288 -0.8676  0.4197
 7031SOL     OW32551   4.300   0.759   7.481 -0.5105  0.5462 -0.6386
 7031SOL    HW132552   4.313   0.735   7.389 -0.6975 -1.5437 -0.1197
 7031SOL    HW232553   4.205   0.746   7.485 -0.5545  0.7233 -1.1079
 7032SOL     OW32554   0.253   0.583   8.466  0.5985  0.9305 -0.1566
 7032SOL    HW132555   0.322   0.541   8.414  2.0325  1.1011  1.6096
 7032SOL    HW232556   0.290   0.581   8.555  0.1784  1.6696  0.0369
 7033SOL     OW32557   1.290   4.035   1.579  0.7319  0.3052  0.0966
 7033SOL    HW132558   1.230   3.961   1.582  0.4306  0.4734 -1.9368
 7033SOL    HW232559   1.367   3.990   1.545 -1.1973 -1.5692 -1.7477
 7034SOL     OW32560   3.425   1.317   7.590 -0.3846 -0.0719  0.1324
 7034SOL    HW132561   3.502   1.332   7.535 -1.1443  0.8785 -0.6762
 7034SOL    HW232562   3.426   1.223   7.610 -1.4681 -0.4234 -1.4413
 7035SOL     OW32563   0.628   1.635   7.937 -0.0109 -0.3570 -0.1778
 7035SOL    HW132564   0.536   1.610   7.947  0.0332  0.0242  1.1485
 7035SOL    HW232565   0.613   1.729   7.936 -0.7741 -0.4800 -0.1499
 7036SOL     OW32566   0.465   0.037   8.838  0.2965  0.1420  0.3518
 7036SOL    HW132567   0.492   4.677   8.793  0.3768 -0.2391  1.0820
 7036SOL    HW232568   0.372   0.018   8.847  0.6272 -2.7519 -2.1551
 7037SOL     OW32569   1.338   3.504  14.572 -0.0570  0.3869  0.3577
 7037SOL    HW132570   1.426   3.516  14.537  0.6651 -2.5752  1.1189
 7037SOL    HW232571   1.298   3.572  14.518  1.4913  0.2057 -1.0252
 7038SOL     OW32572   4.632   0.195   3.166  0.1435 -0.0852  0.0059
 7038SOL    HW132573   4.614   0.110   3.206 -2.0650  0.7731  0.8436
 7038SOL    HW232574   4.545   0.228   3.142  0.3406  0.8357  0.5537
 7039SOL     OW32575   1.372   3.167   6.673  0.4234 -0.1741  0.5955
 7039SOL    HW132576   1.454   3.133   6.637  0.6283 -0.6084  1.4604
 7039SOL    HW232577   1.402   3.189   6.762  0.7698 -0.1305  0.4688
 7040SOL     OW32578   4.691   4.526   5.819  0.3366  0.6911 -0.1289
 7040SOL    HW132579   4.656   4.569   5.741  3.0546 -0.7851 -2.1606
 7040SOL    HW232580   0.020   4.458   5.775 -0.2054 -0.9844  1.8442
 7041SOL     OW32581   3.498   4.282  14.578  0.2562  0.1890 -0.0986
 7041SOL    HW132582   3.582   4.327  14.568  1.7158 -2.1674  1.7860
 7041SOL    HW232583   3.488   4.256  14.486  4.8075  0.6776 -0.7055
 7042SOL     OW32584   1.162   4.143   6.726  0.2558 -0.0787 -0.0410
 7042SOL    HW132585   1.146   4.236   6.746  2.3720  0.0800  0.9599
 7042SOL    HW232586   1.192   4.153   6.636  1.1230  0.7614  0.3360
 7043SOL     OW32587   3.660   2.417  11.838  0.3172  0.4188 -0.5533
 7043SOL    HW132588   3.719   2.350  11.874 -0.4328  0.1360  0.1477
 7043SOL    HW232589   3.658   2.491  11.900 -0.9244  0.5144 -0.7146
 7044SOL     OW32590   0.182   2.268   6.746  0.1148  0.0663 -0.1054
 7044SOL    HW132591   0.176   2.178   6.778  1.1003  0.5120  1.3180
 7044SOL    HW232592   0.272   2.281   6.717  0.3700  1.6719  1.3915
 7045SOL     OW32593   2.669   3.650   0.292  0.0161  0.4017  0.0593
 7045SOL    HW132594   2.684   3.715   0.361 -0.5479 -0.7643  1.2625
 7045SOL    HW232595   2.594   3.682   0.241 -1.1767 -1.3512  0.7380
 7046SOL     OW32596   4.297   4.470   3.519 -0.6191  0.4507 -0.2564
 7046SOL    HW132597   4.302   4.515   3.434  0.2354 -1.4839 -1.2286
 7046SOL    HW232598   4.207   4.440   3.525  0.4065 -2.4504  0.4967
 7047SOL     OW32599   0.062   2.624  11.295 -0.2830  0.3132  0.2139
 7047SOL    HW132600   0.134   2.646  11.236 -0.0348  3.0651  1.5362
 7047SOL    HW232601   0.042   2.531  11.287 -0.8289  0.5504 -1.3578
 7048SOL     OW32602   0.505   3.892   4.430  0.0701  0.2297  0.4404
 7048SOL    HW132603   0.525   3.803   4.457 -0.5329  0.2510  0.9564
 7048SOL    HW232604   0.594   3.916   4.404  0.2591  1.1874  1.9615
 7049SOL     OW32605   4.147   0.157   8.962 -0.0029 -0.1845  0.2228
 7049SOL    HW132606   4.073   0.202   8.921 -0.1619 -0.1029  0.6061
 7049SOL    HW232607   4.218   0.222   8.965 -0.7768  0.5515  2.1525
 7050SOL     OW32608   0.722   0.198  15.172  0.0601  0.2493  0.1537
 7050SOL    HW132609   0.686   0.256  15.240 -0.3748  0.3683 -0.1758
 7050SOL    HW232610   0.677   0.115  15.187 -0.6238  0.6547  0.3364
 7051SOL     OW32611   4.220   3.087   8.934  0.5840 -0.1791  0.7229
 7051SOL    HW132612   4.236   3.041   9.016  1.1065  1.3699  1.4989
 7051SOL    HW232613   4.299   3.138   8.916 -0.6261  1.2149 -0.6875
 7052SOL     OW32614   1.736   2.211   4.714 -0.5856  0.1867 -0.5294
 7052SOL    HW132615   1.687   2.164   4.647 -1.9539  0.4534  0.2759
 7052SOL    HW232616   1.822   2.227   4.677 -0.3428 -0.8423 -0.4231
 7053SOL     OW32617   0.134   4.090   9.528  0.2781 -0.7439  0.4434
 7053SOL    HW132618   0.076   4.048   9.465 -1.4783 -0.1322  1.6204
 7053SOL    HW232619   0.063   4.112   9.589  1.2160 -0.7980  1.5429
 7054SOL     OW32620   1.288   1.600   7.949 -0.0371  0.2460  0.0211
 7054SOL    HW132621   1.262   1.661   8.017 -0.2188 -1.3900  1.4092
 7054SOL    HW232622   1.318   1.656   7.877  0.8386 -0.6896 -0.3477
 7055SOL     OW32623   0.249   4.021   8.915 -0.2341 -0.2100  0.1616
 7055SOL    HW132624   0.248   4.013   8.819 -1.4421  0.9166  0.0866
 7055SOL    HW232625   0.172   4.074   8.935  0.2456  0.1431  1.0542
 7056SOL     OW32626   3.503   0.562   7.871 -0.6670 -0.1234  0.1896
 7056SOL    HW132627   3.480   0.531   7.959  1.1272 -0.6543  0.4599
 7056SOL    HW232628   3.418   0.593   7.838 -0.1967  1.5126  0.5235
 7057SOL     OW32629   1.157   0.286   4.124  0.6427  0.1391 -0.1995
 7057SOL    HW132630   1.070   0.315   4.096  0.4250 -1.3302 -1.0272
 7057SOL    HW232631   1.191   0.273   4.035  0.2643  2.5498 -0.6897
 7058SOL     OW32632   0.601   1.957  10.537 -0.1321  0.5618 -0.5105
 7058SOL    HW132633   0.665   1.984  10.603  0.2922 -1.1410 -0.2424
 7058SOL    HW232634   0.656   1.926  10.465  0.2947 -1.8516  0.8400
 7059SOL     OW32635   2.261   1.954   7.590 -0.1257  0.2599  0.1351
 7059SOL    HW132636   2.274   1.882   7.651 -2.5315 -0.5135 -0.2902
 7059SOL    HW232637   2.229   2.021   7.650 -1.0872  0.7959 -0.9726
 7060SOL     OW32638   4.665   2.954   3.991 -0.4396 -0.6100 -0.6812
 7060SOL    HW132639   4.577   2.932   4.019 -0.0830 -1.1081  0.0318
 7060SOL    HW232640   4.648   3.021   3.925 -0.1667  0.9692  0.8427
 7061SOL     OW32641   1.316   1.658   4.922  0.3382 -1.0450  0.3674
 7061SOL    HW132642   1.290   1.629   5.010  1.3585 -1.2365  0.6066
 7061SOL    HW232643   1.241   1.714   4.902  0.3758 -1.6623 -1.4887
 7062SOL     OW32644   1.104   2.181   5.841  0.1188 -0.2605  0.0215
 7062SOL    HW132645   1.149   2.265   5.846 -0.2499 -0.0711  0.1270
 7062SOL    HW232646   1.102   2.151   5.932  0.6844 -0.1347  0.0794
 7063SOL     OW32647   3.803   0.817   1.068  0.4777  0.0886 -0.1399
 7063SOL    HW132648   3.858   0.763   1.124  0.6611  3.0273  2.5322
 7063SOL    HW232649   3.872   0.870   1.028 -1.2446  1.5519 -1.2001
 7064SOL     OW32650   0.322   0.992   8.188  0.7980 -0.2013  0.7372
 7064SOL    HW132651   0.325   0.969   8.281 -0.4341 -2.5225  0.2028
 7064SOL    HW232652   0.413   1.016   8.173 -0.0322  2.0979 -0.6697
 7065SOL     OW32653   2.758   0.982   9.614  0.0390  0.0574 -0.8645
 7065SOL    HW132654   2.797   0.942   9.692  1.2288  3.2450  0.1639
 7065SOL    HW232655   2.753   1.076   9.630 -0.2059  0.2671 -2.1592
 7066SOL     OW32656   3.357   3.801  16.341  0.0801 -0.2456 -0.4935
 7066SOL    HW132657   3.375   3.770  16.429 -1.8085  1.0183  0.3304
 7066SOL    HW232658   3.302   3.877  16.361 -0.2334 -0.7105  0.3751
 7067SOL     OW32659   2.450   1.278   8.257 -0.0505 -1.1240 -0.3201
 7067SOL    HW132660   2.433   1.216   8.329 -2.1225 -1.0391 -0.7483
 7067SOL    HW232661   2.359   1.282   8.231 -0.0294 -1.9873 -0.5480
 7068SOL     OW32662   0.868   3.176  12.823  0.4489 -0.2231  0.2344
 7068SOL    HW132663   0.913   3.222  12.752 -0.3895  0.8731  0.4229
 7068SOL    HW232664   0.790   3.149  12.776  1.5045  0.1101 -1.7167
 7069SOL     OW32665   3.228   1.890   2.408  0.6264  0.3411  0.2901
 7069SOL    HW132666   3.321   1.897   2.431  0.5499  1.1002  0.3723
 7069SOL    HW232667   3.230   1.899   2.313 -2.4681  0.0623  0.2018
 7070SOL     OW32668   0.293   4.035  15.729 -0.5498  0.2602  0.1670
 7070SOL    HW132669   0.275   4.108  15.788 -0.5204  1.0365 -0.7884
 7070SOL    HW232670   0.209   3.992  15.744 -0.1551 -0.3178  0.7326
 7071SOL     OW32671   2.662   4.342   7.987 -0.1322 -0.3594 -0.6424
 7071SOL    HW132672   2.742   4.388   7.963  0.4532 -0.8026  0.4610
 7071SOL    HW232673   2.664   4.357   8.081  0.0895  2.8232 -1.1751
 7072SOL     OW32674   0.355   0.401   3.652  0.0427 -0.0577  0.8822
 7072SOL    HW132675   0.378   0.490   3.681 -1.5864 -0.0873  2.3386
 7072SOL    HW232676   0.443   0.367   3.662  0.2514  0.7138  1.6802
 7073SOL     OW32677   0.038   3.932   6.189 -0.2191  0.3215  0.3011
 7073SOL    HW132678   0.055   3.979   6.108  1.1230 -0.7888 -0.0629
 7073SOL    HW232679   0.077   3.847   6.168  1.1959  1.0823 -0.1678
 7074SOL     OW32680   0.787   2.173   3.830 -0.0486  0.4835 -0.4178
 7074SOL    HW132681   0.788   2.267   3.815 -2.6875  0.7649  1.2534
 7074SOL    HW232682   0.876   2.152   3.801 -0.4312  0.2189 -1.4298
 7075SOL     OW32683   2.378   4.328  16.446 -0.0808 -0.3743  0.0589
 7075SOL    HW132684   2.413   4.240  16.435 -0.8126 -0.5707 -0.6413
 7075SOL    HW232685   2.315   4.319  16.517 -0.1703 -1.5138 -0.1654
 7076SOL     OW32686   1.575   1.930  14.869 -0.4574 -0.0075 -0.3295
 7076SOL    HW132687   1.670   1.924  14.863 -0.2892  2.1448  0.1225
 7076SOL    HW232688   1.558   1.838  14.890  0.6021  0.3532  2.1037
 7077SOL     OW32689   2.126   0.431   6.148 -0.5202  0.3144 -0.0596
 7077SOL    HW132690   2.178   0.354   6.171 -2.8988 -1.3706 -0.3510
 7077SOL    HW232691   2.173   0.471   6.074 -2.3088 -0.9269 -1.8719
 7078SOL     OW32692   1.423   4.075  10.796  0.2612 -0.1969 -0.1773
 7078SOL    HW132693   1.421   4.085  10.892  0.3660  1.5240 -0.3533
 7078SOL    HW232694   1.377   3.992  10.787  0.1054  0.0689 -1.6974
 7079SOL     OW32695   3.012   3.423   3.966  0.0857  0.2081 -0.2360
 7079SOL    HW132696   3.052   3.363   3.902 -1.9464 -0.8118 -0.5392
 7079SOL    HW232697   3.056   3.506   3.945  0.2597  0.5879  1.6442
 7080SOL     OW32698   0.830   4.621   8.480  0.5075  0.1335  0.3854
 7080SOL    HW132699   0.738   4.645   8.469  0.0808 -1.2060  0.9821
 7080SOL    HW232700   0.835   4.582   8.567 -0.2457  0.3318  0.5201
 7081SOL     OW32701   1.438   0.631   3.259 -0.7322 -0.0987 -0.7420
 7081SOL    HW132702   1.486   0.550   3.276 -0.1241  0.7916  1.6362
 7081SOL    HW232703   1.350   0.601   3.281  0.4771 -3.4889 -0.5651
 7082SOL     OW32704   0.975   0.036   4.303  0.7273  0.4364 -0.5349
 7082SOL    HW132705   0.909   4.690   4.324  0.1384  1.7893  1.9041
 7082SOL    HW232706   0.976   0.026   4.207 -3.0132  4.3335 -0.9941
 7083SOL     OW32707   2.091   2.824   9.985 -0.3057 -0.2626  0.4413
 7083SOL    HW132708   2.068   2.826  10.078 -0.1643  0.7301  0.4594
 7083SOL    HW232709   2.049   2.905   9.955 -0.4162 -0.6244 -0.3844
 7084SOL     OW32710   0.049   1.399   2.121 -0.0228 -0.0615  0.5487
 7084SOL    HW132711   0.124   1.407   2.062 -0.0357  0.6427  0.6303
 7084SOL    HW232712   0.070   1.310   2.148  0.1480 -0.0075  0.5915
 7085SOL     OW32713   0.260   3.839   7.549 -0.1041  0.1362 -0.1952
 7085SOL    HW132714   0.263   3.757   7.598  1.9306  0.8260  0.8071
 7085SOL    HW232715   0.350   3.864   7.569  0.5264 -1.7360 -0.7112
 7086SOL     OW32716   4.582   3.280  15.856 -0.4095  0.0262 -0.0142
 7086SOL    HW132717   4.649   3.325  15.804  0.4010  1.1410  1.9657
 7086SOL    HW232718   4.544   3.225  15.788 -2.1852  2.1795 -0.7573
 7087SOL     OW32719   0.497   4.539   9.205 -0.1408 -0.1414  0.2077
 7087SOL    HW132720   0.465   4.628   9.223  0.7913 -0.0990  1.6962
 7087SOL    HW232721   0.471   4.502   9.289 -1.9509  1.0699  0.1938
 7088SOL     OW32722   1.416   3.451   0.511  0.3205 -0.1334  0.4034
 7088SOL    HW132723   1.441   3.364   0.480  1.1651  0.2152  0.0888
 7088SOL    HW232724   1.325   3.460   0.485  0.2546  0.4322  0.8301
 7089SOL     OW32725   2.898   0.970   3.256 -0.1953 -0.1353  0.0142
 7089SOL    HW132726   2.840   0.896   3.276 -1.8128  0.6353 -1.8474
 7089SOL    HW232727   2.849   1.038   3.302 -2.3708 -2.5998  1.3640
 7090SOL     OW32728   2.622   0.589   2.999 -0.4322  0.7247  0.1171
 7090SOL    HW132729   2.634   0.528   3.071 -0.5895 -0.9433 -1.2816
 7090SOL    HW232730   2.550   0.550   2.950 -1.3633 -0.8779  2.7793
 7091SOL     OW32731   3.932   3.927   7.869 -0.2133 -0.1613  0.2485
 7091SOL    HW132732   3.850   3.935   7.820  0.0265  2.0785  0.2360
 7091SOL    HW232733   3.906   3.897   7.956 -1.1391 -1.5806 -0.5039
 7092SOL     OW32734   0.301   3.530   8.907  0.0485 -0.0721  0.3824
 7092SOL    HW132735   0.348   3.510   8.827 -0.3873  0.5422 -0.0256
 7092SOL    HW232736   0.318   3.445   8.948  1.2376  0.8109  1.6807
 7093SOL     OW32737   3.982   2.758   9.410  0.4072 -0.1491  0.0892
 7093SOL    HW132738   3.949   2.682   9.459 -0.1338 -1.3207 -2.1041
 7093SOL    HW232739   3.901   2.783   9.365 -0.6693 -2.1389  0.8827
 7094SOL     OW32740   0.250   0.433   2.028 -0.1884 -0.0137  0.5762
 7094SOL    HW132741   0.166   0.444   1.984  0.7816  0.2640 -1.1769
 7094SOL    HW232742   0.263   0.338   2.021  3.4205  0.7592 -2.6800
 7095SOL     OW32743   2.211   4.094   8.440 -0.4001 -0.2098 -0.1374
 7095SOL    HW132744   2.279   4.061   8.382  0.2206  0.4994  0.1816
 7095SOL    HW232745   2.264   4.140   8.505 -0.7939 -0.6889  0.5284
 7096SOL     OW32746   1.211   1.108   2.454 -0.1864 -0.1066 -0.6235
 7096SOL    HW132747   1.164   1.080   2.533 -1.1105 -1.3572 -1.6159
 7096SOL    HW232748   1.281   1.042   2.450  0.1445  0.1197  1.2855
 7097SOL     OW32749   3.303   3.461   4.940 -0.2853  0.4688  0.0609
 7097SOL    HW132750   3.225   3.457   4.886 -0.6003  0.9824  0.4735
 7097SOL    HW232751   3.324   3.554   4.937  4.9386 -0.6769  0.9676
 7098SOL     OW32752   2.713   2.071   5.526 -0.7566 -0.0480  0.5073
 7098SOL    HW132753   2.782   2.090   5.462 -2.8763  1.0883 -1.4453
 7098SOL    HW232754   2.684   1.985   5.496  0.2941 -0.5637  0.9783
 7099SOL     OW32755   4.474   4.074   0.172 -0.2373  0.1819 -0.1338
 7099SOL    HW132756   4.445   4.164   0.152 -1.1967 -0.2627 -0.7532
 7099SOL    HW232757   4.552   4.082   0.227 -0.5948 -4.2948  0.9721
 7100SOL     OW32758   3.221   1.304  11.956  0.1540  0.1785  0.0722
 7100SOL    HW132759   3.191   1.385  11.914 -2.2179  0.2069  1.7948
 7100SOL    HW232760   3.310   1.319  11.988 -0.0380  2.6086 -0.5474
 7101SOL     OW32761   1.465   2.971   3.250 -0.0772  0.2624 -0.5121
 7101SOL    HW132762   1.387   2.970   3.305  1.4618  0.5288  1.6600
 7101SOL    HW232763   1.499   2.882   3.255 -1.1932 -0.2335 -1.5993
 7102SOL     OW32764   0.197   2.044   1.610  0.1174  0.0107  1.0050
 7102SOL    HW132765   0.179   2.114   1.547  3.9138 -0.1527 -0.2069
 7102SOL    HW232766   0.292   2.037   1.599 -0.0221  1.6329 -1.0919
 7103SOL     OW32767   4.274   3.344   0.085  0.3999 -0.1352  0.7524
 7103SOL    HW132768   4.192   3.296   0.088 -2.3991  4.4611 -2.2101
 7103SOL    HW232769   4.320   3.315   0.164  1.2319 -0.4711  0.1378
 7104SOL     OW32770   2.339   0.972  15.777 -0.1276  0.0157  0.4952
 7104SOL    HW132771   2.391   1.038  15.821  0.2356  0.7819 -1.0931
 7104SOL    HW232772   2.293   0.923  15.846 -0.9282 -1.1749 -0.8639
 7105SOL     OW32773   4.448   2.366   8.112 -0.0942  0.0870 -0.1713
 7105SOL    HW132774   4.532   2.393   8.074 -1.0774  1.7833 -1.1314
 7105SOL    HW232775   4.449   2.422   8.191  0.9032  0.2984 -0.3302
 7106SOL     OW32776   1.306   2.674   8.688 -0.1966  0.3484 -0.0039
 7106SOL    HW132777   1.334   2.635   8.605  0.3811 -2.2671  1.4046
 7106SOL    HW232778   1.229   2.630   8.725 -0.4463  1.1304  0.3989
 7107SOL     OW32779   3.957   1.939  12.463 -0.4667 -0.1102 -0.4187
 7107SOL    HW132780   4.001   1.854  12.457 -0.2820 -0.1147  1.0032
 7107SOL    HW232781   4.021   1.996  12.506 -0.0611 -0.5995 -0.3741
 7108SOL     OW32782   2.173   3.176   6.077 -0.0673  0.1317  0.4602
 7108SOL    HW132783   2.100   3.127   6.115 -0.1899  0.8554  1.1666
 7108SOL    HW232784   2.199   3.118   6.005  1.6961  0.3434  0.9175
 7109SOL     OW32785   3.281   2.981   5.840  0.5692  0.4332  0.1219
 7109SOL    HW132786   3.191   2.947   5.837 -0.0821  2.1255  0.0646
 7109SOL    HW232787   3.330   2.903   5.814 -0.9358 -0.4902  0.0518
 7110SOL     OW32788   3.197   4.622  17.596  0.1980 -0.1548 -0.0431
 7110SOL    HW132789   3.194   4.527  17.592 -1.4082 -0.0800 -0.4561
 7110SOL    HW232790   3.229   4.638   0.000 -1.6272 -4.4740  1.3395
 7111SOL     OW32791   2.936   2.537   9.845  0.2266 -0.5941  0.7094
 7111SOL    HW132792   2.874   2.581   9.903  2.3035  3.4165 -0.1496
 7111SOL    HW232793   3.002   2.606   9.850 -0.6261  0.1020  2.4889
 7112SOL     OW32794   0.929   3.281   3.344 -0.6360  0.6098 -0.0833
 7112SOL    HW132795   0.900   3.190   3.337  0.6391  0.2557 -0.7062
 7112SOL    HW232796   0.878   3.336   3.284  2.9807  2.0955 -1.8492
 7113SOL     OW32797   2.757   3.166   6.793  0.1810  0.6951 -0.6570
 7113SOL    HW132798   2.720   3.241   6.746  0.4955  0.2866 -1.5519
 7113SOL    HW232799   2.838   3.144   6.748  0.1983 -0.3968 -0.0767
 7114SOL     OW32800   1.264   3.148   8.912 -0.0541  0.3993  0.2284
 7114SOL    HW132801   1.213   3.107   8.981  1.0685 -1.1482  0.1218
 7114SOL    HW232802   1.304   3.079   8.860 -0.8906  0.1418 -0.0681
 7115SOL     OW32803   1.921   3.163   1.794  1.1512  0.1679  0.9244
 7115SOL    HW132804   1.842   3.158   1.741  1.9218 -1.3063 -0.0832
 7115SOL    HW232805   1.965   3.087   1.758 -2.1155 -1.2897 -0.0082
 7116SOL     OW32806   1.399   3.120   1.429  0.0885 -0.1131  0.3255
 7116SOL    HW132807   1.389   3.027   1.409 -0.2189 -0.1485  0.6443
 7116SOL    HW232808   1.327   3.153   1.375 -1.9200 -1.7291  2.0147
 7117SOL     OW32809   4.408   0.941   7.883  0.4581 -0.0736  0.5971
 7117SOL    HW132810   4.439   0.891   7.959  2.4849 -2.1426 -1.5908
 7117SOL    HW232811   4.344   0.879   7.848 -0.1784  1.4320 -0.8988
 7118SOL     OW32812   1.362   3.504   0.962  0.0391  0.3481 -0.1969
 7118SOL    HW132813   1.410   3.499   0.879  1.4641  0.1629  0.6316
 7118SOL    HW232814   1.430   3.511   1.029 -0.3946 -0.8271  0.3572
 7119SOL     OW32815   0.681   3.920  13.292 -0.5410  0.0889 -0.5832
 7119SOL    HW132816   0.776   3.910  13.292 -0.4715  0.6281  2.0017
 7119SOL    HW232817   0.643   3.849  13.239  1.0038  0.5599 -2.3088
 7120SOL     OW32818   0.308   4.095   7.863  0.2342  0.3538  0.1078
 7120SOL    HW132819   0.392   4.093   7.817  0.2554 -1.7311  0.2604
 7120SOL    HW232820   0.328   4.159   7.932 -1.4986  1.1317 -0.1132
 7121SOL     OW32821   2.164   2.233  12.307 -0.3468  0.2661  0.7712
 7121SOL    HW132822   2.148   2.323  12.335  0.3915  0.1460  1.5651
 7121SOL    HW232823   2.126   2.180  12.377 -0.5292  1.5671  1.6531
 7122SOL     OW32824   3.072   3.808   5.928  0.5695 -0.3729 -0.2818
 7122SOL    HW132825   3.034   3.872   5.989  0.8703  0.6615 -1.1812
 7122SOL    HW232826   3.012   3.816   5.853 -0.1441 -1.4400  0.1770
 7123SOL     OW32827   0.634   2.391   2.097 -0.1158  0.4646 -0.8335
 7123SOL    HW132828   0.558   2.447   2.113 -1.3765 -1.2504 -0.8998
 7123SOL    HW232829   0.695   2.463   2.113 -0.1803  0.0836  1.1186
 7124SOL     OW32830   1.371   4.276   6.852 -0.1452  0.2215  0.3730
 7124SOL    HW132831   1.303   4.211   6.869 -0.2970  0.0643 -0.8143
 7124SOL    HW232832   1.377   4.315   6.939  2.1529 -0.3443  0.4723
 7125SOL     OW32833   3.068   0.089   8.455  0.6477 -0.5954  0.9653
 7125SOL    HW132834   3.127   0.020   8.485 -1.4580 -2.1981  1.4310
 7125SOL    HW232835   2.987   0.077   8.506 -0.3944  1.2640 -0.2645
 7126SOL     OW32836   0.109   3.010  13.121  0.6131  0.1283  0.0162
 7126SOL    HW132837   0.021   3.006  13.085 -0.1934 -0.0157  1.9786
 7126SOL    HW232838   0.089   2.959  13.199  0.5227 -2.1056 -1.4641
 7127SOL     OW32839   0.801   2.721  10.458  0.6131  0.0806  0.2367
 7127SOL    HW132840   0.745   2.656  10.415  0.1906  0.6431 -0.0663
 7127SOL    HW232841   0.786   2.793  10.397  0.6152 -0.2365 -0.1379
 7128SOL     OW32842   3.988   3.058   5.449 -0.1994  0.3566  0.5376
 7128SOL    HW132843   4.025   2.974   5.423 -1.9013 -0.3310  0.3113
 7128SOL    HW232844   3.907   3.020   5.483 -1.7539  1.3582 -2.0569
 7129SOL     OW32845   4.403   1.100   3.091 -0.3997  0.2653  0.7043
 7129SOL    HW132846   4.491   1.076   3.060  0.3386  1.6518  1.7010
 7129SOL    HW232847   4.386   1.180   3.041 -0.0926 -0.1887 -0.1327
 7130SOL     OW32848   1.180   2.382  11.521 -0.2901 -0.8102 -0.8463
 7130SOL    HW132849   1.179   2.349  11.431 -3.3687  0.1891 -1.1831
 7130SOL    HW232850   1.088   2.382  11.549 -0.1706  2.0849 -0.5248
 7131SOL     OW32851   3.187   3.371   3.517 -0.2076 -0.1003  0.7348
 7131SOL    HW132852   3.167   3.454   3.475 -2.0833 -0.5107  0.7985
 7131SOL    HW232853   3.112   3.316   3.493  0.0193 -0.6479  1.2675
 7132SOL     OW32854   2.742   3.910   8.306 -0.4243  0.6524  0.4830
 7132SOL    HW132855   2.728   3.833   8.251  2.0581  0.2596  0.4054
 7132SOL    HW232856   2.775   3.964   8.235 -0.2203  0.1479  0.1955
 7133SOL     OW32857   0.074   2.145   6.005  0.6213  0.8132 -0.5406
 7133SOL    HW132858   0.140   2.148   6.074 -0.9442 -0.1303  1.0264
 7133SOL    HW232859   0.047   2.234   5.984 -0.6880  1.1231  2.4829
 7134SOL     OW32860   3.877   2.098   7.521  0.3417  0.4279 -0.0791
 7134SOL    HW132861   3.799   2.095   7.466  0.9137 -0.6580 -0.8432
 7134SOL    HW232862   3.844   2.147   7.597  0.1336 -0.8969  0.6967
 7135SOL     OW32863   0.584   3.994   6.095  0.2115 -0.0576 -0.0292
 7135SOL    HW132864   0.663   3.967   6.049 -2.9180 -2.2587 -4.0901
 7135SOL    HW232865   0.522   3.930   6.061 -0.0908 -0.6772  1.6882
 7136SOL     OW32866   1.582   2.342   9.226 -0.0579 -0.2691  0.0545
 7136SOL    HW132867   1.587   2.385   9.311 -0.1045  2.0566 -1.1303
 7136SOL    HW232868   1.671   2.309   9.213  0.4945  1.9794 -1.9649
 7137SOL     OW32869   1.237   1.885  13.325 -0.3948 -0.1676  0.3256
 7137SOL    HW132870   1.265   1.821  13.391 -0.8944  0.2630  0.9643
 7137SOL    HW232871   1.175   1.833  13.274 -0.1655 -1.5793  1.4980
 7138SOL     OW32872   2.408   0.640  15.910  0.3910 -0.6245 -0.8732
 7138SOL    HW132873   2.500   0.660  15.930  0.0941  0.7602 -0.9228
 7138SOL    HW232874   2.366   0.717  15.948 -1.7694 -0.9831 -2.5803
 7139SOL     OW32875   2.156   4.262   8.960 -0.4874 -0.1929 -0.4631
 7139SOL    HW132876   2.121   4.264   8.872 -1.0589 -1.4545 -0.2729
 7139SOL    HW232877   2.222   4.192   8.952  0.5260  0.8220 -1.0099
 7140SOL     OW32878   2.193   2.006   2.025  0.1177 -0.0334  0.4485
 7140SOL    HW132879   2.266   2.063   2.002  0.2272 -0.0293  0.8014
 7140SOL    HW232880   2.118   2.050   1.985  0.5088  1.2148  1.0738
 7141SOL     OW32881   2.792   1.952   8.455  0.3109 -0.5329 -0.2018
 7141SOL    HW132882   2.751   1.866   8.463  3.1695 -1.8531  0.1879
 7141SOL    HW232883   2.837   1.934   8.373  1.1499 -1.5026  0.4620
 7142SOL     OW32884   4.400   3.225   3.299 -0.2848 -0.3345 -0.3073
 7142SOL    HW132885   4.491   3.255   3.297  0.3302 -2.1327 -0.1582
 7142SOL    HW232886   4.352   3.307   3.304 -0.7551 -0.7055  1.0216
 7143SOL     OW32887   3.109   2.507   7.578 -0.5245  0.3339 -0.0521
 7143SOL    HW132888   3.180   2.503   7.642 -0.4199  0.8730 -0.1335
 7143SOL    HW232889   3.049   2.452   7.628 -1.2986 -1.2153 -2.6496
 7144SOL     OW32890   2.931   0.279   5.547  0.2131 -0.3342 -0.4926
 7144SOL    HW132891   2.863   0.221   5.582 -0.5091  1.7065  1.4608
 7144SOL    HW232892   2.982   0.290   5.627  1.2105  1.6823 -1.4362
 7145SOL     OW32893   1.931   2.257   7.934 -0.1201 -0.4715 -0.6674
 7145SOL    HW132894   1.930   2.170   7.975 -2.0521 -0.2575 -0.2354
 7145SOL    HW232895   1.847   2.274   7.891 -1.2533 -0.7721  1.4052
 7146SOL     OW32896   2.272   2.738  12.562  0.4147 -0.2751  0.0257
 7146SOL    HW132897   2.310   2.778  12.483  1.1136 -1.5055 -0.2769
 7146SOL    HW232898   2.256   2.821  12.607 -1.6459  0.0212 -1.2848
 7147SOL     OW32899   0.916   1.897   5.316  0.0508 -0.0204 -0.5516
 7147SOL    HW132900   0.955   1.889   5.403 -1.0156  1.7696  0.0851
 7147SOL    HW232901   0.864   1.817   5.310  0.9748 -0.5825 -0.9822
 7148SOL     OW32902   2.141   0.514   8.438 -0.1940  0.5192 -0.3763
 7148SOL    HW132903   2.130   0.496   8.345 -0.2042 -2.1025  0.1560
 7148SOL    HW232904   2.100   0.601   8.435  0.1223  0.6724 -0.2349
 7149SOL     OW32905   3.996   3.036  15.486 -0.0216  0.2725  0.0416
 7149SOL    HW132906   3.901   3.046  15.484 -0.2447 -1.9198 -0.0881
 7149SOL    HW232907   3.998   3.006  15.577  1.8122 -0.6534 -0.2982
 7150SOL     OW32908   3.737   4.182  13.192 -0.6742  0.2319 -0.3535
 7150SOL    HW132909   3.664   4.235  13.161 -0.1330  0.2275 -1.6208
 7150SOL    HW232910   3.808   4.235  13.156  0.9068  2.0017  5.4202
 7151SOL     OW32911   1.088   2.185   8.273 -0.4663 -0.3901 -0.4011
 7151SOL    HW132912   1.039   2.241   8.333 -0.4920 -1.9167  1.0119
 7151SOL    HW232913   1.116   2.255   8.214 -0.9465  0.5138  0.4412
 7152SOL     OW32914   3.154   0.356   3.832  0.2167 -0.5019 -0.1737
 7152SOL    HW132915   3.098   0.283   3.805 -0.8347 -0.0819  0.8477
 7152SOL    HW232916   3.086   0.420   3.853 -0.0474 -1.2791  1.2860
 7153SOL     OW32917   1.864   3.952  12.634 -0.1306 -0.7377  0.5523
 7153SOL    HW132918   1.882   3.913  12.719 -1.7752  2.2410  2.2881
 7153SOL    HW232919   1.938   3.906  12.594 -0.9697 -1.0375 -0.6598
 7154SOL     OW32920   2.366   1.204   5.741 -0.3389  0.5631  0.0643
 7154SOL    HW132921   2.357   1.299   5.749 -2.2303  0.4693 -0.9380
 7154SOL    HW232922   2.459   1.186   5.729 -0.1013  0.4947  1.9865
 7155SOL     OW32923   3.714   3.242   4.395  0.1368  0.2133  0.1891
 7155SOL    HW132924   3.670   3.325   4.414 -0.6956 -0.2630  0.3521
 7155SOL    HW232925   3.725   3.209   4.484  0.4102 -1.4429 -0.4545
 7156SOL     OW32926   2.452   2.907  17.534 -0.1002 -0.6872 -0.2205
 7156SOL    HW132927   2.482   2.935  17.447 -2.1722 -1.3370 -1.1642
 7156SOL    HW232928   2.389   2.842  17.502 -0.1207 -0.2301 -1.1125
 7157SOL     OW32929   3.481   4.057   4.149  0.0268  0.5290  0.6599
 7157SOL    HW132930   3.540   4.055   4.224 -0.2144  2.0265  0.8815
 7157SOL    HW232931   3.510   3.979   4.101 -1.0692  1.2351 -1.1408
 7158SOL     OW32932   2.905   3.974   9.184 -0.5055  0.1811 -0.3084
 7158SOL    HW132933   2.928   4.022   9.263  2.2373 -1.0169 -0.3776
 7158SOL    HW232934   2.956   3.893   9.177  1.0959  1.1438  0.2970
 7159SOL     OW32935   2.471   4.206   7.616  0.6619  0.3783  0.0763
 7159SOL    HW132936   2.541   4.245   7.669  2.3826 -1.7615 -0.6389
 7159SOL    HW232937   2.477   4.119   7.655  3.0826 -0.2803 -1.7590
 7160SOL     OW32938   3.909   0.876   5.137 -0.3288  0.1318  0.3870
 7160SOL    HW132939   3.829   0.892   5.187  0.8324 -0.4835  2.4431
 7160SOL    HW232940   3.882   0.791   5.102 -2.1200  1.0090 -0.3456
 7161SOL     OW32941   0.509   4.139   4.325  0.1784 -0.1507 -0.0524
 7161SOL    HW132942   0.464   4.071   4.375 -0.1486  0.8119  0.9592
 7161SOL    HW232943   0.513   4.093   4.241  1.0117 -0.7456  0.3178
 7162SOL     OW32944   0.774   4.372   9.340  0.5900  0.0455  0.5306
 7162SOL    HW132945   0.807   4.372   9.250 -1.2267 -0.8168 -0.1332
 7162SOL    HW232946   0.792   4.279   9.354 -0.3172 -0.2310 -0.1395
 7163SOL     OW32947   0.230   1.980  16.102 -0.2026 -0.1606  0.1176
 7163SOL    HW132948   0.300   2.035  16.066 -1.7373  0.4124 -1.9659
 7163SOL    HW232949   0.261   1.946  16.186  1.4355 -0.0306 -0.4285
 7164SOL     OW32950   4.070   2.929  17.480 -1.0384  0.2146 -0.5409
 7164SOL    HW132951   4.083   2.946  17.573  0.1832 -1.1265 -0.4680
 7164SOL    HW232952   4.070   3.017  17.442 -0.2508  1.7593  3.0614
 7165SOL     OW32953   1.743   4.158   6.199  0.0975 -0.2986 -0.5247
 7165SOL    HW132954   1.650   4.173   6.186 -0.3177 -1.1227  1.5116
 7165SOL    HW232955   1.756   4.106   6.120 -0.9201  0.0382 -0.9028
 7166SOL     OW32956   0.133   1.938   5.294  0.5186 -0.1114  0.6489
 7166SOL    HW132957   0.123   2.030   5.268 -3.2535  0.0442  2.6964
 7166SOL    HW232958   0.229   1.941   5.291  0.4550 -0.9144 -1.9011
 7167SOL     OW32959   1.716   2.210   3.523  0.7365  0.3615 -0.1195
 7167SOL    HW132960   1.700   2.301   3.496  1.2676  0.9241  1.4588
 7167SOL    HW232961   1.811   2.204   3.517  0.9747  2.0416  1.9099
 7168SOL     OW32962   1.414   0.118   4.531 -0.3763 -0.6391  0.1842
 7168SOL    HW132963   1.421   0.127   4.626  0.9034 -1.9098  0.2092
 7168SOL    HW232964   1.482   0.052   4.515  0.3216  0.3141 -0.8315
 7169SOL     OW32965   1.999   0.520  13.870 -0.1930  0.0355  0.5233
 7169SOL    HW132966   1.927   0.566  13.915 -0.6325 -0.2568  0.1241
 7169SOL    HW232967   2.063   0.581  13.906  0.7237 -0.6261 -0.0081
 7170SOL     OW32968   3.038   3.140   8.104  0.0909 -0.5353 -0.7035
 7170SOL    HW132969   3.127   3.130   8.139 -0.2283  1.8132  0.8022
 7170SOL    HW232970   3.016   3.050   8.080  0.8669 -0.3172 -2.2140
 7171SOL     OW32971   0.168   2.901   7.502  0.1276 -0.3743  0.1737
 7171SOL    HW132972   0.095   2.927   7.446  0.7600  0.8106 -0.1018
 7171SOL    HW232973   0.229   2.970   7.475  1.0028 -1.1719  0.0884
 7172SOL     OW32974   1.853   3.275   0.870 -0.2149 -0.0675  0.5125
 7172SOL    HW132975   1.800   3.307   0.797  0.6268  2.7515  1.1376
 7172SOL    HW232976   1.786   3.283   0.938  0.8055  2.9487  1.1677
 7173SOL     OW32977   0.070   2.896   2.574  0.3743  0.3246  0.1842
 7173SOL    HW132978   0.027   2.859   2.652 -1.3877  0.9460 -0.4823
 7173SOL    HW232979   0.132   2.825   2.560 -1.1756 -0.7511 -1.2073
 7174SOL     OW32980   2.014   0.675   2.265 -0.3662 -0.3522  0.5085
 7174SOL    HW132981   2.082   0.614   2.295  0.3927 -1.4015 -3.3176
 7174SOL    HW232982   2.061   0.719   2.194 -0.4064  0.9221  1.2768
 7175SOL     OW32983   3.111   4.122   4.531  0.3005  0.3098 -0.4052
 7175SOL    HW132984   3.016   4.119   4.519 -0.3646  2.1327  4.3411
 7175SOL    HW232985   3.129   4.029   4.540 -0.7391  0.2481  1.1430
 7176SOL     OW32986   3.345   2.815   8.424  0.4294  0.5625  0.3325
 7176SOL    HW132987   3.282   2.743   8.419  0.1750  0.8502 -0.5310
 7176SOL    HW232988   3.292   2.895   8.423 -2.0064 -1.0092  2.0974
 7177SOL     OW32989   0.684   3.929  14.997 -0.1753 -0.0198 -0.3537
 7177SOL    HW132990   0.709   4.003  14.943  1.2719 -1.0241 -1.0568
 7177SOL    HW232991   0.635   3.972  15.068  2.1955  0.7499  0.8195
 7178SOL     OW32992   3.701   0.014   9.877  0.4291 -0.3325 -0.8944
 7178SOL    HW132993   3.651   0.095   9.888  0.6534 -0.6814  2.6000
 7178SOL    HW232994   3.781   0.032   9.925  0.2344 -0.5645 -0.4774
 7179SOL     OW32995   3.790   1.161  16.910  0.1016  0.2309 -0.1179
 7179SOL    HW132996   3.848   1.156  16.986  2.5181  0.9050 -1.9086
 7179SOL    HW232997   3.703   1.169  16.949 -0.6008  2.3146 -2.1085
 7180SOL     OW32998   0.861   3.525   6.767 -0.1825 -0.0971  0.2913
 7180SOL    HW132999   0.873   3.596   6.829  1.8369 -2.0669  2.1471
 7180SOL    HW233000   0.791   3.469   6.802 -0.9019 -1.0893 -2.6666
 7181SOL     OW33001   1.487   3.435  16.535 -0.8426 -0.0940 -0.1814
 7181SOL    HW133002   1.435   3.504  16.576 -0.5889 -1.0004  1.6712
 7181SOL    HW233003   1.509   3.476  16.452 -1.5585  0.1686 -0.2427
 7182SOL     OW33004   1.760   4.537  16.154  0.4679  0.3917  0.2479
 7182SOL    HW133005   1.738   4.613  16.100 -0.8664  0.0221  0.2764
 7182SOL    HW233006   1.850   4.558  16.178  0.8667 -1.6283  0.5786
 7183SOL     OW33007   4.057   3.717   5.904  0.7278  0.2032  0.1836
 7183SOL    HW133008   4.132   3.722   5.963  0.7645 -0.8149  0.2383
 7183SOL    HW233009   4.098   3.653   5.846  1.5830  0.3564  0.6192
 7184SOL     OW33010   0.505   1.226   8.447  0.3437  0.7411  0.0026
 7184SOL    HW133011   0.564   1.271   8.508 -0.6142 -0.9316  2.1451
 7184SOL    HW233012   0.452   1.175   8.508 -2.2630  1.4134 -1.7017
 7185SOL     OW33013   2.246   2.254   4.529 -0.2555 -0.3377  0.2997
 7185SOL    HW133014   2.153   2.269   4.546 -0.1616  0.0870  0.4397
 7185SOL    HW233015   2.258   2.183   4.592 -0.6009  1.5645  2.5069
 7186SOL     OW33016   4.089   2.680   2.231 -0.2305 -0.3088 -0.2357
 7186SOL    HW133017   4.181   2.675   2.257  0.1985 -0.5344 -1.8333
 7186SOL    HW233018   4.110   2.729   2.152 -0.5257  1.5003  0.8199
 7187SOL     OW33019   3.133   4.408  13.428 -0.1831  0.5443  0.8160
 7187SOL    HW133020   3.223   4.440  13.431  1.1778 -3.2954  1.6717
 7187SOL    HW233021   3.129   4.379  13.519  0.4225 -0.2731  0.5917
 7188SOL     OW33022   1.928   0.710  11.563 -0.0796 -0.0663  0.3748
 7188SOL    HW133023   1.997   0.685  11.502  0.9299 -0.0914  1.5324
 7188SOL    HW233024   1.866   0.738  11.495  0.6998  1.7517  0.4132
 7189SOL     OW33025   0.369   3.948   5.414 -0.2936 -0.2618  0.0879
 7189SOL    HW133026   0.277   3.965   5.435 -0.8164 -3.6568  0.5392
 7189SOL    HW233027   0.393   4.013   5.348  0.2988  1.5833  2.1057
 7190SOL     OW33028   1.450   2.487  11.479  0.2244 -0.0432  0.0890
 7190SOL    HW133029   1.398   2.463  11.402  1.4058  0.0812 -0.7426
 7190SOL    HW233030   1.459   2.404  11.525  0.3403  0.2949  0.6788
 7191SOL     OW33031   1.467   4.588   3.036 -0.0794  0.2372  0.1998
 7191SOL    HW133032   1.446   4.663   3.091  0.5492 -1.0429  2.1630
 7191SOL    HW233033   1.560   4.602   3.020  0.2423 -0.1669  1.7489
 7192SOL     OW33034   1.304   0.410   3.035 -0.2207 -0.5399  0.1257
 7192SOL    HW133035   1.218   0.431   2.998  0.3345  0.1508 -0.7611
 7192SOL    HW233036   1.362   0.454   2.973 -1.1873  1.2909  0.5234
 7193SOL     OW33037   0.506   1.630   7.237 -0.1071 -0.5943  0.2941
 7193SOL    HW133038   0.486   1.631   7.143  0.3857  0.3349  0.2060
 7193SOL    HW233039   0.422   1.659   7.273  1.6711  4.1181  0.7199
 7194SOL     OW33040   1.788   3.618   3.876 -0.0770  0.1178 -0.2745
 7194SOL    HW133041   1.782   3.530   3.838 -1.5455  0.1844 -0.1963
 7194SOL    HW233042   1.763   3.663   3.796  0.2993  0.1084 -0.3979
 7195SOL     OW33043   1.755   2.910   0.066 -0.4505  0.3709 -0.0464
 7195SOL    HW133044   1.690   2.849   0.103  1.3619 -0.2625  2.0479
 7195SOL    HW233045   1.775   2.863  17.669 -0.5249  1.2100 -0.5391
 7196SOL     OW33046   0.096   4.293   4.625 -0.6343 -0.0544  0.3099
 7196SOL    HW133047   0.026   4.252   4.676  0.1743  0.6445  1.9780
 7196SOL    HW233048   0.155   4.321   4.696 -1.6837  1.1083  0.7261
 7197SOL     OW33049   2.862   3.612   6.693  0.1490 -0.6497  0.1033
 7197SOL    HW133050   2.804   3.626   6.768 -1.5974  0.5009 -1.4523
 7197SOL    HW233051   2.912   3.537   6.724 -0.3941 -0.5851  1.1365
 7198SOL     OW33052   3.484   2.201  10.654 -0.6175 -0.3309  0.4216
 7198SOL    HW133053   3.564   2.242  10.621 -1.5134  0.2264 -1.0910
 7198SOL    HW233054   3.436   2.187  10.572  0.0460 -1.4671  0.2212
 7199SOL     OW33055   0.209   0.022   8.873 -0.8715 -0.1955 -0.1986
 7199SOL    HW133056   0.144   4.681   8.839 -0.3012 -1.8056  1.5499
 7199SOL    HW233057   0.205   0.013   8.969 -2.5962 -1.3212 -0.3719
 7200SOL     OW33058   3.739   2.500   6.331  0.6007 -0.0550  0.0594
 7200SOL    HW133059   3.653   2.510   6.371  0.4524 -0.3768 -0.1755
 7200SOL    HW233060   3.769   2.415   6.361 -1.1710 -0.6809  0.0420
 7201SOL     OW33061   0.668   3.138  13.312 -0.1263  0.2737  0.1132
 7201SOL    HW133062   0.587   3.174  13.276 -1.4755 -1.9523  0.9205
 7201SOL    HW233063   0.718   3.118  13.232  0.1262 -1.3993  0.7045
 7202SOL     OW33064   1.210   0.792   4.860 -0.3255  0.1462 -0.6180
 7202SOL    HW133065   1.255   0.708   4.851 -0.2273  0.0796  0.5416
 7202SOL    HW233066   1.197   0.820   4.769 -0.2145  2.7297  0.1565
 7203SOL     OW33067   1.221   1.352   5.798 -0.3865 -0.2456 -0.1151
 7203SOL    HW133068   1.197   1.437   5.835  1.2562 -0.3103  1.0774
 7203SOL    HW233069   1.251   1.300   5.873  0.7099 -0.6682 -0.8367
 7204SOL     OW33070   4.474   3.200   9.277 -0.1096  0.4338  0.1221
 7204SOL    HW133071   4.448   3.131   9.216 -0.6096 -0.3236  1.1918
 7204SOL    HW233072   4.548   3.231   9.225  0.2321  0.3214  0.5377
 7205SOL     OW33073   2.797   1.728   4.744  0.1620  0.2297 -0.2423
 7205SOL    HW133074   2.755   1.813   4.728  0.6141  0.4158 -0.4307
 7205SOL    HW233075   2.802   1.733   4.840  2.7475 -0.1596 -0.3604
 7206SOL     OW33076   2.221   1.637   5.880 -0.0611  0.1927  0.1840
 7206SOL    HW133077   2.179   1.566   5.928 -3.5906  1.5338 -0.9432
 7206SOL    HW233078   2.301   1.651   5.930  0.5154  0.7689 -0.8787
 7207SOL     OW33079   1.402   3.065   1.038  0.2666  0.9893  0.0605
 7207SOL    HW133080   1.483   3.034   0.999  0.2157  0.1548  0.6130
 7207SOL    HW233081   1.359   3.118   0.970 -1.1922  0.7725  0.8071
 7208SOL     OW33082   2.402   1.286  16.645  0.0198 -0.8091  0.2926
 7208SOL    HW133083   2.371   1.373  16.620  1.4543 -0.2460  0.5277
 7208SOL    HW233084   2.363   1.283  16.733  0.5763 -1.7955  0.4997
 7209SOL     OW33085   4.322   0.080   5.275  0.0353  0.0740  0.4108
 7209SOL    HW133086   4.304   0.116   5.362 -0.5107 -2.1565  1.2077
 7209SOL    HW233087   4.290   0.151   5.219  0.8289 -2.0652 -2.7332
 7210SOL     OW33088   1.765   1.507   5.373  0.1830  0.8912 -0.2430
 7210SOL    HW133089   1.671   1.490   5.366  0.0789  1.1154  0.6663
 7210SOL    HW233090   1.799   1.435   5.426  0.2915  0.8671 -0.3431
 7211SOL     OW33091   1.079   2.983   0.269 -0.2949 -0.5594  0.0535
 7211SOL    HW133092   1.082   2.955   0.177 -3.5059 -0.9540  0.0776
 7211SOL    HW233093   1.171   2.967   0.291 -0.2660  0.4608  0.6997
 7212SOL     OW33094   4.353   3.739   6.146 -0.9272 -0.1229  0.0641
 7212SOL    HW133095   4.281   3.705   6.200  1.6111 -0.1456  3.4319
 7212SOL    HW233096   4.313   3.826   6.142 -0.6476 -0.0869 -2.0299
 7213SOL     OW33097   4.650   1.842   9.605  0.1927 -0.5575  0.1870
 7213SOL    HW133098   4.583   1.825   9.671  0.5259  1.1184  0.9748
 7213SOL    HW233099   4.685   1.754   9.590  1.0696  0.1381 -1.8839
 7214SOL     OW33100   4.647   2.097   8.074  0.3646  0.3317  0.0127
 7214SOL    HW133101   4.670   2.159   8.005  0.6416 -0.0402 -0.2316
 7214SOL    HW233102   4.709   2.118   8.143  2.0812 -1.4746 -0.9523
 7215SOL     OW33103   3.741   1.985   1.658  0.2817  0.2826 -0.2997
 7215SOL    HW133104   3.808   1.984   1.590  1.4163  1.3397  0.8037
 7215SOL    HW233105   3.694   2.065   1.637  0.3175  1.2227  3.2906
 7216SOL     OW33106   1.411   1.218  14.356  0.0469 -0.7283  0.2357
 7216SOL    HW133107   1.403   1.139  14.303  1.3153  0.5803 -1.8798
 7216SOL    HW233108   1.324   1.210  14.397  0.3317 -1.1213  0.7532
 7217SOL     OW33109   0.794   3.111  13.074 -0.0979 -0.3536 -0.3028
 7217SOL    HW133110   0.886   3.122  13.102 -1.4535  0.7284  3.8101
 7217SOL    HW233111   0.799   3.137  12.982 -0.6704  1.3403  0.1458
 7218SOL     OW33112   3.478   4.010   5.073 -0.0754  0.3949 -0.3728
 7218SOL    HW133113   3.527   3.930   5.053 -1.2472 -0.6518  0.9142
 7218SOL    HW233114   3.443   4.035   4.988 -3.0102 -1.6089  0.2474
 7219SOL     OW33115   3.398   3.337  11.387 -0.5364 -0.0672  0.4438
 7219SOL    HW133116   3.373   3.309  11.299 -0.5648 -0.7398  0.6724
 7219SOL    HW233117   3.475   3.280  11.389 -1.0767 -0.8089  0.1645
 7220SOL     OW33118   2.898   4.550   0.011 -0.1916  0.1906  0.1893
 7220SOL    HW133119   2.951   4.535   0.090  0.4249  0.2586 -0.2079
 7220SOL    HW233120   2.972   4.576  17.641  2.0644 -1.7495  2.3145
 7221SOL     OW33121   3.265   0.210   0.648  0.7882 -0.0058 -0.6408
 7221SOL    HW133122   3.275   0.304   0.662 -2.7152  0.1009  1.1382
 7221SOL    HW233123   3.330   0.178   0.710 -0.4987  0.4661  0.9721
 7222SOL     OW33124   1.859   4.462   0.784 -0.1966  0.2149  0.2113
 7222SOL    HW133125   1.820   4.541   0.822 -1.1177  0.6059 -1.5401
 7222SOL    HW233126   1.892   4.487   0.697 -0.1891  1.9369  0.7054
 7223SOL     OW33127   3.508   2.652   7.782  0.8047 -0.3730  0.3311
 7223SOL    HW133128   3.584   2.678   7.730 -1.0954  1.0004 -1.7526
 7223SOL    HW233129   3.460   2.735   7.780  1.4754  0.0382  1.4435
 7224SOL     OW33130   3.706   2.168   9.969 -0.1116  0.5708  0.1710
 7224SOL    HW133131   3.640   2.135  10.030  0.6813  0.7973  1.1635
 7224SOL    HW233132   3.660   2.234   9.918  1.1327  0.5778 -0.9496
 7225SOL     OW33133   1.053   1.212  12.145  0.4788  0.1329 -0.0361
 7225SOL    HW133134   1.037   1.279  12.079  0.0753 -1.3820 -1.4665
 7225SOL    HW233135   1.006   1.139  12.105  1.2478 -0.0199 -0.6597
 7226SOL     OW33136   3.612   3.681  11.368  0.3861  0.2469  0.2003
 7226SOL    HW133137   3.658   3.721  11.442  0.8797  2.3048 -1.2156
 7226SOL    HW233138   3.646   3.741  11.302  0.6183 -2.1457 -1.8732
 7227SOL     OW33139   1.391   4.314   5.506  0.0343  0.4165  0.2370
 7227SOL    HW133140   1.433   4.329   5.422 -0.1238 -0.1855  0.0488
 7227SOL    HW233141   1.299   4.330   5.483 -0.6044 -2.5690  0.7157
 7228SOL     OW33142   1.090   2.608   5.290 -0.1432  0.0648  0.5100
 7228SOL    HW133143   1.054   2.692   5.319 -1.5272 -0.1017 -0.7608
 7228SOL    HW233144   1.044   2.595   5.207 -0.3438  1.4693  0.4086
 7229SOL     OW33145   0.733   2.566   2.614 -0.2085 -0.1915  1.1211
 7229SOL    HW133146   0.667   2.529   2.673 -0.6836 -0.9433  0.1335
 7229SOL    HW233147   0.814   2.528   2.648  0.9893  1.1503 -0.2314
 7230SOL     OW33148   1.227   2.793  12.059 -0.3574 -0.2108 -0.1944
 7230SOL    HW133149   1.209   2.717  12.114 -2.2069  1.1484  1.0877
 7230SOL    HW233150   1.167   2.852  12.104  0.9254  0.1201  1.0730
 7231SOL     OW33151   0.069   4.314   5.670 -0.4178 -0.0545  0.3373
 7231SOL    HW133152   0.042   4.345   5.584  2.4195  0.3646 -0.4153
 7231SOL    HW233153   0.161   4.328   5.648 -0.1749 -0.9058  0.7725
 7232SOL     OW33154   2.148   3.095   4.550  0.1519 -0.4276  0.0736
 7232SOL    HW133155   2.071   3.125   4.500  0.2007 -0.1397  0.1765
 7232SOL    HW233156   2.159   3.153   4.625 -0.6526  0.1370 -0.2461
 7233SOL     OW33157   4.686   3.916   4.275  0.5011 -0.3398  0.5180
 7233SOL    HW133158   4.619   3.972   4.314  1.0082  1.7289 -1.5313
 7233SOL    HW233159   4.681   3.939   4.182  0.8960  0.1169  0.6103
 7234SOL     OW33160   4.613   4.176   3.079 -0.6609 -0.2236 -0.0245
 7234SOL    HW133161   4.541   4.190   3.141 -0.0239 -0.8994  0.8730
 7234SOL    HW233162   4.679   4.239   3.106  0.5336 -3.0504  3.6837
 7235SOL     OW33163   3.912   2.775   2.003 -0.1169  0.4589  0.1744
 7235SOL    HW133164   3.896   2.835   2.075 -0.6229 -0.0710  0.5118
 7235SOL    HW233165   4.007   2.774   2.003 -0.1212  0.4338  1.1731
 7236SOL     OW33166   0.825   2.281   1.906  0.1120  0.9188  0.1166
 7236SOL    HW133167   0.767   2.346   1.945  0.0376  0.6330  0.4839
 7236SOL    HW233168   0.761   2.212   1.883  0.1405  1.5195 -1.7896
 7237SOL     OW33169   1.739   3.271  14.867 -0.2982  0.8535 -0.5027
 7237SOL    HW133170   1.834   3.271  14.855 -0.0820  0.8300  1.1352
 7237SOL    HW233171   1.716   3.295  14.777  0.0526 -1.8881 -1.3030
 7238SOL     OW33172   1.657   0.165  16.819 -0.2886 -0.3569 -0.6950
 7238SOL    HW133173   1.655   0.133  16.728 -0.8147 -2.5112  0.0594
 7238SOL    HW233174   1.606   0.096  16.861  1.9476 -1.9352 -0.5796
 7239SOL     OW33175   0.728   3.155  14.280  0.2525 -0.1556  0.0504
 7239SOL    HW133176   0.662   3.088  14.299  0.0176 -0.4752 -1.8774
 7239SOL    HW233177   0.750   3.146  14.187 -1.7607 -0.8851 -0.3447
 7240SOL     OW33178   3.549   3.994   8.941  0.2173 -0.2971  0.2684
 7240SOL    HW133179   3.479   3.954   8.993 -0.1734 -1.9733 -1.5384
 7240SOL    HW233180   3.568   3.938   8.866  1.9062  2.6357 -1.4716
 7241SOL     OW33181   2.232   1.418   7.231  0.4022  0.2591  0.3945
 7241SOL    HW133182   2.202   1.463   7.152 -1.1365 -0.8502  0.3366
 7241SOL    HW233183   2.321   1.394   7.205 -0.2528 -1.6551 -0.1003
 7242SOL     OW33184   2.131   2.488   8.040  0.4623  0.4084  0.5585
 7242SOL    HW133185   2.092   2.479   7.953  1.0518 -1.6271  0.5181
 7242SOL    HW233186   2.137   2.397   8.068  1.1065 -0.0543 -1.1218
 7243SOL     OW33187   2.465   4.569   7.381  0.3058 -0.0254 -0.6817
 7243SOL    HW133188   2.420   4.525   7.453 -1.4028  0.7974 -1.2550
 7243SOL    HW233189   2.396   4.635   7.369  0.6366  0.2454 -1.1221
 7244SOL     OW33190   3.193   1.415   2.098 -0.4740  0.2026  0.0829
 7244SOL    HW133191   3.152   1.447   2.017  2.2117  0.8960 -1.0453
 7244SOL    HW233192   3.135   1.346   2.128  1.2154 -0.9157  0.7565
 7245SOL     OW33193   1.579   3.476  10.200 -0.0211  0.8178  0.0569
 7245SOL    HW133194   1.496   3.430  10.186 -0.0353  0.4331  1.4606
 7245SOL    HW233195   1.567   3.500  10.291  0.5343  1.6862 -0.0978
 7246SOL     OW33196   1.892   2.860   2.693 -0.0921 -0.3743 -0.3339
 7246SOL    HW133197   1.879   2.887   2.602  1.2319  1.4059 -0.0043
 7246SOL    HW233198   1.916   2.947   2.727 -0.3462 -0.8091  0.9515
 7247SOL     OW33199   3.260   4.646  10.689 -0.4952  0.7972  0.6414
 7247SOL    HW133200   3.306   4.599  10.758 -0.4505 -0.3986 -0.2169
 7247SOL    HW233201   3.258   0.016  10.722 -1.1177  0.2517  2.0795
 7248SOL     OW33202   2.637   2.524   8.284 -0.1281  0.3657  0.3783
 7248SOL    HW133203   2.604   2.583   8.352  1.0992  1.2256  0.2317
 7248SOL    HW233204   2.559   2.473   8.264  1.4811 -1.2613 -1.6478
 7249SOL     OW33205   0.682   4.279   4.054  0.2680 -0.5268  0.7061
 7249SOL    HW133206   0.725   4.194   4.063  0.8769 -0.2055  0.8205
 7249SOL    HW233207   0.634   4.275   3.972  0.1181 -0.4884  0.7927
 7250SOL     OW33208   1.280   2.902   5.406  0.2657 -0.1140 -0.2314
 7250SOL    HW133209   1.191   2.867   5.414 -0.3154  1.2077 -0.9006
 7250SOL    HW233210   1.332   2.823   5.394 -0.0019  0.0069 -2.2050
 7251SOL     OW33211   1.087   0.077   3.302  0.6374  0.0021  0.2304
 7251SOL    HW133212   1.014   0.062   3.242 -0.7763 -0.9450  2.1928
 7251SOL    HW233213   1.076   4.717   3.352 -0.1745  1.4501  2.3593
 7252SOL     OW33214   1.244   2.011   6.360  0.0743 -0.3001  0.1783
 7252SOL    HW133215   1.326   1.971   6.329 -0.1102  0.6097 -1.5018
 7252SOL    HW233216   1.258   2.027   6.453 -2.0798 -0.1202  0.4615
 7253SOL     OW33217   1.281   4.491  15.849  0.5443  0.1549 -0.2626
 7253SOL    HW133218   1.373   4.465  15.849  0.0079 -1.7428  0.5827
 7253SOL    HW233219   1.247   4.483  15.760 -1.4944 -1.2146  0.6333
 7254SOL     OW33220   2.700   1.285   4.808 -0.1354 -0.5792 -0.4235
 7254SOL    HW133221   2.616   1.239   4.809 -0.1846 -0.5162 -1.6502
 7254SOL    HW233222   2.681   1.379   4.803 -1.7453 -0.7229  2.8936
 7255SOL     OW33223   0.663   1.754   3.655  0.1048  0.2077  0.3186
 7255SOL    HW133224   0.617   1.833   3.681 -3.1037 -2.0378  1.5161
 7255SOL    HW233225   0.598   1.690   3.623  1.4378  0.0599 -2.1226
 7256SOL     OW33226   4.645   0.998   2.998  0.1013  0.1348 -0.3958
 7256SOL    HW133227   4.587   0.932   2.958 -0.3705  0.1118  0.3377
 7256SOL    HW233228   4.690   0.936   3.055 -0.3462  1.3564  1.2553
 7257SOL     OW33229   3.539   1.258   3.188  0.1289 -0.1206  0.2921
 7257SOL    HW133230   3.495   1.249   3.103  3.5941  0.4607 -1.5737
 7257SOL    HW233231   3.464   1.281   3.243  0.2640 -2.6698  1.5636
 7258SOL     OW33232   2.861   2.789   0.002  0.4430 -0.1178 -0.1833
 7258SOL    HW133233   2.914   2.845  17.630  0.6468 -0.4020 -0.2707
 7258SOL    HW233234   2.794   2.746  17.633 -0.6333  0.4277  0.7100
 7259SOL     OW33235   3.404   0.992   5.138  0.4715 -0.2087  0.0138
 7259SOL    HW133236   3.421   1.080   5.106  0.8314 -0.3407 -0.1641
 7259SOL    HW233237   3.333   1.005   5.201  1.7556  2.8062  0.8118
 7260SOL     OW33238   2.871   1.033   8.267 -0.1578  0.1956  0.0642
 7260SOL    HW133239   2.921   1.028   8.186 -1.6338 -0.0175 -0.8216
 7260SOL    HW233240   2.804   1.096   8.240 -2.7357 -1.1365  3.3235
 7261SOL     OW33241   0.634   2.129  12.831  0.1710 -0.5455 -0.1689
 7261SOL    HW133242   0.674   2.079  12.902 -0.5661 -1.1156 -0.1438
 7261SOL    HW233243   0.644   2.217  12.867 -0.4840  0.7200 -3.0532
 7262SOL     OW33244   2.896   0.634   4.338 -0.5354 -0.4185 -0.2203
 7262SOL    HW133245   2.978   0.600   4.301 -1.0755  0.2950 -2.0633
 7262SOL    HW233246   2.877   0.594   4.423  2.1943 -0.8979  0.1754
 7263SOL     OW33247   2.081   0.195   7.221  0.3158  0.1942 -0.1831
 7263SOL    HW133248   2.014   0.135   7.251  3.5355 -1.3789  3.8454
 7263SOL    HW233249   2.140   0.137   7.173 -0.6150 -0.3189 -0.7016
 7264SOL     OW33250   1.923   0.802   7.819  0.0377 -0.8953  0.2245
 7264SOL    HW133251   1.869   0.814   7.741  2.4357 -0.3553 -1.3571
 7264SOL    HW233252   1.903   0.709   7.827 -0.4295 -0.8031  0.1187
 7265SOL     OW33253   1.533   4.307   7.609 -0.3894 -0.2044 -0.2894
 7265SOL    HW133254   1.560   4.303   7.701  1.0286 -0.4725 -0.7151
 7265SOL    HW233255   1.539   4.213   7.588 -3.4663 -0.1093 -1.5596
 7266SOL     OW33256   1.930   0.790   6.549  0.7774 -0.2488 -0.3342
 7266SOL    HW133257   1.959   0.732   6.478 -1.3489 -0.7199 -0.7989
 7266SOL    HW233258   1.999   0.852   6.570 -0.1993  0.3480  1.0906
 7267SOL     OW33259   2.901   2.442   7.786  0.7504 -0.5400  0.2241
 7267SOL    HW133260   2.854   2.378   7.839 -1.7447 -0.3239 -1.7271
 7267SOL    HW233261   2.877   2.525   7.828  0.9482 -0.1584 -0.4181
 7268SOL     OW33262   0.365   1.818   4.348 -0.4443 -0.0091 -0.4062
 7268SOL    HW133263   0.412   1.813   4.431 -0.0813  1.0715 -0.5396
 7268SOL    HW233264   0.377   1.728   4.317 -3.0852 -0.2756 -0.6289
 7269SOL     OW33265   2.285   4.239   7.409  0.7992 -0.4181 -0.9131
 7269SOL    HW133266   2.347   4.219   7.479 -1.9187 -0.1369  1.5484
 7269SOL    HW233267   2.337   4.229   7.329  0.3629  1.9945 -1.5036
 7270SOL     OW33268   3.488   1.416   4.156 -0.3957  0.1752  0.1898
 7270SOL    HW133269   3.574   1.389   4.125 -2.0719 -0.3706 -3.8756
 7270SOL    HW233270   3.510   1.487   4.218  0.6478  1.7918 -2.0375
 7271SOL     OW33271   4.314   2.530   3.788 -0.0412 -0.5864  0.4988
 7271SOL    HW133272   4.400   2.572   3.794  0.2260 -1.3504  1.9930
 7271SOL    HW233273   4.293   2.533   3.695 -0.7640  1.3921  0.7073
 7272SOL     OW33274   1.289   2.570  17.244 -0.3992  0.5032 -0.3484
 7272SOL    HW133275   1.194   2.565  17.253 -0.2904  0.9247  1.0158
 7272SOL    HW233276   1.320   2.502  17.303  0.3308  0.5281 -0.7091
 7273SOL     OW33277   4.226   3.476   0.984  0.1889 -0.5070  0.2659
 7273SOL    HW133278   4.208   3.556   1.034 -1.1401 -1.5239  1.3843
 7273SOL    HW233279   4.320   3.463   0.998  0.3305  1.5578  1.2200
 7274SOL     OW33280   1.195   0.198   1.763  0.0487 -0.2886  0.9851
 7274SOL    HW133281   1.181   0.243   1.846 -2.0149  1.9548 -0.6022
 7274SOL    HW233282   1.127   0.237   1.709  1.5699 -0.0794 -0.7621
 7275SOL     OW33283   3.898   0.180   4.107  0.3149  0.1224  0.0926
 7275SOL    HW133284   3.861   0.094   4.086  0.1191  0.2156  0.0568
 7275SOL    HW233285   3.992   0.165   4.096  0.2311 -0.3877  0.0662
 7276SOL     OW33286   1.800   0.487   4.806 -0.0793 -0.1830  0.5737
 7276SOL    HW133287   1.751   0.420   4.759 -0.5539  2.1113 -2.2242
 7276SOL    HW233288   1.731   0.553   4.819  0.8180  1.1968 -1.6587
 7277SOL     OW33289   1.289   0.482   8.795  0.1858  0.0028  0.4435
 7277SOL    HW133290   1.385   0.481   8.795  0.2165  1.8491 -0.4960
 7277SOL    HW233291   1.278   0.467   8.889  1.4806 -0.1810  0.5752
 7278SOL     OW33292   0.293   2.655   6.834  0.4803  0.0671 -0.1025
 7278SOL    HW133293   0.347   2.709   6.891  0.0249  1.8406 -1.3638
 7278SOL    HW233294   0.219   2.713   6.821 -0.0359 -0.6265 -0.2799
 7279SOL     OW33295   3.547   3.098   8.303  0.2924  0.1259 -0.2752
 7279SOL    HW133296   3.603   3.020   8.302  1.0617  0.6672 -0.0005
 7279SOL    HW233297   3.614   3.167   8.308  1.3896 -0.6513 -4.9044
 7280SOL     OW33298   1.307   3.248   6.432 -0.4711  0.3930  0.3571
 7280SOL    HW133299   1.313   3.246   6.527 -1.1737 -0.9704  0.3728
 7280SOL    HW233300   1.333   3.159   6.408  0.5423  0.5379  0.9098
 7281SOL     OW33301   0.090   0.798   9.101 -0.1867  0.4064 -0.4540
 7281SOL    HW133302   0.077   0.761   9.014 -0.3596 -0.5963  0.0024
 7281SOL    HW233303   0.097   0.888   9.068 -1.8418  0.6753 -0.0554
 7282SOL     OW33304   0.188   1.311  13.694  0.2713  0.5198  0.8272
 7282SOL    HW133305   0.113   1.331  13.750 -1.0060  1.4511 -1.2303
 7282SOL    HW233306   0.240   1.390  13.712  3.0397 -0.9436 -0.7367
 7283SOL     OW33307   4.076   4.191   7.072 -0.1524  0.1650 -0.3069
 7283SOL    HW133308   4.154   4.241   7.049  0.4159 -1.5071 -2.0650
 7283SOL    HW233309   4.098   4.187   7.165  0.3139  2.1912 -0.3367
 7284SOL     OW33310   1.007   3.713   8.055  0.0316  0.0362 -0.1847
 7284SOL    HW133311   1.048   3.791   8.093 -0.3353 -0.6625  1.6194
 7284SOL    HW233312   0.979   3.758   7.974  1.4041  0.9164 -0.1725
 7285SOL     OW33313   0.061   1.752   4.088 -0.0648 -0.6879 -0.1066
 7285SOL    HW133314   0.041   1.670   4.042  1.1216  0.4829 -2.6854
 7285SOL    HW233315   0.085   1.815   4.020 -0.0426  0.4603  0.9711
 7286SOL     OW33316   0.227   4.192  14.195 -0.3514 -0.2142 -0.1885
 7286SOL    HW133317   0.170   4.254  14.240 -0.2977 -0.0332 -0.3718
 7286SOL    HW233318   0.259   4.124  14.254 -1.1506 -0.8141 -0.4506
 7287SOL     OW33319   4.007   0.339   3.267  0.0015  0.2640  0.1292
 7287SOL    HW133320   3.987   0.249   3.290 -3.6784  1.0450 -0.0077
 7287SOL    HW233321   4.058   0.358   3.346  0.6597  1.1183 -0.4860
 7288SOL     OW33322   3.529   4.106   6.162 -1.0820 -0.3423 -0.4183
 7288SOL    HW133323   3.564   4.052   6.234  1.5493  0.4201 -1.1263
 7288SOL    HW233324   3.585   4.079   6.089  0.5986 -1.3705  1.2282
 7289SOL     OW33325   3.147   3.554  15.032 -0.3125 -0.0036  0.2446
 7289SOL    HW133326   3.150   3.472  14.982 -1.4731  1.1905 -1.7806
 7289SOL    HW233327   3.121   3.621  14.969  3.4980  1.3582  0.1168
 7290SOL     OW33328   2.739   1.624   0.106 -0.0270  0.0218  0.1205
 7290SOL    HW133329   2.661   1.676   0.087  0.4649  0.3747 -0.9252
 7290SOL    HW233330   2.795   1.695   0.136  0.5674  0.7706 -2.7816
 7291SOL     OW33331   3.565   3.207  13.863  0.2860 -0.4490  0.2884
 7291SOL    HW133332   3.538   3.115  13.859 -0.9377 -0.2284  3.4603
 7291SOL    HW233333   3.523   3.240  13.783 -0.2291 -0.6259  0.4798
 7292SOL     OW33334   0.203   3.519   5.927 -0.0159 -0.0823  0.0026
 7292SOL    HW133335   0.290   3.511   5.888  0.0402  0.0541  0.0996
 7292SOL    HW233336   0.148   3.482   5.859  1.9199  0.6762 -1.9611
 7293SOL     OW33337   0.259   1.628   2.674 -0.2573  0.8912 -0.7622
 7293SOL    HW133338   0.230   1.648   2.585 -0.0374  0.4862 -0.9243
 7293SOL    HW233339   0.274   1.712   2.718  0.5779  0.1781  0.3370
 7294SOL     OW33340   3.527   2.807   4.479 -0.0981  0.9046  0.2810
 7294SOL    HW133341   3.479   2.740   4.430  0.1508  2.0683 -1.5737
 7294SOL    HW233342   3.447   2.850   4.508 -1.5290 -1.0591 -0.7103
 7295SOL     OW33343   4.331   2.372   1.878 -0.0352 -0.2865  0.1325
 7295SOL    HW133344   4.314   2.460   1.912 -2.2112 -0.8698  0.6119
 7295SOL    HW233345   4.421   2.385   1.848 -0.1269  1.3295  0.5811
 7296SOL     OW33346   1.213   1.671   2.871  0.3144  0.1559  0.1914
 7296SOL    HW133347   1.236   1.660   2.779 -1.3216 -1.2530 -0.0418
 7296SOL    HW233348   1.119   1.657   2.865  0.3464 -0.2301  0.6476
 7297SOL     OW33349   0.315   3.147   7.152 -0.7325 -0.1927 -0.1555
 7297SOL    HW133350   0.317   3.205   7.075 -1.6127 -0.7882 -0.6255
 7297SOL    HW233351   0.254   3.077   7.130 -0.7498  0.3828 -1.9162
 7298SOL     OW33352   1.045   3.639  11.936 -0.3309  0.4050 -0.5958
 7298SOL    HW133353   1.105   3.622  12.010 -0.6577  0.2480 -0.3664
 7298SOL    HW233354   1.112   3.660  11.870 -0.1233  0.8450 -0.2467
 7299SOL     OW33355   1.742   1.576  16.618  0.5909 -0.1449  0.0106
 7299SOL    HW133356   1.814   1.543  16.564  2.0194  1.9824  0.6319
 7299SOL    HW233357   1.732   1.667  16.589 -0.8448  0.0199  1.0233
 7300SOL     OW33358   3.372   1.221  13.089  0.0389 -0.3683  0.0659
 7300SOL    HW133359   3.467   1.235  13.092  0.1896 -1.2999 -0.1572
 7300SOL    HW233360   3.352   1.260  13.004  1.8582 -2.2508 -1.2304
 7301SOL     OW33361   0.845   0.863   1.082  0.2700  0.2263  1.1285
 7301SOL    HW133362   0.901   0.898   1.012 -2.6963  1.9187 -0.3993
 7301SOL    HW233363   0.758   0.894   1.058 -0.2893 -2.4173 -0.2648
 7302SOL     OW33364   1.732   1.286  10.490 -0.1252  0.7082  0.0804
 7302SOL    HW133365   1.661   1.344  10.518 -0.3954  0.2560  0.3324
 7302SOL    HW233366   1.700   1.200  10.516 -0.4127  0.7768 -0.0573
 7303SOL     OW33367   2.224   3.468  17.429 -0.2148  0.0691  0.8852
 7303SOL    HW133368   2.221   3.389  17.484 -2.5161 -1.7481 -1.8684
 7303SOL    HW233369   2.145   3.518  17.445  0.1324  0.9874 -0.3184
 7304SOL     OW33370   3.079   2.065   1.200  0.3697 -0.0502  0.1948
 7304SOL    HW133371   3.053   2.121   1.127  0.6831  1.7955  1.5144
 7304SOL    HW233372   3.110   1.989   1.151 -0.0143  0.2033 -0.4425
 7305SOL     OW33373   0.357   1.515   9.101  0.1788 -0.4991 -0.9245
 7305SOL    HW133374   0.450   1.491   9.104  0.0128 -1.3884 -2.9375
 7305SOL    HW233375   0.366   1.596   9.050  1.2694  0.6286  1.0665
 7306SOL     OW33376   1.542   0.110  13.783 -0.1803  0.3949  0.3887
 7306SOL    HW133377   1.460   0.067  13.809 -0.6157  0.9293 -0.1088
 7306SOL    HW233378   1.584   0.047  13.725  1.7698  1.2570  0.8655
 7307SOL     OW33379   0.753   3.171  13.584 -0.3892 -0.6455 -0.4047
 7307SOL    HW133380   0.719   3.139  13.501 -1.3715  0.5918 -0.4834
 7307SOL    HW233381   0.734   3.099  13.644 -3.0717  1.2426  1.0152
 7308SOL     OW33382   0.623   0.972   5.361 -0.0949  0.4539  0.6432
 7308SOL    HW133383   0.565   0.968   5.285  0.9847  3.4120 -0.3522
 7308SOL    HW233384   0.613   1.065   5.383  1.5106  0.4474  1.3790
 7309SOL     OW33385   3.076   0.982   2.343  0.0763  0.0642 -0.6413
 7309SOL    HW133386   3.054   0.896   2.380  1.3916  0.0619  0.1301
 7309SOL    HW233387   3.127   1.022   2.413  1.6823 -0.1633 -1.6800
 7310SOL     OW33388   1.580   1.191   1.483 -0.3495  0.5559 -0.0930
 7310SOL    HW133389   1.562   1.108   1.439  0.3713  0.1189  0.4430
 7310SOL    HW233390   1.669   1.185   1.518  0.0708 -0.4032 -1.3320
 7311SOL     OW33391   2.727   3.065  11.083 -0.3318  0.4056  0.1442
 7311SOL    HW133392   2.819   3.068  11.060 -0.0022  1.1094  1.5188
 7311SOL    HW233393   2.720   3.096  11.174 -1.0234  0.6667  0.0046
 7312SOL     OW33394   1.134   3.424   1.650  0.2734 -0.9599  0.1480
 7312SOL    HW133395   1.221   3.389   1.667  0.8257  0.5418  0.3715
 7312SOL    HW233396   1.138   3.516   1.676  0.8482 -0.1429 -2.8372
 7313SOL     OW33397   3.219   0.961  13.104  0.3100 -0.1894 -0.4069
 7313SOL    HW133398   3.242   1.047  13.070  1.7464 -0.5108 -0.2816
 7313SOL    HW233399   3.195   0.982  13.194  2.2022  2.9184 -0.6434
 7314SOL     OW33400   3.569   4.574   3.648  0.4417  0.6234 -0.1595
 7314SOL    HW133401   3.577   4.557   3.554 -1.9951 -0.6307 -0.1236
 7314SOL    HW233402   3.578   4.669   3.655 -0.1981  0.8570 -2.4980
 7315SOL     OW33403   2.431   2.982   3.267 -0.4243 -0.5390  0.3186
 7315SOL    HW133404   2.373   3.025   3.329  0.2223  1.5164 -0.4879
 7315SOL    HW233405   2.392   3.001   3.181  0.3801 -0.6938 -0.0786
 7316SOL     OW33406   2.706   1.807   3.425  0.5782  0.5267 -0.2602
 7316SOL    HW133407   2.671   1.723   3.458 -1.6817  2.2815  1.8297
 7316SOL    HW233408   2.627   1.851   3.393  0.6331 -0.1191 -1.2911
 7317SOL     OW33409   3.119   0.611  16.822 -0.2074  0.4111 -0.2811
 7317SOL    HW133410   3.178   0.683  16.841  0.3125  0.2048 -1.1079
 7317SOL    HW233411   3.037   0.649  16.854  1.1169  2.8827  0.1119
 7318SOL     OW33412   1.700   3.338   8.158 -0.3694  0.5824  0.2056
 7318SOL    HW133413   1.788   3.303   8.162 -1.2181 -1.3400  1.5307
 7318SOL    HW233414   1.700   3.389   8.239 -4.0176  1.0536 -0.0439
 7319SOL     OW33415   3.659   3.198   5.465  0.1046  0.1364  0.2145
 7319SOL    HW133416   3.592   3.145   5.508  1.5022 -1.6340  0.1722
 7319SOL    HW233417   3.621   3.284   5.487  0.7559  0.9929 -2.0455
 7320SOL     OW33418   1.020   1.953  10.093 -0.2847  0.9987 -0.3477
 7320SOL    HW133419   0.936   1.991  10.120 -0.1915  0.1307  1.1463
 7320SOL    HW233420   1.078   1.978  10.165  0.7054 -0.7664 -0.5393
 7321SOL     OW33421   0.376   0.693   0.029  0.2702  0.2521  0.5548
 7321SOL    HW133422   0.299   0.641   0.005  0.5166  0.3947 -0.5295
 7321SOL    HW233423   0.419   0.704  17.629 -0.2282  0.6456  0.3467
 7322SOL     OW33424   3.997   2.794  12.913 -0.0573  0.4174 -0.1351
 7322SOL    HW133425   4.048   2.875  12.909 -1.7160  1.3066 -2.8922
 7322SOL    HW233426   3.921   2.811  12.968 -1.5034 -2.0809 -1.3827
 7323SOL     OW33427   2.178   1.560   8.963  0.1458 -0.2227 -0.2810
 7323SOL    HW133428   2.195   1.518   8.879 -1.3200 -2.6022  0.6155
 7323SOL    HW233429   2.221   1.645   8.951 -0.6156 -0.0049 -1.4391
 7324SOL     OW33430   1.075   0.539   3.800 -0.3536  0.3805  0.2025
 7324SOL    HW133431   1.095   0.448   3.778 -3.1350 -0.4667  1.0833
 7324SOL    HW233432   1.156   0.582   3.773  0.1534 -1.1951 -0.7912
 7325SOL     OW33433   2.147   3.454   7.767  0.3221 -0.0940  0.0266
 7325SOL    HW133434   2.171   3.383   7.708  0.8208 -0.0358  0.1521
 7325SOL    HW233435   2.100   3.405   7.835 -1.5067  0.8533 -0.5671
 7326SOL     OW33436   2.033   0.393  12.350 -0.2424  0.6305 -0.1032
 7326SOL    HW133437   2.052   0.299  12.351 -1.9766  0.2499 -0.9860
 7326SOL    HW233438   1.942   0.388  12.379 -0.0631  0.8025  0.4733
 7327SOL     OW33439   4.223   3.249  16.640 -0.3184  0.0032  0.3973
 7327SOL    HW133440   4.153   3.294  16.687 -0.4443  0.4864 -0.2616
 7327SOL    HW233441   4.214   3.281  16.551  0.0443 -0.2128  0.2793
 7328SOL     OW33442   0.649   1.810   9.016 -0.0478 -0.0568  0.4973
 7328SOL    HW133443   0.697   1.772   8.942 -2.6699 -0.3521 -1.0310
 7328SOL    HW233444   0.559   1.806   8.984  0.4956 -2.5163 -0.7521
 7329SOL     OW33445   1.874   3.763   7.787  0.5326  0.1453 -0.3263
 7329SOL    HW133446   1.944   3.804   7.839 -0.0314 -0.1619  0.6767
 7329SOL    HW233447   1.918   3.758   7.702  0.3757 -0.3345 -0.3794
 7330SOL     OW33448   3.267   2.668   7.429  0.3369 -0.1139  0.3171
 7330SOL    HW133449   3.231   2.751   7.399  1.8180  0.8053  1.0844
 7330SOL    HW233450   3.200   2.637   7.491 -2.0769  2.7455 -0.8532
 7331SOL     OW33451   4.580   1.134   0.898  0.5573 -0.1971 -0.6318
 7331SOL    HW133452   4.530   1.162   0.975  1.7900  3.2771 -1.1278
 7331SOL    HW233453   4.538   1.185   0.829  2.0245  0.0264 -1.3605
 7332SOL     OW33454   3.922   3.710   3.014 -0.0194 -0.1675 -0.1785
 7332SOL    HW133455   3.851   3.713   2.950 -1.8855 -1.2010  1.8295
 7332SOL    HW233456   3.882   3.657   3.084 -0.3085 -0.7637 -0.7978
 7333SOL     OW33457   2.418   3.252   6.172  0.0780 -0.5922  0.8006
 7333SOL    HW133458   2.364   3.298   6.107  0.2204 -0.5091  0.7427
 7333SOL    HW233459   2.366   3.172   6.184  0.0047 -0.5222  0.9507
 7334SOL     OW33460   4.148   1.457  10.148  0.5962  0.1214 -0.1290
 7334SOL    HW133461   4.163   1.528  10.085  0.8194 -0.5684 -0.8547
 7334SOL    HW233462   4.074   1.415  10.104 -1.1326  1.3212  1.6987
 7335SOL     OW33463   2.264   0.649   5.957  0.2572  0.0985  0.2849
 7335SOL    HW133464   2.351   0.684   5.976  0.4435  0.1811 -0.7341
 7335SOL    HW233465   2.290   0.603   5.877 -0.3638  0.8347 -0.3371
 7336SOL     OW33466   3.356   4.276  11.146 -0.3172  0.3408  0.2778
 7336SOL    HW133467   3.373   4.264  11.240 -0.0627 -0.7529  0.0971
 7336SOL    HW233468   3.288   4.211  11.129  0.8196 -2.0429  4.7357
 7337SOL     OW33469   2.015   3.023   1.048 -0.4304 -0.1604  0.1674
 7337SOL    HW133470   1.937   2.971   1.033 -2.4372  2.7174  0.6294
 7337SOL    HW233471   1.982   3.113   1.045 -2.9303 -1.1489 -0.9927
 7338SOL     OW33472   1.342   4.006   3.037  0.1996  0.1814 -0.5232
 7338SOL    HW133473   1.249   3.984   3.023 -0.3178  0.9051  1.7345
 7338SOL    HW233474   1.336   4.101   3.033 -0.0763  0.1680 -0.4603
 7339SOL     OW33475   2.586   0.921   8.157  0.3384 -0.4799 -0.7972
 7339SOL    HW133476   2.635   0.868   8.094 -0.6884 -0.3263 -1.7013
 7339SOL    HW233477   2.618   1.008   8.133  1.9635 -1.0325 -0.6259
 7340SOL     OW33478   3.340   0.751   6.064  0.4722 -0.3672  0.0642
 7340SOL    HW133479   3.375   0.766   5.976 -2.3969  0.5014 -0.9149
 7340SOL    HW233480   3.407   0.796   6.114 -0.9102 -0.4303  1.9680
 7341SOL     OW33481   4.287   1.790   3.140 -0.4333 -0.5220 -0.2846
 7341SOL    HW133482   4.364   1.775   3.085  0.7587  1.2129  0.9188
 7341SOL    HW233483   4.229   1.731   3.091 -1.2785  1.6970 -2.0126
 7342SOL     OW33484   3.192   0.897   8.636  0.6481  0.2527 -0.2369
 7342SOL    HW133485   3.211   0.806   8.613 -0.7773 -0.1514  0.1505
 7342SOL    HW233486   3.128   0.924   8.570 -0.1043  0.1252  0.4316
 7343SOL     OW33487   3.875   2.157  16.687  0.0479  0.4104 -0.0871
 7343SOL    HW133488   3.847   2.183  16.774 -3.2344  1.1476 -1.3823
 7343SOL    HW233489   3.855   2.063  16.683 -2.9906  1.1198 -1.2216
 7344SOL     OW33490   2.864   1.231   8.883  0.0726 -0.3269  0.0588
 7344SOL    HW133491   2.936   1.281   8.845  1.0628 -0.5697  1.6348
 7344SOL    HW233492   2.799   1.236   8.813  0.5079 -0.8606 -0.3905
 7345SOL     OW33493   1.611   4.156   5.299  0.4021  0.2121 -0.1358
 7345SOL    HW133494   1.573   4.244   5.291  0.6646  0.4527  1.2242
 7345SOL    HW233495   1.616   4.136   5.206  0.4962 -0.1410 -0.0560
 7346SOL     OW33496   1.102   4.526   3.439 -0.8596 -0.3312  0.0174
 7346SOL    HW133497   1.130   4.457   3.500  0.5716  1.2454  1.1628
 7346SOL    HW233498   1.054   4.480   3.370  0.0727 -2.0301  0.4854
 7347SOL     OW33499   4.409   2.901   5.842 -0.4375  0.1082  0.2076
 7347SOL    HW133500   4.344   2.950   5.791 -1.1544 -0.7740  0.2674
 7347SOL    HW233501   4.354   2.824   5.858 -1.4321  0.5139 -1.2590
 7348SOL     OW33502   4.376   2.955   5.124 -0.8580  0.1765 -0.2571
 7348SOL    HW133503   4.383   3.050   5.133 -0.2046  0.1597 -0.6155
 7348SOL    HW233504   4.431   2.938   5.047  0.2991  1.0303  0.3969
 7349SOL     OW33505   0.421   1.668   7.556 -0.7151 -0.4672 -0.4293
 7349SOL    HW133506   0.501   1.709   7.589  1.2368 -2.6549 -2.3798
 7349SOL    HW233507   0.355   1.680   7.624  0.2722  1.3955  0.1775
 7350SOL     OW33508   1.740   1.852   8.000 -0.4994  0.3772 -0.2722
 7350SOL    HW133509   1.673   1.846   8.067 -0.2415  0.5381  0.0027
 7350SOL    HW233510   1.758   1.759   7.986  1.0490  0.4824  0.9794
 7351SOL     OW33511   3.399   0.373  10.061  0.8405  0.0204  0.5936
 7351SOL    HW133512   3.311   0.359  10.026  0.4896  2.6400  0.3924
 7351SOL    HW233513   3.372   0.383  10.152  2.0777  1.1183  0.8432
 7352SOL     OW33514   0.903   2.610   1.911 -0.6738  0.6822  0.1712
 7352SOL    HW133515   0.885   2.602   2.005  0.5855  0.5826  0.4048
 7352SOL    HW233516   0.844   2.684   1.906 -1.4447 -0.0150 -0.8211
 7353SOL     OW33517   3.006   3.942  14.772  0.8018 -0.2188  0.3641
 7353SOL    HW133518   3.048   4.015  14.726  1.8041  0.0613  1.7362
 7353SOL    HW233519   2.920   3.985  14.775  0.2523 -1.3048  0.1123
 7354SOL     OW33520   4.668   2.773   9.485 -1.1043  0.2723 -0.2537
 7354SOL    HW133521   4.612   2.849   9.500  0.1027  0.5542  2.9132
 7354SOL    HW233522   4.713   2.764   9.570 -1.1294  0.5131 -0.2123
 7355SOL     OW33523   1.449   3.601   7.289  0.6484  0.5627  0.2055
 7355SOL    HW133524   1.356   3.599   7.308  0.4356 -0.2357 -0.9533
 7355SOL    HW233525   1.469   3.508   7.301  0.1222  0.3723 -0.4287
 7356SOL     OW33526   2.472   3.911  16.180 -0.6112 -0.3119  0.0335
 7356SOL    HW133527   2.539   3.844  16.194  0.1690  0.6298  0.8832
 7356SOL    HW233528   2.460   3.889  16.088 -0.3941  1.9689 -0.5562
 7357SOL     OW33529   2.954   0.385  14.582 -0.3686  0.0766  0.0179
 7357SOL    HW133530   2.954   0.454  14.648  0.8664 -0.5856  0.7123
 7357SOL    HW233531   2.975   0.432  14.502  0.1525 -0.0681  0.0726
 7358SOL     OW33532   2.426   0.373  13.967  0.0476 -0.5400  0.3430
 7358SOL    HW133533   2.405   0.418  14.049  2.5550  0.0971  0.6251
 7358SOL    HW233534   2.338   0.372  13.930 -0.0782 -0.8779  0.6477
 7359SOL     OW33535   2.509   2.050  12.216  0.3299 -0.0229  0.3513
 7359SOL    HW133536   2.520   2.126  12.273  1.5814  2.1568 -2.7786
 7359SOL    HW233537   2.494   2.087  12.129  0.1040  0.5768  0.6450
 7360SOL     OW33538   3.750   3.224   8.445 -0.4333 -0.4959 -0.5635
 7360SOL    HW133539   3.817   3.227   8.377  0.7382 -0.4983  0.5856
 7360SOL    HW233540   3.801   3.190   8.519 -0.4474  2.2633  0.7086
 7361SOL     OW33541   3.592   0.369   0.370  0.0390 -0.0216 -0.4060
 7361SOL    HW133542   3.668   0.357   0.426  0.8745 -0.3769 -1.6276
 7361SOL    HW233543   3.572   0.462   0.383  0.8949  0.0779  0.1692
 7362SOL     OW33544   4.045   0.820  10.935  0.0217  0.2936 -0.1983
 7362SOL    HW133545   4.117   0.855  10.883 -0.2055  1.3565  0.1895
 7362SOL    HW233546   4.062   0.738  10.890 -1.1435  0.2030 -0.4811
 7363SOL     OW33547   2.450   3.136   4.437 -0.4163 -0.2691  0.3287
 7363SOL    HW133548   2.435   3.197   4.509  1.5928 -1.5080  1.7908
 7363SOL    HW233549   2.385   3.069   4.458 -1.3276  0.4026 -0.3048
 7364SOL     OW33550   4.148   1.029  14.779 -0.0286 -0.4415 -0.0625
 7364SOL    HW133551   4.241   1.030  14.805 -0.2167  0.8118  0.5763
 7364SOL    HW233552   4.122   0.937  14.769 -0.0942 -1.0127  4.9882
 7365SOL     OW33553   4.138   2.568   3.070  0.3250 -0.1133  0.0172
 7365SOL    HW133554   4.216   2.609   3.033 -0.6864  2.1995  0.3988
 7365SOL    HW233555   4.120   2.500   3.005  2.2011 -0.1852 -0.4256
 7366SOL     OW33556   1.132   3.578  10.683  0.3926  0.5385  0.4035
 7366SOL    HW133557   1.217   3.621  10.676  1.1907 -1.2455 -0.9137
 7366SOL    HW233558   1.136   3.516  10.609 -0.2097 -0.4432  1.1905
 7367SOL     OW33559   3.989   2.814  11.975  0.5239  0.2267  0.3504
 7367SOL    HW133560   4.004   2.738  11.919  2.3744  3.5475 -3.6479
 7367SOL    HW233561   3.896   2.801  11.996  0.6524 -0.6203  0.3765
 7368SOL     OW33562   2.548   1.576  11.078  0.0477 -0.6892  0.4245
 7368SOL    HW133563   2.534   1.564  10.984 -4.3285  2.0041  0.7244
 7368SOL    HW233564   2.474   1.530  11.118  0.1920 -0.0417  1.4153
 7369SOL     OW33565   4.664   2.904   5.672  0.3644 -0.2237 -0.2826
 7369SOL    HW133566   4.575   2.905   5.706  0.4065  0.8576 -0.2049
 7369SOL    HW233567   4.699   2.821   5.705  1.7382 -0.0170 -1.2310
 7370SOL     OW33568   1.986   1.724   8.693  0.2123 -0.4167 -0.3937
 7370SOL    HW133569   2.053   1.791   8.684 -0.1897  0.0388  0.0427
 7370SOL    HW233570   1.991   1.688   8.604 -1.3080 -0.7017 -0.3801
 7371SOL     OW33571   0.711   0.434   3.142 -0.3306 -0.8542 -0.0255
 7371SOL    HW133572   0.667   0.364   3.191  1.7254 -1.8809  0.3738
 7371SOL    HW233573   0.761   0.381   3.080  2.3105 -0.2727  1.6357
 7372SOL     OW33574   3.203   1.479   2.892  0.0453  0.0872  0.2910
 7372SOL    HW133575   3.180   1.566   2.859  0.3441 -0.8730 -2.4674
 7372SOL    HW233576   3.212   1.424   2.815 -1.3771 -0.8506  0.7993
 7373SOL     OW33577   0.428   4.542   4.737  0.1685 -0.3086  0.7548
 7373SOL    HW133578   0.398   4.603   4.669  0.0539  0.5744  1.5918
 7373SOL    HW233579   0.352   4.534   4.795  0.6827  2.0983  1.7942
 7374SOL     OW33580   4.109   4.377  10.858  0.3470  0.7621  0.1217
 7374SOL    HW133581   4.116   4.308  10.923 -1.2943  1.2007  0.7473
 7374SOL    HW233582   4.156   4.329  10.790 -3.1548 -2.7110  0.1630
 7375SOL     OW33583   4.440   2.418   6.413 -0.3773 -0.1100  0.5928
 7375SOL    HW133584   4.362   2.468   6.389 -0.3997 -0.1884  0.5044
 7375SOL    HW233585   4.445   2.359   6.338 -0.5336  0.9006 -0.2125
 7376SOL     OW33586   3.790   0.171   7.097  0.5480  0.6947  0.0651
 7376SOL    HW133587   3.753   0.259   7.103  0.6047  0.6382  1.3092
 7376SOL    HW233588   3.742   0.137   7.022  0.2658  0.6755  0.2540
 7377SOL     OW33589   4.277   0.341   5.936 -0.1684  0.6742  0.2713
 7377SOL    HW133590   4.267   0.436   5.941 -1.3217  0.5811 -0.2832
 7377SOL    HW233591   4.266   0.315   6.027  0.4597 -1.1840 -0.1675
 7378SOL     OW33592   1.628   2.536   8.308  0.4571  0.3697  0.2860
 7378SOL    HW133593   1.688   2.585   8.253  2.3289 -1.3487  0.7904
 7378SOL    HW233594   1.685   2.462   8.331  0.8696 -0.1361 -2.3867
 7379SOL     OW33595   3.091   2.788   1.686 -0.5413  0.0842 -0.4218
 7379SOL    HW133596   3.047   2.740   1.756 -1.9291  1.2441 -0.5148
 7379SOL    HW233597   3.025   2.775   1.617  0.8309 -1.3667 -1.4829
 7380SOL     OW33598   3.278   1.396  14.587 -0.0183  0.5077 -0.5680
 7380SOL    HW133599   3.296   1.337  14.513  1.7849  1.5982 -1.0064
 7380SOL    HW233600   3.293   1.328  14.653  1.9436 -0.6134 -2.1349
 7381SOL     OW33601   1.533   3.362   7.361  0.4153 -0.8263  0.2028
 7381SOL    HW133602   1.594   3.296   7.393  0.8383 -1.2205 -1.4277
 7381SOL    HW233603   1.456   3.340   7.414 -1.0080 -0.7103 -1.8070
 7382SOL     OW33604   4.652   1.150   3.413  0.1114  0.1473  0.3053
 7382SOL    HW133605   4.601   1.070   3.400  0.9134 -0.5984  1.7706
 7382SOL    HW233606   4.612   1.184   3.493  0.9708 -0.4421  0.9924
 7383SOL     OW33607   4.179   3.688  10.986 -0.6491  0.0641  0.6051
 7383SOL    HW133608   4.157   3.623  11.053 -0.7099 -0.4725  0.0672
 7383SOL    HW233609   4.162   3.637  10.906  0.7179  2.1867 -1.0317
 7384SOL     OW33610   1.990   0.972   9.086 -0.5775  0.0930 -0.1876
 7384SOL    HW133611   2.012   0.879   9.077  0.9439  0.5065 -0.7175
 7384SOL    HW233612   1.957   0.971   9.175  1.4341  1.8324  0.5839
 7385SOL     OW33613   3.830   4.670  15.526 -0.4072 -0.0476  0.1742
 7385SOL    HW133614   3.835   4.659  15.431  0.2641  0.6324  0.1298
 7385SOL    HW233615   3.737   4.664  15.548  0.1436 -0.8325  2.2873
 7386SOL     OW33616   1.657   3.036   4.469 -0.1240 -0.1831 -0.2288
 7386SOL    HW133617   1.644   2.942   4.459  0.9184  0.0516 -3.6493
 7386SOL    HW233618   1.630   3.078   4.387  0.3557  0.0925 -0.2498
 7387SOL     OW33619   4.341   4.557   5.169 -0.5896  0.0214  0.4053
 7387SOL    HW133620   4.252   4.557   5.134 -0.4965 -0.2274  0.1655
 7387SOL    HW233621   4.341   4.642   5.213  1.4423  1.7338 -2.8749
 7388SOL     OW33622   1.636   4.236   8.943  0.1100  0.0122  0.2847
 7388SOL    HW133623   1.680   4.289   9.009  2.1425 -2.0444  0.5489
 7388SOL    HW233624   1.563   4.195   8.989  0.2944  1.1472  1.5885
 7389SOL     OW33625   1.163   3.883   9.032 -0.1341 -0.4907  0.3538
 7389SOL    HW133626   1.237   3.822   9.032  0.5525  0.3712 -3.6058
 7389SOL    HW233627   1.100   3.817   9.062 -0.5966 -0.0319  0.3807
 7390SOL     OW33628   1.857   2.258   1.760  0.0477 -0.6572 -0.3365
 7390SOL    HW133629   1.762   2.267   1.756  0.0054 -0.6395  0.7063
 7390SOL    HW233630   1.877   2.226   1.673 -0.5276 -2.0095  0.0270
 7391SOL     OW33631   4.317   3.430   4.566  0.3805 -0.0705 -0.0750
 7391SOL    HW133632   4.285   3.340   4.565 -0.9898  0.4094  0.1771
 7391SOL    HW233633   4.238   3.478   4.538  0.4716 -0.5699 -1.1993
 7392SOL     OW33634   2.612   2.132   4.238 -0.2890  0.6752 -0.3222
 7392SOL    HW133635   2.579   2.206   4.289 -1.7484 -1.0417  1.1867
 7392SOL    HW233636   2.534   2.077   4.230  0.5070 -0.3296 -1.3423
 7393SOL     OW33637   2.299   2.553  10.384 -0.4396 -0.3482  0.9154
 7393SOL    HW133638   2.215   2.587  10.415 -0.3518  2.2236 -1.6668
 7393SOL    HW233639   2.320   2.503  10.463  0.6618 -0.6168  0.4396
 7394SOL     OW33640   0.773   0.711   6.527  0.7533  0.0059  0.0411
 7394SOL    HW133641   0.792   0.617   6.521  1.9620  0.4172 -2.3788
 7394SOL    HW233642   0.689   0.706   6.573  0.5064 -0.4182 -0.4579
 7395SOL     OW33643   0.315   3.778   8.313  0.3933 -0.6694  0.1825
 7395SOL    HW133644   0.308   3.810   8.223  1.7477  0.5434  0.5081
 7395SOL    HW233645   0.360   3.697   8.288  0.0465  0.0163 -2.6367
 7396SOL     OW33646   1.684   0.808   3.143  0.4490 -0.0208 -0.7041
 7396SOL    HW133647   1.621   0.879   3.133 -1.4082 -1.5854 -0.2225
 7396SOL    HW233648   1.749   0.876   3.162  0.3269  0.0159 -0.4202
 7397SOL     OW33649   2.580   2.237   1.233  0.2185 -0.2455 -0.2173
 7397SOL    HW133650   2.507   2.273   1.183  0.8192  0.4346 -0.6073
 7397SOL    HW233651   2.561   2.144   1.225 -0.1639 -0.4216  2.7415
 7398SOL     OW33652   2.942   3.692  14.147 -0.5902 -0.1036 -0.3482
 7398SOL    HW133653   3.037   3.700  14.140 -1.0277  4.0851 -1.5399
 7398SOL    HW233654   2.927   3.787  14.148 -0.7758 -0.1484  0.8981
 7399SOL     OW33655   2.034   0.186   8.168  0.8687 -0.1759 -0.4647
 7399SOL    HW133656   2.032   0.270   8.216  0.9361 -1.9197  2.6117
 7399SOL    HW233657   2.060   0.205   8.078  0.7014  0.3923 -0.3969
 7400SOL     OW33658   2.545   1.655   2.480  0.8489 -0.6643  0.0726
 7400SOL    HW133659   2.541   1.566   2.516 -1.6474 -0.5133  0.1705
 7400SOL    HW233660   2.632   1.679   2.512  1.5522 -1.9280 -0.8725
 7401SOL     OW33661   4.174   2.767   8.927  0.4479  0.2316  0.1861
 7401SOL    HW133662   4.248   2.762   8.988 -1.0118 -0.8617  1.8970
 7401SOL    HW233663   4.123   2.691   8.956 -1.0192  0.8686 -0.7653
 7402SOL     OW33664   3.268   3.668   5.817  0.4734 -0.5431  0.2787
 7402SOL    HW133665   3.206   3.709   5.877  0.7718 -0.4229  0.5078
 7402SOL    HW233666   3.253   3.576   5.839 -0.0437 -0.6943 -0.7470
 7403SOL     OW33667   2.596   3.149   9.276  0.8537 -0.2327 -0.8945
 7403SOL    HW133668   2.545   3.069   9.267  2.3188 -1.1634 -0.8683
 7403SOL    HW233669   2.658   3.148   9.204  1.9799 -0.5944  0.0763
 7404SOL     OW33670   2.265   3.283   5.556  0.7190  0.3734 -0.4320
 7404SOL    HW133671   2.260   3.314   5.647  4.3811 -0.5274  0.0870
 7404SOL    HW233672   2.348   3.235   5.559  1.6924  2.0451 -0.8106
 7405SOL     OW33673   3.471   2.512   7.494 -0.1872 -0.3648  0.0564
 7405SOL    HW133674   3.407   2.576   7.464 -0.3964 -1.1512 -1.1730
 7405SOL    HW233675   3.481   2.527   7.588 -0.6896  1.0745 -0.1271
 7406SOL     OW33676   2.885   4.611  10.095 -0.3047  0.4275  0.2769
 7406SOL    HW133677   2.795   4.641  10.092 -0.4821 -0.0298  0.9384
 7406SOL    HW233678   2.871   4.531  10.146  0.0207 -0.1683 -0.5528
 7407SOL     OW33679   1.560   2.283   8.877 -0.4992 -0.3415  0.2268
 7407SOL    HW133680   1.602   2.205   8.914  0.5301 -0.6141 -1.4817
 7407SOL    HW233681   1.472   2.247   8.866  0.1797 -1.7538 -0.6249
 7408SOL     OW33682   3.523   1.776  12.471 -0.1056  0.1372 -0.3359
 7408SOL    HW133683   3.437   1.772  12.511  0.0404  0.2472 -0.0071
 7408SOL    HW233684   3.559   1.859  12.505  0.2146 -1.8012  4.1143
 7409SOL     OW33685   4.716   4.328   7.336 -0.4327  0.0990  0.2801
 7409SOL    HW133686   0.066   4.290   7.387 -0.0860  0.3962  0.0207
 7409SOL    HW233687   0.037   4.414   7.328 -0.5718  0.3440  2.3571
 7410SOL     OW33688   4.614   3.463   9.363  0.7602 -0.1079  0.3155
 7410SOL    HW133689   4.550   3.412   9.413 -1.0418  2.1241  0.2663
 7410SOL    HW233690   4.652   3.401   9.301  0.7597  0.9986 -0.7853
 7411SOL     OW33691   0.287   0.298   5.551 -0.6338 -0.1480  0.6310
 7411SOL    HW133692   0.326   0.386   5.557 -2.0176  0.5600 -0.4757
 7411SOL    HW233693   0.357   0.255   5.599  1.8689 -1.6343 -4.2972
 7412SOL     OW33694   2.993   2.983  11.003  0.0734 -0.6610  0.6833
 7412SOL    HW133695   3.067   2.949  10.953  0.7729  0.7725  0.7375
 7412SOL    HW233696   3.021   2.948  11.088  2.3526  0.8179  0.5618
 7413SOL     OW33697   2.260   2.108   5.838  0.0070  0.2560  0.5930
 7413SOL    HW133698   2.342   2.071   5.805 -0.8336 -0.2565 -0.9634
 7413SOL    HW233699   2.285   2.152   5.919  0.5595  1.5510 -0.2938
 7414SOL     OW33700   2.868   4.257   2.831 -0.2461  0.1990 -0.0572
 7414SOL    HW133701   2.859   4.215   2.746 -1.0620  2.2768 -0.9991
 7414SOL    HW233702   2.912   4.338   2.805  0.8046 -1.1212 -2.3408
 7415SOL     OW33703   1.944   2.486   2.031 -0.4189 -0.3137 -0.5128
 7415SOL    HW133704   1.910   2.398   2.046 -2.5159  0.1693 -2.2820
 7415SOL    HW233705   1.892   2.534   2.095 -0.8372 -0.8012 -0.4840
 7416SOL     OW33706   0.631   3.911  17.247 -0.1306  0.3130  0.1067
 7416SOL    HW133707   0.576   3.835  17.262  2.4690 -1.6388 -0.2259
 7416SOL    HW233708   0.718   3.886  17.215 -0.5476  0.8125 -1.4258
 7417SOL     OW33709   4.179   4.073   6.746 -0.3258  0.0461  0.1326
 7417SOL    HW133710   4.186   3.987   6.787  0.6492 -0.1255 -0.3999
 7417SOL    HW233711   4.094   4.108   6.772 -0.9708 -0.8929 -0.7279
 7418SOL     OW33712   2.943   2.775   1.451  0.0298  0.7088 -0.5555
 7418SOL    HW133713   2.940   2.753   1.358 -0.0897 -3.3602  0.4198
 7418SOL    HW233714   2.867   2.833   1.460 -0.3850 -0.1217  1.4337
 7419SOL     OW33715   1.411   2.983   6.343  0.2185  0.3649 -0.2891
 7419SOL    HW133716   1.404   2.888   6.346 -1.0748  0.4055 -1.5929
 7419SOL    HW233717   1.408   3.003   6.249 -3.6747 -0.5593 -0.3780
 7420SOL     OW33718   2.839   1.878   3.124 -0.3738  0.2247  0.0127
 7420SOL    HW133719   2.803   1.800   3.081  2.3955 -1.3465  0.5456
 7420SOL    HW233720   2.803   1.886   3.212  1.8297  2.1554  0.7211
 7421SOL     OW33721   3.685   2.647   9.075  0.0484  0.3667  0.7344
 7421SOL    HW133722   3.652   2.558   9.085  1.1281  0.1302  2.0479
 7421SOL    HW233723   3.690   2.658   8.980  0.6046  0.6214  0.7931
 7422SOL     OW33724   1.628   1.135   1.875 -0.4189  0.6337 -0.1114
 7422SOL    HW133725   1.710   1.100   1.840 -1.1296 -1.3923  0.2747
 7422SOL    HW233726   1.630   1.225   1.843  2.8868  0.7699  0.4952
 7423SOL     OW33727   3.027   3.520   5.577  0.2048  0.3308  0.0487
 7423SOL    HW133728   3.114   3.508   5.537 -0.3358 -1.4253 -0.6087
 7423SOL    HW233729   3.003   3.597   5.525  1.6588  0.5952 -0.2262
 7424SOL     OW33730   1.719   3.382   7.182 -0.1420  0.5450 -0.5623
 7424SOL    HW133731   1.650   3.392   7.247  2.9699 -0.6006  2.9321
 7424SOL    HW233732   1.722   3.459   7.125  0.1142 -0.0764 -1.3942
 7425SOL     OW33733   3.152   2.309  13.065  0.0689 -0.1184 -0.6038
 7425SOL    HW133734   3.142   2.345  13.154  1.7314  1.1428 -0.9294
 7425SOL    HW233735   3.165   2.215  13.074  0.9093  0.0551  0.0032
 7426SOL     OW33736   0.303   3.623   5.410  0.1791 -0.3726  0.1863
 7426SOL    HW133737   0.258   3.673   5.343  0.9647 -0.1542 -0.1801
 7426SOL    HW233738   0.379   3.679   5.427  0.1981  0.2692 -2.0923
 7427SOL     OW33739   1.035   3.658   2.255 -0.1011  0.6376 -0.0633
 7427SOL    HW133740   1.042   3.658   2.350  1.2505  0.7489 -0.1678
 7427SOL    HW233741   0.951   3.619   2.232  0.0635  0.7696 -0.8806
 7428SOL     OW33742   0.966   1.640  10.113 -0.2938 -0.3127  0.3141
 7428SOL    HW133743   1.039   1.601  10.162 -0.2535  1.3906  1.6092
 7428SOL    HW233744   0.995   1.708  10.052 -0.0891 -0.2702  0.4579
 7429SOL     OW33745   1.292   4.719  16.040  0.2179  0.1827  0.3818
 7429SOL    HW133746   1.333   4.667  15.971  1.7626  1.6155  0.2326
 7429SOL    HW233747   1.363   4.710  16.105  0.7066  1.8407  0.0718
 7430SOL     OW33748   3.779   2.159   4.243  0.4977  0.7534 -0.0233
 7430SOL    HW133749   3.873   2.173   4.260  0.4072 -1.2966  2.1436
 7430SOL    HW233750   3.788   2.130   4.153 -0.1130  2.9326 -0.7994
 7431SOL     OW33751   3.224   0.699   2.862  0.8154 -0.0355 -0.5209
 7431SOL    HW133752   3.292   0.632   2.850  0.3812 -0.7794  1.0715
 7431SOL    HW233753   3.153   0.640   2.888  0.5942 -0.0216 -1.0981
 7432SOL     OW33754   2.567   3.127  10.791 -0.2067 -0.5242  0.5641
 7432SOL    HW133755   2.580   3.127  10.886 -1.5897  0.5246  0.7370
 7432SOL    HW233756   2.511   3.204  10.788 -0.7263 -0.8703  1.4070
 7433SOL     OW33757   1.308   1.529   2.157 -0.1826 -0.4304  0.1390
 7433SOL    HW133758   1.380   1.521   2.094  0.1175  0.2851  0.3878
 7433SOL    HW233759   1.233   1.518   2.098 -1.6894  2.4311  1.4945
 7434SOL     OW33760   2.128   3.584   0.899  0.0534 -0.1484 -0.4296
 7434SOL    HW133761   2.061   3.611   0.836  0.4662 -0.3492 -0.9489
 7434SOL    HW233762   2.158   3.497   0.873  1.3309 -0.2617  1.4583
 7435SOL     OW33763   0.083   0.971   5.343 -0.0845  0.0877  0.1395
 7435SOL    HW133764   0.001   0.931   5.370 -0.2208 -0.8940 -1.7320
 7435SOL    HW233765   0.149   0.902   5.339  0.9653  1.0099  1.2653
 7436SOL     OW33766   2.653   0.217   1.683 -0.3580  0.1409  0.8408
 7436SOL    HW133767   2.637   0.306   1.652 -3.0815 -1.0848 -1.3024
 7436SOL    HW233768   2.660   0.239   1.776  1.1043 -1.0843  1.0176
 7437SOL     OW33769   3.963   2.237   1.780  0.8414 -0.2155  0.0827
 7437SOL    HW133770   3.970   2.305   1.713  1.6636 -1.0512 -0.6767
 7437SOL    HW233771   4.053   2.239   1.811  2.5586  0.0378 -4.8916
 7438SOL     OW33772   0.876   0.651   2.910 -0.2653  0.3269 -0.1172
 7438SOL    HW133773   0.812   0.721   2.900 -1.2776 -0.7174 -0.8532
 7438SOL    HW233774   0.932   0.665   2.834 -1.4061 -0.2460 -1.0489
 7439SOL     OW33775   3.705   3.181   0.758  0.0341  0.4824 -0.9594
 7439SOL    HW133776   3.640   3.169   0.827  0.5294  0.6983 -0.4593
 7439SOL    HW233777   3.737   3.265   0.792  1.2178  0.0048 -0.9158
 7440SOL     OW33778   2.202   2.921  16.819  0.2160  0.0139 -0.1129
 7440SOL    HW133779   2.239   2.862  16.754 -1.8926 -0.5830 -0.7620
 7440SOL    HW233780   2.148   2.856  16.865 -1.4268  0.6146 -1.1722
 7441SOL     OW33781   3.670   1.584   5.139 -0.1778 -0.9712 -0.4643
 7441SOL    HW133782   3.760   1.583   5.106  0.1918 -0.4865  0.5417
 7441SOL    HW233783   3.630   1.639   5.072 -1.5113 -0.0110  1.1247
 7442SOL     OW33784   1.846   1.459   5.970 -0.2161  0.6295  0.3211
 7442SOL    HW133785   1.772   1.484   5.915 -0.6266  1.4956  1.2647
 7442SOL    HW233786   1.823   1.368   5.991 -1.2403  0.8438  0.0756
 7443SOL     OW33787   4.205   2.060   5.235 -0.5169  0.0768  0.1986
 7443SOL    HW133788   4.136   2.018   5.286 -0.5021 -1.9903 -1.4722
 7443SOL    HW233789   4.289   2.031   5.268  0.8671  3.2136 -0.5273
 7444SOL     OW33790   2.203   2.581   9.895 -0.4663 -0.0265 -0.1519
 7444SOL    HW133791   2.177   2.669   9.921  2.2847  1.0497 -1.0709
 7444SOL    HW233792   2.243   2.559   9.980 -0.1558  1.7222  0.1430
 7445SOL     OW33793   1.024   0.609   1.483 -0.2347 -0.3261 -0.3531
 7445SOL    HW133794   1.003   0.641   1.395 -4.1634 -1.8521  0.0270
 7445SOL    HW233795   0.938   0.622   1.523  0.5399 -1.2256  1.5744
 7446SOL     OW33796   0.401   3.140   1.092  0.1693 -0.0247 -0.1746
 7446SOL    HW133797   0.420   3.056   1.132  1.4491 -0.2724 -1.3200
 7446SOL    HW233798   0.481   3.193   1.095 -0.1301  0.5740 -3.1164
 7447SOL     OW33799   1.666   2.805   3.087 -0.3401  0.2859 -0.3129
 7447SOL    HW133800   1.755   2.794   3.053 -0.4788 -1.5583 -0.0431
 7447SOL    HW233801   1.681   2.878   3.147  0.5730  0.7401 -1.0819
 7448SOL     OW33802   4.066   0.226   6.644 -0.7495  0.3979 -0.0797
 7448SOL    HW133803   4.011   0.155   6.678 -2.9451  0.8254 -2.7677
 7448SOL    HW233804   4.015   0.306   6.649 -0.8096  0.4310 -1.2054
 7449SOL     OW33805   3.630   2.756   5.169  0.4110  0.0680  0.2669
 7449SOL    HW133806   3.660   2.666   5.184  1.4114  0.2202 -0.8396
 7449SOL    HW233807   3.674   2.777   5.087 -1.0343 -4.0639 -1.5505
 7450SOL     OW33808   3.804   2.621   7.597 -0.2390 -0.3883 -0.1211
 7450SOL    HW133809   3.806   2.709   7.636  0.9664  0.3145 -1.8042
 7450SOL    HW233810   3.787   2.635   7.504  0.3986  0.1742 -0.1564
 7451SOL     OW33811   4.682   2.734   8.275 -0.3584 -0.3839 -0.3270
 7451SOL    HW133812   4.659   2.682   8.352  1.6186  1.1421  1.2967
 7451SOL    HW233813   4.648   2.820   8.301  0.2727 -0.2039 -0.0955
 7452SOL     OW33814   1.738   4.158  11.390  0.1133  0.3930 -0.2224
 7452SOL    HW133815   1.650   4.160  11.354 -0.5275  0.7739  1.3464
 7452SOL    HW233816   1.767   4.091  11.327  0.9092  1.2490 -0.7676
 7453SOL     OW33817   1.408   0.192  13.498  0.3897 -0.3923 -0.0373
 7453SOL    HW133818   1.408   0.286  13.480 -0.5265 -0.5744 -1.0116
 7453SOL    HW233819   1.451   0.189  13.583 -0.1768 -0.1504  0.2567
 7454SOL     OW33820   0.266   4.262  10.473  0.7524 -0.5094  0.1333
 7454SOL    HW133821   0.321   4.336  10.497 -3.1689  2.6344 -0.6195
 7454SOL    HW233822   0.300   4.190  10.527 -0.0644 -0.2390  1.0170
 7455SOL     OW33823   3.164   0.895  15.380 -0.2915 -0.5535 -0.0127
 7455SOL    HW133824   3.220   0.833  15.427  0.7082  0.7934  0.5948
 7455SOL    HW233825   3.232   0.948  15.338  0.2691 -1.4855 -0.2781
 7456SOL     OW33826   1.650   3.978   1.377  0.0141 -0.0381  0.0535
 7456SOL    HW133827   1.640   4.027   1.458 -0.3161 -1.3843  0.8324
 7456SOL    HW233828   1.654   3.887   1.406 -0.9827  0.1345  0.7277
 7457SOL     OW33829   4.588   2.220   7.283  0.5231  0.8926  0.6805
 7457SOL    HW133830   4.611   2.274   7.359  2.1426 -2.0635  2.3101
 7457SOL    HW233831   4.615   2.281   7.215 -1.1539 -0.6543 -1.3613
 7458SOL     OW33832   3.214   0.171  15.705 -0.1758  0.1771 -0.2425
 7458SOL    HW133833   3.142   0.212  15.753 -0.0035  1.7346 -1.3146
 7458SOL    HW233834   3.282   0.179  15.772 -0.9740 -0.4688  0.6505
 7459SOL     OW33835   2.883   0.653   5.268  0.0919 -0.5555 -0.5017
 7459SOL    HW133836   2.938   0.574   5.275  2.5038  1.2586  1.2532
 7459SOL    HW233837   2.799   0.612   5.290  0.3197  0.5784  2.5016
 7460SOL     OW33838   0.291   0.659   4.165  0.2929 -0.5189 -0.3294
 7460SOL    HW133839   0.311   0.594   4.233  0.2940 -0.9114 -0.7108
 7460SOL    HW233840   0.246   0.720   4.224 -0.5464 -0.2411 -1.2666
 7461SOL     OW33841   0.649   2.321   6.468  1.2121 -0.4591  0.7598
 7461SOL    HW133842   0.647   2.225   6.474  1.4654 -0.4266  1.4001
 7461SOL    HW233843   0.678   2.336   6.379 -1.9334 -0.2296 -0.2168
 7462SOL     OW33844   1.867   3.868   7.332  0.0637 -0.3256  0.3587
 7462SOL    HW133845   1.883   3.910   7.417  0.1441 -1.4647  0.9058
 7462SOL    HW233846   1.803   3.804   7.362 -2.0652  1.2333 -0.8951
 7463SOL     OW33847   1.336   0.349   7.848 -0.1948 -0.1649  0.2599
 7463SOL    HW133848   1.389   0.270   7.836 -0.2431 -0.5470  2.4048
 7463SOL    HW233849   1.356   0.393   7.766  0.2806  1.5526  1.2980
 7464SOL     OW33850   3.574   2.087  13.646  0.1272 -0.2577 -0.6572
 7464SOL    HW133851   3.595   1.998  13.675  0.7015 -0.1036 -0.5988
 7464SOL    HW233852   3.662   2.123  13.632  0.1040 -0.5288 -1.5202
 7465SOL     OW33853   0.760   3.905  10.855 -0.2213  0.3853  0.6156
 7465SOL    HW133854   0.829   3.839  10.852  0.2948  0.9535 -0.1390
 7465SOL    HW233855   0.698   3.852  10.904 -1.1922 -0.0254 -1.0413
 7466SOL     OW33856   4.583   2.445   4.457 -0.3532 -0.7820  0.1214
 7466SOL    HW133857   4.621   2.531   4.441 -0.8595 -0.4186  0.8532
 7466SOL    HW233858   4.530   2.447   4.377  1.5688  1.9765 -1.0706
 7467SOL     OW33859   4.162   2.006   6.844 -0.1800  0.1160  0.4553
 7467SOL    HW133860   4.108   1.927   6.854  2.5030 -2.0822 -2.1426
 7467SOL    HW233861   4.239   1.986   6.897  0.3067 -0.8010 -0.5934
 7468SOL     OW33862   4.658   0.926   5.927 -0.7525 -0.5072  0.1327
 7468SOL    HW133863   0.017   0.956   5.971 -1.8968  1.2257  0.9957
 7468SOL    HW233864   4.614   1.005   5.897  0.0838 -0.0745  0.0456
 7469SOL     OW33865   2.750   4.023   3.745 -0.2959  0.3452  0.1326
 7469SOL    HW133866   2.784   4.110   3.764  0.9884  0.6849 -3.8738
 7469SOL    HW233867   2.827   3.967   3.737 -1.0201 -0.2494 -2.5246
 7470SOL     OW33868   4.255   1.099  16.320  0.5095  0.0798  0.1939
 7470SOL    HW133869   4.293   1.168  16.375  0.8431 -0.8477  1.1288
 7470SOL    HW233870   4.336   1.052  16.299 -1.1361 -1.5617 -2.5046
 7471SOL     OW33871   4.555   2.650   3.735  0.0406 -0.1838  0.2053
 7471SOL    HW133872   4.580   2.741   3.755 -2.0551 -0.2424  3.1334
 7471SOL    HW233873   4.553   2.649   3.639  1.9838 -2.0788  0.1952
 7472SOL     OW33874   3.458   0.931   7.032 -0.2134 -0.4771  0.9687
 7472SOL    HW133875   3.546   0.952   7.001 -0.6411 -1.3709 -0.8399
 7472SOL    HW233876   3.408   1.011   7.019  0.0785 -0.4834 -0.2130
 7473SOL     OW33877   0.990   0.271  16.770  0.0173  0.3908 -0.0965
 7473SOL    HW133878   1.007   0.186  16.730 -0.0678  0.0011  0.6991
 7473SOL    HW233879   1.065   0.279  16.828 -0.7881  1.5292  0.7849
 7474SOL     OW33880   1.775   1.609  10.755 -0.3955  0.3105 -0.4752
 7474SOL    HW133881   1.782   1.629  10.848  2.2362 -2.5523 -0.0729
 7474SOL    HW233882   1.809   1.693  10.724  1.7057  0.4008  2.0643
 7475SOL     OW33883   1.046   3.452  10.169  0.5944 -0.0283  0.0288
 7475SOL    HW133884   1.096   3.377  10.136 -1.1926 -0.8854 -0.7359
 7475SOL    HW233885   1.002   3.397  10.234  0.2869  0.3819  0.1650
 7476SOL     OW33886   1.454   0.149  15.417 -0.5244  0.0530 -0.0137
 7476SOL    HW133887   1.540   0.158  15.458 -1.1982 -1.8568  1.7896
 7476SOL    HW233888   1.402   0.211  15.470 -0.7262 -0.5239  0.4666
 7477SOL     OW33889   1.488   4.256   9.392  0.0594 -0.0951 -0.3862
 7477SOL    HW133890   1.517   4.299   9.311 -0.7766 -0.0118 -0.6441
 7477SOL    HW233891   1.540   4.301   9.460  1.1606 -1.7302 -0.1588
 7478SOL     OW33892   1.111   1.036   2.710  0.1673 -0.0402 -0.3066
 7478SOL    HW133893   1.146   1.079   2.788  0.9438  1.0722 -1.2747
 7478SOL    HW233894   1.081   0.957   2.756 -2.1744  1.3024  0.4776
 7479SOL     OW33895   2.465   0.291  12.815 -0.0619  0.3021  0.2055
 7479SOL    HW133896   2.414   0.369  12.792 -1.6837 -0.9466 -0.4468
 7479SOL    HW233897   2.530   0.330  12.873  1.0904 -2.7806  0.9877
 7480SOL     OW33898   3.447   0.752   1.965  0.6165 -0.1905 -0.6148
 7480SOL    HW133899   3.421   0.660   1.966  0.7056 -0.2068  1.5669
 7480SOL    HW233900   3.542   0.747   1.953  0.4307  0.2996 -2.2651
 7481SOL     OW33901   1.130   0.923   7.769  0.3215 -0.3325  0.1346
 7481SOL    HW133902   1.180   0.926   7.688 -0.9849  0.9634 -0.6102
 7481SOL    HW233903   1.094   1.010   7.786 -1.4721 -0.5390 -2.6688
 7482SOL     OW33904   0.010   0.892   8.259  0.4214  0.0629 -0.0135
 7482SOL    HW133905   0.099   0.921   8.240 -0.6322  3.5205  0.2681
 7482SOL    HW233906   4.692   0.957   8.318  1.0228 -0.1965  0.6593
 7483SOL     OW33907   0.774   1.640   6.694  0.7700 -0.3156  0.2535
 7483SOL    HW133908   0.861   1.649   6.733  0.6345  1.5604  0.1157
 7483SOL    HW233909   0.748   1.549   6.709 -1.0909  0.1988  0.2060
 7484SOL     OW33910   2.103   0.319   4.702 -0.2795 -0.1661  0.0152
 7484SOL    HW133911   2.016   0.313   4.742 -0.2091 -0.8389  0.0720
 7484SOL    HW233912   2.081   0.297   4.612  0.1216 -0.6519  0.0366
 7485SOL     OW33913   4.604   1.379  10.103 -0.0194 -0.5063  0.1994
 7485SOL    HW133914   4.655   1.300  10.117  3.3674  2.0165  2.2719
 7485SOL    HW233915   4.520   1.348  10.136 -0.7665  1.3476  0.0717
 7486SOL     OW33916   1.383   0.234   3.631 -0.4104 -0.5445 -1.0585
 7486SOL    HW133917   1.351   0.147   3.606  0.1146 -1.1625  0.3865
 7486SOL    HW233918   1.447   0.204   3.695  0.4710 -0.1001 -1.7360
 7487SOL     OW33919   4.065   3.302   5.552  0.0067  1.1581 -0.5243
 7487SOL    HW133920   3.985   3.348   5.526 -1.1098 -0.6906 -0.3245
 7487SOL    HW233921   4.046   3.215   5.519  2.1394  0.0534  1.1344
 7488SOL     OW33922   3.492   1.857   0.082  0.0539  0.3414 -0.1342
 7488SOL    HW133923   3.517   1.923   0.017  1.6433  0.4646  0.6206
 7488SOL    HW233924   3.499   1.775   0.032 -1.3670  0.2101 -0.1203
 7489SOL     OW33925   1.103   3.411   9.062 -0.1177  0.6702 -0.5131
 7489SOL    HW133926   1.104   3.316   9.073 -3.0962  0.4038 -2.6209
 7489SOL    HW233927   1.195   3.432   9.079 -0.0406  1.0234 -1.3350
 7490SOL     OW33928   2.037   0.889   4.079 -0.2880  0.0300  0.2789
 7490SOL    HW133929   1.958   0.886   4.133  1.4213  0.0942  2.7440
 7490SOL    HW233930   2.006   0.840   4.002 -1.0785  2.6668 -1.0838
 7491SOL     OW33931   1.683   0.602   6.487 -0.6405  0.3751 -0.5432
 7491SOL    HW133932   1.673   0.614   6.581  1.2659  0.8688 -0.4023
 7491SOL    HW233933   1.718   0.684   6.451  2.5194 -1.2535 -1.1500
 7492SOL     OW33934   3.202   4.396   0.215  0.2915 -0.2841  0.3239
 7492SOL    HW133935   3.264   4.467   0.231  0.4617 -0.4901  0.5797
 7492SOL    HW233936   3.125   4.430   0.262  0.4627 -1.1933  1.2525
 7493SOL     OW33937   1.518   2.769   8.869 -0.2999  0.0458 -0.1852
 7493SOL    HW133938   1.490   2.850   8.826  2.1929  1.1679  0.3238
 7493SOL    HW233939   1.489   2.697   8.814 -2.0391  0.1808  0.5483
 7494SOL     OW33940   0.982   3.398   7.050  0.5984 -0.0120  1.0199
 7494SOL    HW133941   1.011   3.488   7.037  1.5584 -0.6566 -1.3482
 7494SOL    HW233942   1.052   3.348   7.006 -0.7395 -2.0230  1.1518
 7495SOL     OW33943   1.720   2.588  13.565 -0.1422  0.5940 -0.6915
 7495SOL    HW133944   1.720   2.614  13.473  1.5537  0.4289 -0.7395
 7495SOL    HW233945   1.637   2.626  13.595 -1.7334 -1.9836 -1.8601
 7496SOL     OW33946   0.238   1.085   3.457 -0.2702  0.1149 -0.1548
 7496SOL    HW133947   0.284   1.162   3.422  1.0121 -0.9502 -0.8070
 7496SOL    HW233948   0.152   1.123   3.474 -0.2070  0.5985 -0.9065
 7497SOL     OW33949   0.682   1.193   3.432 -0.5938  0.0605  0.4828
 7497SOL    HW133950   0.715   1.221   3.347 -1.5449  2.5650  0.9540
 7497SOL    HW233951   0.740   1.250   3.483 -1.2739 -0.9229  2.3850
 7498SOL     OW33952   2.671   2.964   6.384  0.2157 -0.0213  0.0516
 7498SOL    HW133953   2.656   2.984   6.291 -0.1381 -0.0258  0.1085
 7498SOL    HW233954   2.585   2.937   6.414  0.6212 -0.5927  0.6910
 7499SOL     OW33955   0.645   4.653  15.227 -0.1418 -0.5540  0.3179
 7499SOL    HW133956   0.738   4.635  15.209 -0.5354 -2.0337 -0.2164
 7499SOL    HW233957   0.635   4.577  15.284  1.6209 -0.8167  0.2911
 7500SOL     OW33958   2.720   3.184   4.628 -0.1960 -0.1586  0.3543
 7500SOL    HW133959   2.778   3.226   4.564  0.3638 -1.3437  0.0768
 7500SOL    HW233960   2.657   3.255   4.643  0.7521  0.7528  0.0412
 7501SOL     OW33961   4.193   1.311  14.975 -0.3849  0.3774 -0.4608
 7501SOL    HW133962   4.203   1.406  14.983  0.3173  0.3232 -0.6568
 7501SOL    HW233963   4.160   1.292  15.063  0.2225 -3.1132 -0.9666
 7502SOL     OW33964   0.571   2.003   3.758  0.1458 -0.6575  0.0595
 7502SOL    HW133965   0.564   2.031   3.667 -0.2406 -1.8915 -0.2966
 7502SOL    HW233966   0.628   2.075   3.787 -0.9280 -0.5788  2.0278
 7503SOL     OW33967   0.527   3.622   4.475 -0.4104  0.2134  0.4980
 7503SOL    HW133968   0.558   3.532   4.465 -0.9220  0.4177 -3.0407
 7503SOL    HW233969   0.463   3.627   4.403  1.6358 -2.3948 -1.4769
 7504SOL     OW33970   2.535   3.474   7.267 -0.0249 -0.2037  0.2017
 7504SOL    HW133971   2.607   3.412   7.256 -0.5797 -0.8777  0.3352
 7504SOL    HW233972   2.489   3.460   7.184  1.6092  0.7913 -0.8646
 7505SOL     OW33973   1.189   0.153  12.026  0.1675 -0.0566  0.2184
 7505SOL    HW133974   1.215   0.079  11.970  2.5407  0.1945  0.9813
 7505SOL    HW233975   1.100   0.128  12.052  0.3270 -0.0545  0.7662
 7506SOL     OW33976   3.074   0.154   6.724 -0.2223 -0.3067 -0.0267
 7506SOL    HW133977   3.121   0.206   6.660 -1.1165 -0.7764 -1.0620
 7506SOL    HW233978   2.984   0.166   6.692 -0.7796 -0.1022  1.6012
 7507SOL     OW33979   2.056   3.041   4.849  0.1259 -0.1186  0.2086
 7507SOL    HW133980   2.084   3.080   4.931  0.0380  0.0456  0.1589
 7507SOL    HW233981   2.061   3.116   4.790 -0.2032 -1.0452 -1.0116
 7508SOL     OW33982   0.275   4.712   7.551  0.2770  0.2666  0.0752
 7508SOL    HW133983   0.262   4.655   7.626 -0.2212 -0.7783 -0.8094
 7508SOL    HW233984   0.370   0.001   7.562  0.3736  0.9419 -1.2968
 7509SOL     OW33985   3.599   2.697  16.991  0.0153  0.6980  0.0497
 7509SOL    HW133986   3.516   2.726  17.030  0.4557 -1.6932  2.7257
 7509SOL    HW233987   3.628   2.659  17.073 -2.2652 -2.0629 -0.4466
 7510SOL     OW33988   0.555   1.211   5.033 -0.0638 -0.3127 -0.7284
 7510SOL    HW133989   0.571   1.217   4.938 -0.9735 -0.1775 -0.8684
 7510SOL    HW233990   0.532   1.120   5.052 -1.1030  0.3492  1.1207
 7511SOL     OW33991   3.594   0.445   3.079 -0.0914 -0.8753  0.0699
 7511SOL    HW133992   3.648   0.523   3.095  1.6585 -1.9723 -0.3951
 7511SOL    HW233993   3.508   0.483   3.098  0.5087  0.2449  0.5731
 7512SOL     OW33994   2.901   1.000   0.878  0.7789  0.3125  0.0425
 7512SOL    HW133995   2.811   1.034   0.883  0.8515  0.2952  1.4053
 7512SOL    HW233996   2.910   0.953   0.960  0.1039 -0.5111 -0.3636
 7513SOL     OW33997   3.762   0.207   3.079 -1.1411 -0.4617  0.9879
 7513SOL    HW133998   3.726   0.273   3.138  0.7725  2.2119 -0.8624
 7513SOL    HW233999   3.756   0.260   3.000 -1.7949 -0.8036  0.8077
 7514SOL     OW34000   0.564   2.690   7.785 -0.1239  0.3410  0.4581
 7514SOL    HW134001   0.629   2.724   7.847 -0.6238 -1.5198  1.9952
 7514SOL    HW234002   0.497   2.650   7.840 -0.4523 -0.7826 -0.7770
 7515SOL     OW34003   0.544   3.774  13.809  0.0870  0.0460  0.6204
 7515SOL    HW134004   0.579   3.773  13.720 -0.4649  1.1342  0.3979
 7515SOL    HW234005   0.622   3.780  13.865  0.7391  1.5128 -0.4345
 7516SOL     OW34006   1.229   1.389   7.687  0.7613  0.5423 -0.0465
 7516SOL    HW134007   1.175   1.339   7.626  0.0374  1.4740 -0.1713
 7516SOL    HW234008   1.189   1.475   7.674  1.3058  0.7429 -0.3918
 7517SOL     OW34009   3.858   4.204   7.533  0.1509  1.2950  0.3136
 7517SOL    HW134010   3.843   4.293   7.501  0.1960  0.7826 -1.1309
 7517SOL    HW234011   3.859   4.221   7.627 -0.0640  1.1053  0.3489
 7518SOL     OW34012   0.242   1.483   0.420  0.0986 -0.5277 -0.1652
 7518SOL    HW134013   0.296   1.514   0.348  0.4662 -0.3472  0.1878
 7518SOL    HW234014   0.272   1.540   0.491  1.7285 -0.0572 -1.2401
 7519SOL     OW34015   2.313   4.355   5.324 -0.0309 -0.0818 -0.1870
 7519SOL    HW134016   2.279   4.312   5.402  1.2927 -0.1077  0.3697
 7519SOL    HW234017   2.236   4.408   5.302  1.1529  1.8972  0.5083
 7520SOL     OW34018   2.322   3.138  11.794  0.0291  0.2705  0.4195
 7520SOL    HW134019   2.251   3.089  11.753 -0.9192  2.2071 -0.2576
 7520SOL    HW234020   2.275   3.222  11.794  0.5993  0.5974  1.2694
 7521SOL     OW34021   3.239   4.625   7.863 -0.0351 -0.6935  0.3559
 7521SOL    HW134022   3.187   4.564   7.915 -0.0527  0.2834  1.4808
 7521SOL    HW234023   3.196   4.708   7.885 -0.7668 -1.3041  1.2291
 7522SOL     OW34024   3.988   1.116  16.299 -0.7189 -0.1550  0.9030
 7522SOL    HW134025   3.995   1.211  16.297 -0.0943 -0.2518 -2.0703
 7522SOL    HW234026   4.080   1.099  16.322 -0.4397  1.0354  0.6329
 7523SOL     OW34027   3.679   4.483  11.421 -0.4069 -0.1261 -0.4728
 7523SOL    HW134028   3.671   4.546  11.492 -1.2566 -0.1207 -0.5739
 7523SOL    HW234029   3.770   4.455  11.438  0.2727  0.3272 -3.3682
 7524SOL     OW34030   4.015   2.874  13.443  0.1035 -0.0456  0.2719
 7524SOL    HW134031   4.062   2.867  13.359 -1.8131 -2.0807 -0.6460
 7524SOL    HW234032   3.937   2.823  13.420 -2.1767  2.7902  1.8540
 7525SOL     OW34033   1.085   3.457   7.600  0.0208  0.0560  0.0948
 7525SOL    HW134034   1.023   3.386   7.609 -2.1312  1.8735 -0.4866
 7525SOL    HW234035   1.118   3.466   7.690 -1.4137 -0.9690  0.7025
 7526SOL     OW34036   2.309   3.123   2.463  0.0699  0.5049 -0.2430
 7526SOL    HW134037   2.230   3.164   2.426 -0.2360  0.5756  0.4919
 7526SOL    HW234038   2.288   3.033   2.438  0.3766  0.6178 -0.9158
 7527SOL     OW34039   4.145   0.991   6.663 -0.4881  0.4279 -0.0768
 7527SOL    HW134040   4.193   0.938   6.726 -1.5369 -0.7138 -0.2317
 7527SOL    HW234041   4.173   1.082   6.666 -0.2264  0.2440  2.8502
 7528SOL     OW34042   3.830   3.798   6.046 -0.5782 -0.2050 -0.2799
 7528SOL    HW134043   3.894   3.743   6.000 -0.3257 -0.8603  0.8373
 7528SOL    HW234044   3.794   3.737   6.111  3.3655  0.9569  2.9464
 7529SOL     OW34045   3.135   0.430   7.486 -0.1424  0.2243  0.3187
 7529SOL    HW134046   3.100   0.381   7.412  0.9277  0.0112 -0.0355
 7529SOL    HW234047   3.185   0.499   7.442  2.4980 -0.9910  1.4467
 7530SOL     OW34048   2.322   1.309   5.002  0.7152  0.4188  0.7796
 7530SOL    HW134049   2.381   1.287   4.929 -0.1198  1.0240 -0.0622
 7530SOL    HW234050   2.378   1.296   5.079 -1.5957 -0.6984  2.2779
 7531SOL     OW34051   3.455   1.054   1.362 -0.1535  0.1516 -0.4023
 7531SOL    HW134052   3.435   0.961   1.371 -0.4929  0.1457 -1.1279
 7531SOL    HW234053   3.363   1.077   1.347 -0.6233 -2.3223 -1.4639
 7532SOL     OW34054   4.669   4.345   4.875  0.2654  0.2285 -0.0159
 7532SOL    HW134055   4.615   4.268   4.857  1.0750 -0.6326  1.2423
 7532SOL    HW234056   4.592   4.401   4.885 -1.2976 -1.8206 -0.5190
 7533SOL     OW34057   2.400   1.004   3.381  0.5702 -0.1121 -0.6071
 7533SOL    HW134058   2.469   0.938   3.369  0.0724 -0.7208 -0.0792
 7533SOL    HW234059   2.365   0.973   3.464  0.7368  1.1450 -0.0686
 7534SOL     OW34060   1.011   2.195   9.090  0.1931 -0.2262  0.0311
 7534SOL    HW134061   1.073   2.129   9.058  0.2458 -0.0549 -0.2127
 7534SOL    HW234062   0.931   2.160   9.050  0.2816  2.4903 -2.4722
 7535SOL     OW34063   3.860   3.968   1.281 -1.1378  0.7430  0.3202
 7535SOL    HW134064   3.866   3.972   1.186 -1.5918  0.4544  0.2798
 7535SOL    HW234065   3.789   3.908   1.305 -0.2833 -1.4129 -2.6255
 7536SOL     OW34066   0.381   3.368   2.333 -0.8595 -0.3954  0.2652
 7536SOL    HW134067   0.302   3.325   2.300 -0.5109  0.1805 -1.3349
 7536SOL    HW234068   0.350   3.440   2.387  0.1171  0.6017 -0.5229
 7537SOL     OW34069   2.280   2.107   2.778 -0.6318 -0.4416  0.6918
 7537SOL    HW134070   2.332   2.069   2.708  1.0960  1.5213  0.9364
 7537SOL    HW234071   2.202   2.135   2.731 -0.2491 -2.2177 -0.9859
 7538SOL     OW34072   1.452   2.500   9.072 -0.3527  0.1555 -0.4992
 7538SOL    HW134073   1.493   2.445   9.139 -0.7576  1.5435  0.8773
 7538SOL    HW234074   1.528   2.510   9.014  0.4008  0.1574  0.4905
 7539SOL     OW34075   0.353   0.897   6.638  0.3756  0.2179 -0.4919
 7539SOL    HW134076   0.263   0.923   6.618  0.3680  0.0947 -0.6133
 7539SOL    HW234077   0.365   0.972   6.698 -0.2325  0.5885 -0.8387
 7540SOL     OW34078   3.423   0.110  14.844  0.3503  0.0886 -0.1289
 7540SOL    HW134079   3.408   0.128  14.937 -3.9988  1.4769 -1.1039
 7540SOL    HW234080   3.417   0.014  14.842  2.1003  0.0144 -2.2941
 7541SOL     OW34081   2.370   0.316  11.732 -0.5444 -0.0649  0.3070
 7541SOL    HW134082   2.340   0.292  11.644  0.8592 -1.6762  0.2602
 7541SOL    HW234083   2.444   0.255  11.740  0.6738  1.4717  0.7840
 7542SOL     OW34084   1.740   1.600   7.489  0.3087 -0.1186  0.2122
 7542SOL    HW134085   1.743   1.689   7.452  0.1813 -0.6507 -1.0787
 7542SOL    HW234086   1.656   1.601   7.536  0.4661  0.1405  0.4889
 7543SOL     OW34087   2.714   2.948  15.192  0.8590 -0.0538 -0.1977
 7543SOL    HW134088   2.620   2.936  15.206  0.3930 -0.1691 -3.6091
 7543SOL    HW234089   2.713   2.974  15.100 -0.2261 -1.9051 -0.7160
 7544SOL     OW34090   2.242   3.015   7.874 -0.0783  0.2460  0.0087
 7544SOL    HW134091   2.175   2.967   7.923  1.2186 -0.5074  1.0109
 7544SOL    HW234092   2.315   2.957   7.892 -0.1826  0.0631 -0.1580
 7545SOL     OW34093   0.309   2.573  16.168 -0.0496  0.0112 -0.1388
 7545SOL    HW134094   0.267   2.492  16.141 -2.5371  0.7641  1.5285
 7545SOL    HW234095   0.244   2.605  16.230 -0.5401  0.3435 -0.8180
 7546SOL     OW34096   4.267   2.065   7.743 -0.3693 -0.5643 -0.2907
 7546SOL    HW134097   4.249   2.005   7.816 -0.2618 -0.0381  0.1663
 7546SOL    HW234098   4.275   2.149   7.788 -0.2215 -0.6018 -0.2450
 7547SOL     OW34099   0.284   1.547   8.006  0.3084  0.0356  0.7228
 7547SOL    HW134100   0.253   1.626   8.051 -0.2302 -0.7008  1.6685
 7547SOL    HW234101   0.278   1.491   8.084 -0.0254  1.1113  1.4748
 7548SOL     OW34102   1.741   3.167   5.090  0.6219  0.5600 -0.1103
 7548SOL    HW134103   1.791   3.142   5.167  2.3345 -0.1775 -1.4492
 7548SOL    HW234104   1.694   3.245   5.122  1.1581  1.9204 -2.6318
 7549SOL     OW34105   4.346   0.935   3.805  0.4886  0.0338  0.2508
 7549SOL    HW134106   4.392   0.961   3.726  2.1089 -4.3767 -0.2680
 7549SOL    HW234107   4.304   0.855   3.772 -0.9378  1.0962 -0.5001
 7550SOL     OW34108   0.353   3.626   4.710 -0.0164  0.2019  0.4186
 7550SOL    HW134109   0.271   3.600   4.669  0.5552  0.8493 -1.1411
 7550SOL    HW234110   0.418   3.610   4.641 -2.0006  0.6898 -1.5610
 7551SOL     OW34111   0.433   3.219  11.074  0.2939 -0.0757  0.1696
 7551SOL    HW134112   0.483   3.165  11.012 -3.0920 -3.9549  0.8468
 7551SOL    HW234113   0.351   3.226  11.025  1.0359  0.5647 -0.9919
 7552SOL     OW34114   4.149   4.124  14.668 -0.3780  0.5294 -0.1506
 7552SOL    HW134115   4.145   4.048  14.610 -2.9253  0.6621 -0.1457
 7552SOL    HW234116   4.062   4.126  14.706 -0.0151  3.2589  0.5584
 7553SOL     OW34117   1.181   3.546   7.349 -0.1440 -0.0203 -0.0058
 7553SOL    HW134118   1.110   3.598   7.312  1.1380  0.2945 -2.0499
 7553SOL    HW234119   1.164   3.537   7.442 -3.2579 -3.3665 -0.9192
 7554SOL     OW34120   4.539   4.534  12.588 -0.0364  0.0028 -0.0602
 7554SOL    HW134121   4.463   4.576  12.547 -0.1628  0.9534  1.1451
 7554SOL    HW234122   4.604   4.577  12.533  1.5304 -1.9141  0.3026
 7555SOL     OW34123   1.621   0.257   3.817  0.1459  0.4421 -0.3843
 7555SOL    HW134124   1.615   0.236   3.910 -1.0317  1.4227 -0.2405
 7555SOL    HW234125   1.695   0.209   3.781  0.2247  0.8013 -0.6955
 7556SOL     OW34126   1.957   2.281   4.580  0.1671  1.0553 -0.2423
 7556SOL    HW134127   1.921   2.354   4.529  0.2517  0.9052 -0.5131
 7556SOL    HW234128   1.948   2.211   4.516 -1.5018  0.8453  0.2301
 7557SOL     OW34129   1.435   3.973   7.075  0.0603 -0.1475  0.0655
 7557SOL    HW134130   1.518   3.977   7.122 -0.9186 -3.4708  2.0810
 7557SOL    HW234131   1.465   3.978   6.984 -1.6714 -0.5734 -0.5182
 7558SOL     OW34132   2.252   2.668  13.792 -0.1820  0.0936  0.2375
 7558SOL    HW134133   2.275   2.672  13.700 -0.0483 -0.0848  0.2633
 7558SOL    HW234134   2.283   2.580  13.814  1.6017  0.6284 -0.2064
 7559SOL     OW34135   0.389   3.863   1.319 -0.3772 -0.5604  0.5447
 7559SOL    HW134136   0.387   3.768   1.303 -3.0318 -0.2289 -1.0635
 7559SOL    HW234137   0.447   3.883   1.245  1.3529  2.7960  2.8321
 7560SOL     OW34138   1.035   1.160   7.825 -0.0289 -0.3315  1.4600
 7560SOL    HW134139   1.074   1.233   7.873 -0.4384  2.1498 -1.9526
 7560SOL    HW234140   1.064   1.181   7.736 -0.3319  0.5326  1.5662
 7561SOL     OW34141   3.813   1.857   8.481 -0.7856  0.1138 -0.6032
 7561SOL    HW134142   3.775   1.861   8.569  0.9582  0.8044  0.1192
 7561SOL    HW234143   3.786   1.935   8.434 -1.0187  0.6674  0.4597
 7562SOL     OW34144   3.840   0.752  14.058 -0.0830  0.1315 -0.2610
 7562SOL    HW134145   3.818   0.838  14.022 -1.4651 -0.0541  0.1661
 7562SOL    HW234146   3.766   0.700  14.026  0.7575 -0.4666 -1.2499
 7563SOL     OW34147   2.935   0.600  14.759  0.2869  0.1242  0.2170
 7563SOL    HW134148   3.017   0.646  14.743 -0.8130  2.2803  0.6982
 7563SOL    HW234149   2.934   0.598  14.855  1.6485 -0.9855  0.1978
 7564SOL     OW34150   3.994   0.721   3.032  0.4986 -0.2332 -0.9489
 7564SOL    HW134151   3.945   0.763   2.961 -1.0434  1.7750  1.2902
 7564SOL    HW234152   4.076   0.769   3.040  1.4894 -1.8751 -1.2155
 7565SOL     OW34153   0.718   0.119   4.495  0.3902 -0.0908  0.2486
 7565SOL    HW134154   0.670   0.148   4.417  0.8878  1.0268  0.3736
 7565SOL    HW234155   0.740   0.030   4.465 -1.4269 -0.5006  0.1349
 7566SOL     OW34156   2.888   0.237   8.993 -1.0643 -0.8314 -0.3295
 7566SOL    HW134157   2.825   0.259   8.925 -0.7651  0.2610 -0.2505
 7566SOL    HW234158   2.844   0.175   9.052 -1.7250  0.7013  0.8033
 7567SOL     OW34159   4.251   4.622   2.516 -0.1146  0.6288  0.2448
 7567SOL    HW134160   4.330   4.597   2.469 -0.1349  2.7469 -0.9500
 7567SOL    HW234161   4.205   4.664   2.442  0.1816  2.2218  0.9550
 7568SOL     OW34162   1.156   4.508  16.993 -0.6853  0.0986 -0.1643
 7568SOL    HW134163   1.068   4.472  16.988  1.2113 -4.5206 -0.1208
 7568SOL    HW234164   1.208   4.437  16.956 -0.8317  0.2220 -0.6022
 7569SOL     OW34165   2.006   3.702  12.605 -0.1546  0.1431  0.6510
 7569SOL    HW134166   2.064   3.648  12.660  3.0143  0.6100 -2.2148
 7569SOL    HW234167   1.970   3.644  12.538  2.9687  0.9059 -1.7166
 7570SOL     OW34168   1.310   3.176   5.299  0.1559  0.1250  0.0638
 7570SOL    HW134169   1.258   3.156   5.377 -0.0063 -0.4024 -0.1829
 7570SOL    HW234170   1.392   3.204   5.339 -0.7388  0.7275  1.4955
 7571SOL     OW34171   1.251   4.054   5.157  0.0612  0.3217 -0.0076
 7571SOL    HW134172   1.189   4.124   5.175 -0.0118  0.2484  0.0270
 7571SOL    HW234173   1.324   4.109   5.130 -0.3339  1.5385  1.4258
 7572SOL     OW34174   2.996   1.142   2.745 -0.2174 -0.2394  0.4871
 7572SOL    HW134175   3.024   1.065   2.696 -0.5660 -0.0794  0.0391
 7572SOL    HW234176   3.075   1.150   2.799  1.6641  1.9190 -2.5917
 7573SOL     OW34177   3.689   2.981   7.614 -0.0172 -0.3399 -0.4527
 7573SOL    HW134178   3.665   2.932   7.535 -1.1792  0.6055 -0.6913
 7573SOL    HW234179   3.606   3.019   7.645  0.5027 -0.4253  1.0621
 7574SOL     OW34180   0.443   3.535   2.904  0.7322  0.1331 -0.0134
 7574SOL    HW134181   0.395   3.592   2.964 -0.9292 -2.9100  1.5962
 7574SOL    HW234182   0.383   3.515   2.832  0.7477  1.1903 -0.3119
 7575SOL     OW34183   1.951   1.505   0.620 -0.3653  0.2493 -0.3119
 7575SOL    HW134184   1.943   1.505   0.716  2.5977 -1.9480 -0.0534
 7575SOL    HW234185   1.965   1.414   0.597 -0.3471  0.4255 -0.9798
 7576SOL     OW34186   0.474   1.870   1.806  0.0889  0.1321  0.1099
 7576SOL    HW134187   0.429   1.902   1.728 -1.0909  0.0791  0.7603
 7576SOL    HW234188   0.547   1.823   1.767  0.0034 -0.9391  1.2190
 7577SOL     OW34189   4.576   1.207   5.513 -0.4874  0.2090 -0.0926
 7577SOL    HW134190   4.547   1.237   5.427  0.8565  1.1334 -0.2178
 7577SOL    HW234191   4.544   1.118   5.498 -0.7798  0.4242 -0.7173
 7578SOL     OW34192   1.493   4.612  16.519  0.0818  0.0671  0.0548
 7578SOL    HW134193   1.452   4.607  16.605 -0.1580  0.5925 -0.0276
 7578SOL    HW234194   1.537   4.529  16.505  0.1631  0.1054  0.0843
 7579SOL     OW34195   0.216   2.180   6.249 -0.5154 -0.4048  0.0001
 7579SOL    HW134196   0.251   2.105   6.298 -0.1572 -0.8318 -0.9143
 7579SOL    HW234197   0.210   2.239   6.324  0.9561 -1.8010  1.2261
 7580SOL     OW34198   2.761   0.575   7.885 -0.2506 -0.4833  0.0007
 7580SOL    HW134199   2.748   0.586   7.979  1.0399 -0.2587  0.1631
 7580SOL    HW234200   2.673   0.598   7.857 -0.3502  0.7725  1.3638
 7581SOL     OW34201   1.436   3.332   3.748 -0.6981 -0.5064 -0.9022
 7581SOL    HW134202   1.409   3.240   3.753  0.6321 -0.7531  2.4245
 7581SOL    HW234203   1.370   3.381   3.798 -0.3510 -0.0881 -0.8575
 7582SOL     OW34204   3.454   1.288   5.113 -0.0749 -0.6357 -0.2245
 7582SOL    HW134205   3.548   1.302   5.122 -0.3791  0.6969  0.8985
 7582SOL    HW234206   3.416   1.365   5.156 -0.8092 -0.6409 -0.8611
 7583SOL     OW34207   1.686   2.749   5.371  0.0636 -0.6570  0.2014
 7583SOL    HW134208   1.661   2.840   5.385 -1.1120 -1.0002  0.3121
 7583SOL    HW234209   1.662   2.726   5.282  0.0057  1.6962 -0.3856
 7584SOL     OW34210   1.119   2.461   6.169 -0.0726  0.0460  0.6864
 7584SOL    HW134211   1.150   2.546   6.200  0.6746  0.1984 -0.4779
 7584SOL    HW234212   1.160   2.410   6.240  0.5246 -1.6095 -0.8394
 7585SOL     OW34213   1.746   0.584   8.274 -0.0150 -0.1934 -0.3714
 7585SOL    HW134214   1.737   0.648   8.345  1.7387  2.0146 -2.1435
 7585SOL    HW234215   1.668   0.608   8.226  1.2775  3.9334 -0.3433
 7586SOL     OW34216   4.176   0.415  13.028 -0.1125 -0.3109 -0.4460
 7586SOL    HW134217   4.249   0.358  13.052 -0.6579 -1.1440 -0.7729
 7586SOL    HW234218   4.115   0.407  13.101 -2.6062  3.6146 -2.0971
 7587SOL     OW34219   3.380   3.041   2.671  0.0832 -0.5296 -0.1745
 7587SOL    HW134220   3.402   3.119   2.722 -0.4464 -1.0578  0.8552
 7587SOL    HW234221   3.329   2.998   2.739  1.2942 -1.4766  0.1258
 7588SOL     OW34222   1.609   0.348   2.261  0.0562 -0.0847 -0.0822
 7588SOL    HW134223   1.649   0.410   2.322  0.7652  0.1886 -0.8110
 7588SOL    HW234224   1.623   0.399   2.181 -0.5598  0.8751  0.4194
 7589SOL     OW34225   2.723   2.220   6.304 -0.3489  0.1469 -0.4881
 7589SOL    HW134226   2.638   2.235   6.345 -0.0005 -1.0509  0.6713
 7589SOL    HW234227   2.723   2.300   6.252  0.7139  0.0779 -0.5973
 7590SOL     OW34228   3.396   2.240   0.561 -0.4814  0.2219  1.0960
 7590SOL    HW134229   3.477   2.273   0.600  0.1243 -1.0581  0.9572
 7590SOL    HW234230   3.431   2.165   0.512 -1.8168  0.9375 -0.9755
 7591SOL     OW34231   2.156   1.333   2.100 -0.1745 -0.2626 -0.0392
 7591SOL    HW134232   2.126   1.264   2.040  2.7886 -1.1328 -0.4864
 7591SOL    HW234233   2.209   1.300   2.172  0.2173 -0.9646 -0.6519
 7592SOL     OW34234   1.755   2.895  10.694 -0.3303  0.1194  0.3192
 7592SOL    HW134235   1.728   2.986  10.684 -2.2316 -0.6083 -1.1269
 7592SOL    HW234236   1.800   2.873  10.612  2.1912  1.6741  1.3174
 7593SOL     OW34237   4.115   4.536   5.434 -0.3091  0.4373 -0.9946
 7593SOL    HW134238   4.186   4.484   5.396  0.6855  0.0553  1.3694
 7593SOL    HW234239   4.105   4.482   5.512  0.8904  3.2268  1.0738
 7594SOL     OW34240   0.468   1.467  17.306  0.0469 -0.0008  0.2214
 7594SOL    HW134241   0.561   1.488  17.304 -0.9832  4.5797  0.3320
 7594SOL    HW234242   0.480   1.378  17.339  3.0456 -0.1611 -1.3540
 7595SOL     OW34243   0.594   1.228   2.200 -0.1028 -0.0517 -0.4620
 7595SOL    HW134244   0.548   1.303   2.163  0.9666  1.0656  0.5023
 7595SOL    HW234245   0.593   1.256   2.291 -1.4310 -0.4563 -0.3547
 7596SOL     OW34246   3.721   0.560   6.529 -0.7041  0.3336 -0.7102
 7596SOL    HW134247   3.690   0.591   6.614 -0.2916 -0.8619 -0.1247
 7596SOL    HW234248   3.710   0.642   6.480 -0.7940  0.2701 -0.7970
 7597SOL     OW34249   2.051   0.738   2.739 -0.1530 -0.2013  0.4480
 7597SOL    HW134250   2.141   0.754   2.766 -0.1747  0.2545  0.2550
 7597SOL    HW234251   2.002   0.765   2.817 -0.1474  0.0098  0.3789
 7598SOL     OW34252   1.372   4.284   3.030  0.4468 -0.6314  0.0827
 7598SOL    HW134253   1.390   4.375   3.054 -2.7440 -0.1742  0.8483
 7598SOL    HW234254   1.308   4.295   2.959 -0.2347  0.1685  0.8117
 7599SOL     OW34255   3.871   3.792   6.407  0.4467  0.4342 -0.1331
 7599SOL    HW134256   3.966   3.786   6.411  0.4606  0.6596 -0.1311
 7599SOL    HW234257   3.845   3.797   6.500 -0.0584 -1.0738 -0.1961
 7600SOL     OW34258   3.207   2.553   5.816  0.5003 -0.2674  0.6355
 7600SOL    HW134259   3.159   2.602   5.883 -0.0353  0.7765 -0.5090
 7600SOL    HW234260   3.130   2.528   5.765  0.1602  1.1209  0.4722
 7601SOL     OW34261   3.247   0.216   5.453  0.0317  0.1965 -0.1595
 7601SOL    HW134262   3.212   0.305   5.454  1.4288  0.7452 -0.3337
 7601SOL    HW234263   3.177   0.161   5.416 -0.2603 -0.9167  2.0756
 7602SOL     OW34264   2.094   2.929   8.974  0.0492  0.0576  0.5184
 7602SOL    HW134265   2.134   3.009   9.007  0.5023 -0.1506  0.4690
 7602SOL    HW234266   2.050   2.959   8.894  1.4015 -0.5580 -0.4499
 7603SOL     OW34267   4.260   1.587   3.785 -0.2207 -0.0142  0.1637
 7603SOL    HW134268   4.190   1.648   3.810 -1.3519  0.5147 -4.3031
 7603SOL    HW234269   4.328   1.644   3.748 -0.9127 -0.3678 -1.6469
 7604SOL     OW34270   4.228   3.336   7.057 -0.3828  0.4181 -0.0581
 7604SOL    HW134271   4.289   3.288   7.002 -0.8771  1.2876 -1.3460
 7604SOL    HW234272   4.165   3.361   6.991 -0.6658  0.0067  0.0557
 7605SOL     OW34273   3.672   4.639  17.563  0.3506  0.7376 -0.1585
 7605SOL    HW134274   3.626   4.660  17.645  1.2917  0.2530  0.4939
 7605SOL    HW234275   3.616   4.563  17.543  0.0574  1.3594 -1.6406
 7606SOL     OW34276   3.185   2.755   2.469  0.0014 -0.0427 -0.0718
 7606SOL    HW134277   3.275   2.781   2.453 -0.0329  2.9302  4.6601
 7606SOL    HW234278   3.188   2.690   2.539 -1.0206 -1.1878 -1.0768
 7607SOL     OW34279   1.310   2.500   6.946  0.0427  0.2185 -0.2554
 7607SOL    HW134280   1.224   2.465   6.972 -0.4196  0.1110 -1.8739
 7607SOL    HW234281   1.289   2.531   6.858 -1.4491  0.2667  0.1070
 7608SOL     OW34282   2.805   0.373   5.068  0.5816  0.1688  0.2386
 7608SOL    HW134283   2.861   0.367   4.990 -1.0645 -1.7602 -0.7924
 7608SOL    HW234284   2.862   0.363   5.144 -0.1154  1.9167  0.9899
 7609SOL     OW34285   2.886   3.925  16.313 -0.1944  0.1980 -0.7419
 7609SOL    HW134286   2.949   3.988  16.349  1.4888 -2.5247  1.0059
 7609SOL    HW234287   2.903   3.847  16.365  2.9501  0.9138 -0.6915
 7610SOL     OW34288   4.285   4.131   8.034 -0.2706 -0.2379  0.8552
 7610SOL    HW134289   4.273   4.075   7.958  0.3251  0.4886  0.2228
 7610SOL    HW234290   4.204   4.117   8.083 -0.3599 -0.1149  0.7438
 7611SOL     OW34291   1.538   1.266   6.623  0.3048 -0.5291 -0.1738
 7611SOL    HW134292   1.445   1.287   6.628  0.5592 -0.4566  3.8489
 7611SOL    HW234293   1.555   1.252   6.530 -2.2289  0.3120 -0.7650
 7612SOL     OW34294   4.003   0.477   6.167 -0.1125 -0.2783  0.6198
 7612SOL    HW134295   3.955   0.431   6.236  0.8564 -2.7748 -0.3574
 7612SOL    HW234296   4.094   0.461   6.194 -0.4727 -1.1368  1.3170
 7613SOL     OW34297   3.659   2.255   6.502 -0.2965 -0.4102 -0.0779
 7613SOL    HW134298   3.649   2.285   6.592  2.0560 -1.1327  0.4012
 7613SOL    HW234299   3.747   2.220   6.505  0.9370  2.5175 -1.5320
 7614SOL     OW34300   3.124   2.360   4.649 -0.1180  0.1088 -0.0057
 7614SOL    HW134301   3.198   2.317   4.604  2.3423  2.1809  2.0932
 7614SOL    HW234302   3.171   2.426   4.700 -1.0258  1.2661 -0.6791
 7615SOL     OW34303   4.136   1.937   4.773  0.5326  0.3465 -0.0090
 7615SOL    HW134304   4.163   1.852   4.739 -0.2549 -0.0046  0.2305
 7615SOL    HW234305   4.209   1.976   4.821  0.1403  2.1299 -0.8595
 7616SOL     OW34306   4.234   1.863   0.527 -0.3022 -0.0450  0.4405
 7616SOL    HW134307   4.222   1.952   0.494 -1.1603  0.1563  1.3099
 7616SOL    HW234308   4.224   1.871   0.622 -1.2953  3.1476  0.0661
 7617SOL     OW34309   0.093   1.139   4.896  0.7256  0.1973 -0.6955
 7617SOL    HW134310   0.151   1.080   4.848  1.2169 -0.9702  1.3342
 7617SOL    HW234311   0.017   1.138   4.838 -0.2894  0.4996  0.6158
 7618SOL     OW34312   3.122   3.875   7.773  0.1347 -0.1638  0.0316
 7618SOL    HW134313   3.170   3.888   7.855  2.0577 -0.2944 -1.0768
 7618SOL    HW234314   3.064   3.803   7.796 -1.2525  0.7618 -0.5522
 7619SOL     OW34315   3.285   0.700   1.012 -0.5171 -0.7810  0.2090
 7619SOL    HW134316   3.374   0.737   1.012 -0.5740 -0.6512 -0.0736
 7619SOL    HW234317   3.273   0.679   1.105 -1.3741  0.6943  0.4225
 7620SOL     OW34318   2.937   0.222   4.658  0.0740 -0.3620  0.3557
 7620SOL    HW134319   3.018   0.172   4.645 -0.5842 -1.1159 -0.8805
 7620SOL    HW234320   2.885   0.160   4.709 -2.1827  1.3889  0.1865
 7621SOL     OW34321   3.034   2.334  11.543 -0.2181  0.2501 -0.2087
 7621SOL    HW134322   3.126   2.328  11.568 -0.7222 -1.3706  1.2075
 7621SOL    HW234323   3.039   2.341  11.447  1.1830  0.4970 -0.1201
 7622SOL     OW34324   0.428   0.973   2.001 -0.3461 -0.0377  0.8747
 7622SOL    HW134325   0.392   1.059   1.978 -0.6768 -0.5554 -0.5447
 7622SOL    HW234326   0.477   0.948   1.923 -1.3439 -1.6467  0.7570
 7623SOL     OW34327   4.384   4.586   3.883  0.2515  0.7296  0.3167
 7623SOL    HW134328   4.400   4.495   3.858 -0.7308  0.7099 -0.2624
 7623SOL    HW234329   4.473   4.616   3.869  0.0261  1.8710  1.2631
 7624SOL     OW34330   4.464   4.529   2.355  0.6958 -0.1850  0.0205
 7624SOL    HW134331   4.498   4.535   2.444 -0.2231  2.3663  0.2048
 7624SOL    HW234332   4.479   4.434   2.352  0.6423 -0.1712 -0.6215
 7625SOL     OW34333   3.088   2.937   3.175  0.0595  0.0756  0.1969
 7625SOL    HW134334   3.014   2.893   3.216  0.9951 -1.9341 -0.2735
 7625SOL    HW234335   3.060   2.942   3.083  1.1697  0.0771 -0.1414
 7626SOL     OW34336   2.569   3.737   7.247  0.3016 -0.0632 -1.2012
 7626SOL    HW134337   2.595   3.737   7.339 -0.1373  0.4236 -1.0774
 7626SOL    HW234338   2.577   3.642   7.245  0.3447 -0.1212  1.7027
 7627SOL     OW34339   0.212   2.859   6.507 -0.6270 -0.0642 -0.6723
 7627SOL    HW134340   0.270   2.821   6.573 -1.5310  1.4926  1.0322
 7627SOL    HW234341   0.133   2.883   6.555  0.4153  1.0631  0.4763
 7628SOL     OW34342   3.248   3.632   7.196 -0.2351 -0.1898 -0.1610
 7628SOL    HW134343   3.232   3.643   7.290 -0.8717  1.6137 -0.4781
 7628SOL    HW234344   3.203   3.711   7.163  1.1743  0.8226  0.3596
 7629SOL     OW34345   0.240   0.396   8.986 -0.1166  0.1488  0.0540
 7629SOL    HW134346   0.272   0.404   8.896 -0.4948 -1.4823 -0.2344
 7629SOL    HW234347   0.153   0.433   8.976  0.7371  2.2253  0.2927
 7630SOL     OW34348   4.162   3.066   6.372  0.3486 -0.4166 -0.0354
 7630SOL    HW134349   4.240   3.083   6.426 -1.6041  0.3076  2.5785
 7630SOL    HW234350   4.140   3.157   6.354  3.2701  0.4359  0.6012
 7631SOL     OW34351   3.481   4.572  14.908  0.9073  0.1045  0.3851
 7631SOL    HW134352   3.419   4.516  14.956  1.1284 -0.7208 -0.2909
 7631SOL    HW234353   3.559   4.518  14.922  0.3225 -0.8741 -0.0478
 7632SOL     OW34354   4.589   3.602   2.581  0.9593 -0.6079 -0.0808
 7632SOL    HW134355   4.644   3.680   2.587  0.2634 -0.1414  0.3023
 7632SOL    HW234356   4.566   3.594   2.488  1.5731  3.2378 -0.5674
 7633SOL     OW34357   4.063   2.319   5.804 -0.3528  0.1271 -0.4312
 7633SOL    HW134358   4.050   2.227   5.827 -1.7645  0.9074  1.8618
 7633SOL    HW234359   4.087   2.352   5.891  0.8403 -0.0581 -0.6936
 7634SOL     OW34360   1.362   0.333  14.616 -0.0156  0.2314  0.2776
 7634SOL    HW134361   1.387   0.424  14.632  0.3693  0.5701 -2.1928
 7634SOL    HW234362   1.430   0.315  14.551 -0.6283  1.4625 -0.7076
 7635SOL     OW34363   0.461   0.636   3.720  0.5485 -0.1874  0.5013
 7635SOL    HW134364   0.388   0.655   3.777  0.5861 -0.7157  0.7262
 7635SOL    HW234365   0.523   0.709   3.717 -0.9179  1.1443  3.7986
 7636SOL     OW34366   4.247   1.079   2.805  0.1624 -0.1646  0.7872
 7636SOL    HW134367   4.288   1.147   2.752  0.5260 -0.2287  0.9849
 7636SOL    HW234368   4.185   1.129   2.858  0.7775  0.9699  0.4287
 7637SOL     OW34369   0.083   0.597   4.828  0.6646  0.0886 -0.7372
 7637SOL    HW134370   0.150   0.529   4.831  1.1095  0.5988  1.2803
 7637SOL    HW234371   0.040   0.576   4.911 -0.1297  2.0579 -0.6456
 7638SOL     OW34372   2.445   3.141   8.560 -0.1802 -0.1731  0.2130
 7638SOL    HW134373   2.531   3.162   8.595 -0.8577 -0.4268  2.0375
 7638SOL    HW234374   2.431   3.226   8.518  2.0271 -0.1008 -0.3386
 7639SOL     OW34375   2.710   2.323   3.920 -0.0635 -0.6996 -0.9570
 7639SOL    HW134376   2.623   2.286   3.906  0.0710 -1.0003 -0.9988
 7639SOL    HW234377   2.760   2.246   3.948  0.3392 -0.0040  0.2211
 7640SOL     OW34378   3.708   0.970   1.273 -0.0379  0.1660  0.3248
 7640SOL    HW134379   3.617   1.000   1.281  0.4830  1.6793  0.6111
 7640SOL    HW234380   3.708   0.917   1.194  1.3815 -0.2756  0.6313
 7641SOL     OW34381   0.431   0.230  10.427 -0.1353  0.4294 -0.6134
 7641SOL    HW134382   0.501   0.270  10.478 -1.0730  1.3658 -0.0789
 7641SOL    HW234383   0.364   0.253  10.492  0.9715  0.4628  0.5098
 7642SOL     OW34384   2.799   1.780   2.584  0.4441  0.8366  0.0660
 7642SOL    HW134385   2.771   1.839   2.514  0.2178  2.4206  1.4796
 7642SOL    HW234386   2.890   1.770   2.555  0.6819  0.0995  1.0670
 7643SOL     OW34387   4.273   0.091  11.061  0.2815 -0.4315 -0.1051
 7643SOL    HW134388   4.238   0.002  11.058 -0.2343 -0.2099 -0.8139
 7643SOL    HW234389   4.255   0.105  11.154  1.9396  0.9571  0.0068
 7644SOL     OW34390   1.006   0.153  13.388 -0.0077  0.6023 -0.0512
 7644SOL    HW134391   0.922   0.138  13.433 -0.3272  2.9997  0.1236
 7644SOL    HW234392   0.976   0.142  13.298  1.4416  2.6803 -0.7922
 7645SOL     OW34393   3.972   2.818   7.975 -0.0852  0.1711  1.1973
 7645SOL    HW134394   3.950   2.855   7.890 -1.1370  0.3328  1.5401
 7645SOL    HW234395   3.899   2.763   8.002  0.2353 -1.3466 -1.0670
 7646SOL     OW34396   4.205   2.379  13.253 -0.0077 -0.7273  0.6830
 7646SOL    HW134397   4.164   2.393  13.338  3.0185 -0.9003  2.1712
 7646SOL    HW234398   4.287   2.337  13.279 -0.2757 -1.4912  0.3033
 7647SOL     OW34399   1.697   1.759   5.469  0.5085  0.6519  0.2146
 7647SOL    HW134400   1.720   1.672   5.437  3.7884  1.5955  0.0383
 7647SOL    HW234401   1.776   1.808   5.447  1.2181  0.0345  1.3713
 7648SOL     OW34402   4.561   2.085   9.522  0.2742  0.1172  0.3411
 7648SOL    HW134403   4.581   1.994   9.547 -2.3400 -0.8557 -1.1062
 7648SOL    HW234404   4.618   2.128   9.586  1.1549 -1.4114  0.5941
 7649SOL     OW34405   1.550   4.304   3.761 -0.1461 -0.6367 -0.2431
 7649SOL    HW134406   1.637   4.308   3.721 -0.6757 -2.1469 -1.5482
 7649SOL    HW234407   1.514   4.245   3.694 -0.7652 -3.0570  2.2173
 7650SOL     OW34408   0.874   0.256   9.767 -0.0330  0.0153  0.0120
 7650SOL    HW134409   0.957   0.299   9.786 -0.1840  0.0987  0.4810
 7650SOL    HW234410   0.812   0.311   9.816 -0.9278 -0.8208 -0.1778
 7651SOL     OW34411   1.315   3.848   0.774  0.2155 -0.2657  1.0310
 7651SOL    HW134412   1.369   3.901   0.833  1.1888  1.3273 -1.2819
 7651SOL    HW234413   1.360   3.764   0.768  0.1410 -0.2023 -0.4640
 7652SOL     OW34414   4.028   3.678   6.726  0.0316 -0.0897 -0.6083
 7652SOL    HW134415   3.936   3.694   6.704 -0.3910 -2.3879 -0.5301
 7652SOL    HW234416   4.073   3.690   6.643  2.0639  0.2748  0.5349
 7653SOL     OW34417   2.910   1.279   3.433  0.1596  0.5638 -0.1390
 7653SOL    HW134418   2.942   1.220   3.501  0.8824  1.0535 -0.0546
 7653SOL    HW234419   2.825   1.237   3.423 -0.4892  1.5359  1.3369
 7654SOL     OW34420   4.075   2.209   4.054 -0.2106  0.0040 -0.2216
 7654SOL    HW134421   4.018   2.245   3.986  0.0417 -0.1143 -0.4967
 7654SOL    HW234422   4.132   2.285   4.064  0.5272 -0.4174 -1.1419
 7655SOL     OW34423   4.259   2.404   8.938 -0.3919  0.2518  0.4730
 7655SOL    HW134424   4.222   2.316   8.931 -0.4677  0.2485  0.9141
 7655SOL    HW234425   4.203   2.444   8.871  1.7061  3.8439  0.8751
 7656SOL     OW34426   4.461   2.858   6.979  0.3630  0.1310  0.1383
 7656SOL    HW134427   4.534   2.841   7.038  0.7703 -0.4692 -0.5439
 7656SOL    HW234428   4.444   2.769   6.947  2.4644  0.3105 -1.4487
 7657SOL     OW34429   3.827   2.132   8.308 -0.5114 -0.1483 -0.1383
 7657SOL    HW134430   3.765   2.188   8.261 -0.2125  0.7160  0.5037
 7657SOL    HW234431   3.864   2.082   8.234  0.6052  1.5022 -0.6831
 7658SOL     OW34432   2.998   2.983   5.815  0.0964 -0.1683  0.4868
 7658SOL    HW134433   2.944   2.945   5.746 -0.5918 -0.7088  1.3234
 7658SOL    HW234434   2.996   3.077   5.798  0.1445 -0.3706 -0.5995
 7659SOL     OW34435   2.506   3.446   5.963 -1.1380 -0.1202 -0.2007
 7659SOL    HW134436   2.551   3.530   5.967  1.4894 -1.5953  0.8295
 7659SOL    HW234437   2.464   3.462   6.048 -2.1739 -0.4750 -0.6367
 7660SOL     OW34438   2.513   2.924   3.847 -1.0206  0.2207 -0.3640
 7660SOL    HW134439   2.482   2.842   3.885 -2.5333  0.8968 -0.1165
 7660SOL    HW234440   2.436   2.980   3.834 -2.6990 -1.7484  1.1218
 7661SOL     OW34441   2.890   4.144  17.043  0.1838  0.0115 -0.3921
 7661SOL    HW134442   2.853   4.057  17.023 -1.1709  0.6215 -0.5199
 7661SOL    HW234443   2.855   4.198  16.972  1.0570  0.4605 -0.4704
 7662SOL     OW34444   0.045   1.629   5.526  0.8391 -0.4400 -0.3125
 7662SOL    HW134445   0.008   1.635   5.438 -0.0160  1.1265  0.1358
 7662SOL    HW234446   0.042   1.534   5.537 -0.5609 -0.4202 -0.5116
 7663SOL     OW34447   3.044   1.434   4.958  0.1589 -0.0051  0.4079
 7663SOL    HW134448   3.033   1.348   4.918 -1.9565  0.3007  0.3371
 7663SOL    HW234449   3.038   1.495   4.885 -3.5289  1.8732  2.3132
 7664SOL     OW34450   3.977   1.330   8.990  0.1338 -0.0776  0.0594
 7664SOL    HW134451   3.909   1.264   8.977 -0.1483 -0.2370  2.2496
 7664SOL    HW234452   4.032   1.281   9.051  0.7455  2.5004  1.5875
 7665SOL     OW34453   1.153   0.053   9.155 -0.0339  0.0071 -0.2476
 7665SOL    HW134454   1.090   0.026   9.088  0.2455  0.0609 -0.5306
 7665SOL    HW234455   1.134   4.708   9.221 -0.5789 -0.7312 -1.1322
 7666SOL     OW34456   3.187   2.584   8.468 -0.1151  0.7454  0.1187
 7666SOL    HW134457   3.228   2.521   8.408 -1.8834 -0.4114  0.1024
 7666SOL    HW234458   3.135   2.535   8.532  1.2196  0.3952  0.9450
 7667SOL     OW34459   0.243   1.443   8.317 -0.0609  0.0354  0.0343
 7667SOL    HW134460   0.244   1.421   8.410 -0.3353 -1.2981 -0.2727
 7667SOL    HW234461   0.161   1.404   8.286  0.9982 -2.0600 -0.1501
 7668SOL     OW34462   1.917   0.840   5.772  0.4179 -0.2364 -0.0843
 7668SOL    HW134463   1.966   0.916   5.741 -2.5315  1.3069 -0.9680
 7668SOL    HW234464   1.929   0.777   5.701  0.2432 -0.5183  0.1333
 7669SOL     OW34465   2.263   4.504   7.069  0.5162 -0.6274  0.4196
 7669SOL    HW134466   2.247   4.413   7.044  2.4980 -0.4908 -1.3592
 7669SOL    HW234467   2.191   4.551   7.026  1.4922 -0.0900 -0.6336
 7670SOL     OW34468   3.570   1.309   7.333 -0.2635 -0.3993 -0.1511
 7670SOL    HW134469   3.659   1.335   7.313 -0.2781 -0.3182 -0.1096
 7670SOL    HW234470   3.530   1.310   7.245  0.4525  3.8006 -0.4066
 7671SOL     OW34471   4.154   2.356  14.709  0.2197  0.1150  0.0935
 7671SOL    HW134472   4.171   2.440  14.665  0.9498 -1.3297 -2.3811
 7671SOL    HW234473   4.060   2.365  14.727  0.2690  0.4797  0.1630
 7672SOL     OW34474   0.067   0.897   7.260  0.1128 -0.1467  0.1341
 7672SOL    HW134475   0.138   0.844   7.298 -1.1029 -1.7182  0.2008
 7672SOL    HW234476   0.039   0.932   7.344  1.8223  3.2470 -0.7247
 7673SOL     OW34477   0.054   3.076   6.645  0.5426  0.5732  0.1920
 7673SOL    HW134478   0.060   3.147   6.581 -2.3818  0.5595 -0.0862
 7673SOL    HW234479   0.045   3.132   6.722  2.3594  0.6715  0.3498
 7674SOL     OW34480   1.568   2.575  15.502 -0.7233 -0.0766  0.0395
 7674SOL    HW134481   1.514   2.498  15.483 -0.8307  0.0673 -0.2322
 7674SOL    HW234482   1.519   2.622  15.570  0.9661  2.7722 -0.7164
 7675SOL     OW34483   0.682   2.632   6.066  0.2767  0.6256  0.5646
 7675SOL    HW134484   0.604   2.596   6.109  1.3405 -3.7258 -1.1975
 7675SOL    HW234485   0.715   2.550   6.031  0.2530  0.5427  0.7351
 7676SOL     OW34486   1.835   0.188   2.360 -0.3208  0.2768 -0.0652
 7676SOL    HW134487   1.838   0.279   2.389 -3.5141  0.9770 -1.9889
 7676SOL    HW234488   1.822   0.209   2.268 -0.5652  1.1535  0.1737
 7677SOL     OW34489   0.848   2.878  15.678  0.6694 -0.1008 -0.2281
 7677SOL    HW134490   0.819   2.875  15.769  0.7346 -0.9340 -0.2368
 7677SOL    HW234491   0.799   2.952  15.644 -0.1490 -0.2582  0.6285
 7678SOL     OW34492   2.091   4.679   8.286 -0.2411  0.3222 -0.4194
 7678SOL    HW134493   2.008   4.698   8.330 -0.3931 -2.0028  0.2964
 7678SOL    HW234494   2.092   0.041   8.237 -0.9617 -0.9329 -2.5381
 7679SOL     OW34495   3.683   4.406   3.012 -0.0334  0.1079  0.4443
 7679SOL    HW134496   3.688   4.500   2.996 -1.2748  0.1160  0.1254
 7679SOL    HW234497   3.620   4.402   3.084 -0.4379  1.8062  0.1705
 7680SOL     OW34498   0.218   4.040   6.611 -0.5995 -0.5227  0.3138
 7680SOL    HW134499   0.169   3.974   6.564  1.0120 -1.8293  0.4772
 7680SOL    HW234500   0.193   4.013   6.700  1.5547 -0.8729  0.8149
 7681SOL     OW34501   3.639   1.167   1.953  0.0993 -0.2460  0.0419
 7681SOL    HW134502   3.675   1.136   1.870  2.1630  0.7774  0.5374
 7681SOL    HW234503   3.547   1.158   1.931  0.3400  2.4630 -2.0032
 7682SOL     OW34504   4.454   2.397   3.456  0.3533 -0.6137  1.0127
 7682SOL    HW134505   4.472   2.311   3.494 -0.2089 -0.9888  0.4262
 7682SOL    HW234506   4.459   2.381   3.362  2.4214 -2.4138  1.4305
 7683SOL     OW34507   1.718   4.126   5.554  0.1923  0.1969 -0.4373
 7683SOL    HW134508   1.737   4.035   5.531  1.2517 -0.1918  1.9290
 7683SOL    HW234509   1.673   4.148   5.473 -0.4658  1.4748  0.2686
 7684SOL     OW34510   3.032   3.553   1.637  0.7643  0.3210 -0.8170
 7684SOL    HW134511   2.954   3.519   1.594  0.6092  0.6914 -0.8288
 7684SOL    HW234512   3.022   3.514   1.724 -0.8385  4.5910  0.9486
 7685SOL     OW34513   2.927   3.409   7.338  0.1496  0.0945 -0.5862
 7685SOL    HW134514   3.021   3.395   7.352  0.2043  1.6217  0.5833
 7685SOL    HW234515   2.936   3.503   7.323  1.3550  0.4967  2.6225
 7686SOL     OW34516   3.638   4.185   5.218 -0.2619 -0.1005 -0.4134
 7686SOL    HW134517   3.591   4.203   5.300 -2.6756 -1.0649 -1.6012
 7686SOL    HW234518   3.587   4.114   5.180  0.0786 -0.5445 -0.0429
 7687SOL     OW34519   1.145   1.737   7.437  0.4436  0.4854 -0.0056
 7687SOL    HW134520   1.096   1.738   7.355  2.9668  0.5946 -1.5235
 7687SOL    HW234521   1.130   1.827   7.466  0.0510  1.0107 -1.8542
 7688SOL     OW34522   3.531   3.147   7.298  0.0193 -0.1691  0.3301
 7688SOL    HW134523   3.457   3.208   7.299  0.6548  0.6193 -0.4172
 7688SOL    HW234524   3.591   3.177   7.367 -0.2070 -0.6869  0.7445
 7689SOL     OW34525   3.175   0.260  11.631  0.1980 -0.1203  0.1693
 7689SOL    HW134526   3.165   0.165  11.624 -0.3358 -0.1322  1.1282
 7689SOL    HW234527   3.130   0.273  11.714  0.9275 -1.5553  0.7909
 7690SOL     OW34528   2.490   0.037   5.549  0.1276  0.2278 -0.3311
 7690SOL    HW134529   2.451   4.674   5.522 -1.1094 -0.0360  2.2812
 7690SOL    HW234530   2.520   0.070   5.464 -0.7026 -1.5930 -1.3461
 7691SOL     OW34531   0.979   4.389   2.668  0.5188 -0.0893  0.6229
 7691SOL    HW134532   0.963   4.342   2.586 -0.9442  1.8692 -0.2144
 7691SOL    HW234533   1.042   4.454   2.636  0.0915  0.2041  0.3628
 7692SOL     OW34534   3.383   2.071   2.226  0.4186 -0.0238 -0.2245
 7692SOL    HW134535   3.315   2.121   2.179  0.7135  1.2410  0.6955
 7692SOL    HW234536   3.415   2.017   2.154 -2.6215 -2.2076  0.0849
 7693SOL     OW34537   1.891   1.107   0.440 -0.0977 -0.2794  0.0277
 7693SOL    HW134538   1.961   1.042   0.445  0.2361 -0.2449 -4.1257
 7693SOL    HW234539   1.907   1.137   0.351  3.0693 -2.3123 -0.0677
 7694SOL     OW34540   3.245   1.700   0.167  0.6125  0.0187 -0.4834
 7694SOL    HW134541   3.167   1.645   0.160 -1.3098  2.7926 -0.8707
 7694SOL    HW234542   3.289   1.637   0.224  1.6432 -0.8914 -2.2981
 7695SOL     OW34543   3.142   1.942  10.521 -0.2172  0.3499  0.2778
 7695SOL    HW134544   3.159   1.936  10.427  2.7633 -0.8348  0.9153
 7695SOL    HW234545   3.136   2.036  10.539 -0.2962  0.1614  1.2079
 7696SOL     OW34546   2.060   4.012   4.567  0.4131 -0.0345 -0.1806
 7696SOL    HW134547   2.031   4.103   4.565  1.5221  0.3327  0.4987
 7696SOL    HW234548   1.986   3.965   4.528  0.5318 -0.3924  0.0312
 7697SOL     OW34549   2.526   1.913   7.449  0.1708  0.3098 -0.3185
 7697SOL    HW134550   2.445   1.946   7.489  1.0747 -0.7004  2.3172
 7697SOL    HW234551   2.489   1.828   7.428  0.3993 -0.2747  1.6368
 7698SOL     OW34552   4.459   1.894   4.132 -0.3759  0.4128  0.2893
 7698SOL    HW134553   4.455   1.864   4.042  1.2135  0.0285  0.3387
 7698SOL    HW234554   4.374   1.870   4.167 -0.4884 -0.9073 -0.9054
 7699SOL     OW34555   4.055   0.210  17.043  0.6814 -0.4102  0.1170
 7699SOL    HW134556   4.133   0.239  16.995  1.7615 -0.5585  1.7818
 7699SOL    HW234557   3.992   0.213  16.971  1.2016 -1.7656 -0.4071
 7700SOL     OW34558   3.199   1.651   5.830 -0.4118  0.7185  0.1168
 7700SOL    HW134559   3.226   1.742   5.823  1.3174  0.0463 -1.7839
 7700SOL    HW234560   3.105   1.666   5.838 -0.7507 -1.0477 -0.4976
 7701SOL     OW34561   1.118   2.362   2.089 -0.5934  0.7807 -0.1230
 7701SOL    HW134562   1.038   2.352   2.037 -1.1246 -0.1157  0.8637
 7701SOL    HW234563   1.155   2.442   2.051  1.6987 -1.3751 -2.4417
 7702SOL     OW34564   0.892   0.278   6.713  0.5368  0.2618 -0.4463
 7702SOL    HW134565   0.916   0.320   6.796 -1.4259  0.1709  0.1891
 7702SOL    HW234566   0.968   0.220   6.711 -0.2279 -0.7338 -0.5426
 7703SOL     OW34567   2.935   2.720  15.760  0.2015 -0.4151 -0.0170
 7703SOL    HW134568   2.885   2.697  15.839 -0.0454  2.9195  0.8161
 7703SOL    HW234569   2.908   2.647  15.705  0.6430 -0.0146 -0.7515
 7704SOL     OW34570   2.325   4.506   6.676  0.2782 -0.1319 -0.3413
 7704SOL    HW134571   2.360   4.575   6.732 -0.0733  1.1556 -1.7456
 7704SOL    HW234572   2.406   4.473   6.638  1.3151  0.8847  0.9647
 7705SOL     OW34573   1.293   1.720   8.183  0.2976  0.0012  0.0417
 7705SOL    HW134574   1.272   1.664   8.258  0.1187  0.7226  0.5302
 7705SOL    HW234575   1.259   1.802   8.217 -0.3738 -0.3220  0.1477
 7706SOL     OW34576   3.076   4.647  15.821 -0.1492 -0.5110  0.2177
 7706SOL    HW134577   3.105   0.010  15.783 -0.1320 -0.0908  1.1761
 7706SOL    HW234578   3.146   4.588  15.791  0.4008 -0.0460  0.5966
 7707SOL     OW34579   0.228   1.806  15.892  0.2174  0.1453  0.0448
 7707SOL    HW134580   0.214   1.737  15.958 -1.1622  1.7251  1.4114
 7707SOL    HW234581   0.237   1.883  15.948  1.9485  0.9405 -1.3226
 7708SOL     OW34582   1.910   3.896   1.701 -0.0460 -0.4855  0.4111
 7708SOL    HW134583   1.968   3.853   1.638  1.3699  1.2870  0.4965
 7708SOL    HW234584   1.822   3.873   1.672 -0.2859  0.2622  0.5561
 7709SOL     OW34585   3.636   1.982  14.084 -0.8565  0.2939  0.2979
 7709SOL    HW134586   3.544   1.990  14.109 -0.6179 -1.2284  1.6613
 7709SOL    HW234587   3.654   1.889  14.093  1.7223  0.8965  1.3259
 7710SOL     OW34588   3.440   3.467   3.015 -0.2701  0.2105  0.0579
 7710SOL    HW134589   3.423   3.407   3.088 -3.5354 -0.9047 -1.5958
 7710SOL    HW234590   3.404   3.545   3.057  2.0354  0.0119  2.3795
 7711SOL     OW34591   1.725   0.719   1.699 -0.2908  0.1010  0.3642
 7711SOL    HW134592   1.632   0.739   1.693 -0.1091  0.2416 -1.8064
 7711SOL    HW234593   1.707   0.645   1.757  0.5898 -2.0846 -2.1778
 7712SOL     OW34594   2.905   1.559   3.389 -0.0227 -0.1852 -0.4497
 7712SOL    HW134595   2.863   1.553   3.304 -1.8142 -1.2302  0.4975
 7712SOL    HW234596   2.902   1.468   3.420 -2.8066  0.3553  0.9049
 7713SOL     OW34597   3.227   1.097   7.967 -0.4106 -1.0122 -0.7661
 7713SOL    HW134598   3.310   1.143   7.957  0.9596 -3.2510  0.3238
 7713SOL    HW234599   3.193   1.154   8.036  0.2930 -1.6728  0.1214
 7714SOL     OW34600   4.084   2.661   8.527 -0.0318  0.4652  0.5559
 7714SOL    HW134601   4.122   2.744   8.558 -0.2089  0.4086  0.9321
 7714SOL    HW234602   3.992   2.684   8.539 -0.4978 -1.1185 -0.0413
 7715SOL     OW34603   0.290   4.637  10.145 -0.2306  0.3861 -0.0900
 7715SOL    HW134604   0.280   4.601  10.233  0.2550  0.4345 -0.0124
 7715SOL    HW234605   0.309   4.561  10.091  0.4360  0.6946 -0.2935
 7716SOL     OW34606   1.988   0.664   5.563 -0.2974 -0.2250  0.0074
 7716SOL    HW134607   1.958   0.648   5.473  1.3488  0.2469 -0.6268
 7716SOL    HW234608   1.961   0.577   5.591  1.1504 -1.2419 -1.7778
 7717SOL     OW34609   3.479   0.142   0.473 -0.5417 -0.3064 -0.1589
 7717SOL    HW134610   3.389   0.170   0.486 -0.3714 -0.0498  0.4511
 7717SOL    HW234611   3.506   0.220   0.424  1.6486 -1.4697 -0.8135
 7718SOL     OW34612   4.478   0.752   6.009  0.1713  0.3187 -0.2873
 7718SOL    HW134613   4.565   0.792   6.011 -0.8733  2.4477  1.8832
 7718SOL    HW234614   4.432   0.826   5.968 -0.9254 -0.7288 -0.9524
 7719SOL     OW34615   1.563   0.142   4.073  0.6163 -0.3355  0.4590
 7719SOL    HW134616   1.542   0.073   4.009 -0.5089  0.4211  0.0016
 7719SOL    HW234617   1.481   0.139   4.122  0.8151 -0.6221  0.7776
 7720SOL     OW34618   2.499   3.372  10.507 -0.2808 -0.3779 -0.1909
 7720SOL    HW134619   2.463   3.351  10.593 -0.0898  3.5949  0.8783
 7720SOL    HW234620   2.562   3.435  10.543  0.4628 -0.9378 -0.5138
 7721SOL     OW34621   3.664   2.985   4.281 -0.0556 -0.4494 -0.2215
 7721SOL    HW134622   3.663   3.073   4.317  1.3535 -0.2150 -0.7807
 7721SOL    HW234623   3.611   2.930   4.339  1.3674 -0.6206  0.9171
 7722SOL     OW34624   4.565   3.063   1.708 -0.6286  0.2807 -0.3228
 7722SOL    HW134625   4.531   2.985   1.753 -1.4894  0.9758  0.2407
 7722SOL    HW234626   4.635   3.076   1.772 -0.5243  2.2384 -0.8521
 7723SOL     OW34627   1.850   4.390   5.415 -0.4572  0.1830  0.2644
 7723SOL    HW134628   1.756   4.377   5.425 -0.1608 -3.3788 -1.5284
 7723SOL    HW234629   1.879   4.382   5.507 -3.7358  0.3862  1.2980
 7724SOL     OW34630   0.078   0.428   3.178 -0.7562  0.3290  0.0449
 7724SOL    HW134631   0.009   0.363   3.191  0.7281 -1.2461  0.0423
 7724SOL    HW234632   0.149   0.399   3.237 -0.0139  1.2210 -0.4137
 7725SOL     OW34633   2.143   2.905  17.524  0.3532 -0.5088 -0.3111
 7725SOL    HW134634   2.196   2.837  17.483 -0.0201 -1.5088  0.8765
 7725SOL    HW234635   2.190   2.905  17.608  1.2874 -1.9179 -0.8324
 7726SOL     OW34636   0.237   3.610   7.407 -0.1296  0.4803 -0.1887
 7726SOL    HW134637   0.224   3.705   7.403  0.5644  0.4798 -2.5907
 7726SOL    HW234638   0.155   3.590   7.361 -0.2894  0.0611  0.2836
 7727SOL     OW34639   3.137   1.936   5.525  0.3423  0.7674  0.3228
 7727SOL    HW134640   3.115   1.897   5.440  1.2825 -0.6081  0.7141
 7727SOL    HW234641   3.228   1.908   5.541 -0.2357 -0.6928  1.0464
 7728SOL     OW34642   1.129   3.997   3.442 -0.1479  0.1728 -0.0552
 7728SOL    HW134643   1.184   4.073   3.422  2.7031 -1.5594  1.1261
 7728SOL    HW234644   1.092   4.027   3.525 -1.3933  1.2848 -1.0244
 7729SOL     OW34645   3.721   3.825   8.585  0.4200 -0.3607  0.0426
 7729SOL    HW134646   3.646   3.857   8.635  1.2673  0.7703  0.5825
 7729SOL    HW234647   3.731   3.747   8.641 -0.8211 -2.3629 -2.5142
 7730SOL     OW34648   4.508   2.049  16.218 -0.1676 -0.2176 -0.1854
 7730SOL    HW134649   4.434   2.109  16.230 -1.3640 -1.5743 -0.8771
 7730SOL    HW234650   4.511   2.025  16.311 -0.6503 -1.2788 -0.4451
 7731SOL     OW34651   3.160   1.791  12.563 -0.2267  0.4086  0.5075
 7731SOL    HW134652   3.184   1.882  12.581  1.4275  0.2395 -0.7827
 7731SOL    HW234653   3.070   1.796  12.595 -0.3474  0.8227  0.1016
 7732SOL     OW34654   4.429   3.792   7.293 -0.0280  0.3344  0.8089
 7732SOL    HW134655   4.448   3.729   7.363 -3.1139 -0.4086  0.9953
 7732SOL    HW234656   4.334   3.789   7.306 -0.2417  0.4160 -0.7702
 7733SOL     OW34657   2.885   3.089   8.446 -0.0758  0.8223 -0.1373
 7733SOL    HW134658   2.897   3.077   8.352 -1.2161  0.0027 -0.1734
 7733SOL    HW234659   2.934   3.021   8.492  0.8927  0.0751 -2.2878
 7734SOL     OW34660   0.871   4.197  10.151  0.8843 -0.4745  0.3957
 7734SOL    HW134661   0.865   4.293  10.156 -0.1101 -0.4545 -1.1748
 7734SOL    HW234662   0.840   4.171  10.237 -0.5299 -0.3778 -0.0858
 7735SOL     OW34663   1.849   1.112   7.948  0.6958  0.2597 -0.4226
 7735SOL    HW134664   1.904   1.058   7.890 -0.3613  0.0408 -1.2234
 7735SOL    HW234665   1.842   1.045   8.016 -2.3532  1.1094  0.0896
 7736SOL     OW34666   0.936   2.098   3.324 -0.4944 -0.2809 -0.0431
 7736SOL    HW134667   1.028   2.073   3.311 -0.4063 -0.4284  0.8852
 7736SOL    HW234668   0.912   2.042   3.398  1.9102 -0.8183  0.3474
 7737SOL     OW34669   3.591   4.254   5.499  0.1212  0.1080  0.4100
 7737SOL    HW134670   3.594   4.195   5.575  0.5758 -3.2617 -2.1827
 7737SOL    HW234671   3.531   4.325   5.519  2.6433  2.1227  0.7385
 7738SOL     OW34672   2.759   3.123  17.550  0.1942 -1.0621  0.3699
 7738SOL    HW134673   2.798   3.164  17.626 -0.2557  0.1716 -0.0573
 7738SOL    HW234674   2.830   3.063  17.528  1.0793 -0.9020  2.8219
 7739SOL     OW34675   3.559   4.167  16.822 -0.0330 -0.1023  0.0638
 7739SOL    HW134676   3.535   4.074  16.824 -0.4350 -0.0043 -0.1258
 7739SOL    HW234677   3.627   4.162  16.755  1.7946 -0.6995  2.0052
 7740SOL     OW34678   3.326   0.953   2.943 -0.2648 -0.0077  0.0445
 7740SOL    HW134679   3.241   0.992   2.966  1.1361  2.1478  1.6053
 7740SOL    HW234680   3.287   0.872   2.911 -1.4744  0.3253  0.6545
 7741SOL     OW34681   3.460   1.213   7.965  0.5263 -0.0673 -0.1909
 7741SOL    HW134682   3.499   1.285   7.914  1.5179 -2.1226 -2.3012
 7741SOL    HW234683   3.539   1.174   8.003 -0.5978 -1.5845  0.5691
 7742SOL     OW34684   2.012   2.430   5.784 -0.2429  0.6245 -0.0632
 7742SOL    HW134685   1.926   2.472   5.789  0.1259  1.4361 -0.5857
 7742SOL    HW234686   2.014   2.368   5.857  1.4191 -1.0357 -1.5348
 7743SOL     OW34687   2.736   3.873  10.898  0.1629 -0.1841 -0.5351
 7743SOL    HW134688   2.740   3.916  10.983  0.5641  0.3644 -0.8298
 7743SOL    HW234689   2.802   3.803  10.905  0.6999  0.2764 -0.9883
 7744SOL     OW34690   1.242   1.219   2.873  0.5841 -0.3949  0.1276
 7744SOL    HW134691   1.331   1.232   2.905  0.7053  0.7587 -0.6862
 7744SOL    HW234692   1.196   1.222   2.957 -0.3262 -0.0214 -0.3805
 7745SOL     OW34693   1.822   0.273  13.750  0.1070  0.1632 -0.5732
 7745SOL    HW134694   1.787   0.248  13.835  1.1554 -0.6388 -0.3852
 7745SOL    HW234695   1.894   0.325  13.784  1.9402 -1.1142 -2.5253
 7746SOL     OW34696   4.582   1.709  12.055 -0.0662  0.5505  0.3708
 7746SOL    HW134697   4.640   1.779  12.027 -0.4101  0.0678 -1.5542
 7746SOL    HW234698   4.602   1.701  12.148 -0.7279 -0.1458  0.4528
 7747SOL     OW34699   0.277   2.593  12.125 -0.5272 -0.5122  0.0336
 7747SOL    HW134700   0.198   2.635  12.090  1.4157  3.3137  0.1542
 7747SOL    HW234701   0.321   2.571  12.042 -1.0636  0.6901 -0.5817
 7748SOL     OW34702   1.213   1.370   1.778  0.0491 -0.3704 -0.2605
 7748SOL    HW134703   1.118   1.366   1.768 -0.0434  1.0660 -0.0240
 7748SOL    HW234704   1.237   1.321   1.700 -1.6874 -0.4931 -0.7182
 7749SOL     OW34705   1.691   0.049   8.969 -0.8208  0.3893 -0.3044
 7749SOL    HW134706   1.728   0.018   9.052 -0.9049 -0.9751 -0.7665
 7749SOL    HW234707   1.635   4.694   8.950 -0.1827 -0.1869  0.1123
 7750SOL     OW34708   3.425   3.306   3.225 -0.3082 -0.4712 -0.0947
 7750SOL    HW134709   3.337   3.297   3.262 -0.5253  0.5459 -0.3516
 7750SOL    HW234710   3.468   3.226   3.254  0.9349 -0.2000 -1.1917
 7751SOL     OW34711   2.260   2.752   2.084  0.0934  0.4629 -0.2382
 7751SOL    HW134712   2.237   2.810   2.157  1.2402 -1.0047  1.2886
 7751SOL    HW234713   2.325   2.700   2.130 -1.8026 -1.5214  0.1810
 7752SOL     OW34714   4.028   4.434   4.159 -0.1645  0.3596 -0.4122
 7752SOL    HW134715   4.115   4.399   4.179 -0.5043 -1.5826 -2.3700
 7752SOL    HW234716   4.058   4.508   4.105  1.5621  1.3208  1.8679
 7753SOL     OW34717   4.572   2.165  14.917  0.6887 -0.8944  0.1701
 7753SOL    HW134718   4.526   2.220  14.854 -1.0772 -0.9032  1.4493
 7753SOL    HW234719   4.501   2.112  14.955 -1.9230  1.4105 -1.5211
 7754SOL     OW34720   0.127   2.160  11.097 -0.4117  0.3419 -0.4148
 7754SOL    HW134721   0.168   2.116  11.022  0.6751 -1.0743  1.0097
 7754SOL    HW234722   0.092   2.088  11.149  1.8204 -0.0659  0.5300
 7755SOL     OW34723   4.478   0.569   5.780  0.1983  0.0701  0.1507
 7755SOL    HW134724   4.505   0.636   5.717 -0.0580  2.6285  2.7669
 7755SOL    HW234725   4.413   0.609   5.837  0.4308  0.8570 -0.1357
 7756SOL     OW34726   3.337   4.614   0.325  0.0785  0.2597  0.3270
 7756SOL    HW134727   3.342   4.702   0.361  2.5252  1.0796 -1.9707
 7756SOL    HW234728   3.347   4.566   0.407 -0.3565  1.3516  1.0084
 7757SOL     OW34729   4.302   4.097   3.562  0.0306  0.1866 -0.0735
 7757SOL    HW134730   4.362   4.046   3.508 -0.8624 -0.0096 -0.8724
 7757SOL    HW234731   4.361   4.146   3.619  0.2988  1.0467 -1.0897
 7758SOL     OW34732   0.003   0.098  11.314 -0.0339  0.0126 -0.0746
 7758SOL    HW134733   0.046   0.013  11.309  1.1652  0.6200 -0.2217
 7758SOL    HW234734   0.062   0.150  11.369  1.2806 -1.0774 -0.4717
 7759SOL     OW34735   4.133   3.201   6.641 -0.2591  0.0112  0.1541
 7759SOL    HW134736   4.086   3.240   6.715  1.3245  2.9727 -0.4099
 7759SOL    HW234737   4.095   3.254   6.571 -0.7156  2.0536  1.9390
 7760SOL     OW34738   3.888   0.960   2.379  0.2355 -0.5557 -0.8581
 7760SOL    HW134739   3.832   0.972   2.303 -2.0722 -1.0727  0.7554
 7760SOL    HW234740   3.970   0.939   2.335  1.0981 -1.2158  1.0675
 7761SOL     OW34741   2.491   4.275  11.561  0.1022  0.1244  0.5575
 7761SOL    HW134742   2.443   4.249  11.640 -0.3635 -2.1798 -0.4634
 7761SOL    HW234743   2.426   4.270  11.490  0.6501  1.1679 -0.0166
 7762SOL     OW34744   1.969   3.506  17.485 -0.2159 -0.1316  0.1736
 7762SOL    HW134745   1.905   3.562  17.530 -1.0148  1.1877 -2.6047
 7762SOL    HW234746   1.954   3.420  17.524  0.1978 -0.3753 -0.2119
 7763SOL     OW34747   0.263   0.254  16.806 -0.0139 -0.5158  0.1608
 7763SOL    HW134748   0.300   0.330  16.851  0.3133  0.2442 -1.3932
 7763SOL    HW234749   0.169   0.270  16.805  0.1745  0.7491  1.7520
 7764SOL     OW34750   3.684   2.265   6.789  0.0753 -0.5816 -0.0461
 7764SOL    HW134751   3.728   2.319   6.855 -0.2452 -0.1804 -0.1626
 7764SOL    HW234752   3.713   2.182   6.825 -1.0934 -0.3323  1.4910
 7765SOL     OW34753   0.995   1.788   4.429 -0.0818 -0.1547  0.2043
 7765SOL    HW134754   1.047   1.867   4.413  1.0961 -0.9329  0.1974
 7765SOL    HW234755   0.960   1.768   4.342  1.0034 -0.2247 -0.2122
 7766SOL     OW34756   1.544   3.149  12.016 -0.1136 -0.1762 -0.3337
 7766SOL    HW134757   1.620   3.199  11.986 -0.9937  0.8862 -0.8006
 7766SOL    HW234758   1.585   3.064  12.033 -0.7991 -0.1852  1.3123
 7767SOL     OW34759   2.636   0.090   5.311 -0.3888  0.7097  0.1380
 7767SOL    HW134760   2.683   0.169   5.284  2.5237 -0.3422  2.1417
 7767SOL    HW234761   2.555   0.109   5.263 -0.2296  0.7522 -0.1138
 7768SOL     OW34762   1.334   2.849   6.812 -0.7449 -0.1800  0.3156
 7768SOL    HW134763   1.339   2.857   6.907  0.3039 -1.5823  0.3805
 7768SOL    HW234764   1.427   2.864   6.795 -0.7549  1.1792  1.4710
 7769SOL     OW34765   2.831   3.875   5.684  0.1447 -0.5794  0.0365
 7769SOL    HW134766   2.784   3.899   5.604  0.2301  0.8383  0.4179
 7769SOL    HW234767   2.872   3.961   5.694 -0.1218 -0.3610 -0.7237
 7770SOL     OW34768   1.108   1.378   7.983  0.3565 -0.3274 -0.1071
 7770SOL    HW134769   1.029   1.424   7.953  1.2257  1.9819  1.1188
 7770SOL    HW234770   1.180   1.436   7.956 -0.4784  0.7813  0.0405
 7771SOL     OW34771   3.550   4.653   7.679  0.5456 -0.2582  0.1550
 7771SOL    HW134772   3.621   4.700   7.636 -0.8857  1.6573 -0.1562
 7771SOL    HW234773   3.501   0.008   7.712 -2.1719 -1.7768 -0.3151
 7772SOL     OW34774   2.380   4.013   1.912 -0.1229 -0.1022  0.6321
 7772SOL    HW134775   2.295   4.024   1.955  1.2358  2.1538  2.7079
 7772SOL    HW234776   2.422   3.945   1.963 -0.6371  0.4566  1.7902
 7773SOL     OW34777   0.928   4.106   4.009 -0.4152  0.7411 -0.5744
 7773SOL    HW134778   0.938   4.041   4.079 -1.9250 -0.0808 -1.1226
 7773SOL    HW234779   0.967   4.180   4.055 -0.6628  0.5404 -0.0364
 7774SOL     OW34780   2.074   4.399   7.431 -0.5609  0.4181 -0.3248
 7774SOL    HW134781   1.996   4.356   7.397  0.6532 -0.9768 -1.3887
 7774SOL    HW234782   2.143   4.336   7.409 -1.3103 -1.3826  2.5436
 7775SOL     OW34783   1.525   1.804  10.518 -0.0261  0.2653  0.5763
 7775SOL    HW134784   1.608   1.846  10.540 -0.1832 -0.1266  1.9096
 7775SOL    HW234785   1.512   1.751  10.597 -0.2419 -1.2292 -0.4452
 7776SOL     OW34786   3.502   1.796   3.748 -0.3083 -0.1246 -0.7716
 7776SOL    HW134787   3.424   1.786   3.694 -0.7195 -0.1800 -0.1762
 7776SOL    HW234788   3.483   1.864   3.813 -1.6038 -1.5595  0.3727
 7777SOL     OW34789   1.397   0.807   2.708 -0.2497  0.2108 -0.2463
 7777SOL    HW134790   1.397   0.848   2.795  1.4461 -2.1752  0.8709
 7777SOL    HW234791   1.403   0.715   2.731  2.7800  0.1423 -1.2459
 7778SOL     OW34792   3.651   3.961   5.430  0.1601  0.3670 -0.1016
 7778SOL    HW134793   3.647   4.023   5.503 -1.4768  2.3281 -1.8285
 7778SOL    HW234794   3.648   3.881   5.482  0.9563  0.4128  0.0215
 7779SOL     OW34795   0.614   3.148   9.133 -0.7910  0.0119  0.0616
 7779SOL    HW134796   0.666   3.069   9.151 -2.6977 -1.1553  0.4151
 7779SOL    HW234797   0.528   3.107   9.137  0.4046 -2.5793 -0.2111
 7780SOL     OW34798   3.282   3.818   5.568  0.1580  0.0065  0.6588
 7780SOL    HW134799   3.271   3.785   5.658  0.0952 -1.5207  0.0892
 7780SOL    HW234800   3.304   3.906   5.598  0.0073  0.6661 -1.2226
 7781SOL     OW34801   3.234   3.993   1.518 -0.1168  0.0730  0.3990
 7781SOL    HW134802   3.153   4.044   1.522  1.2685  2.2349  0.9575
 7781SOL    HW234803   3.237   3.958   1.607  2.0165 -2.3018 -0.6215
 7782SOL     OW34804   2.305   0.971   8.940  0.3694  0.4248  0.2078
 7782SOL    HW134805   2.326   0.913   8.866 -0.5985 -2.1926  1.9873
 7782SOL    HW234806   2.284   0.902   9.003 -1.3121  0.5513 -0.2317
 7783SOL     OW34807   3.709   2.637   4.374  0.3065  0.7174 -0.3962
 7783SOL    HW134808   3.670   2.721   4.395  0.0778  0.3323  0.7052
 7783SOL    HW234809   3.640   2.606   4.315 -0.3774 -1.7917  1.7387
 7784SOL     OW34810   3.066   0.874   4.085 -0.2840 -0.5382 -0.0695
 7784SOL    HW134811   3.157   0.877   4.115  0.6247  0.2631 -2.8917
 7784SOL    HW234812   3.061   0.793   4.035  0.0345  1.3541 -3.1491
 7785SOL     OW34813   1.915   2.736   4.551 -0.3115 -0.1416 -0.1035
 7785SOL    HW134814   1.928   2.652   4.509  1.3057  1.3925 -2.6767
 7785SOL    HW234815   1.947   2.720   4.640 -1.7567  0.7512  0.5912
 7786SOL     OW34816   2.890   4.599   4.683 -0.1811  0.0790  0.1684
 7786SOL    HW134817   2.935   4.555   4.755 -0.4889 -0.1842  0.1995
 7786SOL    HW234818   2.827   4.657   4.726  0.2716  0.1475  0.7234
 7787SOL     OW34819   3.195   1.253   4.080  0.0543 -0.1163 -0.4466
 7787SOL    HW134820   3.138   1.215   4.147 -1.7374 -0.3113 -2.0565
 7787SOL    HW234821   3.237   1.179   4.037  0.4082 -1.4303  2.1708
 7788SOL     OW34822   2.466   4.634   2.342 -0.1775 -0.3275 -0.1228
 7788SOL    HW134823   2.404   4.562   2.353 -0.5854 -0.1095 -0.9913
 7788SOL    HW234824   2.418   4.664   2.265 -0.9602  1.4404  1.0764
 7789SOL     OW34825   3.810   0.725  10.773 -0.0404  0.1945  0.1120
 7789SOL    HW134826   3.840   0.634  10.767 -1.6828 -0.4208  1.4309
 7789SOL    HW234827   3.883   0.767  10.819 -0.8894  1.3779  0.3725
 7790SOL     OW34828   3.485   4.513   7.431  0.1308 -0.1545 -0.0123
 7790SOL    HW134829   3.564   4.558   7.403  0.6812  0.5628  2.7158
 7790SOL    HW234830   3.502   4.518   7.525  0.6908  1.7834 -0.2205
 7791SOL     OW34831   1.641   3.412   6.036  0.2221  0.3846  0.2519
 7791SOL    HW134832   1.561   3.461   6.016  0.4401  1.0525  1.0439
 7791SOL    HW234833   1.678   3.479   6.093  0.8702  1.2709 -1.1965
 7792SOL     OW34834   3.448   3.839  13.460  0.1839  0.6193  0.4112
 7792SOL    HW134835   3.376   3.892  13.426 -1.9351 -1.9797  0.8542
 7792SOL    HW234836   3.392   3.765  13.483 -0.2510  1.0830  0.8538
 7793SOL     OW34837   0.710   4.294   7.252  0.0101  0.4422 -0.0401
 7793SOL    HW134838   0.784   4.270   7.197 -0.2874 -1.4696  0.4070
 7793SOL    HW234839   0.667   4.209   7.260  0.3938  0.2041 -0.5061
 7794SOL     OW34840   3.660   4.694   0.657 -0.5411  0.3871  0.0044
 7794SOL    HW134841   3.595   0.008   0.718 -0.9638  1.1938 -0.9025
 7794SOL    HW234842   3.634   0.006   0.571  0.1481  0.6907 -0.0920
 7795SOL     OW34843   3.465   2.049   8.764  0.7280 -0.0238 -0.0821
 7795SOL    HW134844   3.477   1.957   8.742 -1.7233 -0.4175  0.2243
 7795SOL    HW234845   3.370   2.051   8.763  0.7877  1.8472 -1.3232
 7796SOL     OW34846   1.431   0.107   4.810 -0.2072  0.3178  0.2082
 7796SOL    HW134847   1.434   0.135   4.901  1.6000  0.3121  0.1487
 7796SOL    HW234848   1.339   0.121   4.785 -0.1560 -1.7546 -1.1750
 7797SOL     OW34849   0.006   2.868  12.023  0.3669  0.0531  0.4634
 7797SOL    HW134850   4.709   2.810  12.097 -2.0538 -0.8521 -0.8361
 7797SOL    HW234851   0.060   2.929  12.075  1.9119 -2.4418  1.7727
 7798SOL     OW34852   3.209   1.967  14.906  0.4510 -0.2104 -0.6262
 7798SOL    HW134853   3.122   1.940  14.877  0.4821 -1.2776  0.2715
 7798SOL    HW234854   3.260   1.897  14.867  0.1796 -0.2694 -0.8740
 7799SOL     OW34855   2.165   4.482  10.628 -0.5901 -0.2644  0.4721
 7799SOL    HW134856   2.096   4.445  10.574 -0.0980  0.2248 -0.4870
 7799SOL    HW234857   2.201   4.407  10.675  1.5759  0.4189 -0.0787
 7800SOL     OW34858   2.849   2.046  11.917 -0.0819 -0.3221  0.0026
 7800SOL    HW134859   2.866   2.139  11.901  1.1652  0.0246  3.4290
 7800SOL    HW234860   2.935   2.008  11.934  2.0184  4.4063 -0.1535
 7801SOL     OW34861   1.027   0.490   3.068 -0.3564 -0.7928  0.1307
 7801SOL    HW134862   0.954   0.429   3.067 -0.0889 -1.1979  4.1927
 7801SOL    HW234863   0.978   0.564   3.031 -0.4060 -0.5721  0.6246
 7802SOL     OW34864   1.536   3.393   5.294 -0.1579  0.6436 -0.5856
 7802SOL    HW134865   1.494   3.455   5.353 -0.1465 -0.6009  0.7126
 7802SOL    HW234866   1.579   3.336   5.356  1.3184  1.3392 -0.9777
 7803SOL     OW34867   1.388   2.770   4.761  0.4696  0.6009  0.0310
 7803SOL    HW134868   1.338   2.689   4.755 -1.1520  1.6688 -1.1412
 7803SOL    HW234869   1.473   2.759   4.720 -0.9525  1.7600 -3.2514
 7804SOL     OW34870   4.479   3.757   7.029 -0.3118  0.0641 -0.1320
 7804SOL    HW134871   4.442   3.759   7.117 -1.0541 -1.0463 -0.4198
 7804SOL    HW234872   4.435   3.830   6.986 -0.1243  0.4184  0.2775
 7805SOL     OW34873   4.229   1.681   4.651  0.7475  0.4566  0.4076
 7805SOL    HW134874   4.215   1.609   4.590  1.4735  0.5570  0.1174
 7805SOL    HW234875   4.178   1.650   4.725 -2.3792  1.4995 -1.2933
 7806SOL     OW34876   3.420   4.496   2.611  0.4076  0.0850  0.0298
 7806SOL    HW134877   3.489   4.511   2.547  0.4563 -0.8432 -0.1338
 7806SOL    HW234878   3.462   4.450   2.684  1.3774  0.1489 -0.4938
 7807SOL     OW34879   1.683   2.514   3.013 -0.4166 -0.3545  0.3193
 7807SOL    HW134880   1.722   2.599   2.993 -1.5443  0.1403  0.2356
 7807SOL    HW234881   1.603   2.529   2.962 -1.4865 -0.1045  2.0452
 7808SOL     OW34882   3.533   4.532  11.741 -0.1384 -0.8061  0.2819
 7808SOL    HW134883   3.439   4.538  11.725  0.2158  1.1769 -1.0349
 7808SOL    HW234884   3.538   4.442  11.774  0.0181 -0.6723  0.6275
 7809SOL     OW34885   2.936   3.192  11.680 -0.3231  0.3855 -0.1199
 7809SOL    HW134886   2.861   3.224  11.630  0.5320 -2.7932 -3.4530
 7809SOL    HW234887   2.977   3.125  11.624  0.7814  0.3059  0.7883
 7810SOL     OW34888   2.545   3.251   2.489  0.4567 -0.0316  0.1028
 7810SOL    HW134889   2.463   3.204   2.476 -0.3710  1.4668 -0.0496
 7810SOL    HW234890   2.607   3.201   2.436  2.3870  0.7355  1.6384
 7811SOL     OW34891   3.248   1.654  14.472 -0.7695  0.5602  0.1606
 7811SOL    HW134892   3.190   1.639  14.397 -0.1568 -1.2016  0.0329
 7811SOL    HW234893   3.270   1.567  14.505  0.5449  0.4567 -0.9538
 7812SOL     OW34894   1.931   4.237  12.031  0.5044 -0.1039 -0.1313
 7812SOL    HW134895   2.021   4.236  11.999  0.2614  0.5253 -0.8191
 7812SOL    HW234896   1.945   4.292  12.109 -0.3038 -2.3615  1.6117
 7813SOL     OW34897   1.838   2.402   1.412  0.3318 -0.2941 -0.2297
 7813SOL    HW134898   1.892   2.323   1.410  1.0595  0.2295 -0.7913
 7813SOL    HW234899   1.754   2.364   1.439  0.3440 -0.1282  0.0451
 7814SOL     OW34900   1.904   3.242  17.565  0.1823  0.2495 -0.7788
 7814SOL    HW134901   1.834   3.233  17.501 -0.6996  0.4019  0.1657
 7814SOL    HW234902   1.849   3.230  17.642  2.7198 -0.1596  0.9600
 7815SOL     OW34903   4.136   3.736   8.331  0.4286 -0.7564  0.1919
 7815SOL    HW134904   4.134   3.822   8.374  3.0858 -0.6654  0.0809
 7815SOL    HW234905   4.129   3.680   8.409 -2.0096 -1.3308 -0.4204
 7816SOL     OW34906   2.442   0.905   4.343  0.3454 -0.0983 -0.1769
 7816SOL    HW134907   2.417   0.836   4.282 -0.3176  0.2629 -0.3106
 7816SOL    HW234908   2.451   0.848   4.420 -0.1736  0.6475  0.4279
 7817SOL     OW34909   4.477   1.103  15.355 -0.0919  0.0978 -0.3613
 7817SOL    HW134910   4.557   1.127  15.402 -0.2483 -1.7298  0.8273
 7817SOL    HW234911   4.435   1.187  15.336  1.8863  1.0410 -0.5792
 7818SOL     OW34912   3.064   4.183   8.100 -0.2373 -0.4525  0.0679
 7818SOL    HW134913   3.077   4.274   8.074 -2.4840 -0.4237 -0.8753
 7818SOL    HW234914   3.137   4.133   8.063  1.1308  0.6380  1.2619
 7819SOL     OW34915   0.152   4.661   9.889  0.3683 -0.4889 -0.9158
 7819SOL    HW134916   0.220   4.661   9.957  0.9838  2.6735 -1.5618
 7819SOL    HW234917   0.082   4.712   9.929 -0.6030  0.5267 -3.9944
 7820SOL     OW34918   2.667   1.238   2.797  0.5239  0.1498 -0.2446
 7820SOL    HW134919   2.667   1.225   2.891 -0.6861 -0.3139 -0.3054
 7820SOL    HW234920   2.594   1.179   2.775  1.4144 -1.5663  1.4770
 7821SOL     OW34921   4.098   2.354   8.089 -0.4651  0.4971 -0.2009
 7821SOL    HW134922   4.139   2.440   8.080  0.7456  0.0969  1.3922
 7821SOL    HW234923   4.071   2.362   8.180  0.8226  0.4298  0.1851
 7822SOL     OW34924   3.413   1.474   8.188  0.2066  0.2075 -0.9369
 7822SOL    HW134925   3.342   1.500   8.129 -0.5490  1.2180  0.4283
 7822SOL    HW234926   3.396   1.381   8.199  1.0051  0.3290  1.1157
 7823SOL     OW34927   0.552   0.738   7.747 -0.1870  0.0729 -0.3414
 7823SOL    HW134928   0.638   0.720   7.709  0.4982 -0.9557  1.6856
 7823SOL    HW234929   0.526   0.660   7.795  0.1555  1.3402  1.8957
 7824SOL     OW34930   3.376   1.936  14.188  0.1696  0.3446 -0.7653
 7824SOL    HW134931   3.349   1.845  14.194 -0.0413  0.4886  0.5134
 7824SOL    HW234932   3.311   1.969  14.125  0.0668  2.7985  0.6102
 7825SOL     OW34933   0.615   1.530   6.231  0.1819  0.1905  0.5681
 7825SOL    HW134934   0.587   1.537   6.322 -0.1746 -0.2791  0.4939
 7825SOL    HW234935   0.566   1.603   6.192  0.2232 -0.3791 -0.5610
 7826SOL     OW34936   4.397   0.435   5.355 -0.3345  0.3017  0.1090
 7826SOL    HW134937   4.332   0.377   5.395  0.3479 -0.0368  0.7241
 7826SOL    HW234938   4.452   0.370   5.310  1.2064  1.9448 -0.3787
 7827SOL     OW34939   2.402   2.350  12.159  0.2053  0.0486 -0.0051
 7827SOL    HW134940   2.325   2.318  12.206  0.1036  1.8299  1.0029
 7827SOL    HW234941   2.428   2.427  12.208  2.1974 -0.3078 -0.4755
 7828SOL     OW34942   0.459   2.068   0.035  0.1709 -0.0188 -0.1795
 7828SOL    HW134943   0.489   2.129  17.651 -1.0763 -0.2138 -0.8952
 7828SOL    HW234944   0.507   2.105   0.109  0.9420  1.9325 -1.6261
 7829SOL     OW34945   2.006   2.642   9.257  0.3899 -0.2449 -0.5461
 7829SOL    HW134946   1.953   2.679   9.186 -1.0339  1.6097  1.4786
 7829SOL    HW234947   1.945   2.584   9.303  0.9161 -0.8535 -0.6246
 7830SOL     OW34948   3.986   1.376   9.695 -0.8779 -0.0921 -0.3712
 7830SOL    HW134949   3.944   1.457   9.722 -1.9473 -0.5925 -0.5584
 7830SOL    HW234950   4.077   1.404   9.682 -0.6526 -1.4351 -1.7198
 7831SOL     OW34951   2.946   4.029   3.305 -0.0250  0.1270 -0.2186
 7831SOL    HW134952   2.852   4.051   3.307 -0.2890 -0.8722 -1.1366
 7831SOL    HW234953   2.965   3.998   3.393 -2.0893 -2.0415 -0.5100
 7832SOL     OW34954   0.599   0.237  12.859 -0.2912 -0.2010  0.8016
 7832SOL    HW134955   0.522   0.287  12.834 -1.3810 -1.8799  0.7811
 7832SOL    HW234956   0.661   0.294  12.904 -0.7950  0.2441  0.9269
 7833SOL     OW34957   4.615   3.883   3.021 -0.6660  1.1423 -0.0470
 7833SOL    HW134958   4.521   3.879   3.001 -1.0162  3.3492  1.1322
 7833SOL    HW234959   4.620   3.976   3.046  1.6814  0.5044  1.8319
 7834SOL     OW34960   3.781   3.289   4.046 -0.1132 -0.0735 -0.2108
 7834SOL    HW134961   3.849   3.333   3.995  0.7959  0.9557  1.8915
 7834SOL    HW234962   3.832   3.251   4.118 -0.4256 -0.4747 -0.2059
 7835SOL     OW34963   2.206   2.576   3.370  0.0308  0.3622 -0.6520
 7835SOL    HW134964   2.162   2.584   3.286 -0.6106  1.3351 -0.2392
 7835SOL    HW234965   2.286   2.627   3.358  0.4627 -0.6149 -1.8851
 7836SOL     OW34966   0.090   3.884   6.457 -0.0901 -0.0268 -0.1526
 7836SOL    HW134967   0.075   3.914   6.367 -3.6061  3.1811  1.5099
 7836SOL    HW234968   0.002   3.885   6.494 -0.2415 -1.5351 -0.4753
 7837SOL     OW34969   2.242   3.828   6.354 -0.8258 -0.0462 -0.2744
 7837SOL    HW134970   2.208   3.739   6.361 -2.1264  0.3384 -2.0193
 7837SOL    HW234971   2.163   3.880   6.367 -1.9568 -1.6442 -0.7522
 7838SOL     OW34972   3.827   1.069   3.554 -0.4629 -0.2126 -0.3910
 7838SOL    HW134973   3.914   1.098   3.582 -1.5990  1.3484  1.5677
 7838SOL    HW234974   3.800   1.141   3.497 -0.0097  0.3229  0.0670
 7839SOL     OW34975   1.220   3.235   0.046  0.2712  0.6795  0.1531
 7839SOL    HW134976   1.173   3.245   0.128 -0.2426 -1.3337  0.0897
 7839SOL    HW234977   1.270   3.159   0.075 -0.3741  1.1091  2.3611
 7840SOL     OW34978   0.762   0.957   0.774 -0.2424 -0.3137 -0.6180
 7840SOL    HW134979   0.853   0.977   0.797 -0.1880 -2.4160  0.9388
 7840SOL    HW234980   0.723   0.932   0.857 -0.6949  2.3725 -0.0311
 7841SOL     OW34981   2.837   1.495  17.517 -0.2487  0.0277 -0.6224
 7841SOL    HW134982   2.810   1.569  17.462  0.1400 -0.7417 -1.8685
 7841SOL    HW234983   2.888   1.453  17.447 -0.9395 -0.2290 -0.9747
 7842SOL     OW34984   1.208   2.752  16.239  0.3931  0.2524  0.3796
 7842SOL    HW134985   1.265   2.825  16.216  0.4440 -0.5786 -2.0779
 7842SOL    HW234986   1.145   2.802  16.291 -0.1010 -0.0212  0.0387
 7843SOL     OW34987   2.169   2.577   2.766  0.3017  0.2627 -0.8307
 7843SOL    HW134988   2.231   2.549   2.698  0.4055 -1.2324 -0.1085
 7843SOL    HW234989   2.105   2.506   2.762  0.2335  0.3583 -1.5525
 7844SOL     OW34990   1.253   4.250   2.754  0.1895 -0.1297 -0.4586
 7844SOL    HW134991   1.300   4.223   2.674  0.6956  0.2695 -0.2978
 7844SOL    HW234992   1.295   4.334   2.768 -2.4918  1.6048 -2.7284
 7845SOL     OW34993   1.269   2.599   3.450  0.0873 -0.5497 -0.5444
 7845SOL    HW134994   1.292   2.623   3.360 -3.3767  0.6088 -1.1106
 7845SOL    HW234995   1.334   2.628   3.515  0.4712  0.5360 -1.4278
 7846SOL     OW34996   1.405   4.168   2.242 -0.2194  0.0822 -0.7780
 7846SOL    HW134997   1.486   4.121   2.260 -0.1577 -0.0370 -1.3736
 7846SOL    HW234998   1.439   4.242   2.190  0.0287  0.9054  0.5687
 7847SOL     OW34999   0.573   1.019   8.292 -0.3946 -0.1480 -0.2305
 7847SOL    HW135000   0.563   1.075   8.368 -0.0302 -0.9868  0.4356
 7847SOL    HW235001   0.617   1.074   8.227  0.0766 -0.3527 -0.0889
 7848SOL     OW35002   0.362   2.322   3.869 -0.6180  0.0659 -0.5776
 7848SOL    HW135003   0.331   2.301   3.780 -2.0750 -0.5315  0.0676
 7848SOL    HW235004   0.297   2.384   3.902 -1.0039 -0.3281 -0.5985
 7849SOL     OW35005   0.492   1.471   5.544 -0.2755 -0.6634 -0.5653
 7849SOL    HW135006   0.480   1.514   5.460 -0.1516 -0.7632 -0.6348
 7849SOL    HW235007   0.452   1.533   5.605  0.5792  0.3869 -1.0734
 7850SOL     OW35008   3.692   0.786   6.365 -0.4163  0.4441 -0.3670
 7850SOL    HW135009   3.655   0.827   6.287 -0.1019  0.3892 -0.5451
 7850SOL    HW235010   3.783   0.782   6.334 -0.3796 -1.7878  0.0727
 7851SOL     OW35011   0.128   0.106   4.481  0.1270  0.5764 -0.1016
 7851SOL    HW135012   0.095   0.125   4.393 -0.4279 -1.7254 -0.3774
 7851SOL    HW235013   0.055   0.060   4.523  0.8409 -0.7078 -0.2962
 7852SOL     OW35014   0.898   3.862  15.821  0.1554  0.0595  0.0957
 7852SOL    HW135015   0.865   3.893  15.737  1.9541  2.3516  0.2278
 7852SOL    HW235016   0.891   3.936  15.882 -0.1088  0.8670 -0.9068
 7853SOL     OW35017   3.003   2.402   3.659  0.0972  0.2771  0.1909
 7853SOL    HW135018   3.074   2.390   3.723  0.6678  0.3389 -0.4262
 7853SOL    HW235019   2.949   2.464   3.708  0.3534  1.4482 -0.9959
 7854SOL     OW35020   4.180   0.147  17.269  0.2945  0.0696  0.4372
 7854SOL    HW135021   4.129   0.173  17.193  2.0415 -0.6660 -0.9933
 7854SOL    HW235022   4.128   0.166  17.347 -0.1743  0.7729 -0.0496
 7855SOL     OW35023   2.380   0.162   7.461 -0.0947 -0.0634  0.4623
 7855SOL    HW135024   2.387   0.221   7.385 -0.3106 -3.3031 -2.0889
 7855SOL    HW235025   2.469   0.130   7.469  1.0566  2.2861 -2.7314
 7856SOL     OW35026   1.104   4.401   8.433 -0.6363 -0.1816 -0.2308
 7856SOL    HW135027   1.096   4.370   8.344  0.0051  1.7818 -0.9813
 7856SOL    HW235028   1.194   4.434   8.429 -0.7792  0.3279  0.5256
 7857SOL     OW35029   1.037   2.381  17.036  0.1996  0.3907  1.1527
 7857SOL    HW135030   1.014   2.448  16.971  2.2477 -0.7530 -0.7827
 7857SOL    HW235031   1.121   2.351  17.000 -1.1940  0.3731 -2.0619
 7858SOL     OW35032   4.232   3.679   7.951  0.1230  0.4012  0.5483
 7858SOL    HW135033   4.322   3.661   7.977  0.2010 -0.3747 -0.2989
 7858SOL    HW235034   4.239   3.771   7.925  0.0170 -0.4279 -2.4013
 7859SOL     OW35035   2.989   3.651   7.861 -0.9746 -0.2455 -0.2402
 7859SOL    HW135036   3.004   3.579   7.800 -1.0496  0.2991 -0.9010
 7859SOL    HW235037   2.904   3.625   7.896 -2.0605 -0.0471 -2.7531
 7860SOL     OW35038   4.259   3.662  16.730 -0.1599  0.0242 -0.2257
 7860SOL    HW135039   4.324   3.629  16.668 -0.5493 -0.1421 -0.5432
 7860SOL    HW235040   4.253   3.752  16.699  0.4179  0.5023  1.0514
 7861SOL     OW35041   2.953   3.896   6.765 -0.2393  0.0223 -0.5789
 7861SOL    HW135042   3.035   3.853   6.790  0.4069  0.8511 -1.2643
 7861SOL    HW235043   2.893   3.823   6.752 -0.8415  0.3296  0.5032
 7862SOL     OW35044   3.494   2.615   8.090  0.1617 -0.0350  0.7283
 7862SOL    HW135045   3.514   2.600   7.998 -1.9739 -0.5588  0.3529
 7862SOL    HW235046   3.514   2.531   8.132  0.0676  0.2230  1.2860
 7863SOL     OW35047   3.382   2.050  13.144 -0.0577  0.3894 -0.2003
 7863SOL    HW135048   3.351   1.976  13.196 -1.5213  0.4153 -1.0288
 7863SOL    HW235049   3.327   2.124  13.170 -0.1963 -0.0092  0.6406
 7864SOL     OW35050   1.227   1.729   9.104  0.2349  0.8698 -0.2768
 7864SOL    HW135051   1.300   1.783   9.134 -0.8414  1.7370  0.7767
 7864SOL    HW235052   1.274   1.676   9.039  1.8990  0.8774  0.9427
 7865SOL     OW35053   2.847   1.662   7.376 -0.2701 -0.4082  0.1522
 7865SOL    HW135054   2.934   1.688   7.346  0.0295 -1.2597  0.2797
 7865SOL    HW235055   2.797   1.732   7.335 -1.4962 -2.4014 -1.7650
 7866SOL     OW35056   1.062   4.347  15.152  0.0167  0.5043  0.9087
 7866SOL    HW135057   1.101   4.270  15.110  2.3398  0.4349  3.1186
 7866SOL    HW235058   1.066   4.416  15.085  2.5143 -1.4191 -0.9495
 7867SOL     OW35059   2.624   1.252   6.312  0.2293  0.3172 -0.1298
 7867SOL    HW135060   2.554   1.264   6.248  1.2852  0.7340 -1.2189
 7867SOL    HW235061   2.632   1.157   6.312  2.8487  0.5342 -0.0457
 7868SOL     OW35062   4.373   1.322  10.205  0.0552  0.5163 -0.3247
 7868SOL    HW135063   4.353   1.230  10.187 -1.8207  1.3921 -2.7796
 7868SOL    HW235064   4.291   1.364  10.179 -1.0382 -2.7455 -2.1810
 7869SOL     OW35065   1.166   0.813   3.627 -0.4478 -0.0362 -0.2714
 7869SOL    HW135066   1.214   0.894   3.646 -3.0164  1.3660  0.2120
 7869SOL    HW235067   1.228   0.745   3.654  0.9408  1.0849 -0.6198
 7870SOL     OW35068   3.756   3.831   3.655 -0.2992 -0.5714 -0.4169
 7870SOL    HW135069   3.817   3.764   3.626 -1.7683 -1.0407 -2.3960
 7870SOL    HW235070   3.709   3.836   3.572  2.1383 -0.8461 -1.7955
 7871SOL     OW35071   3.809   0.201  12.167  0.6175  0.0396 -0.3359
 7871SOL    HW135072   3.806   0.128  12.228 -1.8752  2.7137  2.7431
 7871SOL    HW235073   3.738   0.258  12.198  1.5800  0.0755  1.7583
 7872SOL     OW35074   1.863   3.895  17.362  0.1969 -0.7908  0.1183
 7872SOL    HW135075   1.843   3.827  17.297  1.2809  0.0256 -1.0700
 7872SOL    HW235076   1.867   3.974  17.307  2.3709 -0.9660  0.0132
 7873SOL     OW35077   4.305   1.432   4.535  0.7975 -0.2795 -0.1170
 7873SOL    HW135078   4.236   1.440   4.470 -0.1137  0.7171  0.9918
 7873SOL    HW235079   4.381   1.443   4.477 -0.8691 -0.8400 -2.3867
 7874SOL     OW35080   3.128   0.769   4.664 -0.3738  0.0819 -0.2329
 7874SOL    HW135081   3.157   0.797   4.578 -0.2495 -0.3801 -0.3441
 7874SOL    HW235082   3.135   0.674   4.655 -0.4146  0.1239 -0.7036
 7875SOL     OW35083   0.091   3.269  12.949 -0.3776  0.6613  0.3856
 7875SOL    HW135084   0.079   3.221  12.867  0.2278  2.2971 -0.6662
 7875SOL    HW235085   0.117   3.201  13.011 -0.1217  1.0743  0.7326
 7876SOL     OW35086   2.121   2.572   1.318  0.0007 -0.5582  0.1990
 7876SOL    HW135087   2.136   2.524   1.400 -2.2030 -3.7197 -1.2410
 7876SOL    HW235088   2.056   2.639   1.340  1.6939  1.7531 -1.9566
 7877SOL     OW35089   1.012   2.719  10.946 -0.1342  0.5053  0.4497
 7877SOL    HW135090   0.986   2.743  10.858 -0.0545 -0.8353  0.0545
 7877SOL    HW235091   1.064   2.788  10.986 -0.8055  1.3582 -0.1606
 7878SOL     OW35092   4.135   0.711   0.593  0.2122  0.2959  0.2945
 7878SOL    HW135093   4.120   0.691   0.686 -0.4394  3.1678  0.8037
 7878SOL    HW235094   4.170   0.800   0.594 -1.9263  1.1506 -0.3578
 7879SOL     OW35095   0.867   1.628   6.317  0.2975  0.0279 -0.6200
 7879SOL    HW135096   0.813   1.674   6.382  1.2764 -1.5492  1.2991
 7879SOL    HW235097   0.798   1.578   6.275 -1.1973  2.5046 -1.1027
 7880SOL     OW35098   1.557   2.702   3.492 -0.4864  0.6577  0.1566
 7880SOL    HW135099   1.520   2.783   3.526  0.3993  1.5116 -0.8764
 7880SOL    HW235100   1.510   2.692   3.409 -1.7442  1.3631  0.7842
 7881SOL     OW35101   3.960   3.196   4.233  0.2309 -0.1460 -0.6813
 7881SOL    HW135102   3.906   3.221   4.308  1.1918 -2.7613  0.8813
 7881SOL    HW235103   4.033   3.154   4.278  1.0603  2.0690  0.0580
 7882SOL     OW35104   3.952   4.575  12.024  0.0851 -0.1491  0.4359
 7882SOL    HW135105   4.007   4.576  11.945  0.4084  1.9600  0.6942
 7882SOL    HW235106   3.892   4.637  11.982 -0.5720 -0.6923  0.5705
 7883SOL     OW35107   1.245   4.542  11.918 -0.3892 -0.6581  0.2606
 7883SOL    HW135108   1.263   4.451  11.894 -0.3485 -0.1604 -1.5623
 7883SOL    HW235109   1.319   4.553  11.978  0.1387 -1.0158 -0.3256
 7884SOL     OW35110   2.083   3.917   7.928 -0.7010  0.2203 -0.0527
 7884SOL    HW135111   2.157   3.902   7.987 -1.8474  0.6510  1.5088
 7884SOL    HW235112   2.053   4.001   7.961 -0.4675  1.6368 -3.4150
 7885SOL     OW35113   1.612   4.576  15.416  0.3098  0.1592 -0.1250
 7885SOL    HW135114   1.612   4.569  15.511  0.5565 -0.4725 -0.1716
 7885SOL    HW235115   1.656   4.661  15.414 -0.0056  0.3355  0.6049
 7886SOL     OW35116   4.145   1.498  14.713 -0.7404  0.6836 -0.2676
 7886SOL    HW135117   4.126   1.566  14.648 -0.9026 -1.1290 -2.1302
 7886SOL    HW235118   4.225   1.536  14.749  0.1623 -1.0218 -0.4750
 7887SOL     OW35119   0.350   0.240   2.476 -1.0894  0.5309 -0.7912
 7887SOL    HW135120   0.416   0.263   2.542 -0.9420 -0.3060 -0.6360
 7887SOL    HW235121   0.298   0.172   2.519  0.7388  0.0455  0.6764
 7888SOL     OW35122   0.734   1.564   2.182  0.2510 -0.2908 -0.3192
 7888SOL    HW135123   0.638   1.561   2.171  0.2730 -1.7937 -0.1252
 7888SOL    HW235124   0.763   1.499   2.117  2.0947  1.4589 -1.2256
 7889SOL     OW35125   0.116   2.449   9.422 -0.2771 -0.5507 -0.3326
 7889SOL    HW135126   0.107   2.410   9.335 -0.5455  1.7081 -1.3267
 7889SOL    HW235127   0.027   2.482   9.433 -0.4368 -0.8319 -0.7489
 7890SOL     OW35128   0.573   2.936   2.521  0.1178  0.3153  0.4693
 7890SOL    HW135129   0.504   2.885   2.564  0.6736  0.3189  1.3729
 7890SOL    HW235130   0.620   2.972   2.596  1.4799 -0.8439  0.1667
 7891SOL     OW35131   2.722   1.415  14.268  0.5165  0.1379  0.2319
 7891SOL    HW135132   2.778   1.451  14.200 -0.0131  2.7884  1.2164
 7891SOL    HW235133   2.791   1.377  14.322  1.3838 -2.1311 -2.4537
 7892SOL     OW35134   0.053   4.634  12.465 -0.4459  0.3946 -0.5022
 7892SOL    HW135135   0.125   4.691  12.491  0.2283 -0.1993 -1.0883
 7892SOL    HW235136   0.084   4.585  12.389 -1.5810 -1.7880  0.4242
 7893SOL     OW35137   4.634   2.393   6.000  0.1052  0.3205  0.1416
 7893SOL    HW135138   4.710   2.440   6.033 -1.1212  1.6008  1.1377
 7893SOL    HW235139   4.594   2.376   6.085 -0.1759 -2.0170 -0.4455
 7894SOL     OW35140   0.088   0.621   9.311  0.0391 -0.1254  0.3213
 7894SOL    HW135141   0.078   0.697   9.253 -0.2749 -0.5083 -0.1222
 7894SOL    HW235142   0.178   0.598   9.286 -0.4215  0.4911 -1.9584
 7895SOL     OW35143   2.512   2.573   4.757  0.8167  0.5313  0.2544
 7895SOL    HW135144   2.571   2.618   4.696  2.9307 -0.9298  1.2822
 7895SOL    HW235145   2.439   2.559   4.695 -0.6140 -0.6635  2.2177
 7896SOL     OW35146   2.063   4.093   9.147  0.4934  0.0558  0.0486
 7896SOL    HW135147   1.971   4.119   9.146  0.5234  0.1175 -1.1314
 7896SOL    HW235148   2.109   4.158   9.093 -1.0049  0.4262 -0.7939
 7897SOL     OW35149   4.646   0.432  12.172  0.4926  0.3172 -0.1716
 7897SOL    HW135150   4.576   0.396  12.226  1.6855  0.9328  1.7791
 7897SOL    HW235151   4.591   0.491  12.120 -0.1183 -0.5369 -0.4870
 7898SOL     OW35152   2.949   3.122   2.612  0.4444 -0.4437  0.5665
 7898SOL    HW135153   2.911   3.187   2.552 -0.8791 -2.0299 -0.3360
 7898SOL    HW235154   3.034   3.105   2.573  0.6783 -0.2111  0.9784
 7899SOL     OW35155   2.708   1.187   8.119  0.3375  0.5550 -0.1765
 7899SOL    HW135156   2.748   1.260   8.070  0.3331  0.7205  0.0683
 7899SOL    HW235157   2.625   1.224   8.147  0.5635  2.6011 -2.1529
 7900SOL     OW35158   1.382   2.020   2.761 -0.0530 -0.5094  0.1202
 7900SOL    HW135159   1.398   1.994   2.852  1.9352  1.0715  0.2133
 7900SOL    HW235160   1.302   1.973   2.738 -0.3809  0.2141 -0.2031
 7901SOL     OW35161   1.322   1.685   2.395 -0.5258  0.3488  0.3242
 7901SOL    HW135162   1.232   1.712   2.412  0.2726  3.2531 -0.0443
 7901SOL    HW235163   1.313   1.639   2.312  1.6751  0.4167  0.0357
 7902SOL     OW35164   1.792   2.087   5.126  0.2704  0.0841  0.1190
 7902SOL    HW135165   1.759   2.069   5.214  0.6351  0.8284  0.4090
 7902SOL    HW235166   1.830   2.174   5.136  0.0725  0.0700  1.0497
 7903SOL     OW35167   3.155   2.974   2.023  0.2441 -0.0324 -0.1972
 7903SOL    HW135168   3.200   3.007   2.101  1.6830 -0.9405 -0.6506
 7903SOL    HW235169   3.186   3.034   1.955  0.7024  1.3445  1.2204
 7904SOL     OW35170   0.968   1.354  11.948  0.5156  0.1205 -0.1233
 7904SOL    HW135171   0.957   1.449  11.950  0.6675  0.1773 -2.1530
 7904SOL    HW235172   0.996   1.333  11.859  0.1596 -1.9826  0.2588
 7905SOL     OW35173   2.904   1.658  11.343 -0.7688  0.2745 -0.0388
 7905SOL    HW135174   2.891   1.605  11.264  0.6799  0.5529 -0.4711
 7905SOL    HW235175   2.816   1.668  11.378 -1.2964 -1.0971 -0.9636
 7906SOL     OW35176   3.201   4.147  11.386 -0.4310  0.1254 -0.0781
 7906SOL    HW135177   3.237   4.060  11.400 -1.5526 -0.4796 -1.0196
 7906SOL    HW235178   3.107   4.130  11.393 -0.9072  2.1377 -1.6557
 7907SOL     OW35179   3.601   3.923   5.951  0.2495 -0.8341  0.1851
 7907SOL    HW135180   3.683   3.879   5.973  0.2122 -0.5061  0.9917
 7907SOL    HW235181   3.540   3.859   5.989 -0.5882  0.4802  1.0529
 7908SOL     OW35182   0.975   2.782   2.664 -0.2023  0.3466  0.3155
 7908SOL    HW135183   0.887   2.818   2.678 -0.4373 -0.0670 -0.0712
 7908SOL    HW235184   1.022   2.850   2.712 -1.9698  2.0921 -0.3922
 7909SOL     OW35185   1.960   0.789   2.994  0.4406 -0.1969 -0.3971
 7909SOL    HW135186   1.924   0.876   2.976  0.3634  0.1839  1.5719
 7909SOL    HW235187   1.892   0.759   3.054  0.8586  0.8284  0.5896
 7910SOL     OW35188   3.248   0.757   0.746  0.0365 -0.0146 -0.3031
 7910SOL    HW135189   3.315   0.826   0.751  0.3847 -0.4694  1.4608
 7910SOL    HW235190   3.246   0.742   0.841  3.3472  0.0207 -0.2369
 7911SOL     OW35191   2.918   0.487   2.550  0.1968  0.6751  0.0301
 7911SOL    HW135192   2.825   0.504   2.542 -0.2675 -1.6935  0.2208
 7911SOL    HW235193   2.928   0.443   2.635 -1.1645 -0.0302 -0.1734
 7912SOL     OW35194   3.136   4.524   5.337  0.0357 -0.3312 -0.7417
 7912SOL    HW135195   3.097   4.466   5.271 -2.4003  1.0759 -0.5094
 7912SOL    HW235196   3.200   4.569   5.281 -0.8078  2.5244  0.5932
 7913SOL     OW35197   4.654   4.716   6.351 -0.4472 -0.1651  0.2733
 7913SOL    HW135198   4.633   4.624   6.365  1.8769 -1.2122 -3.0373
 7913SOL    HW235199   4.672   0.025   6.440  0.0411  1.2731 -0.2999
 7914SOL     OW35200   1.303   4.088  16.566 -0.2419 -0.5958 -0.4081
 7914SOL    HW135201   1.383   4.136  16.548 -0.5371  0.3746  0.8335
 7914SOL    HW235202   1.244   4.125  16.500 -0.7173  0.8632  0.8381
 7915SOL     OW35203   4.608   0.092  16.948 -0.5600  0.2877  0.0541
 7915SOL    HW135204   4.651   0.025  16.895 -3.1145 -0.2773 -1.2716
 7915SOL    HW235205   4.546   0.045  17.004  0.7845 -0.1603  1.1800
 7916SOL     OW35206   3.135   4.636   3.870 -0.2737 -0.5389  0.2183
 7916SOL    HW135207   3.113   4.595   3.954 -0.7582 -0.8749 -0.0777
 7916SOL    HW235208   3.223   4.670   3.885 -0.7705 -0.2393  2.4734
 7917SOL     OW35209   4.213   3.086  15.369  0.0302  0.2923  0.1572
 7917SOL    HW135210   4.130   3.063  15.410 -0.2175 -0.3894 -0.7371
 7917SOL    HW235211   4.264   3.030  15.429 -1.4281 -0.1204  1.0049
 7918SOL     OW35212   0.418   0.334   6.922 -0.4180 -0.0217  0.5547
 7918SOL    HW135213   0.408   0.422   6.957 -1.0770 -0.5252  1.6189
 7918SOL    HW235214   0.490   0.292   6.969  0.5130  1.4994  0.4730
 7919SOL     OW35215   1.445   3.760   3.473  0.4425 -0.4084  0.0507
 7919SOL    HW135216   1.450   3.810   3.391  2.7889  0.0830  0.5096
 7919SOL    HW235217   1.391   3.688   3.441  0.1358 -0.1163 -0.0938
 7920SOL     OW35218   1.234   1.457   6.182  0.1370  0.1130 -0.1208
 7920SOL    HW135219   1.268   1.515   6.114  0.0681  1.5173  1.0408
 7920SOL    HW235220   1.301   1.391   6.162  1.3766  1.6471 -0.9618
 7921SOL     OW35221   4.550   3.269  16.467  0.1543  0.3225  0.2326
 7921SOL    HW135222   4.464   3.307  16.448  1.3466  2.6842 -0.4248
 7921SOL    HW235223   4.565   3.275  16.561  2.2051  0.6835 -0.1316
 7922SOL     OW35224   4.373   4.554   5.843  0.0753 -0.1115  0.2055
 7922SOL    HW135225   4.384   4.615   5.916  0.7050 -0.4509  0.3950
 7922SOL    HW235226   4.390   4.471   5.887  1.0789  0.9743  1.8395
 7923SOL     OW35227   0.840   0.806  13.633  0.7250  0.7343  0.1769
 7923SOL    HW135228   0.889   0.752  13.571 -0.1161  0.7898 -0.5307
 7923SOL    HW235229   0.892   0.776  13.708 -0.1106  0.3338  0.6060
 7924SOL     OW35230   2.885   1.128  14.437  0.2247  0.5268 -0.7584
 7924SOL    HW135231   2.885   1.066  14.509  0.4683 -0.5459 -1.6793
 7924SOL    HW235232   2.853   1.204  14.486 -1.5769  0.6577 -2.1510
 7925SOL     OW35233   3.713   0.122   6.460  0.3679  0.5447  0.2681
 7925SOL    HW135234   3.705   0.034   6.424 -1.7413  0.5013  0.8253
 7925SOL    HW235235   3.693   0.104   6.552  1.1134  0.2359  0.3756
 7926SOL     OW35236   3.591   2.448  10.160 -0.2358 -0.8294  0.1858
 7926SOL    HW135237   3.532   2.399  10.102 -0.2624 -0.4651 -0.0941
 7926SOL    HW235238   3.535   2.451  10.237  1.6047 -0.1844  1.4776
 7927SOL     OW35239   0.822   1.189   5.421 -0.6312 -0.1312  0.0486
 7927SOL    HW135240   0.732   1.209   5.444 -0.6662  2.5575 -2.4172
 7927SOL    HW235241   0.821   1.236   5.337  2.0439 -0.1501  0.0046
 7928SOL     OW35242   1.456   3.183   0.743 -0.1637 -0.2259  0.1180
 7928SOL    HW135243   1.528   3.223   0.695 -0.6131 -0.9618 -1.1705
 7928SOL    HW235244   1.491   3.103   0.782 -0.0959 -0.0601  0.3948
 7929SOL     OW35245   4.172   2.684  13.586  0.2191  0.3737 -0.3762
 7929SOL    HW135246   4.125   2.744  13.528 -0.3912  0.2645  0.0032
 7929SOL    HW235247   4.210   2.741  13.653  0.8277 -1.1701  0.6026
 7930SOL     OW35248   4.249   3.028  10.674 -0.3601  0.6632  0.0380
 7930SOL    HW135249   4.266   2.975  10.752  0.0559  0.5922 -0.1013
 7930SOL    HW235250   4.170   2.980  10.650 -0.5246 -0.2389  2.4330
 7931SOL     OW35251   0.005   3.199  13.760  0.2820  0.2310 -0.6241
 7931SOL    HW135252   4.671   3.183  13.837 -1.2885  1.8793 -1.3891
 7931SOL    HW235253   4.696   3.277  13.712  2.7265  0.5926 -1.5487
 7932SOL     OW35254   3.343   0.783   5.766 -0.6409 -0.1693  0.3509
 7932SOL    HW135255   3.252   0.755   5.753 -0.9198  1.0993 -0.4334
 7932SOL    HW235256   3.349   0.835   5.686 -2.0660  1.4559  1.2951
 7933SOL     OW35257   3.504   3.631   8.920 -0.0292  0.3725 -0.2754
 7933SOL    HW135258   3.520   3.557   8.979 -1.4772 -0.4531 -0.9313
 7933SOL    HW235259   3.437   3.670   8.975  2.0089  1.9373  1.1028
 7934SOL     OW35260   2.909   3.270  16.894  0.5395  0.0744  0.1709
 7934SOL    HW135261   2.928   3.364  16.890 -1.6733  0.6866  3.4048
 7934SOL    HW235262   2.885   3.258  16.986  0.1584  2.1346  0.3232
 7935SOL     OW35263   3.219   1.938   6.920 -0.0545 -0.2251 -0.0535
 7935SOL    HW135264   3.296   1.993   6.910  1.4073 -2.3379 -0.3450
 7935SOL    HW235265   3.202   1.958   7.012 -1.7806  0.1517 -0.4563
 7936SOL     OW35266   4.093   2.441   8.696  0.3077 -0.0886 -0.2512
 7936SOL    HW135267   4.026   2.384   8.658 -0.0466  0.5675 -0.5948
 7936SOL    HW235268   4.083   2.519   8.642 -0.6242  0.4181  0.6487
 7937SOL     OW35269   3.473   0.088   1.346  0.4657  0.1300  0.2860
 7937SOL    HW135270   3.470   0.103   1.440 -0.2718  1.2698  0.0814
 7937SOL    HW235271   3.565   0.107   1.328  0.3185 -0.0471 -0.6634
 7938SOL     OW35272   2.307   3.774   7.437  0.0116 -0.0867 -0.1589
 7938SOL    HW135273   2.311   3.807   7.527 -0.7603  2.7961 -1.1717
 7938SOL    HW235274   2.401   3.765   7.421  0.1888 -0.8527  1.3475
 7939SOL     OW35275   2.276   2.245   3.622  0.2210 -0.1390  0.2753
 7939SOL    HW135276   2.289   2.160   3.580  1.6842  0.0544  0.3666
 7939SOL    HW235277   2.354   2.298   3.611 -0.8076  1.1867 -0.6592
 7940SOL     OW35278   2.940   1.264   6.058 -0.0289 -0.5111 -0.4495
 7940SOL    HW135279   2.906   1.307   5.979  0.4516  0.7656  0.0406
 7940SOL    HW235280   2.902   1.317   6.127  2.2848  1.1697 -0.4549
 7941SOL     OW35281   1.765   3.482   9.886  0.0354  0.2094 -0.3411
 7941SOL    HW135282   1.671   3.496   9.902  0.8123  2.1538  2.5769
 7941SOL    HW235283   1.794   3.552   9.945 -1.2292  0.2329  0.2674
 7942SOL     OW35284   2.099   2.207  12.043 -0.2040  0.1449  0.7860
 7942SOL    HW135285   2.139   2.227  12.127 -0.3484  0.5927  0.7483
 7942SOL    HW235286   2.169   2.162  11.996 -1.9224 -1.5623 -0.1284
 7943SOL     OW35287   4.085   2.312   7.481 -0.3829 -0.1202  0.5889
 7943SOL    HW135288   4.178   2.304   7.502 -0.0020 -0.3385 -1.2061
 7943SOL    HW235289   4.054   2.221   7.479  0.2138 -0.3204  0.2859
 7944SOL     OW35290   3.000   1.896   1.878  0.1129 -0.4726 -0.0633
 7944SOL    HW135291   2.927   1.942   1.835  0.3425 -1.3137 -1.3715
 7944SOL    HW235292   2.998   1.813   1.830 -3.7286  1.9037 -4.0398
 7945SOL     OW35293   1.766   3.007  11.112  0.6589  0.7677 -0.3363
 7945SOL    HW135294   1.683   3.045  11.082  0.0646 -0.5025 -0.3290
 7945SOL    HW235295   1.755   3.022  11.206 -0.6089  3.0865 -0.8607
 7946SOL     OW35296   2.534   0.420   6.095 -0.4159 -0.0994  0.0610
 7946SOL    HW135297   2.517   0.476   6.019  0.3565 -0.6550 -0.5196
 7946SOL    HW235298   2.605   0.366   6.058 -0.5653  0.3323 -0.8690
 7947SOL     OW35299   0.141   1.096   6.596 -0.2028 -0.2972  0.9726
 7947SOL    HW135300   0.150   1.130   6.685 -0.0170 -0.7080  1.1143
 7947SOL    HW235301   0.057   1.051   6.597  0.2267 -1.1200  1.1028
 7948SOL     OW35302   3.367   3.158  10.916  0.3771 -0.6413 -0.4698
 7948SOL    HW135303   3.347   3.071  10.880  1.9539  0.4698 -4.0120
 7948SOL    HW235304   3.309   3.223  10.877 -1.5797 -1.4218  1.1408
 7949SOL     OW35305   2.385   0.263  13.117 -0.1367 -0.5667  0.0200
 7949SOL    HW135306   2.386   0.246  13.023 -0.3065  2.7071 -0.5573
 7949SOL    HW235307   2.473   0.230  13.132 -0.5880 -0.2749  3.2275
 7950SOL     OW35308   1.847   4.384   5.695 -0.2180 -0.6718  0.2614
 7950SOL    HW135309   1.885   4.426   5.772  1.0094  1.1165 -1.3045
 7950SOL    HW235310   1.878   4.294   5.701 -2.1666 -1.3990 -0.5646
 7951SOL     OW35311   2.920   1.183   5.647  0.9938  0.5320 -0.2591
 7951SOL    HW135312   2.966   1.196   5.564 -1.3486  2.6515 -1.2464
 7951SOL    HW235313   2.971   1.241   5.703 -0.0878  0.5712  0.6994
 7952SOL     OW35314   1.665   3.217   0.390 -0.6617  0.2690 -0.4696
 7952SOL    HW135315   1.716   3.184   0.315 -0.3077  1.9731 -0.9839
 7952SOL    HW235316   1.584   3.226   0.340 -1.7600 -0.9641  1.1016
 7953SOL     OW35317   4.076   1.970   6.571 -0.1366  0.7032 -0.1707
 7953SOL    HW135318   4.116   1.994   6.654 -1.7861  2.6463  0.0707
 7953SOL    HW235319   4.151   1.995   6.517 -1.6797  4.0063 -0.8031
 7954SOL     OW35320   3.305   4.466  15.105 -0.4784 -0.2513 -0.2503
 7954SOL    HW135321   3.258   4.386  15.128 -0.7449 -0.5364 -1.7451
 7954SOL    HW235322   3.323   4.490  15.196 -0.0214  2.2995 -1.0050
 7955SOL     OW35323   0.538   3.975   1.983 -0.0437  0.4320  0.0643
 7955SOL    HW135324   0.572   3.929   1.905 -1.2718  0.3372 -0.4082
 7955SOL    HW235325   0.456   4.014   1.955  0.4779  1.8609  0.5576
 7956SOL     OW35326   0.076   3.732   1.331 -0.5789 -0.5319 -0.3888
 7956SOL    HW135327   0.112   3.817   1.356  0.4498 -0.8859 -0.6815
 7956SOL    HW235328   4.705   3.750   1.354 -1.1959 -0.9079 -2.5033
 7957SOL     OW35329   3.113   2.659  15.485  0.8201  0.1943 -0.4465
 7957SOL    HW135330   3.030   2.693  15.449  1.1285 -0.2156 -1.5499
 7957SOL    HW235331   3.096   2.567  15.464  1.5175  0.0871 -0.5223
 7958SOL     OW35332   0.412   4.226  16.523  0.2832 -0.3386  0.0247
 7958SOL    HW135333   0.416   4.221  16.428  2.1050 -0.2069  0.1059
 7958SOL    HW235334   0.462   4.147  16.543 -0.0310 -0.5401  0.0248
 7959SOL     OW35335   0.476   1.081   8.921  0.2311 -0.0006 -0.3416
 7959SOL    HW135336   0.546   1.143   8.902 -0.0277  0.6329  0.7984
 7959SOL    HW235337   0.405   1.139   8.893 -0.3040 -0.2619  0.4767
 7960SOL     OW35338   1.017   1.167  16.998 -0.3073  0.2825  0.5970
 7960SOL    HW135339   0.994   1.077  16.973  1.2854  0.1930 -0.5430
 7960SOL    HW235340   1.093   1.183  16.941 -0.4071  0.2644  0.4581
 7961SOL     OW35341   0.437   3.427  11.251  0.3757  0.2628 -0.1968
 7961SOL    HW135342   0.453   3.363  11.182  1.3627 -0.5698  0.8219
 7961SOL    HW235343   0.357   3.468  11.218  0.7465  2.5668  1.8162
 7962SOL     OW35344   1.607   3.554   1.089  0.7596  0.4124 -0.4011
 7962SOL    HW135345   1.582   3.609   1.163  0.1836  1.3685 -1.3041
 7962SOL    HW235346   1.655   3.616   1.033  1.4021 -0.4563 -0.8117
 7963SOL     OW35347   2.815   2.372   1.227 -0.1761  0.2041 -0.3144
 7963SOL    HW135348   2.733   2.323   1.227  0.9525 -1.6587  2.9890
 7963SOL    HW235349   2.801   2.441   1.292  0.9429 -1.7351  2.0077
 7964SOL     OW35350   4.385   2.037   5.907  0.2832 -0.4850 -0.3151
 7964SOL    HW135351   4.464   2.027   5.960 -0.1076  1.9138  0.6802
 7964SOL    HW235352   4.418   2.086   5.832 -0.2809  0.4927  0.0895
 7965SOL     OW35353   0.552   4.654   1.598 -0.8239 -0.1417 -0.4882
 7965SOL    HW135354   0.643   4.650   1.629 -1.4456  0.4643  1.4105
 7965SOL    HW235355   0.545   4.572   1.549  0.6320  0.8165 -2.3246
 7966SOL     OW35356   2.199   3.022   1.657 -0.5083  0.5943 -0.6551
 7966SOL    HW135357   2.135   2.964   1.699 -0.4208  0.2461 -1.0062
 7966SOL    HW235358   2.264   3.031   1.727 -0.6794  0.4399 -0.4738
 7967SOL     OW35359   4.235   1.937   7.989 -0.0369  0.5895  1.1195
 7967SOL    HW135360   4.258   1.846   8.007  0.7310  0.9254  1.8671
 7967SOL    HW235361   4.310   1.973   8.036 -1.5157  4.9240  0.1852
 7968SOL     OW35362   1.486   2.146  14.695 -0.2079  0.4319  0.2897
 7968SOL    HW135363   1.505   2.061  14.735  0.4666  0.3998 -0.1129
 7968SOL    HW235364   1.551   2.142  14.626  0.4024  0.8693  0.8422
 7969SOL     OW35365   3.868   2.624   2.983  0.6795 -0.0896  0.3238
 7969SOL    HW135366   3.926   2.659   3.051  1.1500  2.2682 -1.2679
 7969SOL    HW235367   3.919   2.619   2.903  0.9990  2.4402  0.3637
 7970SOL     OW35368   3.588   4.157   4.547 -0.3331 -0.0939  0.1154
 7970SOL    HW135369   3.629   4.090   4.492  0.3402 -0.9088  1.6139
 7970SOL    HW235370   3.653   4.226   4.553  0.0590 -0.4341 -0.2422
 7971SOL     OW35371   0.386   4.265  13.052  0.0167  0.2293 -0.5032
 7971SOL    HW135372   0.432   4.344  13.081 -0.1571 -0.9680  3.0917
 7971SOL    HW235373   0.452   4.239  12.988  1.1440  3.2256 -0.5602
 7972SOL     OW35374   0.656   1.830   7.398  0.3973 -0.1630 -0.2416
 7972SOL    HW135375   0.624   1.766   7.335 -1.1429  1.0095 -0.6616
 7972SOL    HW235376   0.655   1.779   7.479 -0.3371  1.5859  0.8636
 7973SOL     OW35377   2.215   4.225   7.027  0.0801  0.0922  0.2157
 7973SOL    HW135378   2.226   4.133   7.003  2.3419  0.2508  0.6685
 7973SOL    HW235379   2.174   4.224   7.113 -1.9000  0.6319 -0.7291
 7974SOL     OW35380   2.112   4.063  12.502  0.4812 -0.9959 -0.7225
 7974SOL    HW135381   2.208   4.064  12.512  0.5281 -1.2765 -1.1622
 7974SOL    HW235382   2.113   4.021  12.416 -0.7283 -0.5521 -0.9485
 7975SOL     OW35383   3.576   2.247  14.762 -0.0826 -0.1275  0.2395
 7975SOL    HW135384   3.663   2.214  14.739 -1.5399 -2.1695 -2.4505
 7975SOL    HW235385   3.543   2.174  14.816  0.5423  0.4154  1.3464
 7976SOL     OW35386   3.064   1.997   3.818  0.1701 -0.2658 -0.3437
 7976SOL    HW135387   3.002   2.069   3.830 -0.0579 -0.7216  1.1196
 7976SOL    HW235388   3.099   2.023   3.732  2.7221 -1.2379  0.3867
 7977SOL     OW35389   2.867   2.381   8.329  0.1074 -0.5096  0.4978
 7977SOL    HW135390   2.845   2.311   8.391 -2.4375  0.3229  0.5224
 7977SOL    HW235391   2.777   2.412   8.318  0.0528 -0.8124  0.0620
 7978SOL     OW35392   4.294   3.246   3.008 -0.4887  0.2894 -0.4180
 7978SOL    HW135393   4.262   3.268   2.921 -2.3813  2.1685  0.7403
 7978SOL    HW235394   4.383   3.280   3.014 -0.6000  0.7420 -1.4330
 7979SOL     OW35395   4.365   1.649   6.740  0.6307  0.4794  0.0765
 7979SOL    HW135396   4.361   1.644   6.836  0.3107  0.5946  0.0664
 7979SOL    HW235397   4.445   1.699   6.723  2.6567 -3.4651 -1.9700
 7980SOL     OW35398   3.719   2.935   9.826 -0.1586  0.1629  0.0472
 7980SOL    HW135399   3.709   2.898   9.739  1.7400 -1.9325  0.7247
 7980SOL    HW235400   3.654   2.877   9.867 -1.5355  1.2088 -0.6319
 7981SOL     OW35401   1.742   1.529   3.010 -0.4317 -0.0805  0.1537
 7981SOL    HW135402   1.650   1.554   3.018 -0.8260 -1.9642  1.6951
 7981SOL    HW235403   1.782   1.614   2.990 -0.2678 -0.9238 -2.9949
 7982SOL     OW35404   0.753   4.098   2.635 -0.1041  0.7658 -0.6296
 7982SOL    HW135405   0.727   4.081   2.726  0.3262  3.1724 -0.0397
 7982SOL    HW235406   0.838   4.056   2.628  0.2519  1.3961 -0.1671
 7983SOL     OW35407   3.361   1.541   0.372 -0.7767  0.4878  0.0739
 7983SOL    HW135408   3.311   1.552   0.453 -3.2143 -4.0585 -0.7622
 7983SOL    HW235409   3.397   1.454   0.388 -0.7229  0.4432 -0.2851
 7984SOL     OW35410   2.043   1.999  12.901 -0.0495 -0.0439 -1.0440
 7984SOL    HW135411   1.968   1.944  12.924 -0.2332  0.4827 -0.3926
 7984SOL    HW235412   2.091   1.947  12.837  0.9055  0.3309 -0.6314
 7985SOL     OW35413   0.507   4.335   3.367 -0.0628  0.3642 -0.5659
 7985SOL    HW135414   0.415   4.350   3.343 -0.4936 -2.1112 -0.4534
 7985SOL    HW235415   0.510   4.241   3.347 -0.3519 -0.0355  1.2408
 7986SOL     OW35416   4.379   0.297  13.777 -0.2208  0.3345 -0.3284
 7986SOL    HW135417   4.402   0.231  13.842 -0.0555  0.8309  0.1167
 7986SOL    HW235418   4.325   0.342  13.842 -0.9695 -0.4990 -0.3768
 7987SOL     OW35419   1.818   1.169   1.192  0.2332  0.3917 -0.4454
 7987SOL    HW135420   1.847   1.119   1.116 -1.5953  0.4161 -1.1566
 7987SOL    HW235421   1.763   1.104   1.236  1.0600 -0.2092 -0.2993
 7988SOL     OW35422   0.317   2.302   7.963 -0.0796 -0.5957 -0.5265
 7988SOL    HW135423   0.393   2.258   8.002  0.7744 -0.0063 -1.5241
 7988SOL    HW235424   0.341   2.287   7.872 -2.0420  0.3549 -1.2147
 7989SOL     OW35425   3.700   0.863  13.544  0.0630  0.2741  0.4955
 7989SOL    HW135426   3.657   0.849  13.629 -2.3161  4.0668 -0.0630
 7989SOL    HW235427   3.653   0.933  13.499  1.5844  0.7920 -0.2874
 7990SOL     OW35428   1.903   1.408   4.393  0.2328 -0.2151  0.5492
 7990SOL    HW135429   1.936   1.498   4.387 -0.3047 -0.1929 -2.1233
 7990SOL    HW235430   1.930   1.378   4.307  0.9810  1.2569  0.2609
 7991SOL     OW35431   0.693   2.492   8.724 -0.0078 -0.1639  0.3795
 7991SOL    HW135432   0.752   2.419   8.742 -0.6565 -0.5215  1.0817
 7991SOL    HW235433   0.615   2.438   8.733 -1.7391  2.1643 -0.6455
 7992SOL     OW35434   3.699   0.508   5.667  0.4214  0.4765 -0.0406
 7992SOL    HW135435   3.647   0.516   5.747  1.1415 -1.7845  0.6479
 7992SOL    HW235436   3.727   0.600   5.672 -0.1900  0.7151 -1.0677
 7993SOL     OW35437   1.623   2.830   2.731  0.2432 -0.7269 -0.3643
 7993SOL    HW135438   1.711   2.794   2.721  0.4744 -0.5409  1.0447
 7993SOL    HW235439   1.569   2.757   2.762 -0.0009  0.1868  1.3537
 7994SOL     OW35440   0.527   1.222   5.428  0.3438  0.1200  0.3172
 7994SOL    HW135441   0.453   1.232   5.369 -0.2628  0.7297  1.1844
 7994SOL    HW235442   0.546   1.306   5.468  1.6535  0.0156 -0.0623
 7995SOL     OW35443   1.228   1.564   6.451  0.1984  0.0004  0.1942
 7995SOL    HW135444   1.227   1.528   6.362  0.7626 -1.0035  0.6023
 7995SOL    HW235445   1.256   1.487   6.500  0.0313 -1.3157 -1.7761
 7996SOL     OW35446   3.529   2.161   1.319 -0.2900  0.0520 -0.1422
 7996SOL    HW135447   3.492   2.091   1.373  0.2786 -0.4168 -0.3676
 7996SOL    HW235448   3.448   2.201   1.289  1.1079  1.2605 -2.3215
 7997SOL     OW35449   3.660   0.872  16.956  0.1629 -0.3381 -0.0045
 7997SOL    HW135450   3.720   0.938  16.922  0.4123 -0.4487  0.2143
 7997SOL    HW235451   3.701   0.853  17.040  1.5333  0.2727 -0.5468
 7998SOL     OW35452   2.695   3.868   2.322 -0.1652  0.3107 -0.2360
 7998SOL    HW135453   2.706   3.961   2.341  2.6924 -0.1628  0.3752
 7998SOL    HW235454   2.643   3.834   2.395 -0.7822  3.3668  0.7166
 7999SOL     OW35455   0.195   4.037   7.354  0.2922 -0.3430 -0.4268
 7999SOL    HW135456   0.235   4.117   7.387  0.4072 -1.6065  2.4402
 7999SOL    HW235457   0.220   3.974   7.421 -0.6052  1.1059  1.2409
 8000SOL     OW35458   2.068   1.245  14.583  0.4609  0.3500 -0.1142
 8000SOL    HW135459   1.998   1.227  14.519 -0.0499 -0.5623  0.6917
 8000SOL    HW235460   2.059   1.163  14.632 -0.8865  1.4916  1.5436
 8001SOL     OW35461   0.756   3.388   3.988  0.5728  0.1490 -0.0677
 8001SOL    HW135462   0.822   3.362   3.923 -0.9645 -2.8994 -0.4160
 8001SOL    HW235463   0.672   3.386   3.943  0.7273  1.3982 -0.3992
 8002SOL     OW35464   4.637   0.144   7.261 -0.2430  0.0229 -0.2301
 8002SOL    HW135465   4.564   0.119   7.204 -1.2718 -1.5710  1.7937
 8002SOL    HW235466   4.600   0.215   7.314 -0.0371 -2.3618  3.0780
 8003SOL     OW35467   0.338   2.240   3.484  0.0747 -0.4421 -0.0190
 8003SOL    HW135468   0.371   2.266   3.399  1.2062 -0.4189  0.4290
 8003SOL    HW235469   0.257   2.198   3.456  0.4465 -1.8266  0.9814
 8004SOL     OW35470   3.188   0.340  14.188  0.2435  0.0203 -0.1774
 8004SOL    HW135471   3.103   0.376  14.163 -0.5205 -0.9350  1.0560
 8004SOL    HW235472   3.195   0.256  14.142  1.1429  0.4904 -0.8963
 8005SOL     OW35473   2.008   3.985   2.768  0.0687 -0.2399 -0.1024
 8005SOL    HW135474   1.929   3.984   2.823  0.6833  0.2550  0.7887
 8005SOL    HW235475   1.961   4.005   2.687 -0.8369  0.0508  0.4845
 8006SOL     OW35476   1.516   1.039   3.105  0.1751  0.3096  0.7461
 8006SOL    HW135477   1.509   1.038   3.010  0.1623  1.2033  0.7400
 8006SOL    HW235478   1.540   1.129   3.125  2.2113  0.1571 -0.9915
 8007SOL     OW35479   3.109   2.580   0.080  0.2108  0.7715  0.2863
 8007SOL    HW135480   3.191   2.534   0.063 -1.0712 -2.3175  2.3991
 8007SOL    HW235481   3.039   2.528   0.039  0.0781  1.0808  0.1250
 8008SOL     OW35482   3.956   2.391   3.892 -0.4144 -0.6231 -0.1240
 8008SOL    HW135483   3.943   2.485   3.904 -1.3052 -0.5772 -1.4700
 8008SOL    HW235484   3.873   2.371   3.848  0.0391 -0.5459 -1.0247
 8009SOL     OW35485   0.519   0.292   8.825 -0.0288  0.0515 -0.0794
 8009SOL    HW135486   0.568   0.308   8.745  2.3893 -0.6105  1.2580
 8009SOL    HW235487   0.524   0.196   8.824  0.3954  0.0442  2.6110
 8010SOL     OW35488   2.541   0.820   9.569  0.4226  0.3429  0.1776
 8010SOL    HW135489   2.597   0.895   9.590  2.3011 -1.1065  0.3600
 8010SOL    HW235490   2.506   0.855   9.487  0.4344  1.2560  0.5701
 8011SOL     OW35491   0.118   4.029   5.402  0.0008  0.2429  0.0449
 8011SOL    HW135492   0.058   3.963   5.367 -0.1085 -0.9450  2.4366
 8011SOL    HW235493   0.137   4.072   5.319 -0.5600  0.4395  0.0164
 8012SOL     OW35494   4.420   4.257   3.273  0.1244  0.2048  0.4204
 8012SOL    HW135495   4.358   4.186   3.290 -0.1798  0.4498  0.3328
 8012SOL    HW235496   4.469   4.269   3.354 -2.0493  0.0798  1.7467
 8013SOL     OW35497   2.340   3.444   7.064 -0.0481 -0.2117 -0.5531
 8013SOL    HW135498   2.348   3.403   6.977  0.9089  0.2300 -0.6730
 8013SOL    HW235499   2.286   3.377   7.106  1.0764 -1.2345 -0.7234
 8014SOL     OW35500   0.086   2.898   9.006 -0.1930 -0.1089 -0.0002
 8014SOL    HW135501   0.170   2.910   9.050  0.8900 -0.2786 -2.0614
 8014SOL    HW235502   0.072   2.804   9.003  2.7863 -0.5299 -0.4440
 8015SOL     OW35503   1.751   0.120   6.741  0.6032  0.4619  0.1795
 8015SOL    HW135504   1.827   0.083   6.697 -0.1337  0.6948 -1.2905
 8015SOL    HW235505   1.689   0.054   6.710  3.1497 -0.0862 -3.6800
 8016SOL     OW35506   3.956   3.786   5.188  0.0608 -0.0899  0.0105
 8016SOL    HW135507   3.932   3.738   5.267  0.7572  1.4690  1.1809
 8016SOL    HW235508   4.039   3.744   5.166  0.0517 -1.0287  1.7427
 8017SOL     OW35509   3.079   1.965  13.208 -0.1481  0.4963  0.1975
 8017SOL    HW135510   3.086   2.052  13.249  0.7232  1.5690 -2.2709
 8017SOL    HW235511   3.148   1.925  13.261  0.1033  1.1006  0.3260
 8018SOL     OW35512   0.248   1.175   6.362 -0.0294  0.3205 -0.3903
 8018SOL    HW135513   0.193   1.247   6.331 -1.4017 -0.3181  0.5356
 8018SOL    HW235514   0.211   1.149   6.447  0.7058 -0.7262 -0.3948
 8019SOL     OW35515   1.573   3.501  14.847  0.2897 -0.7408  0.0959
 8019SOL    HW135516   1.550   3.458  14.765 -0.9105  0.9583 -0.4542
 8019SOL    HW235517   1.663   3.520  14.820 -0.6777  1.6583 -1.4508
 8020SOL     OW35518   0.233   2.893  17.382 -0.0423 -0.5080  0.2833
 8020SOL    HW135519   0.267   2.978  17.410  1.4759 -2.0547  3.1815
 8020SOL    HW235520   0.261   2.834  17.452 -0.7599 -0.4140  0.6440
 8021SOL     OW35521   2.504   4.165  14.760 -0.0492 -0.0565 -0.1409
 8021SOL    HW135522   2.448   4.230  14.804 -1.8086 -1.3641 -0.4512
 8021SOL    HW235523   2.454   4.145  14.682 -0.0615 -1.3692  0.1996
 8022SOL     OW35524   2.230   4.398  12.642 -0.1222  0.4190  0.3438
 8022SOL    HW135525   2.159   4.350  12.600  0.8253 -1.5181  0.9454
 8022SOL    HW235526   2.299   4.333  12.654 -0.6245 -0.1687  0.0231
 8023SOL     OW35527   2.806   3.930   5.983 -0.1286  0.0060  0.5063
 8023SOL    HW135528   2.772   3.852   6.027 -0.7223  0.3703  0.6968
 8023SOL    HW235529   2.775   3.916   5.893 -1.1935  0.0279  0.8713
 8024SOL     OW35530   1.676   3.339   6.844 -0.1621 -0.3826 -0.3952
 8024SOL    HW135531   1.700   3.265   6.899  1.1033  0.6640  0.4787
 8024SOL    HW235532   1.734   3.322   6.769 -1.5487 -2.4710 -0.9759
 8025SOL     OW35533   2.947   1.499   5.205  0.6076 -0.5667  0.2707
 8025SOL    HW135534   2.971   1.470   5.117  0.6906  0.0336  0.0988
 8025SOL    HW235535   3.031   1.505   5.251 -0.1578 -3.1322  2.0574
 8026SOL     OW35536   3.818   3.356   2.124  0.1891 -0.2361  0.4132
 8026SOL    HW135537   3.813   3.402   2.040 -0.7602  0.0791  0.6424
 8026SOL    HW235538   3.726   3.363   2.150  0.0921  0.9185 -0.2292
 8027SOL     OW35539   1.469   1.601   2.903  0.2718 -0.7152 -0.2871
 8027SOL    HW135540   1.496   1.689   2.876 -1.6615 -0.0711 -0.0922
 8027SOL    HW235541   1.374   1.601   2.893  0.3486 -0.2373 -0.9988
 8028SOL     OW35542   0.180   1.729   2.439 -0.4000  0.5968 -0.3709
 8028SOL    HW135543   0.099   1.778   2.442  0.0697  1.2341  1.3637
 8028SOL    HW235544   0.143   1.649   2.402  0.1192  0.4569 -0.6009
 8029SOL     OW35545   3.625   2.780  11.100  0.0079  0.9354  0.1449
 8029SOL    HW135546   3.572   2.783  11.020  1.2247  1.3667 -0.6395
 8029SOL    HW235547   3.714   2.759  11.075  0.6688  1.5952  1.9553
 8030SOL     OW35548   1.508   4.680   3.865 -0.7893  0.2171  0.4932
 8030SOL    HW135549   1.447   4.609   3.881 -0.6503 -0.2534 -1.0235
 8030SOL    HW235550   1.539   4.655   3.778  1.7075  2.0983  0.8366
 8031SOL     OW35551   1.238   2.707   7.437 -0.0434  0.1849 -0.5776
 8031SOL    HW135552   1.168   2.770   7.422 -0.7350 -0.9184 -2.0294
 8031SOL    HW235553   1.272   2.696   7.349 -1.3260 -1.6752 -0.8491
 8032SOL     OW35554   2.208   0.828   5.465 -0.0243  0.1172  0.4612
 8032SOL    HW135555   2.244   0.741   5.481 -1.3784 -0.4722  0.2052
 8032SOL    HW235556   2.113   0.819   5.468  0.1964 -1.7617  2.2894
 8033SOL     OW35557   3.597   2.088   3.486  0.4574 -0.2542 -0.1781
 8033SOL    HW135558   3.534   2.155   3.458 -1.7898 -1.2971  2.3541
 8033SOL    HW235559   3.579   2.014   3.429 -0.3408 -0.8753  0.8820
 8034SOL     OW35560   1.299   1.899   6.037  0.1794  0.0937  0.1009
 8034SOL    HW135561   1.210   1.868   6.051  0.2305  0.5360  1.4057
 8034SOL    HW235562   1.319   1.928   6.126  0.8082 -0.7364  0.2346
 8035SOL     OW35563   2.709   4.257   3.520  0.1876  0.0304  0.4347
 8035SOL    HW135564   2.689   4.269   3.427  0.5371 -2.3083  0.0456
 8035SOL    HW235565   2.689   4.165   3.537  0.2867 -0.0920 -0.0974
 8036SOL     OW35566   3.974   0.049   3.227  0.0780 -0.4626 -0.3722
 8036SOL    HW135567   3.886   0.073   3.198  1.0613  2.5762 -0.8487
 8036SOL    HW235568   3.977   4.673   3.223 -0.0964 -0.4263 -1.3647
 8037SOL     OW35569   1.962   1.273  12.322 -0.6536  0.1286 -0.0216
 8037SOL    HW135570   2.047   1.273  12.367 -1.3661 -1.5436  1.3328
 8037SOL    HW235571   1.944   1.367  12.329 -0.5846  0.1183  0.2948
 8038SOL     OW35572   3.706   0.057   2.052 -0.1370  0.0316  0.0425
 8038SOL    HW135573   3.794   0.087   2.073 -0.4943  1.6668 -0.7473
 8038SOL    HW235574   3.698   4.690   2.091  0.7521  0.2103  0.6150
 8039SOL     OW35575   1.473   3.045  13.204  0.1280  0.3611  0.3476
 8039SOL    HW135576   1.442   3.130  13.234 -0.5567 -0.1260  1.0156
 8039SOL    HW235577   1.566   3.057  13.222  0.3961  1.3100 -1.6143
 8040SOL     OW35578   2.713   3.631   2.879 -0.4142 -0.4780  0.5925
 8040SOL    HW135579   2.718   3.712   2.829  1.5149  0.1742  1.8313
 8040SOL    HW235580   2.649   3.642   2.950 -1.0987 -2.0008  0.2192
 8041SOL     OW35581   1.774   3.608   2.500  0.0008  0.2871 -0.1057
 8041SOL    HW135582   1.763   3.592   2.406 -0.4170  1.1872 -0.2185
 8041SOL    HW235583   1.744   3.698   2.513  1.7799  1.1243 -1.7778
 8042SOL     OW35584   4.123   3.287   3.506  0.0068  0.1544  0.3096
 8042SOL    HW135585   4.129   3.197   3.475  0.9314  0.3377 -0.0449
 8042SOL    HW235586   4.047   3.320   3.457 -0.4428 -0.5619  0.5270
 8043SOL     OW35587   4.706   1.093   6.888  0.0654 -0.1622  0.3888
 8043SOL    HW135588   4.703   1.189   6.896 -0.3191 -0.3438  2.4163
 8043SOL    HW235589   4.640   1.066   6.951  2.3178 -2.9485  1.5534
 8044SOL     OW35590   0.892   4.195   8.911 -0.5022 -0.5412  0.0882
 8044SOL    HW135591   0.923   4.183   8.821 -1.1755 -0.7958 -0.1137
 8044SOL    HW235592   0.903   4.111   8.956 -2.9706  0.6194  2.8710
 8045SOL     OW35593   0.750   3.974  12.547  0.1108  0.1277  0.4131
 8045SOL    HW135594   0.698   4.054  12.555 -2.8215 -1.3813 -3.5722
 8045SOL    HW235595   0.826   4.002  12.598  0.6139 -0.3970 -0.0415
 8046SOL     OW35596   1.090   2.307   3.489 -0.7542  0.5439 -0.1259
 8046SOL    HW135597   1.155   2.245   3.458 -1.6937 -0.6168  0.2384
 8046SOL    HW235598   1.033   2.317   3.412 -1.0834  1.3898  0.2280
 8047SOL     OW35599   4.017   0.802   5.872  0.7933  0.0831 -0.2614
 8047SOL    HW135600   4.086   0.790   5.807 -0.6759 -1.0970 -1.6117
 8047SOL    HW235601   3.989   0.892   5.858  0.7937  0.0748 -0.3154
 8048SOL     OW35602   2.785   0.946  12.776  0.1993  0.2846  0.3072
 8048SOL    HW135603   2.797   0.914  12.687  0.0711  0.6933  0.1449
 8048SOL    HW235604   2.703   0.993  12.762  0.3546 -0.4911 -3.2785
 8049SOL     OW35605   2.352   0.360  13.516  0.7403 -0.1622 -0.2543
 8049SOL    HW135606   2.423   0.417  13.545 -2.1467  3.2193  0.1636
 8049SOL    HW235607   2.387   0.270  13.514  2.0525  0.3313  0.3267
 8050SOL     OW35608   1.943   4.030   7.557  0.1342 -0.1205  0.4091
 8050SOL    HW135609   2.032   4.044   7.587  0.4497 -0.9246 -0.1528
 8050SOL    HW235610   1.905   4.107   7.599 -1.0331 -0.0143 -0.8336
 8051SOL     OW35611   1.488   3.818   6.628 -0.3345 -0.7371  0.4051
 8051SOL    HW135612   1.533   3.758   6.687 -0.5946 -0.7680  0.5741
 8051SOL    HW235613   1.414   3.759   6.610  0.2660 -0.7289 -2.0262
 8052SOL     OW35614   0.703   1.680  10.199  0.1145 -0.2853  0.2632
 8052SOL    HW135615   0.731   1.755  10.251 -1.5399  0.5478 -0.0567
 8052SOL    HW235616   0.789   1.641  10.181  1.0788  0.7639  2.5553
 8053SOL     OW35617   1.956   1.866   1.641  0.1420  0.0441 -0.1966
 8053SOL    HW135618   1.894   1.793   1.629  0.6862 -0.1284 -2.0020
 8053SOL    HW235619   2.041   1.820   1.638  0.3978  0.4786  0.6699
 8054SOL     OW35620   0.395   4.459   1.219 -0.4399 -0.3339  0.4051
 8054SOL    HW135621   0.473   4.409   1.193 -1.2457 -2.0700  1.3296
 8054SOL    HW235622   0.379   4.430   1.309 -0.2951 -1.8970 -0.0677
 8055SOL     OW35623   2.686   0.774   7.106  0.1159  0.8252 -0.3885
 8055SOL    HW135624   2.633   0.739   7.178  0.3933  2.6684  0.7237
 8055SOL    HW235625   2.731   0.693   7.083 -2.1788 -1.0665  1.9378
 8056SOL     OW35626   3.198   1.212   1.739 -0.2732  0.3807 -0.1943
 8056SOL    HW135627   3.145   1.161   1.679 -1.5333  2.2228 -0.6641
 8056SOL    HW235628   3.264   1.265   1.696 -0.0466  0.0376 -0.2652
 8057SOL     OW35629   2.031   2.238   9.702 -0.3885  0.2562 -0.2602
 8057SOL    HW135630   2.098   2.171   9.715 -1.1309 -0.7812 -1.7963
 8057SOL    HW235631   2.031   2.278   9.788 -1.1747 -1.4691  0.5346
 8058SOL     OW35632   4.296   0.368   6.241 -0.4807 -0.4013  0.2719
 8058SOL    HW135633   4.251   0.297   6.285  1.1046 -0.1179  2.3288
 8058SOL    HW235634   4.388   0.343   6.255  0.1880  2.4291  0.9345
 8059SOL     OW35635   1.720   4.505   9.399 -0.1643 -0.4423 -0.2685
 8059SOL    HW135636   1.686   4.489   9.487  1.9107  3.1154  1.1919
 8059SOL    HW235637   1.649   4.500   9.335 -0.0227 -0.0220 -0.4565
 8060SOL     OW35638   4.065   0.767   8.213 -0.2764  0.4088 -0.4372
 8060SOL    HW135639   4.138   0.733   8.161 -0.1959 -0.9296  0.5465
 8060SOL    HW235640   4.105   0.833   8.269 -0.0323 -0.5319  0.4895
 8061SOL     OW35641   0.974   1.142   0.267 -0.1548  0.0515 -0.1370
 8061SOL    HW135642   0.986   1.171   0.357 -1.8360 -2.2161  0.8157
 8061SOL    HW235643   1.055   1.169   0.222  0.3333 -1.9110 -0.4327
 8062SOL     OW35644   2.329   4.404   2.231 -0.7023  0.3464  0.4270
 8062SOL    HW135645   2.305   4.312   2.240 -1.0632  0.5589  1.6044
 8062SOL    HW235646   2.312   4.423   2.139  0.8635 -0.4711 -0.0332
 8063SOL     OW35647   1.499   4.508   9.248  0.1478 -0.4123 -0.1613
 8063SOL    HW135648   1.514   4.523   9.154 -2.5127  0.1231 -0.5121
 8063SOL    HW235649   1.403   4.498   9.246  0.1231  0.0705 -1.4346
 8064SOL     OW35650   3.112   3.839  16.050 -0.2015  0.5026 -0.0807
 8064SOL    HW135651   3.039   3.783  16.022 -1.4701  1.8432  0.5549
 8064SOL    HW235652   3.068   3.880  16.124 -2.4930 -0.5321 -0.8566
 8065SOL     OW35653   4.363   2.859  11.842 -0.3547  0.6923  0.2938
 8065SOL    HW135654   4.297   2.927  11.853  1.3028  2.4018 -0.3837
 8065SOL    HW235655   4.380   2.889  11.753  1.1367 -2.6182 -0.5140
 8066SOL     OW35656   2.903   1.671   5.525  0.3381 -0.0422 -0.3219
 8066SOL    HW135657   2.852   1.733   5.472 -1.7511  0.0243  1.7398
 8066SOL    HW235658   2.993   1.702   5.515  0.1090  1.3905  1.9041
 8067SOL     OW35659   3.398   2.346  10.343 -0.2693 -0.4588  0.2436
 8067SOL    HW135660   3.345   2.399  10.402 -2.5458 -0.9503 -1.3676
 8067SOL    HW235661   3.402   2.256  10.377  0.7443 -0.0505  1.2029
 8068SOL     OW35662   2.102   0.991   6.606 -0.7169  0.7623 -0.2545
 8068SOL    HW135663   2.150   1.000   6.689  0.7433  1.5874 -1.1827
 8068SOL    HW235664   2.181   0.950   6.571 -1.0738 -0.4088  0.3032
 8069SOL     OW35665   0.901   0.775   1.797 -0.3515  0.0550  0.0549
 8069SOL    HW135666   0.885   0.831   1.873  0.9745 -1.6761  1.6002
 8069SOL    HW235667   0.869   0.819   1.718 -0.3819 -1.2131 -0.6496
 8070SOL     OW35668   3.280   0.905   7.588  0.1254 -0.0686  0.5320
 8070SOL    HW135669   3.340   0.962   7.540  1.8732 -1.0989  1.4786
 8070SOL    HW235670   3.202   0.903   7.532  0.3395  0.6603  0.2161
 8071SOL     OW35671   3.777   1.105  15.971  0.5677  0.2107 -0.0190
 8071SOL    HW135672   3.823   1.039  16.023  1.6518  0.6678 -0.3980
 8071SOL    HW235673   3.850   1.148  15.926  0.8248  0.7438  0.9075
 8072SOL     OW35674   3.364   0.748  16.849  0.1298 -0.0099  0.1899
 8072SOL    HW135675   3.376   0.779  16.938 -0.3700 -0.0919  0.2870
 8072SOL    HW235676   3.456   0.752  16.823  0.7357  1.7571  2.6886
 8073SOL     OW35677   1.998   1.239   0.698  0.6852  0.1735 -0.0279
 8073SOL    HW135678   1.972   1.181   0.627 -0.6876 -1.3451  1.7324
 8073SOL    HW235679   2.092   1.221   0.695  0.9128  1.2028  0.9812
 8074SOL     OW35680   3.008   3.004   6.339  0.2282 -0.1477  0.4862
 8074SOL    HW135681   2.981   2.937   6.276  2.0128 -0.7501  0.3574
 8074SOL    HW235682   2.959   3.078   6.303 -1.4614 -1.3225  0.3818
 8075SOL     OW35683   0.384   1.492   8.701  0.7629  0.2122 -0.4461
 8075SOL    HW135684   0.469   1.461   8.672  0.6002  0.5609 -1.3015
 8075SOL    HW235685   0.370   1.566   8.643 -1.7506 -0.6541 -0.9728
 8076SOL     OW35686   3.485   3.085   3.543 -0.0972 -0.2959  0.4227
 8076SOL    HW135687   3.509   3.066   3.452 -1.6096  0.5524 -0.1540
 8076SOL    HW235688   3.457   3.176   3.538 -0.7187 -0.5244 -0.2716
 8077SOL     OW35689   0.543   2.592   5.308  0.7235  0.0439  1.2637
 8077SOL    HW135690   0.621   2.539   5.288  0.9738  1.5011 -1.6353
 8077SOL    HW235691   0.490   2.518   5.336 -0.7774  1.2473  1.5794
 8078SOL     OW35692   0.328   0.766  14.899 -0.2131 -0.4257  0.3717
 8078SOL    HW135693   0.365   0.713  14.969  1.4206 -0.6509 -0.6457
 8078SOL    HW235694   0.281   0.835  14.946  1.4176  0.7439  0.2826
 8079SOL     OW35695   0.515   0.205   1.360  0.4430  0.5355 -0.1182
 8079SOL    HW135696   0.457   0.281   1.351 -1.5925 -0.9836  0.1741
 8079SOL    HW235697   0.552   0.225   1.446 -0.7781 -1.9612  1.0037
 8080SOL     OW35698   4.645   2.421   7.456  0.4849 -0.2796 -0.3314
 8080SOL    HW135699   4.684   2.508   7.450  2.4006 -1.1630 -0.7489
 8080SOL    HW235700   4.562   2.451   7.494  1.1866 -0.2061  1.1328
 8081SOL     OW35701   4.581   1.437   0.134 -0.3130 -0.1437 -0.1766
 8081SOL    HW135702   4.516   1.505   0.151  0.6783  1.2130 -1.7435
 8081SOL    HW235703   4.596   1.455   0.041 -3.5594  0.9931 -0.4788
 8082SOL     OW35704   1.129   0.115   4.739  0.0325  0.0594  0.6902
 8082SOL    HW135705   1.075   0.138   4.664 -0.9450 -2.8608  0.4919
 8082SOL    HW235706   1.105   0.172   4.812  0.1108  1.1062 -0.0995
 8083SOL     OW35707   3.416   1.627  11.751 -0.4396 -0.0444  0.1816
 8083SOL    HW135708   3.321   1.619  11.739 -0.4050 -0.7338  0.3666
 8083SOL    HW235709   3.444   1.573  11.677  0.1283  0.6520 -0.1119
 8084SOL     OW35710   3.097   4.662  12.438 -0.3397 -0.6618 -0.1281
 8084SOL    HW135711   3.003   4.644  12.448 -0.3140 -1.2200 -0.9168
 8084SOL    HW235712   3.137   4.587  12.482  1.2544  1.1522  1.5605
 8085SOL     OW35713   3.776   2.730   2.679 -0.0877  0.1564  0.1235
 8085SOL    HW135714   3.734   2.710   2.596 -0.6968 -2.0186  0.9530
 8085SOL    HW235715   3.856   2.679   2.690  0.0201  0.2297 -0.3325
 8086SOL     OW35716   4.132   3.136   2.760  0.7710  0.0643  0.7210
 8086SOL    HW135717   4.066   3.203   2.742 -0.2051 -0.9259  0.6115
 8086SOL    HW235718   4.104   3.067   2.700  1.2037  0.8358 -0.3893
 8087SOL     OW35719   0.144   0.492   5.218 -0.5666  0.0613  0.0273
 8087SOL    HW135720   0.175   0.568   5.169  1.1724 -1.9125 -1.9536
 8087SOL    HW235721   0.226   0.444   5.208 -1.1200 -1.6682  3.8287
 8088SOL     OW35722   2.734   3.960   2.074  0.5499 -0.0417  0.3403
 8088SOL    HW135723   2.709   3.921   2.158  0.9745  1.9527  1.3775
 8088SOL    HW235724   2.700   3.894   2.013 -1.9768  2.7906 -1.3018
 8089SOL     OW35725   1.264   0.632   8.128 -0.5937  0.1078 -0.0295
 8089SOL    HW135726   1.212   0.563   8.171 -0.3786 -0.1735 -0.2199
 8089SOL    HW235727   1.225   0.634   8.041 -0.0806 -1.5437 -0.3016
 8090SOL     OW35728   1.897   0.161   5.712 -0.0061 -0.1409 -0.1412
 8090SOL    HW135729   1.951   0.176   5.790  0.5140  0.0942 -0.5536
 8090SOL    HW235730   1.967   0.115   5.666  0.9379 -0.2681  1.3997
 8091SOL     OW35731   1.015   0.041   0.378  0.1937 -0.4230  0.1637
 8091SOL    HW135732   1.050   4.675   0.356 -1.5515 -1.0489 -0.2051
 8091SOL    HW235733   1.065   0.100   0.321  0.3006 -1.6997 -1.0768
 8092SOL     OW35734   0.488   0.081  14.315 -0.2336 -0.8968 -0.2392
 8092SOL    HW135735   0.571   0.128  14.323  0.2861 -2.0338  0.9907
 8092SOL    HW235736   0.490   0.020  14.241 -0.9965 -2.5377  1.1115
 8093SOL     OW35737   3.991   1.099  11.729 -0.0870  0.6954 -0.2718
 8093SOL    HW135738   4.008   1.123  11.638  0.4630 -1.4284 -0.7204
 8093SOL    HW235739   4.074   1.129  11.768 -1.5289  3.2903  0.8421
 8094SOL     OW35740   4.011   0.356   9.336  0.2171  0.0437  0.2987
 8094SOL    HW135741   3.931   0.406   9.353 -0.7140 -1.0249 -0.8784
 8094SOL    HW235742   3.975   0.285   9.283  0.4807  0.7401 -0.8212
 8095SOL     OW35743   0.584   1.470   7.420 -0.0200 -0.2942 -0.2770
 8095SOL    HW135744   0.562   1.511   7.336 -0.4115 -0.1901 -0.1255
 8095SOL    HW235745   0.503   1.486   7.470  0.2122  0.4834 -0.1565
 8096SOL     OW35746   3.044   4.582  13.177  0.5944 -0.2163 -0.3091
 8096SOL    HW135747   3.080   4.606  13.263 -1.2567 -0.4789  0.5347
 8096SOL    HW235748   2.968   4.532  13.205  1.2035 -0.7525  0.3993
 8097SOL     OW35749   1.562   3.112  10.970  0.3552 -0.0028 -0.0535
 8097SOL    HW135750   1.602   3.092  10.886 -0.4290  0.7718 -0.6135
 8097SOL    HW235751   1.583   3.205  10.974  0.2723  0.1173 -3.0278
 8098SOL     OW35752   2.837   3.985  16.065  0.3370  0.4509  0.1653
 8098SOL    HW135753   2.864   3.962  16.153  3.1311  0.9703 -0.5534
 8098SOL    HW235754   2.859   4.078  16.067  2.9485 -0.1264 -0.9244
 8099SOL     OW35755   3.000   0.521   2.912 -0.8233  0.0263  0.1585
 8099SOL    HW135756   2.937   0.571   2.861  1.8276  0.8492 -2.3332
 8099SOL    HW235757   2.970   0.431   2.900 -0.0922 -0.1880 -0.0851
 8100SOL     OW35758   0.393   3.896   9.324 -0.5149 -0.2418 -0.0515
 8100SOL    HW135759   0.395   3.826   9.389  0.5622  0.7927  1.0252
 8100SOL    HW235760   0.404   3.979   9.370 -0.0796 -0.0836 -0.4419
 8101SOL     OW35761   4.628   0.898   4.621 -0.3545 -0.2230  0.5670
 8101SOL    HW135762   4.539   0.867   4.638 -0.7469  1.3151  1.2904
 8101SOL    HW235763   4.657   0.812   4.590  0.3064  0.5269 -0.9237
 8102SOL     OW35764   4.118   4.653   4.021 -0.2170 -0.4524  0.1699
 8102SOL    HW135765   4.204   4.620   3.994 -0.8713 -1.7008 -0.3599
 8102SOL    HW235766   4.105   0.017   3.978 -3.0589 -0.4954  0.9417
 8103SOL     OW35767   4.441   1.951   5.350  0.1454  0.0211  0.1952
 8103SOL    HW135768   4.528   1.925   5.318 -0.2951 -0.4485 -0.6166
 8103SOL    HW235769   4.423   1.875   5.406 -1.4631 -0.6611 -1.2218
 8104SOL     OW35770   3.987   4.720   7.904 -0.1303  0.1486  0.6226
 8104SOL    HW135771   3.906   4.678   7.874 -0.8514  0.4033  2.2194
 8104SOL    HW235772   3.951   0.064   7.964  0.8875  0.3986  0.9638
 8105SOL     OW35773   2.986   4.656   2.325 -0.6185  0.4228 -0.0176
 8105SOL    HW135774   3.038   4.589   2.368  0.3014 -1.5003 -4.1511
 8105SOL    HW235775   2.900   4.620   2.347  0.2266 -0.3182  2.0574
 8106SOL     OW35776   1.435   1.787   6.857 -0.7306 -0.2377 -0.9125
 8106SOL    HW135777   1.487   1.739   6.921 -0.9963  0.1483 -0.4061
 8106SOL    HW235778   1.500   1.820   6.795 -0.2026  0.7778  0.1747
 8107SOL     OW35779   2.364   1.244  13.586  0.0640 -0.3318 -0.2611
 8107SOL    HW135780   2.442   1.189  13.595  1.6147  1.8328 -0.6299
 8107SOL    HW235781   2.323   1.192  13.656 -2.1060 -0.1065 -1.3641
 8108SOL     OW35782   0.186   3.574   7.689 -0.1124 -0.6327  0.4380
 8108SOL    HW135783   0.092   3.579   7.674  0.0426 -1.0816 -0.6744
 8108SOL    HW235784   0.210   3.540   7.603  0.1892 -0.4375  0.4455
 8109SOL     OW35785   2.936   2.152   4.667 -0.2313 -0.2640 -0.2298
 8109SOL    HW135786   2.974   2.239   4.654  0.4582 -0.5043  0.1602
 8109SOL    HW235787   2.900   2.158   4.756  0.4319 -0.1433  0.0311
 8110SOL     OW35788   4.672   2.717   9.229 -0.4629 -0.2346  0.1477
 8110SOL    HW135789   4.670   2.737   9.322 -2.0507 -2.1514  0.5265
 8110SOL    HW235790   0.044   2.694   9.218 -0.3895  0.7886 -1.3498
 8111SOL     OW35791   3.271   2.003   0.159 -0.1930 -0.1026  0.1308
 8111SOL    HW135792   3.228   1.919   0.172  2.9844 -1.7860 -0.3290
 8111SOL    HW235793   3.355   1.968   0.132 -0.1111  0.5405 -0.4587
 8112SOL     OW35794   4.232   0.826   2.732 -0.2579 -0.2224  1.1528
 8112SOL    HW135795   4.155   0.789   2.689 -0.5295  0.6274  0.9092
 8112SOL    HW235796   4.207   0.919   2.732  0.2921 -0.0718 -0.9399
 8113SOL     OW35797   3.039   3.380  11.273  0.0765 -0.7315  0.1361
 8113SOL    HW135798   3.128   3.346  11.276 -0.1219 -1.5334 -3.0211
 8113SOL    HW235799   3.004   3.327  11.201 -1.8468  0.9132 -0.1323
 8114SOL     OW35800   4.365   4.308  13.637 -0.1595 -0.0094 -0.6753
 8114SOL    HW135801   4.365   4.281  13.729  0.6665  0.1732 -0.6201
 8114SOL    HW235802   4.393   4.399  13.642  1.2633 -0.3973 -1.5736
 8115SOL     OW35803   2.383   2.464   4.137 -0.0248  0.0323 -0.2620
 8115SOL    HW135804   2.299   2.454   4.181 -0.4443 -0.3162 -1.1491
 8115SOL    HW235805   2.393   2.376   4.101 -0.6031  0.4920 -1.5564
 8116SOL     OW35806   1.122   4.514  16.048 -0.3616 -0.4817  0.3275
 8116SOL    HW135807   1.171   4.593  16.071  1.3691 -1.3669 -0.3175
 8116SOL    HW235808   1.171   4.485  15.971 -0.6602 -2.6411  0.9558
 8117SOL     OW35809   0.719   3.057   4.482 -0.2550 -0.0598  0.3684
 8117SOL    HW135810   0.634   3.080   4.520 -0.0998 -0.1972  0.7897
 8117SOL    HW235811   0.728   3.128   4.418 -3.4212  1.0262  1.1327
 8118SOL     OW35812   2.282   0.911   8.490 -0.2364 -0.0761 -0.3970
 8118SOL    HW135813   2.188   0.913   8.509 -0.1544 -0.0055  0.0162
 8118SOL    HW235814   2.292   0.864   8.408 -2.9371 -3.5183  1.2073
 8119SOL     OW35815   0.195   2.051  10.859  0.3158 -0.4154  0.5011
 8119SOL    HW135816   0.280   2.060  10.816 -2.7382 -0.2344 -5.4093
 8119SOL    HW235817   0.180   1.958  10.839  0.1442 -0.4155  0.6355
 8120SOL     OW35818   1.429   4.441   2.493  0.2269 -0.1958  1.0481
 8120SOL    HW135819   1.467   4.493   2.423  1.5340 -0.8809  1.2364
 8120SOL    HW235820   1.431   4.500   2.568 -0.0751 -1.2633  1.9020
 8121SOL     OW35821   1.326   2.605  16.974  0.0532  0.2455  0.5904
 8121SOL    HW135822   1.329   2.514  16.946  1.1180  0.3450  0.3855
 8121SOL    HW235823   1.288   2.601  17.062 -1.6356  1.4914 -0.0824
 8122SOL     OW35824   1.198   1.314   2.623 -0.8982 -0.3294 -0.3386
 8122SOL    HW135825   1.205   1.237   2.567  1.4081  0.5195 -1.2528
 8122SOL    HW235826   1.208   1.278   2.711 -3.1070 -1.3913 -0.5348
 8123SOL     OW35827   2.552   3.630   6.449  0.0428  0.0387  0.2401
 8123SOL    HW135828   2.489   3.645   6.379 -0.3994 -0.4942  0.5242
 8123SOL    HW235829   2.634   3.660   6.411  0.1901  1.8859  2.0173
 8124SOL     OW35830   1.329   1.462  13.732  0.2971  0.1315  0.2417
 8124SOL    HW135831   1.245   1.503  13.711 -0.6750 -1.4765  0.9546
 8124SOL    HW235832   1.303   1.398  13.799  2.5521 -2.3618 -1.2711
 8125SOL     OW35833   4.613   3.465   4.006  0.0027  0.4672  0.2330
 8125SOL    HW135834   4.691   3.496   4.052  0.9626  0.6323 -1.5223
 8125SOL    HW235835   4.605   3.377   4.044 -2.8532 -0.2600 -2.0407
 8126SOL     OW35836   0.641   2.904  14.386 -0.0245 -0.0795 -0.1830
 8126SOL    HW135837   0.681   2.818  14.401 -0.1865 -0.0373  0.4628
 8126SOL    HW235838   0.547   2.891  14.373 -0.0386 -1.1263  0.9144
 8127SOL     OW35839   1.408   1.969   1.890  0.1840 -0.1768  0.3979
 8127SOL    HW135840   1.389   2.063   1.897 -1.2384 -0.4997  0.9908
 8127SOL    HW235841   1.439   1.945   1.803  0.5237 -0.2077  0.5270
 8128SOL     OW35842   0.196   3.084   8.704 -0.0975  0.5899 -0.4433
 8128SOL    HW135843   0.212   3.085   8.609  1.9251 -2.6869 -0.1339
 8128SOL    HW235844   0.281   3.103   8.744 -0.2787 -1.5642  0.9446
 8129SOL     OW35845   2.416   4.508   7.945  0.3358 -0.2933  0.5689
 8129SOL    HW135846   2.459   4.432   7.905 -0.1667 -0.2053 -0.1560
 8129SOL    HW235847   2.457   4.528   8.028 -0.6384  2.8723  0.2912
 8130SOL     OW35848   2.586   1.513   4.898 -0.3630 -0.1116  0.4052
 8130SOL    HW135849   2.610   1.492   4.988 -1.5621  0.3423  0.8316
 8130SOL    HW235850   2.539   1.596   4.910 -2.7693 -1.2190 -1.2811
 8131SOL     OW35851   3.348   2.392   5.644 -0.6767  0.0644 -0.1446
 8131SOL    HW135852   3.372   2.342   5.722 -0.0712  0.1906 -0.2458
 8131SOL    HW235853   3.314   2.466   5.695 -1.0094  0.2835 -0.6964
 8132SOL     OW35854   1.706   4.238  12.348 -0.0853  0.2610  0.4092
 8132SOL    HW135855   1.740   4.166  12.296 -1.0925  0.8284 -1.0314
 8132SOL    HW235856   1.684   4.192  12.429 -1.4370 -0.0884 -0.1630
 8133SOL     OW35857   2.150   0.588   4.800 -0.5804  0.0489  0.0668
 8133SOL    HW135858   2.137   0.494   4.810 -1.8146 -0.1420 -3.3324
 8133SOL    HW235859   2.243   0.595   4.775 -0.8496 -1.2056 -1.3010
 8134SOL     OW35860   2.331   0.184   4.605  0.2368  0.0475  0.1080
 8134SOL    HW135861   2.314   0.277   4.618 -3.3433 -0.5723 -0.1964
 8134SOL    HW235862   2.263   0.169   4.539  0.6103 -1.8648  0.1366
 8135SOL     OW35863   3.469   2.176   2.984  1.4105  0.1148 -0.0184
 8135SOL    HW135864   3.391   2.130   2.954 -0.8666  1.8195  3.2587
 8135SOL    HW235865   3.524   2.175   2.906  1.2606  1.9178 -0.1648
 8136SOL     OW35866   0.007   1.330   4.214 -0.8670  0.2103 -0.2490
 8136SOL    HW135867   4.684   1.372   4.140 -0.3639 -0.4018 -0.8907
 8136SOL    HW235868   4.694   1.241   4.208 -0.2698 -0.0112 -0.2774
 8137SOL     OW35869   0.054   1.358   5.560 -0.5368  0.4460 -0.5431
 8137SOL    HW135870   0.070   1.293   5.628  1.6117  2.5908  0.9716
 8137SOL    HW235871   4.700   1.318   5.514 -1.3097  2.4542 -1.0471
 8138SOL     OW35872   1.284   0.903   7.997 -0.0584 -0.0157 -0.5265
 8138SOL    HW135873   1.363   0.864   7.960 -0.2608 -0.1891 -0.7807
 8138SOL    HW235874   1.236   0.928   7.918 -0.4976  0.9659  0.0421
 8139SOL     OW35875   3.823   0.382   8.538 -0.1892  0.0797  0.0607
 8139SOL    HW135876   3.870   0.406   8.458 -0.2840  0.4686  0.1196
 8139SOL    HW235877   3.768   0.309   8.510  1.9096 -0.3804 -2.8338
 8140SOL     OW35878   0.605   3.758  12.468  0.7252  0.0314 -0.1169
 8140SOL    HW135879   0.659   3.824  12.513 -0.1301  0.9656 -0.4798
 8140SOL    HW235880   0.673   3.709  12.422  1.6214  0.8131  0.3566
 8141SOL     OW35881   2.388   3.910   2.738 -0.2476 -0.0808  0.2047
 8141SOL    HW135882   2.312   3.853   2.739 -0.5027  0.2894  1.5446
 8141SOL    HW235883   2.334   3.988   2.748  1.2865  1.1440 -0.9714
 8142SOL     OW35884   3.701   0.878   1.828 -0.0988  0.6483 -0.3515
 8142SOL    HW135885   3.694   0.861   1.734  0.5025  3.1519 -0.8399
 8142SOL    HW235886   3.764   0.949   1.828  0.1343  0.4417  0.3548
 8143SOL     OW35887   2.603   4.206   2.123  0.2063  0.3147  0.0413
 8143SOL    HW135888   2.634   4.119   2.097 -5.2020 -1.1325 -1.6448
 8143SOL    HW235889   2.509   4.185   2.125  0.5864 -1.4816 -0.4177
 8144SOL     OW35890   0.817   0.270   1.186 -0.3358  0.0510 -0.1105
 8144SOL    HW135891   0.792   0.230   1.269 -0.9529  0.3813 -0.1405
 8144SOL    HW235892   0.786   0.360   1.195 -1.3883 -0.5116  1.6567
 8145SOL     OW35893   3.941   2.919   8.247  0.0192 -0.5977  0.2267
 8145SOL    HW135894   3.967   2.890   8.159  0.1462 -1.3569  0.5172
 8145SOL    HW235895   3.853   2.885   8.258 -0.1944  0.3298  1.4079
 8146SOL     OW35896   3.786   1.689  17.353  0.5535 -0.4492 -0.2608
 8146SOL    HW135897   3.838   1.756  17.396 -0.0763 -0.6779  0.8449
 8146SOL    HW235898   3.735   1.740  17.290  0.9762 -1.2796 -1.2863
 8147SOL     OW35899   3.905   2.873   7.731 -0.7766 -0.0423 -0.3937
 8147SOL    HW135900   3.969   2.900   7.666 -0.4469  2.0897  0.8387
 8147SOL    HW235901   3.828   2.911   7.690  1.0523  2.5824 -1.3782
 8148SOL     OW35902   0.715   1.937  14.113 -0.4372 -0.4771 -0.4586
 8148SOL    HW135903   0.650   1.951  14.044  1.0431 -2.5354 -2.3011
 8148SOL    HW235904   0.721   2.029  14.139  1.2849 -1.0228  1.0906
 8149SOL     OW35905   4.275   2.562  16.314  0.8949 -0.2987  0.3550
 8149SOL    HW135906   4.184   2.537  16.327  0.9995  0.5084  2.6702
 8149SOL    HW235907   4.305   2.530  16.399  1.8772 -2.6945 -0.8965
 8150SOL     OW35908   1.335   3.043  11.103  0.4180 -0.7484 -0.5299
 8150SOL    HW135909   1.380   2.974  11.153  0.5038  0.8754  1.6287
 8150SOL    HW235910   1.405   3.086  11.054  1.2050 -0.3641  0.9329
 8151SOL     OW35911   1.131   3.128  15.415  0.3036 -0.1472  0.0301
 8151SOL    HW135912   1.190   3.054  15.430  0.7513  0.2916  0.4114
 8151SOL    HW235913   1.107   3.162  15.501 -1.4403  1.0055 -0.9084
 8152SOL     OW35914   1.398   1.589  12.819  0.3522  0.3153 -0.2843
 8152SOL    HW135915   1.422   1.667  12.768  1.5535 -0.0632 -0.2937
 8152SOL    HW235916   1.318   1.625  12.857  0.7731 -0.6201  1.4854
 8153SOL     OW35917   0.690   4.708   6.201  0.4312  0.3424 -0.1497
 8153SOL    HW135918   0.738   4.670   6.127  0.2364 -0.5934  0.2145
 8153SOL    HW235919   0.763   0.018   6.256  0.2337 -0.9619  0.8284
 8154SOL     OW35920   4.541   0.423   7.202  0.2253 -0.4815 -0.2640
 8154SOL    HW135921   4.485   0.357   7.162  0.8002 -1.3795  0.4136
 8154SOL    HW235922   4.486   0.500   7.216 -0.6846 -1.1819 -0.0515
 8155SOL     OW35923   4.093   1.225  14.517 -0.0521 -0.2786 -0.0996
 8155SOL    HW135924   4.049   1.308  14.500  1.4665  0.0728 -2.3950
 8155SOL    HW235925   4.102   1.188  14.429  3.3820 -1.1729  0.6058
 8156SOL     OW35926   2.216   2.865   5.405  0.2128  0.0129  0.2617
 8156SOL    HW135927   2.179   2.866   5.316  0.2930  1.8500  0.2449
 8156SOL    HW235928   2.224   2.771   5.422 -0.5777  0.0423  0.7727
 8157SOL     OW35929   1.109   0.572   5.539 -0.1058  0.2933 -0.3998
 8157SOL    HW135930   1.017   0.584   5.516 -0.5941  1.2679  2.0540
 8157SOL    HW235931   1.115   0.656   5.585 -0.3199 -0.2481  0.6321
 8158SOL     OW35932   3.840   2.463   5.642 -0.5294 -0.3134  0.0334
 8158SOL    HW135933   3.821   2.433   5.731  2.7122 -0.0725  0.8268
 8158SOL    HW235934   3.902   2.395   5.615 -1.4194 -0.4473 -1.6556
 8159SOL     OW35935   3.759   4.567   6.360 -0.3409 -0.3178 -0.2785
 8159SOL    HW135936   3.771   4.472   6.351 -0.0869 -0.2687 -0.4527
 8159SOL    HW235937   3.730   4.595   6.273 -0.6942 -0.9713 -0.3728
 8160SOL     OW35938   3.588   3.267   6.883 -0.1928  0.5724  0.2252
 8160SOL    HW135939   3.531   3.204   6.839 -0.8273  0.0430  1.8255
 8160SOL    HW235940   3.521   3.334   6.898 -0.0979  1.0906 -1.5756
 8161SOL     OW35941   0.326   0.823   7.369 -0.7334 -0.0590 -0.3325
 8161SOL    HW135942   0.354   0.869   7.289  0.4492 -0.2898 -0.0517
 8161SOL    HW235943   0.376   0.874   7.433  0.4877  1.7340 -2.6840
 8162SOL     OW35944   2.556   2.658   6.655 -0.1966  0.0779  0.1547
 8162SOL    HW135945   2.508   2.704   6.724 -0.0262 -1.1631  1.1248
 8162SOL    HW235946   2.640   2.632   6.692  0.3540  0.3836 -0.9064
 8163SOL     OW35947   0.058   0.732   6.100  0.0176 -0.1626  0.2352
 8163SOL    HW135948   0.098   0.807   6.055  2.0069 -0.2917  1.8086
 8163SOL    HW235949   0.107   0.731   6.182  1.4116 -0.4275 -0.6033
 8164SOL     OW35950   3.575   0.204   4.356 -0.1117  0.3567  0.6433
 8164SOL    HW135951   3.541   0.187   4.444 -0.5766 -3.1566 -0.2017
 8164SOL    HW235952   3.505   0.169   4.300  0.0549  0.2919  0.4733
 8165SOL     OW35953   2.811   2.194  11.601 -0.3472  0.8584 -0.5017
 8165SOL    HW135954   2.878   2.257  11.574 -0.5239  1.0534 -0.4840
 8165SOL    HW235955   2.784   2.172  11.512 -3.4182 -0.5105  0.7579
 8166SOL     OW35956   4.592   1.284   5.974  0.3777  0.5889  0.2804
 8166SOL    HW135957   4.509   1.304   6.018  0.4601 -0.2899  0.8287
 8166SOL    HW235958   4.568   1.236   5.895  2.7814 -0.5088  0.2212
 8167SOL     OW35959   4.392   3.511   7.229 -0.0510 -0.2793 -0.5758
 8167SOL    HW135960   4.355   3.484   7.145 -0.1998 -1.7123 -0.0440
 8167SOL    HW235961   4.352   3.440   7.279  0.2805  0.6350  0.9921
 8168SOL     OW35962   2.730   4.530   5.674  0.2782 -0.1161  0.2195
 8168SOL    HW135963   2.818   4.538   5.637 -0.2082  0.7976 -0.7465
 8168SOL    HW235964   2.708   4.443   5.642 -0.9107 -0.6298  2.4163
 8169SOL     OW35965   0.383   0.110   1.711 -0.3453 -0.4908  0.9282
 8169SOL    HW135966   0.469   0.069   1.697 -0.4722 -0.7377  0.8792
 8169SOL    HW235967   0.417   0.199   1.714 -4.1046  0.9741 -0.0757
 8170SOL     OW35968   2.566   0.788   5.178 -0.7177  0.0821 -0.3121
 8170SOL    HW135969   2.624   0.780   5.102 -0.6545  2.9836 -0.5700
 8170SOL    HW235970   2.612   0.849   5.236 -2.4597 -2.0825  3.3470
 8171SOL     OW35971   0.956   0.653  17.495 -0.1429 -0.0156 -0.6416
 8171SOL    HW135972   0.965   0.579  17.555 -1.4215  1.4977  1.4314
 8171SOL    HW235973   0.960   0.723  17.560 -1.0629  0.8838 -1.5416
 8172SOL     OW35974   3.696   4.081   1.953  0.0938 -0.0792  0.3284
 8172SOL    HW135975   3.650   4.010   1.909 -0.5540  0.4083  0.2135
 8172SOL    HW235976   3.666   4.073   2.044  0.4688  1.1922  0.5640
 8173SOL     OW35977   4.053   2.305   2.845 -0.5407  0.2648 -0.7991
 8173SOL    HW135978   4.066   2.230   2.786 -1.0128 -1.4849  1.3473
 8173SOL    HW235979   4.015   2.270   2.925  0.3827 -0.4761 -0.6812
 8174SOL     OW35980   0.180   2.413  10.730  0.4659  0.6600 -0.1390
 8174SOL    HW135981   0.239   2.488  10.742  0.5200  0.3431  1.6841
 8174SOL    HW235982   0.246   2.345  10.723 -0.7293 -0.2974 -1.8187
 8175SOL     OW35983   1.362   2.916   7.780  0.1329  0.3647  0.2969
 8175SOL    HW135984   1.415   2.887   7.854  0.0243  2.6763  1.2500
 8175SOL    HW235985   1.337   3.006   7.800  0.3080  0.2077  1.2037
 8176SOL     OW35986   1.030   2.036   6.879 -0.1296 -0.1584 -0.2520
 8176SOL    HW135987   1.125   2.046   6.873 -0.1646 -0.5900 -1.5125
 8176SOL    HW235988   0.997   2.081   6.801 -2.7264 -2.1484 -0.3247
 8177SOL     OW35989   0.923   3.690   2.697  0.0567 -0.2488  0.0352
 8177SOL    HW135990   0.944   3.679   2.790 -2.4006 -1.5288  0.4364
 8177SOL    HW235991   0.829   3.673   2.704 -0.3203  1.4646 -0.7401
 8178SOL     OW35992   4.551   3.305   6.691  0.1960 -0.1518  0.5056
 8178SOL    HW135993   4.575   3.393   6.662  1.4884  0.3660  3.1938
 8178SOL    HW235994   4.638   3.285   6.725  0.6768  0.5098 -0.3193
 8179SOL     OW35995   4.301   3.751   4.856 -0.2781  0.0839  0.2339
 8179SOL    HW135996   4.299   3.749   4.760 -3.2661  0.7121  0.2798
 8179SOL    HW235997   4.279   3.660   4.873 -1.1536  0.4420  1.0506
 8180SOL     OW35998   0.969   4.391   7.618 -0.0179  0.3277 -0.0311
 8180SOL    HW135999   0.998   4.320   7.561  0.8268  1.7216 -1.3226
 8180SOL    HW236000   1.041   4.399   7.680 -0.2601 -2.7291  0.6563
 8181SOL     OW36001   2.040   3.702  16.514  0.2004  1.0164 -0.1609
 8181SOL    HW136002   2.100   3.754  16.461 -0.9672 -0.2113 -2.6716
 8181SOL    HW236003   2.103   3.654  16.568 -3.4670 -4.5468 -0.7621
 8182SOL     OW36004   3.958   3.184   8.293 -0.4517  0.0705 -0.2804
 8182SOL    HW136005   3.942   3.225   8.209  0.0539  1.7826  0.4564
 8182SOL    HW236006   3.934   3.091   8.286  2.6930 -0.6100 -2.2119
 8183SOL     OW36007   2.312   0.199  14.723 -0.4425  0.1093  0.4702
 8183SOL    HW136008   2.287   0.259  14.653  0.5352  1.5811  1.3851
 8183SOL    HW236009   2.385   0.152  14.682 -0.5982 -0.1901  0.5335
 8184SOL     OW36010   1.139   4.625   0.088 -0.3972 -0.0583  0.2771
 8184SOL    HW136011   1.183   4.608   0.171 -1.5729  2.7300  1.4714
 8184SOL    HW236012   1.176   4.563   0.025  0.2656 -0.7354  1.3432
 8185SOL     OW36013   2.014   2.770  16.985 -0.0950  0.4770 -0.0952
 8185SOL    HW136014   1.940   2.742  17.039  0.0882 -0.2320 -0.2109
 8185SOL    HW236015   2.080   2.784  17.053  0.1651  0.1173 -0.2750
 8186SOL     OW36016   2.623   2.380   8.058  0.1960  0.3995  0.1531
 8186SOL    HW136017   2.715   2.376   8.032  0.6516 -4.8850  2.6956
 8186SOL    HW236018   2.618   2.458   8.114 -1.8523  0.2406  0.1901
 8187SOL     OW36019   1.886   2.800   7.074  0.0916  0.0360  0.3258
 8187SOL    HW136020   1.979   2.820   7.064  0.8779 -3.6785 -0.0433
 8187SOL    HW236021   1.902   2.709   7.101 -1.5067 -1.9031 -5.1981
 8188SOL     OW36022   1.691   3.649   7.094 -0.4444 -0.3432 -0.5844
 8188SOL    HW136023   1.616   3.641   7.153  1.3382 -1.0802  1.5977
 8188SOL    HW236024   1.676   3.730   7.045 -0.2442  1.5079  2.3570
 8189SOL     OW36025   1.739   2.894  10.348  0.1917 -0.1956 -0.3400
 8189SOL    HW136026   1.788   2.915  10.269  2.7469 -0.0084  1.2759
 8189SOL    HW236027   1.803   2.844  10.399  0.8629  0.2418 -0.7416
 8190SOL     OW36028   4.633   3.210   7.447 -0.1691  0.5250  0.4977
 8190SOL    HW136029   0.007   3.201   7.457 -0.3602 -1.1131  0.7641
 8190SOL    HW236030   4.621   3.304   7.435  1.1290  0.2713 -2.7066
 8191SOL     OW36031   4.173   0.017   4.898 -0.0052 -0.2826  0.1288
 8191SOL    HW136032   4.112   0.082   4.934  0.9510  0.8104 -0.2482
 8191SOL    HW236033   4.137   4.653   4.926  0.0687 -0.6285 -0.8223
 8192SOL     OW36034   0.604   1.277   2.824  0.3706  0.1584 -0.3194
 8192SOL    HW136035   0.601   1.199   2.769  1.4052  0.9005 -1.4440
 8192SOL    HW236036   0.546   1.262   2.899  0.3435  2.2642  0.0922
 8193SOL     OW36037   4.542   3.058  16.312 -0.4288  0.5875 -0.0939
 8193SOL    HW136038   4.540   3.142  16.357 -3.3180  0.6893 -0.3955
 8193SOL    HW236039   4.455   3.024  16.335  0.3994 -1.2503  0.3452
 8194SOL     OW36040   1.722   0.322   8.872  0.1161 -0.2206 -0.0055
 8194SOL    HW136041   1.759   0.398   8.917 -0.2291 -0.2093  0.2617
 8194SOL    HW236042   1.798   0.264   8.877  2.1093  2.3030 -0.8149
 8195SOL     OW36043   2.667   4.155  14.305 -0.3182 -0.3675 -0.4325
 8195SOL    HW136044   2.616   4.137  14.384 -0.0387 -0.1910 -0.2123
 8195SOL    HW236045   2.699   4.245  14.310 -0.4458 -0.3496  0.0811
 8196SOL     OW36046   3.939   3.830   3.906  0.0836  0.2228 -0.0095
 8196SOL    HW136047   3.980   3.905   3.950  0.3648  1.1135 -1.8168
 8196SOL    HW236048   3.926   3.862   3.817  0.7331  1.0848  0.2046
 8197SOL     OW36049   1.012   2.647  10.266  0.4137  0.0498  0.4264
 8197SOL    HW136050   0.918   2.640  10.249  0.1984  2.6667  0.5291
 8197SOL    HW236051   1.009   2.735  10.304  1.7427 -0.2397  1.1988
 8198SOL     OW36052   0.078   4.213   6.440  0.5182 -0.1998 -0.3844
 8198SOL    HW136053   0.109   4.150   6.506  2.5576  1.1001 -0.1159
 8198SOL    HW236054   0.140   4.195   6.370 -0.4042 -2.3450 -0.6524
 8199SOL     OW36055   4.630   3.520   2.962  0.2184  0.3614 -0.5174
 8199SOL    HW136056   4.594   3.433   2.941 -0.3141 -0.0107  1.9688
 8199SOL    HW236057   4.573   3.566   2.901 -0.4418  2.2044  1.5054
 8200SOL     OW36058   3.415   0.655   4.247  0.2795  0.6664 -0.2765
 8200SOL    HW136059   3.437   0.643   4.154 -1.1810  1.7106 -0.7449
 8200SOL    HW236060   3.361   0.733   4.252  0.9715  1.2873 -2.3494
 8201SOL     OW36061   3.123   1.954   8.789 -0.2689  0.0695 -0.0078
 8201SOL    HW136062   3.128   1.867   8.828  1.1592  0.7273  1.2767
 8201SOL    HW236063   3.030   1.944   8.773 -0.3310 -1.0861  1.1013
 8202SOL     OW36064   0.530   0.063   3.009  0.0721  0.7859  0.0382
 8202SOL    HW136065   0.584   0.037   2.934 -1.4644 -0.0292 -0.7730
 8202SOL    HW236066   0.472   0.123   2.962 -0.9127 -0.3290 -0.1593
 8203SOL     OW36067   3.448   1.900  15.942 -0.3562 -0.1030  0.0022
 8203SOL    HW136068   3.474   1.820  15.898 -0.3995  0.9089 -1.8672
 8203SOL    HW236069   3.365   1.881  15.987 -0.7349  2.0667  0.2275
 8204SOL     OW36070   2.585   1.008  16.197 -0.1678  0.0853  0.2953
 8204SOL    HW136071   2.494   1.033  16.211  0.5355  1.9969  1.5422
 8204SOL    HW236072   2.617   1.046  16.279 -1.8149  2.3512 -0.1045
 8205SOL     OW36073   2.511   2.242   6.463  0.1806 -0.2057  0.1770
 8205SOL    HW136074   2.426   2.236   6.420 -1.0862  1.4849  2.4238
 8205SOL    HW236075   2.475   2.242   6.552 -0.9862  0.8872 -0.2950
 8206SOL     OW36076   0.712   0.529   1.081  0.0909 -0.2140 -0.4865
 8206SOL    HW136077   0.643   0.478   1.038 -0.6079  1.1080 -0.9345
 8206SOL    HW236078   0.738   0.578   1.003 -0.8775  0.0786 -0.6234
 8207SOL     OW36079   4.164   0.869   5.050 -0.3089 -0.1468 -0.1457
 8207SOL    HW136080   4.073   0.900   5.049  0.1061  1.0639 -0.0304
 8207SOL    HW236081   4.196   0.936   4.990 -1.9214  0.5155 -0.2571
 8208SOL     OW36082   0.070   3.624   4.598  0.2573  0.4315  0.6215
 8208SOL    HW136083   0.060   3.610   4.504  1.5964 -0.1726  0.5665
 8208SOL    HW236084   0.049   3.717   4.610  0.4736  0.6787 -0.8985
 8209SOL     OW36085   4.411   4.281   5.949 -0.1970  0.0503  0.2706
 8209SOL    HW136086   4.500   4.289   5.982 -0.5756  2.2469  0.7822
 8209SOL    HW236087   4.424   4.244   5.862 -1.2654 -0.9713  0.5415
 8210SOL     OW36088   2.186   2.979   5.888 -0.1226  0.0260 -0.1227
 8210SOL    HW136089   2.237   2.937   5.819  0.1136 -0.7931  0.5531
 8210SOL    HW236090   2.200   2.912   5.955  0.9400  0.5225  0.1581
 8211SOL     OW36091   2.819   2.103   4.038  0.0249 -0.6365 -0.8712
 8211SOL    HW136092   2.847   2.012   4.044 -3.0277 -1.6414 -1.9233
 8211SOL    HW236093   2.751   2.104   4.105  0.4248  0.4841 -0.4809
 8212SOL     OW36094   3.002   2.207  17.392 -0.3979  0.4330  0.2434
 8212SOL    HW136095   2.921   2.156  17.393  0.6032 -1.1910 -0.7765
 8212SOL    HW236096   2.985   2.271  17.323 -0.0337  0.1909 -0.0725
 8213SOL     OW36097   4.034   3.235   4.979  0.1701  0.0482  0.6191
 8213SOL    HW136098   3.971   3.290   5.024  1.3457  1.2864  0.7728
 8213SOL    HW236099   4.067   3.174   5.045 -0.2025 -1.0097 -0.1709
 8214SOL     OW36100   3.671   4.376   1.949  0.0924 -0.3409  0.1494
 8214SOL    HW136101   3.694   4.287   1.924  3.5156  0.1290  1.5833
 8214SOL    HW236102   3.755   4.422   1.950  0.3885 -0.8748 -1.2629
 8215SOL     OW36103   3.229   2.126   1.533  0.2385  0.2795  0.5825
 8215SOL    HW136104   3.151   2.143   1.481 -0.8667 -1.6372  1.5995
 8215SOL    HW236105   3.201   2.039   1.561  0.7116  0.4549  1.6138
 8216SOL     OW36106   0.863   3.297   2.621 -0.3328 -0.2365 -0.1327
 8216SOL    HW136107   0.924   3.256   2.683  1.2464  0.8826 -0.9655
 8216SOL    HW236108   0.910   3.358   2.564  2.2994 -1.0951  1.0954
 8217SOL     OW36109   3.267   3.191  17.104 -0.3867 -0.7296 -0.1999
 8217SOL    HW136110   3.231   3.196  17.193  1.2883 -1.4609  0.5300
 8217SOL    HW236111   3.361   3.204  17.121 -0.2130 -2.3076  0.1256
 8218SOL     OW36112   3.553   0.809   2.413 -0.0701  0.0400  0.2420
 8218SOL    HW136113   3.561   0.880   2.349 -0.1906 -0.1459  0.0190
 8218SOL    HW236114   3.504   0.854   2.481  0.4386  0.3575  0.3959
 8219SOL     OW36115   2.369   1.684   4.949  0.1677  0.2925  0.1837
 8219SOL    HW136116   2.291   1.634   4.925  1.1134 -0.8484 -0.5436
 8219SOL    HW236117   2.347   1.730   5.030 -0.4107  1.7473 -0.8070
 8220SOL     OW36118   2.147   3.569   6.404 -0.5746  0.1455  0.8705
 8220SOL    HW136119   2.124   3.500   6.342  0.4427 -0.0085  0.6687
 8220SOL    HW236120   2.062   3.577   6.447 -1.0904 -0.2715 -0.0598
 8221SOL     OW36121   3.284   2.507   7.773  0.2928  0.0043  0.6013
 8221SOL    HW136122   3.244   2.535   7.856 -1.1860 -1.5772  0.4195
 8221SOL    HW236123   3.367   2.553   7.787 -0.0730  0.5415  0.9935
 8222SOL     OW36124   2.448   1.541   8.242  0.4288 -0.0543  0.2859
 8222SOL    HW136125   2.468   1.447   8.248  0.3047 -0.1445 -0.5704
 8222SOL    HW236126   2.538   1.573   8.237  0.9943 -1.5998  0.3624
 8223SOL     OW36127   1.694   3.469   9.601  0.0399  0.4252  0.5919
 8223SOL    HW136128   1.659   3.531   9.665  1.0476  1.9460 -0.3430
 8223SOL    HW236129   1.613   3.422   9.579  0.0819  1.8016 -2.3877
 8224SOL     OW36130   1.555   1.617   5.975  0.3445 -0.1822 -0.3069
 8224SOL    HW136131   1.486   1.683   5.977  0.6173  0.0984 -0.1325
 8224SOL    HW236132   1.569   1.608   5.881  1.9490 -0.4880 -0.0370
 8225SOL     OW36133   0.962   2.027   2.857 -0.0415 -0.7333  0.6753
 8225SOL    HW136134   0.889   2.062   2.806 -1.1522 -1.7725  1.5739
 8225SOL    HW236135   1.039   2.040   2.801 -1.8042 -1.1466 -1.8553
 8226SOL     OW36136   0.688   4.295   8.634  0.3447  0.0315  0.1431
 8226SOL    HW136137   0.777   4.274   8.605  0.5674  0.9409  0.1587
 8226SOL    HW236138   0.653   4.220   8.681  0.3910 -0.5992 -0.8123
 8227SOL     OW36139   2.833   0.270   8.003  0.7074  0.0976  0.2748
 8227SOL    HW136140   2.853   0.220   8.082  1.0035  1.4441  1.0690
 8227SOL    HW236141   2.893   0.344   8.013 -0.5825  1.1181  0.4373
 8228SOL     OW36142   0.296   1.486   9.608 -0.1358 -0.8134 -0.1528
 8228SOL    HW136143   0.344   1.523   9.681 -1.0555 -0.3060  0.1946
 8228SOL    HW236144   0.324   1.394   9.613  3.3115  0.2779 -0.0284
 8229SOL     OW36145   0.206   3.426  10.985 -0.1165  0.1355  0.4609
 8229SOL    HW136146   0.211   3.342  10.938  1.5455  0.7736 -0.5269
 8229SOL    HW236147   0.273   3.474  10.936  0.3271  0.2052  1.1297
 8230SOL     OW36148   2.447   3.807  15.929  0.1317 -0.0294  0.1603
 8230SOL    HW136149   2.439   3.715  15.904  1.6770  0.1502 -0.9826
 8230SOL    HW236150   2.517   3.830  15.868 -0.3597 -0.4789 -0.5772
 8231SOL     OW36151   2.136   2.851   7.220 -0.0120 -0.2034 -0.4059
 8231SOL    HW136152   2.108   2.773   7.268 -2.7732  1.8212  1.2468
 8231SOL    HW236153   2.219   2.868   7.263 -0.7357  0.9921  0.5151
 8232SOL     OW36154   1.145   3.584   0.804  0.1855 -0.3692 -0.3492
 8232SOL    HW136155   1.188   3.597   0.720  2.1996  0.4073  0.7929
 8232SOL    HW236156   1.224   3.580   0.859 -0.7485 -2.9790  0.7822
 8233SOL     OW36157   1.142   1.523  10.281  0.0929  0.2564  0.1023
 8233SOL    HW136158   1.128   1.459  10.351 -0.0136 -1.3915 -1.4298
 8233SOL    HW236159   1.210   1.580  10.317 -1.1486  1.3519  0.7012
 8234SOL     OW36160   2.966   2.686   5.492  0.0068 -0.2416  0.4029
 8234SOL    HW136161   3.058   2.706   5.474 -0.2208 -1.4006 -2.0628
 8234SOL    HW236162   2.949   2.670   5.399  0.3237 -0.1446  0.3263
 8235SOL     OW36163   3.304   3.112   5.198  0.2341 -0.6203  0.0196
 8235SOL    HW136164   3.368   3.125   5.128 -1.1729 -1.2998 -1.3882
 8235SOL    HW236165   3.309   3.017   5.198  1.5274 -0.5623 -0.9096
 8236SOL     OW36166   4.005   4.283   6.506 -0.2115 -0.7857 -0.5030
 8236SOL    HW136167   3.930   4.262   6.451  2.2248  0.6527 -4.3423
 8236SOL    HW236168   3.966   4.325   6.583  1.5295 -0.4104  0.1827
 8237SOL     OW36169   1.582   1.828   2.079 -0.4039 -0.2551 -0.4246
 8237SOL    HW136170   1.633   1.778   2.016 -1.1275 -1.3159 -0.1650
 8237SOL    HW236171   1.528   1.877   2.017 -1.0813 -1.1428 -0.5252
 8238SOL     OW36172   0.583   4.202   6.309  0.1601  0.1668 -0.0406
 8238SOL    HW136173   0.587   4.130   6.246  0.4078 -0.5135  0.7622
 8238SOL    HW236174   0.500   4.194   6.356  0.8152  0.7937  1.2028
 8239SOL     OW36175   0.826   4.039   2.328 -0.1523 -0.0728  0.1806
 8239SOL    HW136176   0.873   4.007   2.405  0.8796  1.4307  0.1799
 8239SOL    HW236177   0.770   4.108   2.364 -0.1734 -0.2653  0.5199
 8240SOL     OW36178   3.867   3.245   2.718  0.1752  0.6374  0.1481
 8240SOL    HW136179   3.873   3.266   2.625  0.3346  0.1220  0.0423
 8240SOL    HW236180   3.797   3.180   2.705 -1.4490  1.7776  3.1029
 8241SOL     OW36181   2.693   3.031   9.865 -0.4975  0.1084 -0.2507
 8241SOL    HW136182   2.712   3.077   9.947 -0.3406 -0.1437 -0.1446
 8241SOL    HW236183   2.629   3.085   9.820 -0.0728  2.6798  2.2481
 8242SOL     OW36184   0.598   0.274   2.654  0.3588 -0.8930  0.1473
 8242SOL    HW136185   0.620   0.337   2.585 -1.1547  0.1924  0.6436
 8242SOL    HW236186   0.587   0.328   2.732 -1.1501  0.8890 -1.2729
 8243SOL     OW36187   1.642   0.673   5.012  0.0354 -0.5208 -0.2675
 8243SOL    HW136188   1.589   0.594   5.026 -1.0694  0.5221  1.5945
 8243SOL    HW236189   1.574   0.740   5.021 -0.9748 -1.6100  0.1300
 8244SOL     OW36190   2.633   0.027   7.452  0.5488 -0.2361  0.3814
 8244SOL    HW136191   2.595   4.662   7.436  0.2777  0.3497 -2.1989
 8244SOL    HW236192   2.683   0.016   7.533  0.6175 -0.2298  0.3398
 8245SOL     OW36193   3.360   3.312   7.458 -0.1882  0.4719  0.5396
 8245SOL    HW136194   3.337   3.320   7.366  0.8547  0.2613  0.2671
 8245SOL    HW236195   3.346   3.400   7.494  1.2329  1.7844 -2.1510
 8246SOL     OW36196   4.444   3.710   2.840  0.1930  0.6282 -0.6765
 8246SOL    HW136197   4.523   3.743   2.796  0.0242  0.9242 -0.7543
 8246SOL    HW236198   4.386   3.689   2.767  0.0631  1.4835 -0.8193
 8247SOL     OW36199   0.879   2.407   2.819  0.1657 -0.1002  0.3451
 8247SOL    HW136200   0.838   2.383   2.902  1.9938 -0.6436  1.0735
 8247SOL    HW236201   0.947   2.469   2.846  0.6650 -0.2630 -0.5413
 8248SOL     OW36202   2.496   3.697   4.866 -0.1058 -0.3272  0.6875
 8248SOL    HW136203   2.562   3.748   4.818  0.2317  0.2571  1.7882
 8248SOL    HW236204   2.556   3.634   4.906 -1.2077 -0.8334  1.5502
 8249SOL     OW36205   1.267   2.428   4.873  0.3771 -0.1001 -0.0616
 8249SOL    HW136206   1.356   2.438   4.839  1.3095 -1.5272  1.9018
 8249SOL    HW236207   1.297   2.369   4.943 -0.6626  1.5641  1.8144
 8250SOL     OW36208   3.825   3.362   2.468  0.2700  0.2153  0.0772
 8250SOL    HW136209   3.742   3.367   2.516  0.8851  2.1093  0.9834
 8250SOL    HW236210   3.846   3.456   2.469 -0.3506  0.3508  1.0031
 8251SOL     OW36211   0.892   0.855   5.387  0.0134 -0.9604  0.0702
 8251SOL    HW136212   0.833   0.931   5.386  0.3377 -0.6957  1.6373
 8251SOL    HW236213   0.848   0.814   5.461 -0.4076  0.6008  0.7010
 8252SOL     OW36214   0.054   3.131   9.514 -0.0260 -0.2617 -0.3187
 8252SOL    HW136215   0.086   3.200   9.573  1.9090 -1.7478  0.3597
 8252SOL    HW236216   4.684   3.125   9.542 -0.0109  1.1984  0.0696
 8253SOL     OW36217   4.014   3.775  14.050  0.4556 -0.1602  0.4096
 8253SOL    HW136218   4.094   3.725  14.038  1.0001  0.5120  1.2366
 8253SOL    HW236219   4.031   3.831  13.975 -1.8874 -0.1351 -0.1003
 8254SOL     OW36220   2.871   2.681   6.018 -0.2684  0.5577  0.2606
 8254SOL    HW136221   2.914   2.764   6.038  0.3885 -0.0033  1.1782
 8254SOL    HW236222   2.933   2.625   6.065  1.6006  2.8179  0.4877
 8255SOL     OW36223   0.732   3.569   5.538 -0.4812  0.5718 -0.2024
 8255SOL    HW136224   0.664   3.502   5.550  2.4354 -2.4436 -0.4920
 8255SOL    HW236225   0.806   3.510   5.521 -1.6884 -1.4301  1.5387
 8256SOL     OW36226   2.341   1.954   3.476 -0.4181  0.1440  0.1761
 8256SOL    HW136227   2.271   1.970   3.413 -0.3017  0.3183  0.0925
 8256SOL    HW236228   2.415   1.981   3.423 -2.0793  1.2551 -1.5515
 8257SOL     OW36229   2.602   2.858   2.673 -0.0428 -0.0372 -0.3692
 8257SOL    HW136230   2.529   2.904   2.714 -1.9085 -2.1222 -1.3301
 8257SOL    HW236231   2.591   2.881   2.580  0.7455 -0.4100 -0.5555
 8258SOL     OW36232   3.628   2.049   9.357 -0.3489  0.1314 -0.2344
 8258SOL    HW136233   3.689   2.121   9.377 -0.9777  0.7767 -0.6420
 8258SOL    HW236234   3.644   1.996   9.435  0.0782  1.5596  0.6608
 8259SOL     OW36235   2.652   3.469  10.831 -0.2991 -0.1478  0.1570
 8259SOL    HW136236   2.715   3.534  10.802  0.9525 -1.2319  0.4503
 8259SOL    HW236237   2.569   3.512  10.810  0.0973  0.1694 -0.7675
 8260SOL     OW36238   3.041   1.730  17.167  0.3759 -0.3154  0.0301
 8260SOL    HW136239   3.095   1.683  17.231  1.5724  2.9416  1.3928
 8260SOL    HW236240   3.094   1.809  17.156 -2.1791  1.5360  0.8978
 8261SOL     OW36241   3.309   2.334   1.238  0.4439 -0.2958  0.5939
 8261SOL    HW136242   3.330   2.428   1.233 -0.5531 -0.1883 -1.3556
 8261SOL    HW236243   3.219   2.338   1.208  0.3050 -1.6480  0.8718
 8262SOL     OW36244   0.811   0.645   3.278  1.0648  0.1306 -0.2986
 8262SOL    HW136245   0.790   0.584   3.207 -0.1038  0.0164  0.1631
 8262SOL    HW236246   0.798   0.727   3.231 -0.1436 -0.6145 -1.2656
 8263SOL     OW36247   4.204   1.380   8.814 -0.1284 -0.1386  0.1273
 8263SOL    HW136248   4.110   1.392   8.831  0.2160  0.7970  1.4101
 8263SOL    HW236249   4.250   1.455   8.850 -0.1709 -0.6921  1.3253
 8264SOL     OW36250   2.165   4.369   4.816  0.1846  0.1008 -0.5300
 8264SOL    HW136251   2.236   4.317   4.778  0.8065  0.4781  0.1437
 8264SOL    HW236252   2.138   4.316   4.891  2.2162  2.7101  2.0246
 8265SOL     OW36253   1.681   4.670   2.067 -0.7130 -0.1044 -0.1993
 8265SOL    HW136254   1.741   0.023   2.079 -0.3709 -0.6296  1.2966
 8265SOL    HW236255   1.680   4.671   1.971 -1.2076  1.0592 -0.1860
 8266SOL     OW36256   2.700   1.011   5.287  0.1226  0.2544  0.0775
 8266SOL    HW136257   2.681   1.090   5.338  1.5206 -0.2888  1.4494
 8266SOL    HW236258   2.693   1.044   5.198  2.3049 -1.7855 -0.8717
 8267SOL     OW36259   4.710   0.543  13.060  0.2484 -0.0229 -0.2231
 8267SOL    HW136260   0.025   0.557  12.973 -1.7611  0.0074 -1.0353
 8267SOL    HW236261   4.616   0.560  13.051 -0.0744 -1.8950 -0.3259
 8268SOL     OW36262   3.031   4.686   9.171 -0.3946 -0.2914  0.0589
 8268SOL    HW136263   3.047   4.625   9.242 -0.8422  1.0695  1.3415
 8268SOL    HW236264   3.106   0.024   9.159  1.0618 -1.8219  1.7765
 8269SOL     OW36265   0.420   1.569   4.284  0.7456 -1.0644  0.0476
 8269SOL    HW136266   0.441   1.500   4.221 -1.8976 -1.6691 -0.1819
 8269SOL    HW236267   0.336   1.535   4.315 -0.0814  2.5126  1.7023
 8270SOL     OW36268   4.046   2.736   0.155  0.9952  0.2677  0.0153
 8270SOL    HW136269   4.012   2.806   0.099  1.4970  2.7009  2.7644
 8270SOL    HW236270   3.984   2.667   0.132 -1.2591  1.1636  3.3468
 8271SOL     OW36271   3.731   0.089   1.334 -0.1540 -0.1269  0.3710
 8271SOL    HW136272   3.782   0.028   1.281 -0.9799  0.6918 -1.3513
 8271SOL    HW236273   3.795   0.157   1.355 -1.1495 -0.1844  3.6256
 8272SOL     OW36274   1.688   2.346   2.440 -0.0831 -0.3251 -0.1845
 8272SOL    HW136275   1.616   2.319   2.383 -1.3566  1.0874  0.7298
 8272SOL    HW236276   1.757   2.348   2.374 -1.0801  0.4973 -1.2040
 8273SOL     OW36277   3.455   3.065   5.536 -0.0828  0.8371  0.1789
 8273SOL    HW136278   3.371   3.085   5.578 -0.7982  0.3849 -1.0232
 8273SOL    HW236279   3.444   2.971   5.522 -3.4984  1.1178  0.8904
 8274SOL     OW36280   0.761   1.826  15.681  0.2362 -0.0493  0.3327
 8274SOL    HW136281   0.668   1.828  15.703 -0.0711  1.2251 -1.0370
 8274SOL    HW236282   0.795   1.828  15.770  2.2204 -1.1293 -0.3820
 8275SOL     OW36283   4.609   1.030   8.458  0.3083 -0.3556  0.2529
 8275SOL    HW136284   4.569   1.093   8.399  0.6895 -1.6406 -1.3797
 8275SOL    HW236285   4.593   1.077   8.541  0.9074 -1.5763  1.0606
 8276SOL     OW36286   4.212   4.593   7.025  0.2600 -0.2133 -0.3160
 8276SOL    HW136287   4.255   4.635   7.099 -1.5593  2.1619 -0.6339
 8276SOL    HW236288   4.136   4.649   7.017  0.9293  0.8233  0.6743
 8277SOL     OW36289   4.352   3.231  10.506  0.1468  0.3463  0.5359
 8277SOL    HW136290   4.440   3.196  10.489 -0.9546 -2.0338 -0.2621
 8277SOL    HW236291   4.313   3.166  10.564 -0.3359  0.3076  0.1647
 8278SOL     OW36292   0.922   2.926   8.838  0.4795  0.1520  0.3858
 8278SOL    HW136293   0.885   2.849   8.795 -0.1469  1.2067 -0.9646
 8278SOL    HW236294   0.947   2.880   8.918  0.7412  0.0043  0.2202
 8279SOL     OW36295   0.361   2.546   8.543  0.2468  0.7164 -0.1849
 8279SOL    HW136296   0.295   2.478   8.531  0.4679  0.6025 -0.7730
 8279SOL    HW236297   0.323   2.578   8.625 -1.2267 -0.3850 -0.4331
 8280SOL     OW36298   2.824   4.347   8.213  0.1173  0.4764  0.2533
 8280SOL    HW136299   2.912   4.384   8.208  0.1568  0.0426 -2.7600
 8280SOL    HW236300   2.829   4.304   8.298 -0.4635  0.8439  0.4680
 8281SOL     OW36301   3.591   3.692  11.673 -0.4070 -0.4288 -0.0160
 8281SOL    HW136302   3.529   3.749  11.719  0.1840 -0.1297  0.3962
 8281SOL    HW236303   3.675   3.728  11.701  0.0522 -1.4553 -0.0829
 8282SOL     OW36304   3.876   2.309   8.964 -0.7410  0.0073  0.0009
 8282SOL    HW136305   3.832   2.313   8.878  1.4343  0.7550 -1.0734
 8282SOL    HW236306   3.960   2.287   8.925 -0.5733 -0.6456  0.7448
 8283SOL     OW36307   3.690   1.640   1.988 -0.6403  0.0169 -0.0001
 8283SOL    HW136308   3.651   1.699   2.052  0.6926  0.7107  0.1857
 8283SOL    HW236309   3.683   1.555   2.030  0.1704  0.3109  0.7497
 8284SOL     OW36310   1.063   0.327   3.427 -0.5996  0.0304  1.0240
 8284SOL    HW136311   1.054   0.249   3.373  1.3069 -0.4934  1.4538
 8284SOL    HW236312   1.105   0.291   3.505  0.4457  0.4238  0.6420
 8285SOL     OW36313   4.540   0.892   5.448  0.3421  0.7910 -0.5911
 8285SOL    HW136314   4.570   0.844   5.525  0.6818  0.2781 -1.0461
 8285SOL    HW236315   4.525   0.819   5.388  0.0623  0.8507 -0.5893
 8286SOL     OW36316   0.726   2.451   7.461 -0.5812 -0.4557 -0.1053
 8286SOL    HW136317   0.676   2.495   7.392 -0.2486  1.1387  0.6677
 8286SOL    HW236318   0.771   2.387   7.405  1.0834  0.2832  0.3979
 8287SOL     OW36319   0.609   4.133   7.885 -0.0491 -0.0995 -0.4928
 8287SOL    HW136320   0.604   4.207   7.946  1.1337  1.1524 -1.8934
 8287SOL    HW236321   0.634   4.176   7.803  0.0736  0.9971  0.1278
 8288SOL     OW36322   2.138   2.843   2.582  0.3391 -0.4253  0.5278
 8288SOL    HW136323   2.122   2.772   2.519  2.5512 -0.2090 -0.2934
 8288SOL    HW236324   2.067   2.825   2.643  0.9699 -0.9355  1.1126
 8289SOL     OW36325   3.902   1.097   6.241  0.3084 -0.0493 -0.5198
 8289SOL    HW136326   3.919   1.003   6.233 -0.4015 -0.3477  1.6338
 8289SOL    HW236327   3.857   1.103   6.325 -1.0539  0.6217 -1.2985
 8290SOL     OW36328   1.342   2.641   7.190  0.7069  0.4851 -0.1367
 8290SOL    HW136329   1.363   2.722   7.145  0.2083  0.5336 -0.2782
 8290SOL    HW236330   1.316   2.581   7.120 -0.7149  0.0275  0.7745
 8291SOL     OW36331   1.223   2.189  11.260 -0.9419  0.5298 -0.0498
 8291SOL    HW136332   1.157   2.168  11.193 -0.6352 -0.8001  0.0619
 8291SOL    HW236333   1.247   2.278  11.235  0.8936 -0.0008 -0.1716
 8292SOL     OW36334   1.167   1.240  13.505  0.0578 -0.6528  0.5801
 8292SOL    HW136335   1.260   1.238  13.481 -0.4240 -1.3793 -1.1921
 8292SOL    HW236336   1.155   1.156  13.548 -2.6886 -0.9480 -0.7758
 8293SOL     OW36337   3.984   2.876   1.161  0.2836  0.1107 -0.4936
 8293SOL    HW136338   3.964   2.920   1.243 -0.7072 -2.0176  0.3819
 8293SOL    HW236339   3.898   2.873   1.120 -0.3173 -0.8510  0.8497
 8294SOL     OW36340   0.467   2.566  16.607  0.0686  0.2599  0.0452
 8294SOL    HW136341   0.532   2.544  16.674 -0.5618  1.2780  0.9766
 8294SOL    HW236342   0.530   2.614  16.552  2.0716 -2.2351  0.1575
 8295SOL     OW36343   3.428   1.121   6.073 -0.3841  1.0348 -0.2800
 8295SOL    HW136344   3.418   1.175   6.151  1.0471  0.5200  0.2514
 8295SOL    HW236345   3.363   1.161   6.015 -0.7760  1.5328  0.5043
 8296SOL     OW36346   0.369   1.815   2.061  0.6292 -0.0253  0.2182
 8296SOL    HW136347   0.404   1.839   1.975  0.8088  0.9907  0.5699
 8296SOL    HW236348   0.309   1.745   2.038 -0.3481  0.2088  2.0273
 8297SOL     OW36349   2.671   1.583  17.017 -0.5210 -0.1515  0.5192
 8297SOL    HW136350   2.671   1.487  17.021 -0.0220 -0.1726  0.0436
 8297SOL    HW236351   2.601   1.600  16.953 -0.7534  0.5356  0.9612
 8298SOL     OW36352   4.392   0.320   3.127  0.5120 -0.2987  0.1175
 8298SOL    HW136353   4.338   0.253   3.168 -1.4990  1.2090 -0.1142
 8298SOL    HW236354   4.331   0.364   3.068  2.9163 -0.4061 -2.5020
 8299SOL     OW36355   1.736   1.406   2.171  0.0272  0.0576  0.2473
 8299SOL    HW136356   1.652   1.403   2.126  0.9412 -1.0579 -1.3555
 8299SOL    HW236357   1.794   1.433   2.100 -0.1568  0.9598  0.4308
 8300SOL     OW36358   3.628   0.075   7.435  0.2822 -0.5202  0.1711
 8300SOL    HW136359   3.602   0.158   7.396 -0.4356 -0.7318  0.2083
 8300SOL    HW236360   3.677   0.109   7.511  0.3399  0.6722 -0.3864
 8301SOL     OW36361   4.401   3.293  16.946  0.3099 -0.3614 -0.8732
 8301SOL    HW136362   4.331   3.357  16.955  0.1731 -0.3834 -1.8113
 8301SOL    HW236363   4.359   3.216  16.908  3.2689 -0.8739 -3.0830
 8302SOL     OW36364   3.314   3.437  16.691  0.4039 -0.3941 -0.2950
 8302SOL    HW136365   3.274   3.391  16.764 -0.6934  3.6030  1.6051
 8302SOL    HW236366   3.382   3.485  16.738  1.3052 -0.3973 -1.5801
 8303SOL     OW36367   1.503   2.301   2.272  0.2019 -0.0608 -0.1752
 8303SOL    HW136368   1.432   2.245   2.242 -0.6098  1.1505 -0.5265
 8303SOL    HW236369   1.521   2.349   2.191 -0.1735  1.5159  0.6719
 8304SOL     OW36370   0.986   4.259   2.437 -0.6934 -0.1916  0.0271
 8304SOL    HW136371   1.021   4.280   2.350  3.0746  0.1867  1.6468
 8304SOL    HW236372   1.048   4.191   2.462  1.3084  1.7477  0.3547
 8305SOL     OW36373   2.528   4.367   2.863 -0.1535 -0.0713 -0.4850
 8305SOL    HW136374   2.438   4.399   2.873  0.1865  1.1059 -1.2064
 8305SOL    HW236375   2.573   4.414   2.933  0.7420 -1.2777 -0.2524
 8306SOL     OW36376   1.712   0.969   1.324 -0.3331  0.0314  0.7823
 8306SOL    HW136377   1.796   0.964   1.370  0.4939  0.3968 -0.7000
 8306SOL    HW236378   1.656   0.940   1.397  0.4749 -2.2629  0.4851
 8307SOL     OW36379   2.990   3.028   2.860  0.0447 -0.2204  0.0821
 8307SOL    HW136380   2.975   3.068   2.774  1.1748  1.6508  0.7669
 8307SOL    HW236381   3.005   3.111   2.905  0.0735  1.1323 -2.4483
 8308SOL     OW36382   1.630   3.873   7.815  0.1322 -0.2371 -0.1770
 8308SOL    HW136383   1.679   3.938   7.865 -0.4317  1.1569 -1.4695
 8308SOL    HW236384   1.692   3.815   7.771 -1.6489 -1.9709 -0.4120
 8309SOL     OW36385   1.073   2.667   3.975  0.3285 -0.4901  0.7013
 8309SOL    HW136386   0.990   2.626   3.999 -0.5052  0.6894 -0.2143
 8309SOL    HW236387   1.124   2.669   4.056  1.4152 -0.8365  0.0300
 8310SOL     OW36388   1.459   0.924  11.799  0.1023  0.2035  0.2788
 8310SOL    HW136389   1.535   0.979  11.780 -0.9249  0.6810 -2.4841
 8310SOL    HW236390   1.470   0.856  11.733 -1.6677 -0.5093  0.7102
 8311SOL     OW36391   2.185   1.349  12.447  0.0138 -0.3294 -0.2422
 8311SOL    HW136392   2.254   1.413  12.463  0.2689 -0.2514 -1.6726
 8311SOL    HW236393   2.154   1.340  12.537 -0.2797 -2.0310 -0.5200
 8312SOL     OW36394   1.711   2.183  12.596 -0.0015 -0.8012 -0.5380
 8312SOL    HW136395   1.749   2.217  12.677 -2.2347  1.5468 -0.4811
 8312SOL    HW236396   1.623   2.221  12.605  0.4261  0.4584 -1.5629
 8313SOL     OW36397   4.019   2.919   7.235  0.5381 -0.2244  0.4150
 8313SOL    HW136398   3.978   3.002   7.209  0.0585 -0.5648  0.0886
 8313SOL    HW236399   4.084   2.920   7.165  0.3741 -2.5092  0.2307
 8314SOL     OW36400   2.149   1.121   6.863 -0.5518  0.0951  0.7338
 8314SOL    HW136401   2.061   1.138   6.897  0.5408  1.2513  2.9695
 8314SOL    HW236402   2.158   1.189   6.796  1.4763  0.8132  1.7475
 8315SOL     OW36403   2.332   1.486   5.658  0.2483 -0.4869  0.9459
 8315SOL    HW136404   2.307   1.548   5.726 -1.3531 -0.2530  0.1443
 8315SOL    HW236405   2.247   1.454   5.629 -0.3762  0.1505  2.0753
 8316SOL     OW36406   1.772   3.225  13.721 -0.1145  0.3686 -0.3996
 8316SOL    HW136407   1.786   3.237  13.815  0.1926  0.8252 -0.5060
 8316SOL    HW236408   1.863   3.213  13.692 -0.5747 -1.3916 -1.1280
 8317SOL     OW36409   2.518   3.284   1.285  0.2366 -0.2789  0.0782
 8317SOL    HW136410   2.546   3.192   1.288 -1.3867 -0.8214 -1.3271
 8317SOL    HW236411   2.481   3.302   1.372  2.5889 -0.2921  1.0687
 8318SOL     OW36412   2.527   0.583   8.741 -0.1484  0.0231 -0.3773
 8318SOL    HW136413   2.570   0.589   8.655 -0.1556 -0.6998 -0.4313
 8318SOL    HW236414   2.603   0.580   8.799 -0.2659 -1.0135 -0.2688
 8319SOL     OW36415   4.651   4.241   5.205  0.2930 -0.1638  0.2642
 8319SOL    HW136416   4.690   4.191   5.133  1.9910  0.5018  0.6974
 8319SOL    HW236417   4.565   4.202   5.217  0.2570  0.1840  1.1833
 8320SOL     OW36418   1.344   4.508   2.781 -0.0812  0.2176 -0.2920
 8320SOL    HW136419   1.377   4.531   2.868  3.1604 -0.6742 -1.2937
 8320SOL    HW236420   1.334   4.596   2.744  2.3986  0.8931  0.6166
 8321SOL     OW36421   3.387   2.856   5.158  0.4548  0.1242  0.1211
 8321SOL    HW136422   3.389   2.813   5.072 -0.4411  2.4793 -1.0662
 8321SOL    HW236423   3.476   2.827   5.182  0.5846 -0.6675 -1.2945
 8322SOL     OW36424   2.962   3.604   6.195 -0.2723 -0.0745 -0.0581
 8322SOL    HW136425   3.057   3.613   6.190 -0.4999  1.7051 -1.5656
 8322SOL    HW236426   2.962   3.540   6.266  0.1846 -0.3176 -0.2824
 8323SOL     OW36427   1.951   1.023  11.682 -0.5388 -0.3068  0.3977
 8323SOL    HW136428   2.026   1.022  11.623 -1.5227  2.0704 -0.8669
 8323SOL    HW236429   1.937   1.117  11.694 -1.8308 -0.6084  1.2441
 8324SOL     OW36430   1.674   4.083   2.375  0.1869 -0.7107 -0.0533
 8324SOL    HW136431   1.708   4.065   2.287 -0.9360 -1.0363 -0.4166
 8324SOL    HW236432   1.707   4.170   2.396  2.2122 -1.2490 -1.0335
 8325SOL     OW36433   2.524   2.558  12.282 -0.2626 -0.1138  0.3677
 8325SOL    HW136434   2.472   2.638  12.289  0.6739  0.5618 -0.3801
 8325SOL    HW236435   2.534   2.526  12.371  2.4329  0.9778  0.4321
 8326SOL     OW36436   1.560   2.320   5.693  0.5742 -0.1200 -0.6256
 8326SOL    HW136437   1.500   2.393   5.681  1.4742  0.8232  0.7024
 8326SOL    HW236438   1.498   2.251   5.717  0.7161 -0.7266 -1.9742
 8327SOL     OW36439   3.671   3.767   4.482 -0.1648  0.7620  0.1179
 8327SOL    HW136440   3.753   3.785   4.436 -0.1797  0.2496 -0.1099
 8327SOL    HW236441   3.615   3.732   4.413  3.1806  3.0310 -3.8089
 8328SOL     OW36442   2.347   4.458  15.221  0.3969 -0.2263 -0.5423
 8328SOL    HW136443   2.432   4.416  15.206  1.5448  1.4936  1.0576
 8328SOL    HW236444   2.334   4.439  15.314 -0.0836 -0.6847 -0.7028
 8329SOL     OW36445   1.030   1.697   2.155  0.1411  0.4848  0.2537
 8329SOL    HW136446   1.038   1.613   2.111 -2.7306  0.9148 -1.1093
 8329SOL    HW236447   1.107   1.742   2.121  1.0380  0.0359  1.7081
 8330SOL     OW36448   1.225   1.321  10.747 -0.3870 -0.8964 -0.3491
 8330SOL    HW136449   1.234   1.370  10.829  0.0824 -0.3671 -0.7154
 8330SOL    HW236450   1.140   1.347  10.713  0.0689 -3.0938 -3.1416
 8331SOL     OW36451   0.874   0.300   7.993  0.4248 -0.6087  0.4086
 8331SOL    HW136452   0.819   0.368   8.033 -1.3624 -1.4008 -0.7068
 8331SOL    HW236453   0.819   0.266   7.923 -1.0796  0.3451  1.1258
 8332SOL     OW36454   4.586   4.580  14.298 -0.1596  0.3184  0.1557
 8332SOL    HW136455   4.550   4.653  14.247 -0.7802 -0.4689 -0.5408
 8332SOL    HW236456   4.506   4.530  14.317 -0.7401  1.6774  1.2757
 8333SOL     OW36457   3.652   0.758  14.306 -0.2961  0.4394  0.1057
 8333SOL    HW136458   3.715   0.687  14.319  0.4659  0.8489 -1.3477
 8333SOL    HW236459   3.574   0.721  14.348 -1.6671  0.9730 -1.9678
 8334SOL     OW36460   3.969   3.640   4.057 -0.1055 -0.3719 -0.1165
 8334SOL    HW136461   3.950   3.577   3.988 -1.3618  0.5267 -0.5961
 8334SOL    HW236462   3.945   3.717   4.005  0.2796 -0.5029 -0.4887
 8335SOL     OW36463   1.361   1.339  10.512  0.2620 -0.1802  0.5555
 8335SOL    HW136464   1.439   1.394  10.525  0.8734 -0.9401  0.0975
 8335SOL    HW236465   1.317   1.343  10.597 -1.1853 -0.6281 -0.1665
 8336SOL     OW36466   4.304   3.663  13.584  0.3777  0.0667 -0.4034
 8336SOL    HW136467   4.280   3.721  13.512  1.4271 -0.2280 -0.9852
 8336SOL    HW236468   4.351   3.594  13.536 -1.0313 -0.8693 -0.4597
 8337SOL     OW36469   2.848   2.196   7.354 -0.1336 -0.1829  0.6215
 8337SOL    HW136470   2.753   2.194   7.363 -0.0643 -0.9593  1.1306
 8337SOL    HW236471   2.869   2.178   7.445  0.0274 -0.4298  0.5369
 8338SOL     OW36472   2.555   3.656   6.746  0.6207 -0.0074  0.2644
 8338SOL    HW136473   2.466   3.654   6.781  0.4497  1.0339 -0.1224
 8338SOL    HW236474   2.547   3.676   6.653  0.1247 -0.9811  0.0976
 8339SOL     OW36475   4.521   1.125  11.417 -0.2145 -0.6848  0.1199
 8339SOL    HW136476   4.544   1.214  11.391  1.3717 -0.8588  0.9433
 8339SOL    HW236477   4.432   1.146  11.447  0.4415  1.4813  0.5689
 8340SOL     OW36478   3.816   2.284  14.036  0.3336  0.0769 -0.2156
 8340SOL    HW136479   3.817   2.338  14.115 -1.2327 -1.5847  0.9380
 8340SOL    HW236480   3.727   2.302  14.006 -0.9857 -0.1590  3.5627
 8341SOL     OW36481   1.096   0.695   9.680 -0.4222 -0.7080 -0.0769
 8341SOL    HW136482   1.152   0.698   9.603  0.0443  1.0455  0.3430
 8341SOL    HW236483   1.061   0.784   9.676 -0.9495 -0.9977 -2.2752
 8342SOL     OW36484   2.437   1.878   2.646  0.0800  0.3495  0.1271
 8342SOL    HW136485   2.346   1.862   2.670  0.3437 -2.1979 -0.6122
 8342SOL    HW236486   2.451   1.795   2.601  2.1978  1.0060 -0.4487
 8343SOL     OW36487   2.714   3.723   4.671 -0.3532 -0.1370 -0.5485
 8343SOL    HW136488   2.666   3.754   4.594 -0.6665 -1.1427 -0.7614
 8343SOL    HW236489   2.760   3.654   4.623  2.4150  1.4945 -0.2299
 8344SOL     OW36490   3.487   0.739   4.699 -0.2997  0.4374 -0.5654
 8344SOL    HW136491   3.488   0.732   4.794  0.5048 -0.1889 -0.6188
 8344SOL    HW236492   3.482   0.833   4.683  3.2696  1.1784  2.6605
 8345SOL     OW36493   2.512   1.831   3.057  0.6639 -0.1901 -0.2699
 8345SOL    HW136494   2.445   1.842   2.989  0.0336 -2.0170  0.0727
 8345SOL    HW236495   2.480   1.752   3.101 -1.0759 -0.2723 -1.6660
 8346SOL     OW36496   2.185   1.844   3.662 -0.2395 -0.0766  0.4489
 8346SOL    HW136497   2.236   1.763   3.669 -0.4543 -0.3851 -1.5489
 8346SOL    HW236498   2.240   1.898   3.605  1.8794 -2.2171  0.4720
 8347SOL     OW36499   2.921   1.671   5.849  0.6032 -0.2191  0.1822
 8347SOL    HW136500   2.879   1.718   5.921 -0.1968  0.0557 -0.4608
 8347SOL    HW236501   2.898   1.713   5.766 -0.8706 -0.2563  0.5599
 8348SOL     OW36502   0.103   1.864   4.346 -0.1169  0.0997  0.0448
 8348SOL    HW136503   0.196   1.848   4.364 -0.5288 -0.3463  1.7963
 8348SOL    HW236504   0.102   1.815   4.264  1.8490 -1.1043  0.7229
 8349SOL     OW36505   2.809   0.866   7.456 -0.0700 -0.2930  0.2029
 8349SOL    HW136506   2.810   0.904   7.544  0.3921 -1.3650  0.6621
 8349SOL    HW236507   2.826   0.942   7.401  2.4500  0.3799  1.9143
 8350SOL     OW36508   3.112   4.132   6.984 -0.4041 -0.5605 -0.1085
 8350SOL    HW136509   3.060   4.145   7.063  0.3515  1.0200  0.1241
 8350SOL    HW236510   3.127   4.220   6.950 -0.3865 -0.4687  0.1379
 8351SOL     OW36511   2.229   1.983   9.448  0.2547  0.0936  0.0166
 8351SOL    HW136512   2.180   1.940   9.518  1.6414  2.7502  2.5662
 8351SOL    HW236513   2.258   2.064   9.490 -3.2038  1.6087 -0.5948
 8352SOL     OW36514   1.441   4.651  16.267 -0.2037  0.5599 -0.1656
 8352SOL    HW136515   1.451   4.628  16.360  0.6785  2.1899  0.1341
 8352SOL    HW236516   1.536   4.656  16.255 -0.4274  1.9050 -1.2808
 8353SOL     OW36517   3.014   4.391  17.412 -0.6339  0.2940 -0.1941
 8353SOL    HW136518   3.085   4.399  17.475 -0.9970 -2.6343  0.5540
 8353SOL    HW236519   2.955   4.330  17.456 -0.5923  0.3321 -0.0853
 8354SOL     OW36520   1.186   4.047   2.342  0.5472 -0.0289 -0.1859
 8354SOL    HW136521   1.261   4.092   2.304 -0.5877  1.6405 -0.4443
 8354SOL    HW236522   1.138   4.033   2.260  1.0889  0.3773 -0.5662
 8355SOL     OW36523   1.845   2.250  14.795  0.5006  0.3657 -0.1196
 8355SOL    HW136524   1.821   2.276  14.885  0.0081 -1.4663  0.2681
 8355SOL    HW236525   1.847   2.155  14.800 -1.4881  0.3613  0.7607
 8356SOL     OW36526   0.653   0.944   4.034 -0.4459  0.1122 -0.3155
 8356SOL    HW136527   0.664   0.851   4.054 -1.9319 -0.2136 -1.0332
 8356SOL    HW236528   0.560   0.960   4.049 -0.0259  1.0151  1.3290
 8357SOL     OW36529   2.545   3.850   4.473 -0.3722 -0.1635  0.5742
 8357SOL    HW136530   2.475   3.867   4.536  0.7891 -2.5325  2.4786
 8357SOL    HW236531   2.551   3.932   4.423  0.4106 -1.0972 -0.8828
 8358SOL     OW36532   2.810   0.059   9.390  0.2260 -0.3040 -0.1762
 8358SOL    HW136533   2.884   4.720   9.375 -0.2867 -0.6130 -1.4631
 8358SOL    HW236534   2.847   0.123   9.451  0.2248 -0.3334 -0.1444
 8359SOL     OW36535   1.303   0.854  15.931  0.1463 -0.5643 -0.0334
 8359SOL    HW136536   1.231   0.828  15.873 -1.5099  2.1119  0.7647
 8359SOL    HW236537   1.306   0.944  15.898  2.5459 -0.2166  1.1347
 8360SOL     OW36538   2.381   3.596   3.013 -0.4384  0.0644  0.3078
 8360SOL    HW136539   2.350   3.678   3.052 -1.7179  0.2397 -1.0938
 8360SOL    HW236540   2.299   3.549   2.997 -0.0505 -0.4366 -0.2491
 8361SOL     OW36541   4.601   2.207   2.852 -0.2924  0.3665 -0.2001
 8361SOL    HW136542   4.661   2.191   2.925 -2.6109  1.9556  2.0570
 8361SOL    HW236543   4.531   2.147   2.879 -0.6665  0.8304 -0.1420
 8362SOL     OW36544   3.057   1.053  14.239  0.1706  0.3336  0.2113
 8362SOL    HW136545   3.092   1.142  14.230  1.7452 -0.4559 -1.3400
 8362SOL    HW236546   2.999   1.077  14.311  1.2671  1.2662  0.7954
 8363SOL     OW36547   0.984   2.021   9.545  0.1591 -0.4801 -0.1793
 8363SOL    HW136548   1.005   1.988   9.632  0.7188 -0.6429 -0.3718
 8363SOL    HW236549   1.040   2.098   9.533 -0.7852  0.3610  0.8080
 8364SOL     OW36550   4.214   2.593  14.583  0.1180  0.0589 -0.3321
 8364SOL    HW136551   4.227   2.681  14.618 -4.6105  0.6218 -0.0889
 8364SOL    HW236552   4.302   2.565  14.555  0.0039  0.9047 -1.5387
 8365SOL     OW36553   1.884   4.595   7.956 -0.1254 -0.1350 -0.1318
 8365SOL    HW136554   1.833   4.540   8.017  0.8661 -0.1027  0.7201
 8365SOL    HW236555   1.964   4.543   7.954  1.3698  2.1893 -0.8014
 8366SOL     OW36556   2.123   0.240   9.149 -0.2770 -0.3554 -0.2078
 8366SOL    HW136557   2.105   0.282   9.233  1.5589  0.8015 -0.3925
 8366SOL    HW236558   2.102   0.151   9.175  1.0393 -0.9307 -1.0915
 8367SOL     OW36559   0.429   2.416  11.431  0.1684 -0.1231 -0.9978
 8367SOL    HW136560   0.415   2.388  11.341 -0.5973 -1.1517 -0.5620
 8367SOL    HW236561   0.349   2.373  11.462  0.7216 -0.1663  0.3814
 8368SOL     OW36562   0.069   0.479   5.983 -0.0738 -0.1728  0.2505
 8368SOL    HW136563   0.058   0.562   6.030  1.8975  0.0343  0.3660
 8368SOL    HW236564   4.698   0.452   5.984 -0.1022 -0.1228 -0.8139
 8369SOL     OW36565   3.487   4.568   1.912 -0.3421 -0.0868  0.0519
 8369SOL    HW136566   3.546   4.492   1.923  1.0558  0.7287 -1.6790
 8369SOL    HW236567   3.456   4.572   2.002  1.5099 -2.8021  0.8180
 8370SOL     OW36568   4.538   4.053   6.382 -0.5438  0.0420  0.5101
 8370SOL    HW136569   4.601   4.023   6.315 -0.3558  2.3690 -0.3614
 8370SOL    HW236570   4.591   4.122   6.421 -1.1510  0.9101 -0.2056
 8371SOL     OW36571   4.087   1.113   8.553  0.3141 -0.0105  0.3437
 8371SOL    HW136572   4.169   1.155   8.581  0.4345  0.4037 -0.6227
 8371SOL    HW236573   4.025   1.184   8.571  1.6968  1.8300 -1.9667
 8372SOL     OW36574   2.650   3.237   5.829 -0.2109 -0.1185  0.1777
 8372SOL    HW136575   2.599   3.313   5.857  0.0612 -0.2955  1.1779
 8372SOL    HW236576   2.691   3.264   5.748 -2.8419  0.2939 -1.0221
 8373SOL     OW36577   3.366   0.445  15.790  0.1444  0.5565 -0.3109
 8373SOL    HW136578   3.339   0.467  15.700  0.3144  0.0842 -0.4768
 8373SOL    HW236579   3.401   0.357  15.777  2.4610  1.2384  1.4209
 8374SOL     OW36580   0.088   1.985   2.701 -0.6318  0.3933  0.4180
 8374SOL    HW136581   4.714   1.980   2.690 -0.5878  1.0615 -0.3292
 8374SOL    HW236582   0.103   1.933   2.780  0.9324 -0.2772 -0.3287
 8375SOL     OW36583   1.402   1.361   1.572 -0.4865  0.3312 -0.3066
 8375SOL    HW136584   1.473   1.302   1.548 -0.6288  0.2592 -0.5566
 8375SOL    HW236585   1.449   1.436   1.609 -0.2707 -0.2170  0.5183
 8376SOL     OW36586   4.148   3.319   9.064  0.3669 -0.5725 -0.0492
 8376SOL    HW136587   4.175   3.231   9.037  2.0920 -0.6985  2.0323
 8376SOL    HW236588   4.055   3.325   9.043  1.0299 -0.7320 -3.0377
 8377SOL     OW36589   3.593   1.951   7.151 -0.4304  0.0859  0.2974
 8377SOL    HW136590   3.604   1.959   7.056 -1.4629  0.4060  0.2073
 8377SOL    HW236591   3.680   1.921   7.178  1.0963  2.8728 -1.4310
 8378SOL     OW36592   2.355   0.500  12.199  1.1133 -0.2555  0.5772
 8378SOL    HW136593   2.369   0.431  12.134  1.3763 -0.8274  1.2350
 8378SOL    HW236594   2.418   0.564  12.166  1.6718 -0.5642  1.0461
 8379SOL     OW36595   3.009   1.653   6.922 -0.1868  0.3503  0.1383
 8379SOL    HW136596   2.935   1.615   6.969 -1.0465  0.2134 -1.3348
 8379SOL    HW236597   3.071   1.690   6.985  1.5866  0.7260 -1.8292
 8380SOL     OW36598   0.777   0.344   0.743  0.5110 -0.2614  0.2733
 8380SOL    HW136599   0.710   0.276   0.754 -0.7989  0.7102 -1.6352
 8380SOL    HW236600   0.811   0.324   0.655 -2.0094 -2.9357 -0.1088
 8381SOL     OW36601   1.122   3.232   4.075 -0.0459  0.1573  0.1193
 8381SOL    HW136602   1.154   3.284   4.002 -1.5433  1.4709  0.4134
 8381SOL    HW236603   1.033   3.211   4.047  0.0493  0.5368 -0.4628
 8382SOL     OW36604   1.492   1.629   3.314  0.5221 -0.0646  0.6079
 8382SOL    HW136605   1.520   1.666   3.398 -0.9397 -0.9238  1.4605
 8382SOL    HW236606   1.535   1.685   3.249 -0.6268 -2.3045 -2.0712
 8383SOL     OW36607   1.828   1.583  13.026 -0.0366 -0.5196  0.2109
 8383SOL    HW136608   1.755   1.615  13.080 -2.2545 -1.2662 -2.3617
 8383SOL    HW236609   1.844   1.664  12.977 -1.7593  0.1933  0.8283
 8384SOL     OW36610   1.064   0.311  11.100  0.3071 -0.3814  0.4162
 8384SOL    HW136611   1.030   0.389  11.056 -0.4023 -1.1569 -0.4173
 8384SOL    HW236612   1.057   0.335  11.192  2.8106  2.6867 -0.1717
 8385SOL     OW36613   0.005   2.679  15.188 -0.6198  0.6852 -0.1491
 8385SOL    HW136614   4.652   2.739  15.195 -0.9550  0.2679 -0.0923
 8385SOL    HW236615   4.697   2.612  15.125 -1.3945  0.8510  0.0286
 8386SOL     OW36616   3.294   3.062   8.180  0.0210 -0.3873  0.1990
 8386SOL    HW136617   3.382   3.065   8.218  1.0234 -1.8979 -1.9855
 8386SOL    HW236618   3.287   2.969   8.157 -1.7361 -0.5497  1.3652
 8387SOL     OW36619   3.120   2.228   5.898 -0.2841 -1.1259  0.4687
 8387SOL    HW136620   3.044   2.257   5.947 -1.5447  0.7825 -2.6165
 8387SOL    HW236621   3.084   2.213   5.811  0.5518 -3.0299  0.4531
 8388SOL     OW36622   0.685   1.639  10.980 -0.4093 -0.1993 -0.3563
 8388SOL    HW136623   0.643   1.707  11.033  1.9596  0.8256  0.2401
 8388SOL    HW236624   0.760   1.688  10.944  0.7917 -1.9050 -0.1708
 8389SOL     OW36625   2.487   1.580  16.806  0.0128  0.1773 -0.4677
 8389SOL    HW136626   2.486   1.669  16.772 -2.2007  0.4066  0.2197
 8389SOL    HW236627   2.435   1.529  16.744  0.0404  1.1202 -1.2538
 8390SOL     OW36628   1.776   2.439   6.126  0.3657  0.2006 -0.3678
 8390SOL    HW136629   1.692   2.393   6.126 -0.2639  1.3476 -1.3670
 8390SOL    HW236630   1.817   2.414   6.209 -0.2737  0.5494  0.0567
 8391SOL     OW36631   0.231   0.830   4.894 -0.5152  0.1367 -0.0636
 8391SOL    HW136632   0.282   0.768   4.947 -0.7736 -1.7684 -2.0701
 8391SOL    HW236633   0.161   0.772   4.864  0.4821 -1.8864  1.4330
 8392SOL     OW36634   4.072   1.332  15.236  0.6249  0.2212  0.5204
 8392SOL    HW136635   4.009   1.403  15.233  1.0693  0.4982 -2.4736
 8392SOL    HW236636   4.026   1.268  15.290  1.7958 -0.4922  0.6887
 8393SOL     OW36637   0.425   1.593   6.527  0.0486 -0.3552  0.2638
 8393SOL    HW136638   0.347   1.608   6.473  0.0353  0.0501  0.3966
 8393SOL    HW236639   0.415   1.502   6.556 -2.7824  0.0213  0.4646
 8394SOL     OW36640   3.298   4.193   6.437 -0.3174  0.4404  0.0781
 8394SOL    HW136641   3.245   4.114   6.445  1.3159 -0.6948 -0.2663
 8394SOL    HW236642   3.265   4.254   6.371 -0.5649  1.3578  1.0376
 8395SOL     OW36643   1.438   3.406   9.681  0.3757 -0.0551 -0.3920
 8395SOL    HW136644   1.359   3.362   9.711  2.0219 -2.9047 -0.1873
 8395SOL    HW236645   1.452   3.462   9.757 -0.5248  2.0920 -1.8304
 8396SOL     OW36646   2.837   2.953   7.870  0.3052 -0.2703  0.5056
 8396SOL    HW136647   2.770   2.977   7.934  0.3915  2.5442 -0.4462
 8396SOL    HW236648   2.920   2.927   7.910 -0.1826 -0.6235  1.2922
 8397SOL     OW36649   0.679   3.138  12.126  0.0374  0.1168 -0.1241
 8397SOL    HW136650   0.622   3.140  12.048  0.3922  0.2675 -0.3751
 8397SOL    HW236651   0.636   3.184  12.198 -0.5331 -1.9866  0.8822
 8398SOL     OW36652   1.713   0.740   8.745  0.3805  0.2958 -0.2123
 8398SOL    HW136653   1.803   0.707   8.753  0.6016  1.2117  1.0936
 8398SOL    HW236654   1.711   0.835   8.754  1.2787 -0.0213  3.3478
 8399SOL     OW36655   0.511   4.170   4.850  0.6670 -0.2481  0.3975
 8399SOL    HW136656   0.574   4.238   4.825 -0.2812 -0.7676 -3.4579
 8399SOL    HW236657   0.558   4.124   4.919 -1.3990 -0.2691  1.7720
 8400SOL     OW36658   2.753   3.042   3.982 -0.2010 -0.1718 -0.0258
 8400SOL    HW136659   2.679   2.985   3.960 -0.4327  0.1844 -0.1610
 8400SOL    HW236660   2.725   3.124   3.943 -0.2428 -0.2379 -0.1338
 8401SOL     OW36661   4.528   4.310   3.544  0.0159  0.1341 -0.0761
 8401SOL    HW136662   4.455   4.371   3.534  0.2811  0.4203 -0.2261
 8401SOL    HW236663   4.609   4.360   3.554 -0.5186  0.8343  0.8222
 8402SOL     OW36664   1.388   2.528   5.303 -0.1510 -0.2144  0.2312
 8402SOL    HW136665   1.425   2.459   5.248  1.4118  1.6306 -1.0485
 8402SOL    HW236666   1.304   2.549   5.263 -0.9517 -2.2430  0.8977
 8403SOL     OW36667   0.943   1.808   1.217  0.1125 -0.1991  0.5440
 8403SOL    HW136668   0.944   1.747   1.291 -0.9702  1.2966  1.7990
 8403SOL    HW236669   0.873   1.777   1.159  3.0569 -2.0430 -2.0272
 8404SOL     OW36670   0.555   3.176  11.872  0.4891  0.2312 -0.1767
 8404SOL    HW136671   0.563   3.264  11.909  2.5067 -0.2090  0.4474
 8404SOL    HW236672   0.477   3.184  11.817 -0.0591 -0.0853  0.5479
 8405SOL     OW36673   2.622   0.867   3.419 -0.4642 -0.0770  0.1365
 8405SOL    HW136674   2.623   0.847   3.513  1.0273  1.3422  0.4352
 8405SOL    HW236675   2.646   0.788   3.372  1.0610  0.6416 -0.2919
 8406SOL     OW36676   3.895   1.458  17.445  0.5936  0.1905 -0.3373
 8406SOL    HW136677   3.856   1.529  17.395  2.1334  2.6124  1.9223
 8406SOL    HW236678   3.903   1.508  17.526  1.8849 -0.9168  0.2196
 8407SOL     OW36679   3.242   0.387  11.239 -0.7178 -0.3079 -0.0632
 8407SOL    HW136680   3.269   0.393  11.331  0.1162  0.1807 -0.3446
 8407SOL    HW236681   3.279   0.467  11.202 -1.5814  0.5557  0.9499
 8408SOL     OW36682   0.045   4.299   7.873 -0.5281 -0.4309 -0.3228
 8408SOL    HW136683   0.056   4.245   7.951  0.1576  1.7732  1.0879
 8408SOL    HW236684   4.687   4.248   7.854 -1.1317 -0.9762  3.7254
 8409SOL     OW36685   2.156   1.527   4.939  0.1553 -0.2165  0.0040
 8409SOL    HW136686   2.083   1.546   4.998 -1.6542  0.3946 -2.3967
 8409SOL    HW236687   2.203   1.459   4.987 -0.7862 -1.6444 -1.1339
 8410SOL     OW36688   0.833   4.691   0.115  0.0816  0.1381  0.7180
 8410SOL    HW136689   0.908   4.633   0.103 -0.6332 -0.2814 -1.6030
 8410SOL    HW236690   0.775   4.620   0.089  1.7637 -1.1795  0.5840
 8411SOL     OW36691   3.855   1.386   4.375  0.1119 -0.1533 -0.0639
 8411SOL    HW136692   3.843   1.347   4.462  3.6970  2.3162  1.5577
 8411SOL    HW236693   3.928   1.441   4.403 -0.7015  0.9589 -0.1570
 8412SOL     OW36694   3.764   2.028   3.698 -0.6085  0.2385 -0.0259
 8412SOL    HW136695   3.684   2.056   3.653 -0.1749  0.6019 -0.5763
 8412SOL    HW236696   3.817   2.020   3.618  2.0798  0.8824  1.7030
 8413SOL     OW36697   0.075   2.446   8.917 -0.0623 -0.3504 -0.2007
 8413SOL    HW136698   4.703   2.422   8.916 -0.0537 -0.4320  0.5498
 8413SOL    HW236699   0.102   2.423   9.006 -1.4934 -1.5273 -0.0706
 8414SOL     OW36700   0.933   3.312  13.319  0.8933  0.0739 -0.3328
 8414SOL    HW136701   0.839   3.321  13.306  0.9092 -2.0877 -1.9414
 8414SOL    HW236702   0.964   3.318  13.229 -0.1256  2.4960 -0.5121
 8415SOL     OW36703   0.659   1.392   8.617  0.6852  0.0123 -0.6840
 8415SOL    HW136704   0.753   1.388   8.598  0.6765 -0.3783 -0.6425
 8415SOL    HW236705   0.662   1.357   8.706 -0.9596  2.4210  0.3127
 8416SOL     OW36706   0.758   4.202   8.252  0.3355  0.1695 -0.5666
 8416SOL    HW136707   0.708   4.125   8.277  1.4969 -0.3828  0.0665
 8416SOL    HW236708   0.823   4.169   8.189  1.1764 -0.2607  0.5288
 8417SOL     OW36709   2.177   1.311   1.704 -1.1796  0.5050  0.1159
 8417SOL    HW136710   2.248   1.250   1.725 -1.7570  0.0583  0.7756
 8417SOL    HW236711   2.214   1.394   1.735  1.5098  0.2530 -2.3747
 8418SOL     OW36712   4.265   1.567  13.669  0.2035 -0.2168  0.0390
 8418SOL    HW136713   4.194   1.575  13.605  1.4141  0.9361 -1.1486
 8418SOL    HW236714   4.214   1.515  13.732 -1.9544 -0.2735 -1.7378
 8419SOL     OW36715   3.859   2.427  10.248  0.6241  0.3091  0.3534
 8419SOL    HW136716   3.767   2.440  10.227 -0.1565 -1.3592  2.7784
 8419SOL    HW236717   3.879   2.511  10.289 -1.1738  0.5178  0.7952
 8420SOL     OW36718   4.649   2.315   2.469 -0.4056  0.3967 -0.2658
 8420SOL    HW136719   4.715   2.333   2.402  1.4331  0.1238  1.4729
 8420SOL    HW236720   4.645   2.220   2.471  1.6742  0.2661 -1.9321
 8421SOL     OW36721   4.246   0.781   5.668  0.3109 -0.4549  0.2445
 8421SOL    HW136722   4.206   0.695   5.656  1.1880 -0.5802 -1.7924
 8421SOL    HW236723   4.204   0.813   5.588  0.2778  0.6842  0.7223
 8422SOL     OW36724   1.198   3.507   5.607 -0.1009 -0.5081 -0.1930
 8422SOL    HW136725   1.201   3.589   5.656  1.0186 -1.5619  1.4854
 8422SOL    HW236726   1.255   3.451   5.660 -1.2424  0.3679  1.9613
 8423SOL     OW36727   4.200   4.697  10.159  0.1214  0.5697  0.5322
 8423SOL    HW136728   4.182   0.060  10.202 -4.6654  0.6143 -1.5670
 8423SOL    HW236729   4.232   4.656  10.239 -2.4513  0.9714  1.7801
 8424SOL     OW36730   1.458   2.314   6.044  0.0720 -0.3663  0.1886
 8424SOL    HW136731   1.423   2.272   6.123  0.0703 -1.4690 -0.4000
 8424SOL    HW236732   1.506   2.240   6.007 -1.8227 -2.1748  1.3237
 8425SOL     OW36733   3.957   4.638  10.026  0.4819  0.2224  0.4148
 8425SOL    HW136734   3.882   4.667  10.078  0.5355  0.8139  0.1586
 8425SOL    HW236735   4.030   4.653  10.086  0.1851  1.4636  0.4584
 8426SOL     OW36736   2.026   1.835   2.264 -0.2832  0.4178  0.2704
 8426SOL    HW136737   2.041   1.863   2.354  2.3937 -0.1138  0.0019
 8426SOL    HW236738   2.010   1.918   2.218  1.0786  0.1767 -0.6603
 8427SOL     OW36739   2.542   4.277   6.038  0.5139  0.2626 -0.4556
 8427SOL    HW136740   2.536   4.215   6.110 -0.2447 -0.6838 -1.3315
 8427SOL    HW236741   2.627   4.312   6.065  0.7358 -0.4292 -0.2719
 8428SOL     OW36742   1.501   4.175  11.257  0.7262  0.1453 -0.6918
 8428SOL    HW136743   1.453   4.134  11.185  0.0679 -1.5879  0.7330
 8428SOL    HW236744   1.485   4.268  11.240  0.1341  0.4658  1.5884
 8429SOL     OW36745   0.857   0.115   9.193  0.4708 -0.4677 -0.2675
 8429SOL    HW136746   0.922   0.167   9.146  1.2393 -0.2022  1.0954
 8429SOL    HW236747   0.787   0.110   9.128  1.6334  0.0001 -1.5546
 8430SOL     OW36748   0.850   1.063   4.251 -0.2760 -0.0304 -0.1117
 8430SOL    HW136749   0.836   0.978   4.209 -0.1205 -0.4878  0.7573
 8430SOL    HW236750   0.791   1.050   4.325  0.5127  3.4981  1.0904
 8431SOL     OW36751   3.865   1.481   2.997 -0.2460 -0.1680  0.0701
 8431SOL    HW136752   3.790   1.493   3.054 -0.7148 -1.9753 -0.1438
 8431SOL    HW236753   3.823   1.462   2.913 -2.2075  3.1601  0.3221
 8432SOL     OW36754   1.100   0.816  15.732 -0.9189  0.3510  0.8015
 8432SOL    HW136755   1.085   0.762  15.810 -2.0752  0.5597  0.7246
 8432SOL    HW236756   1.012   0.821  15.695 -0.7274  1.6285  0.5062
 8433SOL     OW36757   1.808   2.539   3.950  0.3862  0.4855 -0.5624
 8433SOL    HW136758   1.731   2.488   3.974  0.4080  0.4400 -0.5889
 8433SOL    HW236759   1.797   2.619   4.001 -2.7202  0.4062 -1.1612
 8434SOL     OW36760   2.907   2.268   6.054  0.1384  0.1115 -0.5880
 8434SOL    HW136761   2.873   2.355   6.077  1.0084 -0.3568  2.4420
 8434SOL    HW236762   2.934   2.232   6.138 -0.6823 -0.7288 -0.6873
 8435SOL     OW36763   2.777   1.643  12.857 -0.3213 -0.1540  0.1352
 8435SOL    HW136764   2.708   1.666  12.795  0.2780  0.1330 -0.4247
 8435SOL    HW236765   2.846   1.700  12.822 -1.6025  1.1226 -0.2958
 8436SOL     OW36766   0.193   0.966   6.051  0.5100 -0.0269 -0.3810
 8436SOL    HW136767   0.269   0.992   5.999  0.3452 -0.5403 -0.8737
 8436SOL    HW236768   0.241   0.985   6.132 -0.6711  1.3526 -0.0068
 8437SOL     OW36769   2.382   2.923   9.268  0.0557 -0.0901  0.0719
 8437SOL    HW136770   2.348   2.865   9.336  1.4221 -0.2540  0.6160
 8437SOL    HW236771   2.338   2.884   9.193 -0.5996 -0.8220  0.8460
 8438SOL     OW36772   0.355   0.601   9.221  0.2487  0.2227 -0.1377
 8438SOL    HW136773   0.358   0.694   9.240  2.7290  0.4633 -1.6902
 8438SOL    HW236774   0.369   0.603   9.126  1.4735  0.4965  0.0478
 8439SOL     OW36775   0.081   1.319   5.128  0.1118 -0.3141 -0.3981
 8439SOL    HW136776   0.005   1.373   5.105  1.2821  1.1238 -0.8340
 8439SOL    HW236777   0.115   1.302   5.041 -0.8291 -0.3347 -0.7648
 8440SOL     OW36778   0.938   2.470  14.209  0.0418 -0.4983 -0.1580
 8440SOL    HW136779   1.006   2.420  14.254  1.0959  1.7500  0.7681
 8440SOL    HW236780   0.984   2.544  14.168  2.6347 -1.8082  0.3424
 8441SOL     OW36781   1.150   1.272   5.164 -0.3198 -0.4380  0.6191
 8441SOL    HW136782   1.178   1.345   5.218  2.2704  0.2931 -1.7057
 8441SOL    HW236783   1.095   1.310   5.095  1.4663 -2.1371 -1.7777
 8442SOL     OW36784   2.775   2.342   4.455  0.2696  0.0582  0.3339
 8442SOL    HW136785   2.705   2.377   4.400  0.7401  1.9339  0.9464
 8442SOL    HW236786   2.731   2.257   4.467 -1.8901  0.8964 -1.7307
 8443SOL     OW36787   3.930   2.232   7.901  0.3520  0.4083 -1.1115
 8443SOL    HW136788   3.982   2.293   7.952 -1.3534 -1.2217  2.5617
 8443SOL    HW236789   3.908   2.283   7.823  1.6603  0.0165 -1.7406
 8444SOL     OW36790   2.522   3.578   4.044 -0.8528  0.1815  0.0729
 8444SOL    HW136791   2.446   3.631   4.017  0.8134  2.1802 -0.7100
 8444SOL    HW236792   2.598   3.619   4.003 -1.1115  1.0595  0.4696
 8445SOL     OW36793   3.310   0.841  13.452  0.2670  0.0769  0.1664
 8445SOL    HW136794   3.256   0.912  13.416 -0.2319 -0.3326  0.1019
 8445SOL    HW236795   3.340   0.889  13.529 -0.3212  1.7996 -0.6831
 8446SOL     OW36796   1.752   0.262   3.221  0.4109  0.5009  0.1211
 8446SOL    HW136797   1.748   0.326   3.292  2.6858 -1.6329  2.1082
 8446SOL    HW236798   1.685   0.204   3.258  0.5324  1.0690  1.2349
 8447SOL     OW36799   3.514   2.361   8.225 -0.1760  0.4059  0.0202
 8447SOL    HW136800   3.498   2.289   8.164  1.5285 -0.9192  1.1209
 8447SOL    HW236801   3.459   2.329   8.297 -0.4247  0.4502 -0.1503
 8448SOL     OW36802   4.714   0.392  15.772 -0.4248 -0.2494 -0.0578
 8448SOL    HW136803   4.683   0.301  15.763 -1.4707  0.0254  0.7745
 8448SOL    HW236804   0.069   0.376  15.828  0.1272 -0.4430 -0.8501
 8449SOL     OW36805   4.292   1.352  10.602  0.5324  0.1170  0.3010
 8449SOL    HW136806   4.234   1.395  10.539  3.7216  3.1769 -0.5058
 8449SOL    HW236807   4.378   1.348  10.559  0.5694  0.7458  0.3225
 8450SOL     OW36808   2.734   0.370   8.718  0.5233 -0.0216 -0.8642
 8450SOL    HW136809   2.776   0.434   8.776 -0.2991  1.4800 -1.9640
 8450SOL    HW236810   2.662   0.348   8.778  0.8075  0.1926 -0.4443
 8451SOL     OW36811   4.306   0.316  16.964  0.2414  0.4124  0.5484
 8451SOL    HW136812   4.339   0.406  16.969 -0.6287  0.7082  0.9341
 8451SOL    HW236813   4.385   0.266  16.982  0.0013 -0.4393 -0.8374
 8452SOL     OW36814   0.718   1.918  15.423  0.8768 -0.7427 -0.3837
 8452SOL    HW136815   0.710   1.900  15.517  1.4765  2.4379  0.2675
 8452SOL    HW236816   0.732   1.830  15.386  1.0793 -1.3367  1.0870
 8453SOL     OW36817   3.155   3.336  14.866  0.2000  0.1439  0.7458
 8453SOL    HW136818   3.231   3.282  14.885 -1.0687 -1.4843  1.2313
 8453SOL    HW236819   3.132   3.293  14.784  3.0245  2.9177 -1.4781
 8454SOL     OW36820   2.388   0.765   2.596 -0.5904  0.2222  0.1119
 8454SOL    HW136821   2.336   0.773   2.676 -0.7054 -0.1358  0.0735
 8454SOL    HW236822   2.323   0.772   2.526  0.2656  0.0167 -0.7130
 8455SOL     OW36823   0.992   3.366   6.630  0.0341 -0.3117  0.9195
 8455SOL    HW136824   0.932   3.436   6.657 -0.3098 -0.6909  1.1485
 8455SOL    HW236825   1.055   3.370   6.702 -0.8463 -1.0617  1.7419
 8456SOL     OW36826   1.426   2.985   5.102  0.1026  0.0325 -0.3151
 8456SOL    HW136827   1.368   3.033   5.162 -1.3194 -1.0551 -0.8467
 8456SOL    HW236828   1.511   3.022   5.126  1.2558 -1.2050 -2.5589
 8457SOL     OW36829   1.100   0.931   8.973 -0.5335  0.7420 -0.3099
 8457SOL    HW136830   1.147   0.950   9.054  2.4161 -2.7320 -1.2014
 8457SOL    HW236831   1.104   0.836   8.966 -0.8562  0.7707 -0.9136
 8458SOL     OW36832   4.398   3.450  14.068  0.8170  0.0513  0.0784
 8458SOL    HW136833   4.482   3.495  14.061  0.5275  0.7229  0.9729
 8458SOL    HW236834   4.426   3.358  14.061  0.6071 -0.0607  0.6362
 8459SOL     OW36835   4.322   2.984   9.165 -0.0578 -0.1922  0.5603
 8459SOL    HW136836   4.366   2.906   9.130  0.9902  0.4241  0.5107
 8459SOL    HW236837   4.259   2.949   9.228  1.3060 -0.8386  1.5708
 8460SOL     OW36838   0.463   0.521  16.474  0.7164 -0.0708 -0.2924
 8460SOL    HW136839   0.539   0.511  16.532  0.9007 -0.1707 -0.5542
 8460SOL    HW236840   0.497   0.575  16.403  1.2573  1.7216  1.3015
 8461SOL     OW36841   3.578   2.475   0.636  0.0792  0.1222 -0.1586
 8461SOL    HW136842   3.615   2.391   0.661  0.1496  0.5361  1.1254
 8461SOL    HW236843   3.652   2.534   0.652 -0.2603  0.4500  0.2045
 8462SOL     OW36844   3.814   1.773   3.758 -0.1113 -0.2927  0.3525
 8462SOL    HW136845   3.746   1.707   3.766 -2.6913  2.0206 -2.5259
 8462SOL    HW236846   3.770   1.846   3.716  0.0638 -2.0177 -2.8424
 8463SOL     OW36847   3.674   3.398   3.381  0.0336 -0.1830 -0.6468
 8463SOL    HW136848   3.607   3.450   3.424 -0.3458  0.1054 -1.5873
 8463SOL    HW236849   3.616   3.355   3.319 -0.7987 -0.1930  0.1498
 8464SOL     OW36850   3.895   0.118   0.669  0.3410  0.5021  0.4295
 8464SOL    HW136851   3.905   0.150   0.759  1.9939 -0.7120  0.6687
 8464SOL    HW236852   3.816   0.065   0.664 -0.3399  1.7941 -2.3152
 8465SOL     OW36853   0.223   2.048   7.168 -0.1782 -0.0195 -0.2999
 8465SOL    HW136854   0.211   2.112   7.098 -2.1482  0.7082  0.7134
 8465SOL    HW236855   0.274   1.979   7.125 -0.1136 -0.2248  0.1057
 8466SOL     OW36856   1.535   2.788   5.649  0.6481 -0.5583 -0.1187
 8466SOL    HW136857   1.489   2.709   5.623  3.4739 -1.0965 -3.4418
 8466SOL    HW236858   1.524   2.792   5.744 -0.5947  5.4349 -0.4954
 8467SOL     OW36859   1.577   2.551   7.882 -0.0548  0.4854 -0.0426
 8467SOL    HW136860   1.586   2.580   7.792 -0.6386  4.3311  1.1578
 8467SOL    HW236861   1.484   2.570   7.889 -0.1078  0.5014 -0.8806
 8468SOL     OW36862   2.741   0.713   6.409 -0.0903 -0.3653  0.6419
 8468SOL    HW136863   2.777   0.763   6.483  0.2369  2.5260 -1.4743
 8468SOL    HW236864   2.818   0.662   6.384 -0.3020 -0.9706  1.2071
 8469SOL     OW36865   1.933   2.004   8.529  0.0452 -0.2141  0.1334
 8469SOL    HW136866   1.881   2.052   8.465  0.1681  0.1071  0.2739
 8469SOL    HW236867   1.916   2.063   8.603  1.0388 -0.6538  0.7113
 8470SOL     OW36868   3.666   2.173   2.395 -0.6899  0.1049  0.0870
 8470SOL    HW136869   3.699   2.262   2.387  0.1428 -0.4003 -2.1492
 8470SOL    HW236870   3.695   2.139   2.310 -0.9223  0.7582 -0.2546
 8471SOL     OW36871   3.566   1.616   8.383  0.7000  0.3728  0.3720
 8471SOL    HW136872   3.652   1.579   8.365  0.2645 -0.5101  0.0898
 8471SOL    HW236873   3.504   1.555   8.342  0.7799 -0.2224  1.1391
 8472SOL     OW36874   2.452   1.460   0.713  0.3534  0.0628 -0.0302
 8472SOL    HW136875   2.517   1.513   0.666  1.3022 -0.3399  0.8301
 8472SOL    HW236876   2.488   1.475   0.801  0.9197 -2.3367  0.1485
 8473SOL     OW36877   1.804   0.308   7.412 -0.4917  0.2798 -0.0381
 8473SOL    HW136878   1.885   0.270   7.445 -0.9225  0.3813  1.1387
 8473SOL    HW236879   1.754   0.303   7.494 -0.8477  2.2989 -0.1310
 8474SOL     OW36880   0.117   3.374   2.155 -0.1579  0.6793 -0.5345
 8474SOL    HW136881   0.048   3.394   2.092  1.7752  2.1094 -2.2013
 8474SOL    HW236882   0.179   3.351   2.085 -0.5931 -0.8925 -0.3836
 8475SOL     OW36883   4.378   4.686  12.430  0.0492 -0.1008 -0.1759
 8475SOL    HW136884   4.428   0.038  12.391  1.7602 -0.3755  1.5105
 8475SOL    HW236885   4.289   4.708  12.401 -0.0011 -1.2278 -0.9065
 8476SOL     OW36886   0.522   3.052   5.021 -0.5888  0.5463  0.4559
 8476SOL    HW136887   0.549   2.988   5.087 -0.4871  0.2914  0.1701
 8476SOL    HW236888   0.549   3.006   4.942  1.3513  0.9383  0.9082
 8477SOL     OW36889   0.936   0.714  13.318 -0.1701 -0.0956 -0.2896
 8477SOL    HW136890   0.896   0.641  13.271 -1.4971 -0.4706  1.4444
 8477SOL    HW236891   0.984   0.668  13.387  1.6663  0.1363 -1.4258
 8478SOL     OW36892   2.275   1.207  12.229  0.2562  0.2095  0.0116
 8478SOL    HW136893   2.239   1.260  12.300 -3.0915  0.3356 -1.7896
 8478SOL    HW236894   2.255   1.261  12.152 -1.6766  0.6258  0.8102
 8479SOL     OW36895   3.204   1.991   8.022  0.7009  0.0967 -0.3465
 8479SOL    HW136896   3.247   1.916   7.981  0.0719 -0.8209  0.6613
 8479SOL    HW236897   3.154   2.032   7.951  1.4320 -0.7976 -1.3907
 8480SOL     OW36898   2.029   3.686   6.731  0.6097 -0.0234  0.4505
 8480SOL    HW136899   1.963   3.706   6.665 -1.2441  0.5413  2.4808
 8480SOL    HW236900   1.990   3.748   6.793 -1.3187 -2.3917  1.5641
 8481SOL     OW36901   3.982   1.622  17.652 -0.2869 -0.1965  0.0683
 8481SOL    HW136902   4.057   1.620   0.027  1.5635 -0.2563 -2.2882
 8481SOL    HW236903   3.997   1.711  17.621 -0.3429  0.0461  0.7307
 8482SOL     OW36904   3.428   1.891   1.323 -0.9479 -0.3234 -0.2801
 8482SOL    HW136905   3.414   1.804   1.284 -1.0947 -0.9179  1.1098
 8482SOL    HW236906   3.462   1.944   1.251  0.8476 -1.9543 -0.6430
 8483SOL     OW36907   1.530   1.052   2.843  0.0380 -0.3054 -0.1684
 8483SOL    HW136908   1.545   1.146   2.845  0.5724 -0.4033  0.5029
 8483SOL    HW236909   1.535   1.027   2.751 -1.6105  1.3139 -0.7123
 8484SOL     OW36910   3.458   4.449  17.465  0.3293  0.0976 -0.3884
 8484SOL    HW136911   3.500   4.367  17.491  0.6522  0.6000  0.6154
 8484SOL    HW236912   3.422   4.432  17.377 -0.5520  2.4363 -0.4773
 8485SOL     OW36913   2.205   1.649   3.159  0.5258 -0.1997  0.3235
 8485SOL    HW136914   2.300   1.657   3.166  0.3482  0.7565  1.7188
 8485SOL    HW236915   2.189   1.742   3.141 -1.0459 -1.1966 -3.3642
 8486SOL     OW36916   1.173   1.159   4.435  0.4583  0.2467 -0.2661
 8486SOL    HW136917   1.244   1.207   4.391  0.0161  1.3078  0.1753
 8486SOL    HW236918   1.104   1.224   4.443  1.4840  1.1070  1.6841
 8487SOL     OW36919   3.785   3.819  12.953  0.5976  0.0102  0.1122
 8487SOL    HW136920   3.818   3.852  12.870 -0.6848  1.6182  0.2219
 8487SOL    HW236921   3.859   3.762  12.971  1.7430  1.7917  1.0630
 8488SOL     OW36922   1.450   1.220   8.351  0.5023 -0.1152 -0.6275
 8488SOL    HW136923   1.419   1.209   8.441 -0.6105 -2.0859 -1.2430
 8488SOL    HW236924   1.377   1.270   8.315  0.7481 -0.0272 -0.9969
 8489SOL     OW36925   4.245   3.959   5.695 -0.5448 -0.4457 -0.3779
 8489SOL    HW136926   4.338   3.980   5.707 -0.8230  2.2527 -2.7724
 8489SOL    HW236927   4.210   4.028   5.638 -0.3745 -1.3997 -1.6261
 8490SOL     OW36928   3.750   2.903   5.467  0.1612  1.0066  0.0371
 8490SOL    HW136929   3.666   2.946   5.452 -1.0852 -1.0795  0.9879
 8490SOL    HW236930   3.720   2.820   5.430  2.0420 -0.1597  1.1073
 8491SOL     OW36931   3.414   0.607   3.754 -0.0038  0.1068 -0.0877
 8491SOL    HW136932   3.349   0.676   3.765  0.3394  0.2935  0.7591
 8491SOL    HW236933   3.424   0.616   3.660 -2.4241 -1.1942 -0.4683
 8492SOL     OW36934   2.738   2.229   6.654 -0.0199  0.3188  0.2105
 8492SOL    HW136935   2.710   2.139   6.637 -0.2309  0.7344 -1.6564
 8492SOL    HW236936   2.706   2.275   6.576 -2.4015 -0.5053  0.7058
 8493SOL     OW36937   4.321   1.972   7.063 -0.7429  0.1090 -0.4511
 8493SOL    HW136938   4.318   1.920   7.143 -0.0296  0.8970  0.0936
 8493SOL    HW236939   4.316   2.060   7.102 -0.7781  1.0828 -2.6601
 8494SOL     OW36940   1.037   1.245   2.276  0.3573 -0.3666  0.0885
 8494SOL    HW136941   0.986   1.215   2.351  0.3412  1.7109  0.9070
 8494SOL    HW236942   1.125   1.239   2.312  0.3511 -1.1248 -0.0301
 8495SOL     OW36943   0.203   3.206   0.218  0.3093  0.0286  0.0875
 8495SOL    HW136944   0.288   3.232   0.251  0.1339 -0.6760  1.0980
 8495SOL    HW236945   0.153   3.215   0.299 -1.8702  1.0043 -1.3729
 8496SOL     OW36946   3.894   2.702   5.801 -0.0383  0.0402  0.2492
 8496SOL    HW136947   3.892   2.616   5.758 -2.0515  0.6944 -0.9561
 8496SOL    HW236948   3.929   2.669   5.884 -0.9654 -1.4384  0.0636
 8497SOL     OW36949   4.459   3.302   5.912  0.4858 -0.2521 -0.3683
 8497SOL    HW136950   4.372   3.308   5.874  0.6865  2.5249 -0.3708
 8497SOL    HW236951   4.508   3.346   5.843 -0.4548  1.8754  0.3328
 8498SOL     OW36952   0.496   1.310   6.392  0.0008 -0.1934  0.2125
 8498SOL    HW136953   0.498   1.336   6.300  0.4329 -1.1124 -0.0300
 8498SOL    HW236954   0.431   1.239   6.391 -0.8146  0.5407  0.5241
 8499SOL     OW36955   1.647   3.215   1.726 -0.0927  0.1963  0.1560
 8499SOL    HW136956   1.590   3.153   1.771  1.8332 -1.3590  0.4477
 8499SOL    HW236957   1.634   3.286   1.790  2.3507 -0.3853  1.2894
 8500SOL     OW36958   1.428   1.268   6.055  0.4650  0.5259 -0.0094
 8500SOL    HW136959   1.364   1.221   6.002 -0.5493 -0.5055  2.1253
 8500SOL    HW236960   1.506   1.279   6.001 -0.1547  1.3606 -0.7313
 8501SOL     OW36961   2.987   1.955  16.496  0.5300  0.4015  0.2321
 8501SOL    HW136962   2.941   1.966  16.412  2.4450 -0.9424 -1.0115
 8501SOL    HW236963   2.916   1.912  16.544  0.3581 -0.1771 -0.5326
 8502SOL     OW36964   4.273   3.895  13.114 -0.1659  0.7116  0.2071
 8502SOL    HW136965   4.261   3.906  13.208 -0.6357  0.5473  0.1679
 8502SOL    HW236966   4.237   3.806  13.117  1.2417  0.1594  0.6680
 8503SOL     OW36967   2.656   0.171  13.168 -0.3523  0.2817 -0.0384
 8503SOL    HW136968   2.673   0.109  13.240 -1.3815 -0.4571 -0.4276
 8503SOL    HW236969   2.683   0.245  13.221 -0.9240  1.3423 -1.2327
 8504SOL     OW36970   2.149   4.655  15.322  0.0443  0.5540  0.3909
 8504SOL    HW136971   2.205   4.599  15.268 -1.6438  0.9473 -1.7954
 8504SOL    HW236972   2.218   4.689  15.378  1.4917  0.8508 -1.5747
 8505SOL     OW36973   3.671   2.260  15.137 -0.6034  0.0872  0.2075
 8505SOL    HW136974   3.617   2.201  15.085  1.0546 -1.5811  0.3797
 8505SOL    HW236975   3.624   2.247  15.220 -1.1330  1.3802  0.1084
 8506SOL     OW36976   2.497   0.481   5.842 -0.7627 -0.0627 -0.1661
 8506SOL    HW136977   2.521   0.525   5.760 -0.4275 -0.7362 -0.4344
 8506SOL    HW236978   2.506   0.387   5.825 -0.2785  0.0329 -0.4191
 8507SOL     OW36979   1.778   3.922   1.116  0.0950  0.7264  0.5298
 8507SOL    HW136980   1.728   3.903   1.195  1.5039 -1.2246  0.9325
 8507SOL    HW236981   1.742   3.850   1.064  1.5095  0.9958 -0.8307
 8508SOL     OW36982   3.530   4.270  11.809  0.3872 -0.2057 -0.0652
 8508SOL    HW136983   3.445   4.251  11.770  0.2141  0.6887 -0.1193
 8508SOL    HW236984   3.546   4.183  11.845 -1.1748  0.0828  1.2996
 8509SOL     OW36985   1.807   2.965   4.896 -0.2316 -0.0719 -0.7140
 8509SOL    HW136986   1.770   3.022   4.963 -0.5802 -0.1435 -0.8454
 8509SOL    HW236987   1.899   2.992   4.890  0.3729 -2.5045 -2.2646
 8510SOL     OW36988   2.493   1.817   8.253  0.1334  0.1609 -0.5828
 8510SOL    HW136989   2.577   1.805   8.208  0.1521 -0.2152 -0.4426
 8510SOL    HW236990   2.480   1.746   8.315 -0.3636  0.2483 -0.5858
 8511SOL     OW36991   3.296   1.479   3.768  0.0581 -0.5919  0.0839
 8511SOL    HW136992   3.262   1.568   3.763 -1.8326 -1.1573  2.8730
 8511SOL    HW236993   3.295   1.472   3.863 -0.9528  1.2724  0.2017
 8512SOL     OW36994   3.135   3.943   6.435 -0.1521 -0.1241  0.8371
 8512SOL    HW136995   3.088   3.901   6.364 -1.0131 -1.4574  2.2043
 8512SOL    HW236996   3.065   3.983   6.486 -1.7255  0.0602 -1.4671
 8513SOL     OW36997   1.346   2.416   9.422  0.2107 -0.1391  0.3654
 8513SOL    HW136998   1.322   2.415   9.515  1.3156  0.5811  0.6565
 8513SOL    HW236999   1.431   2.460   9.426  0.1948 -0.1254  0.5832
 8514SOL     OW37000   2.662   4.059   3.259  0.0489  0.4689 -1.0362
 8514SOL    HW137001   2.623   4.100   3.182  1.3066  2.5685 -0.5622
 8514SOL    HW237002   2.644   3.966   3.246  0.3649  0.2486  0.0702
 8515SOL     OW37003   4.536   4.193   5.725  0.5013  0.8241  0.0342
 8515SOL    HW137004   4.523   4.182   5.631  3.8113  1.1169 -0.4602
 8515SOL    HW237005   4.627   4.223   5.720  0.4840  0.8572 -0.0954
 8516SOL     OW37006   4.204   1.687   5.132 -0.5122 -0.0694 -0.1429
 8516SOL    HW137007   4.192   1.688   5.227  0.2015  0.8329 -0.0560
 8516SOL    HW237008   4.282   1.743   5.128 -0.6428  0.0578 -0.9103
 8517SOL     OW37009   4.708   2.773   7.094  0.1425 -0.8500  0.3052
 8517SOL    HW137010   4.690   2.739   7.182 -2.6203  0.1200  0.1065
 8517SOL    HW237011   0.064   2.716   7.082  0.5601  0.4767 -3.3481
 8518SOL     OW37012   2.246   3.237  16.953 -0.6158 -0.3656 -0.1966
 8518SOL    HW137013   2.158   3.242  16.917 -1.1176 -0.6704  0.9950
 8518SOL    HW237014   2.236   3.310  17.014 -0.2962 -2.0419  1.8686
 8519SOL     OW37015   0.371   1.417   0.813  0.0100  0.1222  0.0145
 8519SOL    HW137016   0.320   1.338   0.833 -0.0280 -0.3916 -2.0389
 8519SOL    HW237017   0.354   1.478   0.884  2.8767  1.1759 -0.2401
 8520SOL     OW37018   4.037   4.016   9.901 -0.4835 -0.3185 -0.5278
 8520SOL    HW137019   4.094   4.090   9.880 -1.9423  1.4374  1.6817
 8520SOL    HW237020   4.033   3.974   9.815 -2.5131 -4.2000  1.4256
 8521SOL     OW37021   1.489   0.932   1.466 -0.1148 -0.1372 -0.2733
 8521SOL    HW137022   1.409   0.881   1.477 -2.8066  3.5809 -2.3295
 8521SOL    HW237023   1.509   0.936   1.560 -0.0472  0.4078 -0.3074
 8522SOL     OW37024   1.038   3.778  14.392  0.2243  0.1362  0.3499
 8522SOL    HW137025   0.993   3.757  14.474  0.8856 -0.4903  0.5459
 8522SOL    HW237026   1.116   3.723  14.390 -0.5050 -0.8652 -1.3813
 8523SOL     OW37027   3.636   0.661   8.153  0.3545 -0.2486  0.2962
 8523SOL    HW137028   3.617   0.725   8.086 -1.7437 -0.5320  0.6313
 8523SOL    HW237029   3.651   0.709   8.235  0.2844  1.6974 -0.8321
 8524SOL     OW37030   1.357   4.393  16.205 -0.5248  0.1127  0.0144
 8524SOL    HW137031   1.413   4.369  16.131  1.8587  1.8498  1.2631
 8524SOL    HW237032   1.367   4.487  16.218 -1.3292  0.0224  1.1983
 8525SOL     OW37033   2.985   0.578   7.233  0.4182 -0.2730 -0.3452
 8525SOL    HW137034   2.925   0.610   7.301  1.1429 -0.8975  0.6004
 8525SOL    HW237035   2.946   0.492   7.215  0.7948 -0.5335  0.0647
 8526SOL     OW37036   3.627   0.421   1.959 -0.0959 -0.1446  0.4631
 8526SOL    HW137037   3.536   0.449   1.968 -1.1499 -3.2161 -0.5466
 8526SOL    HW237038   3.669   0.501   1.990 -1.0955 -0.4649  2.6549
 8527SOL     OW37039   2.935   4.074   6.546 -0.8546 -0.2544  0.3145
 8527SOL    HW137040   2.945   4.038   6.634 -0.1190  1.4889  0.9325
 8527SOL    HW237041   2.841   4.054   6.542 -0.4896 -1.5401 -1.7677
 8528SOL     OW37042   4.203   2.061   6.226 -0.1108  0.5831  0.1294
 8528SOL    HW137043   4.259   2.081   6.302  1.3495  0.3032 -0.8749
 8528SOL    HW237044   4.261   1.993   6.190 -1.7001 -0.3670 -0.6517
 8529SOL     OW37045   0.988   1.011   3.608  0.1919 -0.0734 -0.1130
 8529SOL    HW137046   0.985   1.004   3.703  0.5957 -0.0067 -0.0914
 8529SOL    HW237047   1.024   0.923   3.593  0.8296  0.0071  0.9227
 8530SOL     OW37048   1.071   3.886   4.588  0.0830  0.1224  0.4197
 8530SOL    HW137049   1.091   3.804   4.545  2.5750  1.6086 -1.2636
 8530SOL    HW237050   1.162   3.907   4.609 -0.0293  0.7639  0.2764
 8531SOL     OW37051   2.644   0.771  16.023 -0.2427 -0.5375  0.8525
 8531SOL    HW137052   2.624   0.862  16.045 -0.6853 -0.7749  1.4308
 8531SOL    HW237053   2.666   0.741  16.111  1.4159 -0.9348  0.3044
 8532SOL     OW37054   3.270   1.510   4.031  0.0406 -0.3960  0.8366
 8532SOL    HW137055   3.355   1.506   4.074 -0.4141 -3.5323  1.4181
 8532SOL    HW237056   3.236   1.431   4.072 -1.0661  0.5513  1.7539
 8533SOL     OW37057   3.533   4.367   2.805 -0.3074  0.0527  0.3079
 8533SOL    HW137058   3.571   4.380   2.892  1.0417 -1.6066 -0.0300
 8533SOL    HW237059   3.571   4.284   2.774 -1.0086 -0.4405  0.7827
 8534SOL     OW37060   2.036   4.176   2.207 -0.0679 -0.1255  0.2498
 8534SOL    HW137061   2.035   4.251   2.148  1.1572 -1.9271 -2.0735
 8534SOL    HW237062   2.069   4.112   2.144 -2.2280  1.0119 -2.0524
 8535SOL     OW37063   2.890   0.148   8.253 -0.4895  0.1622 -0.8122
 8535SOL    HW137064   2.931   0.155   8.338  0.3473 -1.5364 -1.0750
 8535SOL    HW237065   2.848   0.063   8.267 -1.7611  0.9704  0.2961
 8536SOL     OW37066   3.800   0.285  15.550 -0.4003  0.3280  0.5558
 8536SOL    HW137067   3.756   0.303  15.633 -1.3031  1.3857 -0.1692
 8536SOL    HW237068   3.799   0.189  15.552 -0.9774  0.3096 -0.9247
 8537SOL     OW37069   0.917   4.469   1.450 -0.6861  0.1434  0.5157
 8537SOL    HW137070   0.914   4.502   1.360  1.6671 -0.9043  0.0660
 8537SOL    HW237071   0.953   4.382   1.435 -2.5753 -0.6143  0.3945
 8538SOL     OW37072   0.897   3.985   7.828 -0.1393  0.5336 -0.2693
 8538SOL    HW137073   0.917   3.917   7.763  1.7348  1.4360 -0.6407
 8538SOL    HW237074   0.808   3.965   7.855  0.2184  0.1276  0.6003
 8539SOL     OW37075   3.385   2.368  14.992  0.6224 -0.0690  0.3288
 8539SOL    HW137076   3.325   2.308  14.949 -0.8122  1.0327  0.7803
 8539SOL    HW237077   3.333   2.393  15.069 -1.0294 -0.6905 -0.5843
 8540SOL     OW37078   0.708   0.424   2.479  0.0921  0.2040  0.8917
 8540SOL    HW137079   0.681   0.515   2.492 -2.1835 -0.3956  0.3834
 8540SOL    HW237080   0.730   0.429   2.386  1.4519  0.2369  1.2196
 8541SOL     OW37081   3.929   2.727  15.449  0.1818 -0.2228  0.1632
 8541SOL    HW137082   3.963   2.695  15.365 -0.2773  1.5961 -0.7229
 8541SOL    HW237083   3.994   2.796  15.460 -0.4557  1.0226 -3.7706
 8542SOL     OW37084   2.475   2.624   1.218 -0.4399 -0.2780 -0.7813
 8542SOL    HW137085   2.466   2.547   1.162 -0.5598  1.6255 -3.4244
 8542SOL    HW237086   2.404   2.677   1.181 -0.1928  0.4920 -0.1400
 8543SOL     OW37087   3.404   3.685   5.381 -0.1549 -0.5350 -0.3113
 8543SOL    HW137088   3.382   3.731   5.462  0.6450 -0.9228  0.1189
 8543SOL    HW237089   3.359   3.754   5.331  0.6879 -0.0694 -0.4325
 8544SOL     OW37090   2.231   0.084   3.806  1.1622 -0.1606 -0.0938
 8544SOL    HW137091   2.261   0.159   3.857  0.7967  1.2316 -1.9332
 8544SOL    HW237092   2.311   0.037   3.829  0.9098 -0.1506  0.8127
 8545SOL     OW37093   3.469   0.577  12.158 -0.1802  0.7683 -0.1103
 8545SOL    HW137094   3.432   0.665  12.166 -2.0881 -0.0592  0.2807
 8545SOL    HW237095   3.407   0.540  12.096  2.7985 -0.1618 -2.5494
 8546SOL     OW37096   1.971   1.673   4.350 -0.0548  0.0755  0.4742
 8546SOL    HW137097   2.053   1.720   4.363  1.7683 -2.0740 -3.0758
 8546SOL    HW237098   1.927   1.743   4.301  0.4194  0.2993  0.3703
 8547SOL     OW37099   4.625   4.445   4.497  0.0366 -0.7462  0.0010
 8547SOL    HW137100   4.640   4.537   4.521  1.5433 -0.9346 -0.2330
 8547SOL    HW237101   4.682   4.396   4.555  1.8714  3.5702  1.8586
 8548SOL     OW37102   0.961   1.862  17.583  0.6016  0.2294  0.4299
 8548SOL    HW137103   0.909   1.932  17.543  2.0150  0.7813 -0.4441
 8548SOL    HW237104   0.910   1.783  17.564 -0.6155  0.8833  0.9644
 8549SOL     OW37105   3.005   2.868   8.074 -0.0200  0.3209 -0.3030
 8549SOL    HW137106   3.097   2.841   8.070 -0.5962 -1.6116 -0.8025
 8549SOL    HW237107   2.967   2.808   8.137  0.7351 -0.4392 -0.5617
 8550SOL     OW37108   4.051   2.082  13.059 -0.2300  0.0034 -0.2699
 8550SOL    HW137109   4.005   2.069  13.142  1.8060 -1.9949  0.5422
 8550SOL    HW237110   4.145   2.077  13.076 -0.4111 -1.4794  0.2363
 8551SOL     OW37111   1.888   2.797   9.065 -0.4139 -0.1060  0.6661
 8551SOL    HW137112   1.818   2.863   9.059  0.2140  0.3934 -1.1368
 8551SOL    HW237113   1.966   2.852   9.071 -1.6321  1.5432  1.4524
 8552SOL     OW37114   0.657   4.465   9.009 -0.2482 -0.2076 -0.5659
 8552SOL    HW137115   0.736   4.454   9.061 -1.1939  1.2450  1.1676
 8552SOL    HW237116   0.604   4.508   9.075  1.1972 -1.5942  1.4789
 8553SOL     OW37117   2.548   2.633   8.804 -0.3968 -0.3017  0.2165
 8553SOL    HW137118   2.486   2.705   8.814  0.5811  0.6891 -0.8588
 8553SOL    HW237119   2.545   2.585   8.887 -0.9524  0.4620  0.6333
 8554SOL     OW37120   0.043   0.289  14.384 -0.9230 -0.0195  0.6124
 8554SOL    HW137121   0.125   0.264  14.341 -0.8556  1.0275  0.1353
 8554SOL    HW237122   4.707   0.330  14.319 -0.4387 -0.1641  0.1068
 8555SOL     OW37123   3.435   3.922  15.066  0.0565 -0.2383 -0.1537
 8555SOL    HW137124   3.356   3.956  15.107  0.4845 -0.8827  1.1864
 8555SOL    HW237125   3.455   4.001  15.016 -4.6101  0.4613 -0.8816
 8556SOL     OW37126   2.607   1.427   2.622 -0.1753 -0.0850 -0.3283
 8556SOL    HW137127   2.611   1.504   2.678  0.1073  0.6374 -1.3362
 8556SOL    HW237128   2.631   1.361   2.687 -0.5030 -1.2723 -1.4005
 8557SOL     OW37129   4.492   4.110   9.175  0.2535 -0.0715  0.2067
 8557SOL    HW137130   4.404   4.109   9.213  0.8414  1.1497  1.5998
 8557SOL    HW237131   4.514   4.202   9.158 -1.2002 -0.1376 -2.0107
 8558SOL     OW37132   2.929   3.554   8.292 -0.0851 -0.5818  0.4351
 8558SOL    HW137133   2.851   3.535   8.344 -0.6474  0.3406 -0.0679
 8558SOL    HW237134   2.888   3.584   8.211  0.7814  0.3945  0.3459
 8559SOL     OW37135   1.913   2.748   7.586  0.7592  0.3568 -0.0435
 8559SOL    HW137136   1.960   2.733   7.504  0.6806  2.4252 -0.4826
 8559SOL    HW237137   1.829   2.771   7.547 -0.1985  0.4841  2.1227
 8560SOL     OW37138   3.409   2.939  11.274  0.4119 -0.4862  0.4045
 8560SOL    HW137139   3.439   2.934  11.365 -1.2470 -0.0573  0.9643
 8560SOL    HW237140   3.441   2.854  11.241  3.9162  1.2927 -0.7541
 8561SOL     OW37141   2.992   2.247   6.324 -0.2073 -0.1817  0.6852
 8561SOL    HW137142   2.991   2.327   6.376 -0.9409  0.0836  0.2581
 8561SOL    HW237143   2.897   2.237   6.330 -0.3907  0.5031 -0.9085
 8562SOL     OW37144   4.479   3.744   5.776  0.1972 -0.7015 -0.0521
 8562SOL    HW137145   4.466   3.828   5.821  0.5157  0.3242 -1.8693
 8562SOL    HW237146   4.546   3.758   5.709  0.5147  1.9196  0.8039
 8563SOL     OW37147   2.557   0.637   0.757 -0.0222  0.1731  0.1008
 8563SOL    HW137148   2.605   0.571   0.807 -2.4266 -1.0805  0.7225
 8563SOL    HW237149   2.530   0.584   0.682  0.7334 -2.0463  1.4005
 8564SOL     OW37150   2.522   2.341   3.567  0.2481 -0.3256  0.0850
 8564SOL    HW137151   2.541   2.431   3.592 -1.3876  0.4286 -1.4081
 8564SOL    HW237152   2.607   2.315   3.531  0.5942 -0.3043  0.8815
 8565SOL     OW37153   3.942   2.447  15.703  0.3286  1.2909 -0.1414
 8565SOL    HW137154   3.851   2.417  15.709  0.7503 -0.1445 -0.8784
 8565SOL    HW237155   3.953   2.418  15.612 -2.0638  1.4516 -0.5032
 8566SOL     OW37156   3.214   0.699   1.293 -0.6143 -0.1021 -0.3882
 8566SOL    HW137157   3.148   0.755   1.332  1.9297  3.5904 -1.3238
 8566SOL    HW237158   3.280   0.708   1.361 -0.8229 -1.7866  0.0508
 8567SOL     OW37159   3.651   4.060   6.859 -0.1093 -0.1769  0.0023
 8567SOL    HW137160   3.599   3.983   6.835  1.5468 -0.2263 -3.4406
 8567SOL    HW237161   3.613   4.070   6.946  2.5998 -0.0333  1.1623
 8568SOL     OW37162   0.294   3.725   7.104  0.5444  0.2506  0.2278
 8568SOL    HW137163   0.242   3.728   7.185 -0.1000 -1.1983 -0.1398
 8568SOL    HW237164   0.331   3.813   7.104  1.6116 -0.2007 -0.5558
 8569SOL     OW37165   3.455   3.260  12.985  0.1430 -0.1577 -0.1986
 8569SOL    HW137166   3.534   3.262  13.039 -1.3185  1.5914  1.8770
 8569SOL    HW237167   3.395   3.225  13.051 -1.1083  3.2052  0.4521
 8570SOL     OW37168   0.296   3.194  10.284 -0.4215 -0.1078 -0.2255
 8570SOL    HW137169   0.293   3.290  10.284  1.8494 -0.0415  0.4036
 8570SOL    HW237170   0.246   3.180  10.364  0.7525  0.2302  0.5798
 8571SOL     OW37171   4.516   3.222   4.130  0.2653 -0.3567  0.2159
 8571SOL    HW137172   4.493   3.137   4.091 -0.5342 -0.1297  0.1873
 8571SOL    HW237173   4.432   3.248   4.168  0.5687  2.5424 -1.0906
 8572SOL     OW37174   3.818   2.843   6.547 -0.7290  0.3316 -0.1323
 8572SOL    HW137175   3.828   2.938   6.557 -1.9166  0.8222 -3.5267
 8572SOL    HW237176   3.832   2.830   6.453 -0.3088 -2.3453  0.3042
 8573SOL     OW37177   1.491   4.371  10.973 -0.1056 -0.5370  0.4089
 8573SOL    HW137178   1.566   4.311  10.975 -0.2379 -0.6884  0.7790
 8573SOL    HW237179   1.524   4.429  11.042 -2.0244  0.4098  0.5116
 8574SOL     OW37180   2.223   2.644   4.614  0.1742  0.1216 -1.1662
 8574SOL    HW137181   2.163   2.628   4.687  1.3381  1.4865  0.0740
 8574SOL    HW237182   2.185   2.582   4.551 -0.4255 -0.9453  0.2365
 8575SOL     OW37183   3.925   4.190   2.271  0.0011 -0.1755  0.0921
 8575SOL    HW137184   3.961   4.163   2.186 -1.4098 -1.3315 -0.1361
 8575SOL    HW237185   3.927   4.117   2.332  2.4845  1.3477  1.8218
 8576SOL     OW37186   1.233   0.389   4.589  0.3764 -0.2168  0.2713
 8576SOL    HW137187   1.165   0.341   4.543  1.5033 -0.8445 -0.7225
 8576SOL    HW237188   1.300   0.395   4.522  0.6072  0.4748  0.5565
 8577SOL     OW37189   2.726   1.545   3.857 -0.1818  0.2519  0.5202
 8577SOL    HW137190   2.740   1.450   3.859 -1.7000  0.0303  0.8897
 8577SOL    HW237191   2.631   1.554   3.867 -0.3160 -0.3397 -0.2122
 8578SOL     OW37192   0.096   1.621   8.754  0.1405  0.3070 -0.5608
 8578SOL    HW137193   0.180   1.659   8.728  0.7235  0.0860  1.0010
 8578SOL    HW237194   0.116   1.586   8.841 -0.8982  0.2333 -0.3573
 8579SOL     OW37195   2.896   2.260  10.271 -0.1635  0.2217  0.0689
 8579SOL    HW137196   2.806   2.229  10.282  0.2533 -0.5050  1.4693
 8579SOL    HW237197   2.920   2.259  10.364 -1.5000 -1.7792  0.4069
 8580SOL     OW37198   0.984   2.880   3.565 -0.3306  0.4450 -0.3011
 8580SOL    HW137199   1.027   2.797   3.543  1.2558  1.0754  0.4038
 8580SOL    HW237200   0.891   2.868   3.544 -0.3394  0.5722 -0.3330
 8581SOL     OW37201   0.678   3.534   8.696 -0.0380  0.2231  0.0386
 8581SOL    HW137202   0.767   3.502   8.710  0.0016  0.1448 -0.3929
 8581SOL    HW237203   0.659   3.585   8.775  0.7392  2.5959 -1.3381
 8582SOL     OW37204   0.404   4.210   2.688 -0.3684  0.0349 -0.4825
 8582SOL    HW137205   0.308   4.204   2.688 -0.3244 -0.7389 -0.1768
 8582SOL    HW237206   0.424   4.234   2.597  0.4850  0.2175 -0.2450
 8583SOL     OW37207   1.244   4.205   0.952 -0.4405  0.4508 -0.0772
 8583SOL    HW137208   1.189   4.210   1.030 -2.4857 -1.4575 -1.4071
 8583SOL    HW237209   1.300   4.281   0.966  0.0858 -0.0932  0.7938
 8584SOL     OW37210   2.059   3.936   2.068 -0.5990 -0.4862 -0.2354
 8584SOL    HW137211   2.093   3.869   2.009  1.5010  0.8156 -0.5144
 8584SOL    HW237212   1.994   3.978   2.011 -1.1088 -1.2659 -0.2265
 8585SOL     OW37213   0.660   1.857   4.212  0.1980 -0.0151 -0.3322
 8585SOL    HW137214   0.589   1.796   4.230  0.8738  0.2701  3.4312
 8585SOL    HW237215   0.637   1.911   4.137  1.2990 -0.6226 -1.1180
 8586SOL     OW37216   2.484   3.873   5.730 -0.7398 -0.3553  0.6753
 8586SOL    HW137217   2.498   3.967   5.735 -0.7345 -0.3797  1.1531
 8586SOL    HW237218   2.509   3.861   5.638 -0.3120 -0.2948  0.7843
 8587SOL     OW37219   0.684   0.447   8.142  0.0698  0.2558 -0.0156
 8587SOL    HW137220   0.699   0.422   8.234  0.6642 -1.9189 -0.6990
 8587SOL    HW237221   0.611   0.507   8.159 -0.1530 -0.3454  1.1653
 8588SOL     OW37222   2.455   3.515   8.146  0.0631 -0.2624  0.3674
 8588SOL    HW137223   2.445   3.463   8.067 -2.4934  1.5869 -0.5259
 8588SOL    HW237224   2.370   3.558   8.148  0.5082  0.6416 -0.0463
 8589SOL     OW37225   1.661   4.001   7.232  0.3151  0.2015 -0.6798
 8589SOL    HW137226   1.728   3.950   7.278 -1.0685 -1.0022  0.0080
 8589SOL    HW237227   1.718   4.047   7.170  1.0239  1.2044  0.7156
 8590SOL     OW37228   1.641   0.249  17.483 -0.1989 -0.0277  0.3298
 8590SOL    HW137229   1.641   0.331  17.532  0.1711  0.6294 -0.7748
 8590SOL    HW237230   1.693   0.186  17.532 -0.6154 -0.6475 -0.0171
 8591SOL     OW37231   1.177   4.582   5.297  0.0417 -0.1689 -0.1101
 8591SOL    HW137232   1.141   4.623   5.218 -0.9382 -1.1859 -0.2003
 8591SOL    HW237233   1.271   4.593   5.283 -0.0242  0.7933  0.2253
 8592SOL     OW37234   0.376   3.930   6.340  0.2606  0.1480 -0.3257
 8592SOL    HW137235   0.318   3.904   6.412  0.7682 -0.4259 -0.1227
 8592SOL    HW237236   0.340   4.014   6.313 -0.7959  0.0932  0.8886
 8593SOL     OW37237   4.152   2.342   5.243 -0.1284 -0.1632  0.0081
 8593SOL    HW137238   4.142   2.329   5.337 -3.1151 -0.9724 -0.4243
 8593SOL    HW237239   4.134   2.251   5.221  1.0672 -1.0038  2.5091
 8594SOL     OW37240   2.721   3.298  17.140 -0.4119 -0.1544 -0.0524
 8594SOL    HW137241   2.653   3.364  17.153 -0.6296 -0.1593 -1.1954
 8594SOL    HW237242   2.805   3.337  17.164 -0.3191  0.4837 -1.4364
 8595SOL     OW37243   1.154   0.881  13.261  0.4422  0.7197  0.2871
 8595SOL    HW137244   1.104   0.958  13.287 -0.7826 -0.1938  0.6344
 8595SOL    HW237245   1.078   0.828  13.234  0.8808  0.6489 -0.8366
 8596SOL     OW37246   2.555   2.750   1.915 -0.2437  0.5049  0.3027
 8596SOL    HW137247   2.465   2.760   1.885 -0.0492  2.0268  0.2472
 8596SOL    HW237248   2.587   2.837   1.893  1.2594 -0.1579 -0.1280
 8597SOL     OW37249   0.872   3.085   2.979 -0.1478 -0.2737 -0.6214
 8597SOL    HW137250   0.958   3.126   2.970  0.0752 -1.0131 -1.9455
 8597SOL    HW237251   0.817   3.158   3.008  1.5326  0.6072  0.3657
 8598SOL     OW37252   1.595   3.260  14.626  0.0898  0.0156 -0.0904
 8598SOL    HW137253   1.616   3.348  14.593 -0.1008 -0.0188 -0.3005
 8598SOL    HW237254   1.585   3.208  14.546  0.2823  0.0042 -0.1073
 8599SOL     OW37255   2.887   2.703   8.268  0.4514 -0.2241 -0.2107
 8599SOL    HW137256   2.805   2.653   8.262  1.4731 -2.1316  1.9223
 8599SOL    HW237257   2.900   2.691   8.362  0.8100 -1.2189 -0.3813
 8600SOL     OW37258   1.765   1.471   3.477 -0.6709  0.6616  0.0742
 8600SOL    HW137259   1.856   1.447   3.460 -0.1539  0.8829  2.4145
 8600SOL    HW237260   1.756   1.551   3.426 -1.3217  1.5449  1.5520
 8601SOL     OW37261   2.621   1.245   5.409 -0.0971 -0.6220 -0.4260
 8601SOL    HW137262   2.690   1.310   5.400  0.8321 -1.3199  1.6106
 8601SOL    HW237263   2.612   1.236   5.504 -2.6764 -2.7084 -0.8668
 8602SOL     OW37264   0.396   0.090   9.263  0.1004  1.0702 -0.2342
 8602SOL    HW137265   0.448   0.154   9.214  1.7907  0.9830  1.4876
 8602SOL    HW237266   0.307   0.126   9.259  0.4041  1.5484 -2.8166
 8603SOL     OW37267   4.704   1.195   2.388  0.4617  0.0025  0.3163
 8603SOL    HW137268   4.636   1.172   2.325 -0.4984 -1.5225  1.9077
 8603SOL    HW237269   4.650   1.190   2.467  1.0197  0.3474  0.7204
 8604SOL     OW37270   2.922   3.204   0.089  0.8422  0.8352 -0.2846
 8604SOL    HW137271   2.959   3.163   0.167  0.7654  1.4109  0.0528
 8604SOL    HW237272   2.902   3.292   0.122  0.3765  1.4424 -2.1648
 8605SOL     OW37273   3.200   3.770  14.119 -0.3646 -0.6287  0.0498
 8605SOL    HW137274   3.234   3.858  14.107 -1.5610 -0.0762  0.6644
 8605SOL    HW237275   3.285   3.727  14.126 -1.2688 -2.9058 -2.6698
 8606SOL     OW37276   2.799   1.644  17.253  0.5861 -0.3472  0.0455
 8606SOL    HW137277   2.756   1.604  17.177 -0.0111  0.8800 -0.2643
 8606SOL    HW237278   2.884   1.660  17.212 -0.1095  0.0091 -1.2537
 8607SOL     OW37279   2.180   3.230  17.553  0.4791  0.0731  0.4542
 8607SOL    HW137280   2.182   3.149  17.502  0.0786  1.0893 -1.1517
 8607SOL    HW237281   2.087   3.239  17.573  0.5123 -0.7189  0.9681
 8608SOL     OW37282   3.875   4.004   6.236 -0.4018  0.2091  0.6841
 8608SOL    HW137283   3.829   3.949   6.299  0.8898 -1.2442  0.3573
 8608SOL    HW237284   3.905   3.934   6.179 -0.0671  1.2942 -0.4586
 8609SOL     OW37285   1.096   3.933   1.012  0.2350 -0.1588 -0.5771
 8609SOL    HW137286   1.170   3.924   0.951 -0.8846  0.6829 -2.0739
 8609SOL    HW237287   1.121   3.958   1.100 -0.7089 -0.5262 -0.1992
 8610SOL     OW37288   4.134   4.527  10.612 -0.6027  0.3553  0.6022
 8610SOL    HW137289   4.060   4.588  10.609  0.6697  1.9904  2.9667
 8610SOL    HW237290   4.193   4.571  10.673 -0.2138 -0.6593  0.9537
 8611SOL     OW37291   2.620   3.151   1.617 -0.1620 -0.1718  0.4214
 8611SOL    HW137292   2.680   3.077   1.623  0.9314  0.5629 -1.5891
 8611SOL    HW237293   2.542   3.112   1.578  0.7661 -2.5959  0.9610
 8612SOL     OW37294   1.255   4.295   3.329 -0.5978  0.6212 -0.1511
 8612SOL    HW137295   1.233   4.380   3.289 -1.1593 -0.0828 -1.3296
 8612SOL    HW237296   1.209   4.245   3.262  0.0204 -1.7678  1.2406
 8613SOL     OW37297   0.783   4.225   2.877 -0.1563 -0.6680 -0.0592
 8613SOL    HW137298   0.875   4.199   2.885 -0.7105 -1.5123  3.3804
 8613SOL    HW237299   0.791   4.293   2.810  2.0215  0.5466  1.4183
 8614SOL     OW37300   2.880   1.295   4.456 -0.0585 -0.3143 -0.1627
 8614SOL    HW137301   2.931   1.345   4.392 -2.0043  1.5796 -0.2434
 8614SOL    HW237302   2.804   1.352   4.469  0.2201  0.3017 -1.2501
 8615SOL     OW37303   0.861   2.195   3.075  0.4980 -0.1303  0.4224
 8615SOL    HW137304   0.913   2.170   3.151 -0.6900 -1.8085  0.6889
 8615SOL    HW237305   0.878   2.122   3.015 -0.3064 -2.1036  2.5935
 8616SOL     OW37306   4.098   0.254  12.136  0.3046  0.1352  0.0576
 8616SOL    HW137307   4.152   0.313  12.082 -0.5968 -0.6294 -1.6938
 8616SOL    HW237308   4.017   0.304  12.147  0.0375 -0.0149 -1.1211
 8617SOL     OW37309   4.433   0.554   2.838 -0.2619  0.4164 -0.1363
 8617SOL    HW137310   4.429   0.466   2.802 -2.8904  0.9918 -1.2663
 8617SOL    HW237311   4.384   0.546   2.919  0.8218 -1.3557  0.3315
 8618SOL     OW37312   4.668   2.498   8.113 -0.2032  0.0626 -0.0939
 8618SOL    HW137313   0.015   2.544   8.063  0.5160 -1.7884 -0.8155
 8618SOL    HW237314   4.648   2.566   8.178 -0.9925 -0.9250  0.6826
 8619SOL     OW37315   0.309   4.235   3.952 -0.1236 -0.4335  0.4340
 8619SOL    HW137316   0.393   4.253   3.910 -0.9037  0.9276 -0.5493
 8619SOL    HW237317   0.328   4.152   3.995 -0.0772 -0.3460  0.5832
 8620SOL     OW37318   3.510   3.673   4.259  0.4404 -0.2634  0.2704
 8620SOL    HW137319   3.542   3.722   4.183 -1.6983  1.5033  0.5082
 8620SOL    HW237320   3.529   3.584   4.228 -0.6530 -0.3792 -0.0808
 8621SOL     OW37321   3.148   1.650   7.636  0.2642 -0.2336  0.2466
 8621SOL    HW137322   3.145   1.562   7.674  0.4871 -0.5875 -0.5588
 8621SOL    HW237323   3.141   1.623   7.545 -0.8589 -0.3934  0.3816
 8622SOL     OW37324   0.021   2.106   3.072  0.2230 -0.1309 -0.1923
 8622SOL    HW137325   0.112   2.113   3.041 -0.1568  1.5392 -0.9570
 8622SOL    HW237326   0.016   2.016   3.104  0.5263  0.2348  0.8831
 8623SOL     OW37327   2.371   3.335   0.641 -0.2119 -0.2887  0.3589
 8623SOL    HW137328   2.403   3.309   0.727 -0.2582 -0.3101  0.3694
 8623SOL    HW237329   2.362   3.253   0.593 -2.2350  1.0507 -1.5725
 8624SOL     OW37330   0.065   4.538   3.962 -0.1132  0.4116  0.1243
 8624SOL    HW137331   0.078   4.564   4.053  0.7430 -2.0289  0.6807
 8624SOL    HW237332   0.017   4.612   3.925 -0.5443 -0.6059 -1.3544
 8625SOL     OW37333   1.284   0.976  10.897  0.3441  0.3563 -0.4005
 8625SOL    HW137334   1.237   1.059  10.904  0.0851  0.2438 -0.8276
 8625SOL    HW237335   1.216   0.922  10.937  0.6345  0.7976  0.6898
 8626SOL     OW37336   1.248   2.793  15.907  0.4723  0.0672 -0.1521
 8626SOL    HW137337   1.208   2.721  15.957  0.0198  0.1371 -0.4185
 8626SOL    HW237338   1.202   2.796  15.823 -1.0615 -3.2758  0.5683
 8627SOL     OW37339   4.385   2.637   7.791 -0.5093 -0.6489  0.6548
 8627SOL    HW137340   4.430   2.553   7.779 -0.2287 -0.4710  0.4545
 8627SOL    HW237341   4.294   2.619   7.767 -0.7650  0.0590  1.0984
 8628SOL     OW37342   4.461   0.530   3.378  0.0207 -0.3010  0.7877
 8628SOL    HW137343   4.366   0.537   3.374  0.0177  0.0043  1.2998
 8628SOL    HW237344   4.492   0.583   3.304 -0.8039 -0.1944  0.5214
 8629SOL     OW37345   2.887   0.033   7.625  0.1656 -0.1300  0.2960
 8629SOL    HW137346   2.872   0.027   7.719 -1.3442 -1.2863 -0.0051
 8629SOL    HW237347   2.981   0.036   7.610 -0.3678 -1.8585 -3.5392
 8630SOL     OW37348   3.323   3.250   5.879 -0.5923 -0.4383  0.1169
 8630SOL    HW137349   3.319   3.154   5.884 -1.2968 -0.4987 -1.7426
 8630SOL    HW237350   3.320   3.262   5.784 -0.7051  0.8315  0.2823
 8631SOL     OW37351   4.376   2.689  12.869 -0.3330  0.4081 -0.4509
 8631SOL    HW137352   4.455   2.644  12.839 -0.0667  1.3784 -1.2167
 8631SOL    HW237353   4.349   2.631  12.940  0.3306  1.5439  0.7336
 8632SOL     OW37354   3.725   4.659   4.113 -0.2472 -0.1783 -0.3322
 8632SOL    HW137355   3.640   4.617   4.098 -0.2333 -0.4777  0.4420
 8632SOL    HW237356   3.718   4.676   4.207 -0.8798  1.0815 -0.6052
 8633SOL     OW37357   4.457   2.325   3.180  0.2421 -0.0782 -0.1692
 8633SOL    HW137358   4.453   2.234   3.152 -1.0670 -0.1848  0.3633
 8633SOL    HW237359   4.412   2.361   3.103  2.6363  1.1853 -0.9569
 8634SOL     OW37360   1.337   1.271   9.127  0.1872 -0.2475 -0.1967
 8634SOL    HW137361   1.405   1.244   9.190  0.4040 -1.0298 -0.7666
 8634SOL    HW237362   1.274   1.313   9.186 -2.0066  0.3016 -2.9312
 8635SOL     OW37363   3.173   3.207   3.277  0.5256 -0.2513  0.7101
 8635SOL    HW137364   3.114   3.135   3.299 -1.0067  0.7100 -0.2144
 8635SOL    HW237365   3.119   3.261   3.218  0.3328 -0.7484  0.4241
 8636SOL     OW37366   4.296   3.443   4.137  0.5374  1.0013  0.5765
 8636SOL    HW137367   4.275   3.464   4.046  1.3623 -0.8683 -0.0408
 8636SOL    HW237368   4.387   3.470   4.138  0.4153  1.4206  0.3854
 8637SOL     OW37369   1.296   3.674   2.102  0.0019  0.0480  0.5859
 8637SOL    HW137370   1.205   3.665   2.131 -0.6787  1.2283 -1.1939
 8637SOL    HW237371   1.278   3.751   2.048  1.5915 -0.3948 -0.5626
 8638SOL     OW37372   1.557   1.241   9.278  0.1122  0.4734 -0.4079
 8638SOL    HW137373   1.559   1.148   9.300 -0.4924  0.6157  0.2554
 8638SOL    HW237374   1.650   1.260   9.273  0.0838  0.9231  0.7385
 8639SOL     OW37375   3.686   1.923   0.622 -0.2516 -0.0295  0.1043
 8639SOL    HW137376   3.776   1.897   0.606  0.0866  0.7319  0.7915
 8639SOL    HW237377   3.674   1.853   0.686 -0.5795 -0.0543  0.0178
 8640SOL     OW37378   0.482   2.835   3.286  0.2847 -0.6997 -0.2361
 8640SOL    HW137379   0.566   2.879   3.269 -0.0289  0.5058  1.3934
 8640SOL    HW237380   0.418   2.876   3.229 -0.0563 -0.5607  0.2538
 8641SOL     OW37381   2.441   2.667   7.137 -0.2122 -0.3420  0.3616
 8641SOL    HW137382   2.478   2.580   7.153  2.6214  1.1526  1.8325
 8641SOL    HW237383   2.510   2.729   7.159 -0.1661 -0.8678  1.7288
 8642SOL     OW37384   2.439   3.902  14.876 -0.0860  0.2473 -0.7457
 8642SOL    HW137385   2.530   3.923  14.857 -0.0574  1.3344  0.5820
 8642SOL    HW237386   2.454   3.862  14.962  0.4195  1.5632 -0.2217
 8643SOL     OW37387   4.654   3.379  17.482 -0.5928  0.2851  0.4451
 8643SOL    HW137388   4.559   3.380  17.491 -0.7647 -0.7285 -1.4073
 8643SOL    HW237389   4.669   3.313  17.551  1.0353 -1.2615 -1.3874
 8644SOL     OW37390   3.156   1.757   9.666  0.7727  0.4017  0.2882
 8644SOL    HW137391   3.196   1.675   9.636 -0.9602 -0.2534 -0.2123
 8644SOL    HW237392   3.224   1.783   9.727  1.3738  1.7692 -0.9799
 8645SOL     OW37393   1.383   3.772   3.881  0.0800  0.4345 -0.0645
 8645SOL    HW137394   1.381   3.837   3.951 -0.5957 -1.2742  1.4999
 8645SOL    HW237395   1.424   3.818   3.808  1.1768  1.8498  1.4203
 8646SOL     OW37396   3.735   2.696  11.651 -0.3173  0.0585 -0.1648
 8646SOL    HW137397   3.802   2.636  11.684 -0.5574  0.6868  1.4607
 8646SOL    HW237398   3.753   2.713  11.559  0.4549 -0.6555 -0.1504
 8647SOL     OW37399   2.115   3.764  17.459 -0.2554 -0.0117 -0.8997
 8647SOL    HW137400   2.103   3.720  17.375 -0.1860 -3.8070  1.0903
 8647SOL    HW237401   2.031   3.811  17.465 -0.4996 -0.6523  0.8040
 8648SOL     OW37402   2.123   3.296   0.974 -0.4684  0.1675 -0.5755
 8648SOL    HW137403   2.036   3.298   0.934 -0.5350 -0.1159 -0.4492
 8648SOL    HW237404   2.109   3.312   1.068  1.6950  1.3537 -0.4550
 8649SOL     OW37405   3.825   4.566   8.771  0.4487  0.1114 -0.2437
 8649SOL    HW137406   3.809   4.477   8.740  0.0375 -0.3449  1.2892
 8649SOL    HW237407   3.919   4.560   8.790  0.4835  2.4042  0.2802
 8650SOL     OW37408   3.700   2.726   2.404 -0.4094  0.3984  0.1935
 8650SOL    HW137409   3.693   2.709   2.310 -2.3495  0.6706  0.2817
 8650SOL    HW237410   3.775   2.673   2.431  0.9642  1.5251 -1.4569
 8651SOL     OW37411   2.742   0.836   4.923 -0.0442 -0.1803  0.0283
 8651SOL    HW137412   2.835   0.821   4.939 -0.4056 -0.1988  2.2221
 8651SOL    HW237413   2.715   0.925   4.945  0.7898  0.1267 -0.2070
 8652SOL     OW37414   0.773   0.457   2.191  0.1747  0.5683  0.2961
 8652SOL    HW137415   0.860   0.457   2.151  0.5779 -1.3559  1.1948
 8652SOL    HW237416   0.729   0.391   2.137  0.0375  0.9938 -0.1070
 8653SOL     OW37417   3.364   0.462  15.514  0.1277 -0.1114  0.5890
 8653SOL    HW137418   3.442   0.476  15.462 -0.5641 -1.5421 -0.8232
 8653SOL    HW237419   3.334   0.553  15.518 -0.0013 -0.0601 -1.4961
 8654SOL     OW37420   1.013   2.570   5.899  0.1507  0.4661 -0.1927
 8654SOL    HW137421   0.984   2.651   5.941 -1.2058 -0.1136 -0.0140
 8654SOL    HW237422   1.029   2.505   5.967 -2.0364 -1.1535 -1.2382
 8655SOL     OW37423   1.381   1.568  17.341 -0.2169  0.1464 -0.3298
 8655SOL    HW137424   1.385   1.638  17.407 -3.1365 -2.4895  2.6272
 8655SOL    HW237425   1.416   1.501  17.400  1.2703  0.2389 -1.1083
 8656SOL     OW37426   0.181   0.554   7.741 -0.2454 -0.4573 -0.0617
 8656SOL    HW137427   0.158   0.622   7.678 -1.3459 -1.3253 -0.5950
 8656SOL    HW237428   0.176   0.475   7.687  3.3761 -1.1984  0.6547
 8657SOL     OW37429   0.441   1.847   9.320  0.4758 -0.4233  0.8402
 8657SOL    HW137430   0.431   1.914   9.252 -1.6720 -1.4882  0.0844
 8657SOL    HW237431   0.359   1.863   9.367  0.3210  1.7323 -0.1504
 8658SOL     OW37432   1.221   3.248   4.969 -0.2245 -0.3321  0.0898
 8658SOL    HW137433   1.164   3.221   5.041  0.0237  1.9984  1.1884
 8658SOL    HW237434   1.298   3.279   5.018  0.3256  1.1200 -1.6908
 8659SOL     OW37435   2.000   0.817   4.731 -0.2660 -0.2445 -0.6034
 8659SOL    HW137436   1.913   0.823   4.770  0.3709 -2.5603  1.1927
 8659SOL    HW237437   2.025   0.725   4.739 -0.1721 -0.2440 -0.8829
 8660SOL     OW37438   2.393   4.176   6.448 -0.4773  0.0506 -0.2812
 8660SOL    HW137439   2.420   4.268   6.451 -1.9327  0.4943 -0.9925
 8660SOL    HW237440   2.444   4.136   6.377 -1.5540 -1.1677 -0.3729
 8661SOL     OW37441   2.187   3.191   7.142 -0.4614  0.1517  0.2492
 8661SOL    HW137442   2.106   3.237   7.118 -0.6628 -0.8232 -0.9234
 8661SOL    HW237443   2.193   3.138   7.062 -1.1203  0.9026 -0.3076
 8662SOL     OW37444   1.710   0.198  13.983  0.2207 -0.5894  0.1336
 8662SOL    HW137445   1.699   0.143  14.061 -0.1966  0.2777  0.6841
 8662SOL    HW237446   1.645   0.164  13.921 -0.8999 -1.2100  1.6547
 8663SOL     OW37447   2.660   2.311   2.105  0.0228  0.0006  0.0090
 8663SOL    HW137448   2.754   2.315   2.084  0.1772 -0.6295  0.5771
 8663SOL    HW237449   2.654   2.325   2.200 -0.3757 -1.8540  0.2566
 8664SOL     OW37450   1.798   1.649   4.766 -0.5200  0.1243 -0.0380
 8664SOL    HW137451   1.720   1.686   4.806 -0.4424 -1.1978  1.3185
 8664SOL    HW237452   1.800   1.570   4.820  0.8559  0.8742  1.0096
 8665SOL     OW37453   0.408   4.218   6.536  0.3439  0.6492  0.6444
 8665SOL    HW137454   0.481   4.176   6.579  0.0575 -0.2243  0.2681
 8665SOL    HW237455   0.331   4.166   6.559 -0.0530  0.9350 -0.0368
 8666SOL     OW37456   4.424   3.779   3.407 -1.0481  0.1292  0.0732
 8666SOL    HW137457   4.404   3.708   3.345  0.2193 -1.9551  2.0417
 8666SOL    HW237458   4.385   3.852   3.360  1.2023  1.2333 -0.0909
 8667SOL     OW37459   0.937   4.380   9.110 -0.3878 -0.3693 -0.6000
 8667SOL    HW137460   1.028   4.381   9.139 -0.3962 -0.2936 -0.5764
 8667SOL    HW237461   0.935   4.302   9.054 -2.4575 -1.3239  0.8089
 8668SOL     OW37462   3.390   2.867  16.819 -0.7868 -0.1398 -0.1794
 8668SOL    HW137463   3.471   2.829  16.784 -0.7038  1.5225 -1.7816
 8668SOL    HW237464   3.406   2.960  16.800 -0.9886  0.1500  1.0578
 8669SOL     OW37465   2.117   1.827   8.189  0.2054  0.7699  0.6104
 8669SOL    HW137466   2.211   1.845   8.191  0.3643 -0.0293  0.4213
 8669SOL    HW237467   2.126   1.734   8.166  0.2360  1.4870 -2.3132
 8670SOL     OW37468   0.571   4.117   6.757 -0.0003  0.4432 -0.4688
 8670SOL    HW137469   0.614   4.171   6.823 -2.4661  1.9422 -0.1245
 8670SOL    HW237470   0.643   4.064   6.721 -1.2920 -1.4871 -0.1756
 8671SOL     OW37471   0.270   2.160   7.428  0.3526 -0.0416 -0.1860
 8671SOL    HW137472   0.361   2.180   7.408  0.1379  1.7017  0.5292
 8671SOL    HW237473   0.249   2.117   7.345 -1.0614  0.0150  0.1388
 8672SOL     OW37474   3.892   3.087   8.639  0.1807 -0.3950 -0.1355
 8672SOL    HW137475   3.888   3.033   8.718  1.4202  0.1769  0.3248
 8672SOL    HW237476   3.966   3.145   8.659 -1.0591  1.3014 -0.4741
 8673SOL     OW37477   4.450   2.495   9.144 -0.1775 -0.0408 -0.1817
 8673SOL    HW137478   4.361   2.506   9.111  0.9735  1.7257 -2.7310
 8673SOL    HW237479   4.461   2.586   9.169 -1.7162 -0.4518  1.9771
 8674SOL     OW37480   3.070   2.541   6.121  0.2972 -0.1325 -0.7302
 8674SOL    HW137481   3.149   2.488   6.110  1.7579  1.7715  0.5000
 8674SOL    HW237482   3.074   2.555   6.216 -0.7908  0.5984 -0.7919
 8675SOL     OW37483   3.788   0.261   3.725 -0.1770  0.3380 -0.5949
 8675SOL    HW137484   3.851   0.320   3.683  0.3228  0.0592 -0.2356
 8675SOL    HW237485   3.832   0.178   3.708 -0.7389  0.1363 -1.0333
 8676SOL     OW37486   1.213   4.272  12.329  0.2299 -0.3993  0.0139
 8676SOL    HW137487   1.190   4.357  12.291  1.3025 -1.3120 -2.7274
 8676SOL    HW237488   1.308   4.279  12.327  0.1326  0.5145 -1.7595
 8677SOL     OW37489   1.358   4.500   8.360  0.4230  0.0379  0.2752
 8677SOL    HW137490   1.435   4.443   8.354  0.9360  0.8367 -0.8110
 8677SOL    HW237491   1.401   4.585   8.352  2.2982 -1.0464 -1.1602
 8678SOL     OW37492   4.522   0.425  13.305 -0.2204  0.2020  0.5727
 8678SOL    HW137493   4.586   0.371  13.258  0.9126  1.4166  0.7258
 8678SOL    HW237494   4.501   0.484  13.233  1.6627  2.4677  1.9075
 8679SOL     OW37495   2.573   2.259  14.936  0.4113  0.3335 -0.2180
 8679SOL    HW137496   2.668   2.253  14.930  0.3198  0.0987 -1.4495
 8679SOL    HW237497   2.550   2.310  15.013 -2.1978  0.5011 -1.1042
 8680SOL     OW37498   0.255   1.241   4.484  0.3248  0.1160 -0.1910
 8680SOL    HW137499   0.194   1.169   4.499  0.2013  0.5885  1.5785
 8680SOL    HW237500   0.254   1.284   4.569 -0.5282 -1.6519  0.6911
 8681SOL     OW37501   3.918   1.798  16.585 -0.4452  0.2648  0.4202
 8681SOL    HW137502   4.010   1.824  16.575 -0.4311  0.1806  0.3267
 8681SOL    HW237503   3.928   1.706  16.609 -1.6886 -0.4350 -1.7379
 8682SOL     OW37504   0.747   1.446  10.817  1.1627 -0.1414 -0.9216
 8682SOL    HW137505   0.714   1.494  10.893 -1.5108  0.0045 -2.1604
 8682SOL    HW237506   0.683   1.486  10.757 -1.6047 -0.0337  2.0659
 8683SOL     OW37507   0.939   3.637   3.419  0.3034 -0.2196  0.1410
 8683SOL    HW137508   0.877   3.617   3.349 -1.6798  2.5328  1.1034
 8683SOL    HW237509   0.994   3.703   3.376  0.3106  0.9168  1.9007
 8684SOL     OW37510   4.243   3.137   7.253 -0.1806  0.1093  0.0044
 8684SOL    HW137511   4.153   3.125   7.284 -0.2905  2.6223  0.6841
 8684SOL    HW237512   4.226   3.193   7.178  0.8560 -0.3948 -0.6114
 8685SOL     OW37513   3.404   4.365   6.624  0.3934  0.4387 -0.1143
 8685SOL    HW137514   3.365   4.448   6.596  0.3914  1.0430  1.7090
 8685SOL    HW237515   3.376   4.311   6.549 -0.4814  0.5347  0.1416
 8686SOL     OW37516   4.582   0.122   6.114 -0.1178  0.2851  0.6690
 8686SOL    HW137517   4.649   0.189   6.105  0.6510 -0.7209 -0.9970
 8686SOL    HW237518   4.615   0.075   6.191  0.9651 -1.4353 -0.8583
 8687SOL     OW37519   3.717   0.836   1.530  0.0647  0.0141  0.5672
 8687SOL    HW137520   3.808   0.815   1.550 -0.5250 -1.9486  1.1382
 8687SOL    HW237521   3.732   0.869   1.441  0.5550  0.2971  0.7545
 8688SOL     OW37522   1.047   0.970   8.620  0.3163 -0.1917  0.6874
 8688SOL    HW137523   1.048   0.940   8.529  1.2844  0.4028  0.4961
 8688SOL    HW237524   1.077   0.900   8.677 -0.7958 -0.4331  0.9726
 8689SOL     OW37525   0.898   0.446   4.575  0.3229 -0.0546 -0.3543
 8689SOL    HW137526   0.852   0.461   4.492 -1.2473 -1.0832  0.3153
 8689SOL    HW237527   0.964   0.382   4.547  1.4694  0.8682  0.2527
 8690SOL     OW37528   0.384   1.347   6.675  0.2373 -0.5547 -0.0918
 8690SOL    HW137529   0.292   1.369   6.659  1.0745 -0.2214 -4.5846
 8690SOL    HW237530   0.369   1.264   6.720  3.2928 -0.3038  1.3259
 8691SOL     OW37531   0.673   1.201   3.991  0.1492 -0.3830  0.0621
 8691SOL    HW137532   0.666   1.105   3.997 -1.2553 -0.1745  1.6680
 8691SOL    HW237533   0.767   1.220   3.990  0.1984 -0.6101  0.3654
 8692SOL     OW37534   2.148   3.231   3.195 -0.0354 -0.1283 -0.1352
 8692SOL    HW137535   2.215   3.259   3.258 -0.9062 -1.4567  1.3872
 8692SOL    HW237536   2.191   3.153   3.160 -0.7124 -1.6698  2.4503
 8693SOL     OW37537   1.998   0.635   6.321  0.7045  0.0815 -0.2721
 8693SOL    HW137538   1.906   0.646   6.296 -0.0316  0.8118  2.7349
 8693SOL    HW237539   2.030   0.556   6.278  1.3442 -1.2555  2.6414
 8694SOL     OW37540   3.269   3.933   1.783 -0.2701 -0.2474  0.7747
 8694SOL    HW137541   3.220   3.858   1.818 -3.2811  0.6195 -1.5831
 8694SOL    HW237542   3.234   3.995   1.846  2.3144  1.6603  0.3124
 8695SOL     OW37543   1.715   4.666   2.946  0.3146  0.1994  0.6805
 8695SOL    HW137544   1.776   0.003   2.993 -1.2920  2.4441  0.0206
 8695SOL    HW237545   1.766   4.640   2.869 -2.0051  0.7126 -1.0373
 8696SOL     OW37546   0.806   0.756   8.008  0.2444  0.5142  0.1273
 8696SOL    HW137547   0.784   0.717   8.092 -2.4839  0.0924 -0.7909
 8696SOL    HW237548   0.736   0.821   8.001 -0.4245 -0.1259  0.9215
 8697SOL     OW37549   1.126   0.903   4.284 -0.3647 -0.1088 -0.1922
 8697SOL    HW137550   1.182   0.978   4.297 -3.8902  2.7044 -1.1380
 8697SOL    HW237551   1.042   0.941   4.308  0.8224  0.1879  3.3638
 8698SOL     OW37552   0.427   3.118   8.871  0.3498  0.3102  0.2443
 8698SOL    HW137553   0.410   3.090   8.961  2.5982 -1.5092  0.1136
 8698SOL    HW237554   0.450   3.033   8.833  1.9128  1.1285 -0.6481
 8699SOL     OW37555   3.831   2.186   2.607  0.1751 -0.0813  0.1790
 8699SOL    HW137556   3.856   2.261   2.554 -1.3973 -0.0548 -0.5195
 8699SOL    HW237557   3.767   2.138   2.554  0.6636 -0.1605 -0.3407
 8700SOL     OW37558   3.484   1.469  11.517 -0.4463  0.0466  0.2688
 8700SOL    HW137559   3.466   1.535  11.450  1.6936 -0.8278 -1.1928
 8700SOL    HW237560   3.529   1.406  11.460  0.1013  0.3474  0.3723
 8701SOL     OW37561   0.438   0.460   7.825 -0.3676 -0.1268  0.1702
 8701SOL    HW137562   0.351   0.478   7.790 -0.9768 -1.7972  0.8150
 8701SOL    HW237563   0.450   0.365   7.820  0.8217  0.0156  0.3244
 8702SOL     OW37564   2.172   1.251  12.691 -0.2966  0.2865  0.4750
 8702SOL    HW137565   2.227   1.270  12.767 -0.3084 -2.0317  1.0597
 8702SOL    HW237566   2.092   1.245  12.744  0.2537 -0.5807  1.1998
 8703SOL     OW37567   4.195   2.492   2.532 -0.1136 -0.0672 -0.2820
 8703SOL    HW137568   4.187   2.581   2.568  0.0785 -0.8988  1.7986
 8703SOL    HW237569   4.290   2.481   2.534  0.0987  2.0243  1.3936
 8704SOL     OW37570   0.748   2.747   2.383 -0.0653  0.4411  0.1927
 8704SOL    HW137571   0.703   2.826   2.414 -1.7509 -0.2781 -0.4266
 8704SOL    HW237572   0.724   2.687   2.454 -0.0541  0.9762  0.6514
 8705SOL     OW37573   4.136   3.090   4.030  0.3189 -0.3319 -0.1638
 8705SOL    HW137574   4.078   3.136   4.090 -1.5110 -3.2518  0.3052
 8705SOL    HW237575   4.107   3.116   3.942 -0.2724  1.5357  0.5911
 8706SOL     OW37576   4.136   0.563   4.091 -0.2016 -0.2965  0.4690
 8706SOL    HW137577   4.121   0.651   4.056  1.3683  0.2660  1.1963
 8706SOL    HW237578   4.043   0.553   4.111  0.0422 -0.8677  1.3171
 8707SOL     OW37579   4.574   2.007   6.933 -0.0916  0.0336 -0.3273
 8707SOL    HW137580   4.540   1.966   7.012 -0.9264 -0.5561 -0.9941
 8707SOL    HW237581   4.502   2.068   6.916  0.8002  0.4086 -2.7460
 8708SOL     OW37582   0.738   0.098   8.936 -0.0459  0.3893 -0.2009
 8708SOL    HW137583   0.776   0.125   8.853 -1.0757 -0.8702 -1.0812
 8708SOL    HW237584   0.668   0.039   8.908 -0.1403 -0.0537  0.9526
 8709SOL     OW37585   4.657   0.631   0.205  0.0108  0.0162  0.0368
 8709SOL    HW137586   4.603   0.651   0.281 -1.0044 -0.6713 -0.4993
 8709SOL    HW237587   0.020   0.630   0.252 -1.2495 -0.5732  2.2842
 8710SOL     OW37588   2.175   0.637   3.777 -0.1849 -0.3546  0.3522
 8710SOL    HW137589   2.195   0.720   3.820 -0.4653  0.1244 -0.4500
 8710SOL    HW237590   2.155   0.674   3.691  0.2199  0.1736  0.4872
 8711SOL     OW37591   1.076   3.373   6.364 -0.2482  0.5475  0.0541
 8711SOL    HW137592   1.019   3.376   6.441 -1.9132  1.3770 -1.2065
 8711SOL    HW237593   1.152   3.334   6.406  0.0319  1.5438  0.4567
 8712SOL     OW37594   3.145   2.896  17.086 -0.0075 -0.1822 -0.1266
 8712SOL    HW137595   3.054   2.917  17.063  0.4388  1.4447 -0.4145
 8712SOL    HW237596   3.174   2.987  17.087  0.9293 -0.4789 -1.0164
 8713SOL     OW37597   0.607   1.434  11.150  0.0035 -0.6757  0.6669
 8713SOL    HW137598   0.644   1.502  11.093  1.6638 -1.1139  1.2042
 8713SOL    HW237599   0.581   1.498  11.216 -0.1674  0.2012 -0.2423
 8714SOL     OW37600   3.890   2.594  13.168 -0.0664 -0.3914 -0.0607
 8714SOL    HW137601   3.870   2.684  13.142 -1.2298 -0.1737  1.6170
 8714SOL    HW237602   3.845   2.581  13.252 -1.1495  4.7187  0.1019
 8715SOL     OW37603   0.422   0.184   8.422 -0.0882  0.3349 -0.0318
 8715SOL    HW137604   0.350   0.198   8.483 -1.0314 -0.1938 -1.0220
 8715SOL    HW237605   0.474   0.108   8.445 -0.7048 -0.3792 -0.9718
 8716SOL     OW37606   1.987   0.790   7.371  0.4907  0.9000  0.1720
 8716SOL    HW137607   1.951   0.816   7.287 -1.3357 -0.5496  0.5079
 8716SOL    HW237608   1.914   0.811   7.430  0.1844  0.1492  0.0626
 8717SOL     OW37609   4.672   1.289  16.132  0.1191  0.4795 -0.0500
 8717SOL    HW137610   4.696   1.366  16.081  0.8108  0.7838  0.7274
 8717SOL    HW237611   4.619   1.329  16.201  1.9164  1.0569  1.0097
 8718SOL     OW37612   3.342   0.635   7.674  0.5505 -0.2701  0.0946
 8718SOL    HW137613   3.294   0.715   7.651 -0.1477 -0.6095  0.3709
 8718SOL    HW237614   3.430   0.661   7.648 -0.1330  0.9857 -0.9874
 8719SOL     OW37615   3.081   0.021   2.087 -0.1462 -0.1316  0.1918
 8719SOL    HW137616   3.023   4.690   2.031  2.0068 -0.0241 -2.1590
 8719SOL    HW237617   3.045   0.001   2.173 -0.0846  2.2450  0.7801
 8720SOL     OW37618   1.418   0.015   6.877  0.0013  0.0668 -0.3372
 8720SOL    HW137619   1.478   4.671   6.838 -2.2917 -2.1941 -0.0850
 8720SOL    HW237620   1.345   4.686   6.913 -0.4261  1.2536  0.3907
 8721SOL     OW37621   2.113   4.664   8.903 -0.9483  0.7983 -0.5670
 8721SOL    HW137622   2.152   0.021   8.864  0.1449 -0.3764 -1.7964
 8721SOL    HW237623   2.033   4.657   8.850 -1.2172  0.6284 -0.1427
 8722SOL     OW37624   0.887   3.858   8.743 -0.6822  0.0917  0.0397
 8722SOL    HW137625   0.858   3.895   8.660 -0.0652 -1.1302 -0.7223
 8722SOL    HW237626   0.939   3.783   8.715  0.0418  1.2585 -1.7704
 8723SOL     OW37627   1.440   2.843   8.235 -0.4420 -0.0193  0.3935
 8723SOL    HW137628   1.474   2.925   8.271  2.0678 -0.5615 -0.7469
 8723SOL    HW237629   1.514   2.815   8.181 -1.1688  0.5390 -0.8880
 8724SOL     OW37630   2.786   3.486  13.679  0.0200  0.4883 -0.4345
 8724SOL    HW137631   2.725   3.421  13.716  0.4186  0.8749  0.8895
 8724SOL    HW237632   2.793   3.551  13.749 -1.3361 -2.6183  2.6190
 8725SOL     OW37633   0.738   3.064   3.344  0.0446 -0.2885 -0.1522
 8725SOL    HW137634   0.756   3.042   3.435  1.2171 -0.8857 -0.5281
 8725SOL    HW237635   0.693   3.147   3.362 -0.4744 -0.4151 -0.8381
 8726SOL     OW37636   0.099   1.228   9.796 -0.5208  0.5582 -0.4376
 8726SOL    HW137637   0.108   1.320   9.820  0.4388  0.0531  1.1561
 8726SOL    HW237638   0.135   1.195   9.878 -1.8062 -0.8664 -0.4410
 8727SOL     OW37639   0.873   3.514  14.741 -0.1954  0.0946  0.0197
 8727SOL    HW137640   0.808   3.478  14.802  0.3267 -0.6195  0.1560
 8727SOL    HW237641   0.887   3.452  14.670 -1.1750 -0.7250  0.5353
 8728SOL     OW37642   3.225   2.588  14.650  0.4256 -0.7450 -0.2674
 8728SOL    HW137643   3.221   2.505  14.602 -1.7500 -0.0896 -1.2262
 8728SOL    HW237644   3.318   2.590  14.672  0.3566 -3.9322  0.3011
 8729SOL     OW37645   0.157   1.232   7.762 -0.0570 -0.1721 -0.2197
 8729SOL    HW137646   0.085   1.185   7.721 -0.7621 -1.0314  1.9791
 8729SOL    HW237647   0.162   1.192   7.849 -3.6679 -0.0946  0.0054
 8730SOL     OW37648   1.096   0.426   8.206  0.3474  0.4171 -0.1632
 8730SOL    HW137649   1.113   0.345   8.255  0.4827  0.7301  0.2989
 8730SOL    HW237650   1.061   0.383   8.127  0.3424  1.3843 -0.6803
 8731SOL     OW37651   1.436   2.326  15.452 -0.7699 -0.2056  0.3311
 8731SOL    HW137652   1.502   2.325  15.382  1.9481  0.3872  2.8859
 8731SOL    HW237653   1.355   2.324  15.401  1.0933 -1.1468 -2.6104
 8732SOL     OW37654   2.460   4.134   4.972  0.7282  0.2659 -0.6253
 8732SOL    HW137655   2.443   4.186   4.894 -1.4404  0.4942 -0.0046
 8732SOL    HW237656   2.547   4.098   4.957  0.2852 -1.0914  0.0180
 8733SOL     OW37657   2.972   1.447  16.689 -0.0815  0.0286 -0.1873
 8733SOL    HW137658   2.951   1.540  16.700  0.2853  0.1664 -0.6406
 8733SOL    HW237659   2.886   1.413  16.664 -0.2684  0.2203  0.1971
 8734SOL     OW37660   0.175   0.246   9.213  0.0114  0.1644  0.8113
 8734SOL    HW137661   0.091   0.199   9.209  0.1885 -0.0730 -0.1271
 8734SOL    HW237662   0.176   0.280   9.123  2.0443  0.0642  0.7952
 8735SOL     OW37663   1.266   4.686   3.579 -0.3017  0.1547 -0.3442
 8735SOL    HW137664   1.332   4.643   3.525 -0.3437 -1.4033  0.8522
 8735SOL    HW237665   1.191   4.633   3.551 -0.3987  0.9531 -1.5574
 8736SOL     OW37666   1.464   3.706   2.304 -0.1314 -0.1856 -0.0872
 8736SOL    HW137667   1.386   3.692   2.250 -0.3236 -1.6688  0.5807
 8736SOL    HW237668   1.529   3.735   2.240 -0.4442 -0.0772 -0.3567
 8737SOL     OW37669   0.532   0.710  15.659 -0.2331  0.5404 -0.0997
 8737SOL    HW137670   0.576   0.648  15.602 -0.5420  0.9976 -0.8290
 8737SOL    HW237671   0.500   0.778  15.600 -0.0090 -0.3477 -1.2438
 8738SOL     OW37672   1.726   1.240   0.911 -0.2336  0.1124  0.3034
 8738SOL    HW137673   1.761   1.177   0.974  1.4923  0.6132 -0.1342
 8738SOL    HW237674   1.794   1.230   0.844  1.7019  0.0376  2.2799
 8739SOL     OW37675   1.933   2.346   2.308  0.7380 -0.7276 -0.4795
 8739SOL    HW137676   2.023   2.319   2.328  0.6385  0.6500  1.8936
 8739SOL    HW237677   1.923   2.304   2.222  0.5744  1.9882 -1.7622
 8740SOL     OW37678   0.634   1.900  13.036 -0.0240 -0.2459 -0.0077
 8740SOL    HW137679   0.675   1.842  13.100 -0.0311  0.7008  0.8556
 8740SOL    HW237680   0.601   1.966  13.097  0.1148 -2.1372  2.1307
 8741SOL     OW37681   1.653   3.724  16.535  0.2131  0.0263 -0.2296
 8741SOL    HW137682   1.667   3.802  16.480 -1.1320 -0.3829 -1.1506
 8741SOL    HW237683   1.561   3.713  16.514  0.4240 -2.4583  0.1304
 8742SOL     OW37684   0.765   4.511   8.764 -0.3037  0.6415 -0.3877
 8742SOL    HW137685   0.711   4.450   8.715  1.5451 -2.2694  1.2534
 8742SOL    HW237686   0.736   4.509   8.855  0.6679  2.4782 -0.0252
 8743SOL     OW37687   1.813   3.800   6.234  0.9662  0.0188  0.1425
 8743SOL    HW137688   1.859   3.825   6.154 -0.4616 -1.6199 -1.1898
 8743SOL    HW237689   1.793   3.882   6.279  1.7439  1.0303 -1.3567
 8744SOL     OW37690   3.168   0.334   6.484 -0.0545  0.3386 -0.4778
 8744SOL    HW137691   3.144   0.243   6.463  1.0433  0.1767 -1.0210
 8744SOL    HW237692   3.105   0.379   6.428  0.9277  2.3225  0.0239
 8745SOL     OW37693   3.209   3.399   2.430 -0.4456  0.3762 -0.1726
 8745SOL    HW137694   3.221   3.305   2.440  1.3856  0.3854 -2.4690
 8745SOL    HW237695   3.114   3.409   2.422 -0.3680  1.6772  0.3860
 8746SOL     OW37696   0.018   3.837   4.938  0.7208  0.3220  0.4407
 8746SOL    HW137697   0.113   3.826   4.945  0.1801 -2.8531  2.3904
 8746SOL    HW237698   4.714   3.745   4.930 -0.5939  0.6772  0.4548
 8747SOL     OW37699   0.652   2.139   8.585 -1.0400  0.5246  0.5919
 8747SOL    HW137700   0.731   2.157   8.635 -1.4369  0.6952  1.1637
 8747SOL    HW237701   0.629   2.226   8.551 -0.3211  0.4448 -0.0939
 8748SOL     OW37702   3.728   2.788  15.661  0.2550  0.0472 -0.3338
 8748SOL    HW137703   3.763   2.860  15.714 -0.3914  0.8880 -1.0577
 8748SOL    HW237704   3.802   2.772  15.602 -1.4799 -0.9089 -2.2215
 8749SOL     OW37705   2.957   1.043  12.994  0.5586  0.1761 -0.1700
 8749SOL    HW137706   2.952   1.013  12.904 -0.5397  0.1866 -0.1106
 8749SOL    HW237707   3.031   0.992  13.027  2.2271  1.5339 -1.8441
 8750SOL     OW37708   0.021   2.917  16.150  0.5863 -0.2113  0.3535
 8750SOL    HW137709   0.020   2.959  16.064 -0.1066  2.3028  1.5973
 8750SOL    HW237710   4.696   2.985  16.200  1.4843 -0.5136  1.5874
 8751SOL     OW37711   3.428   1.579  12.836  0.1630 -0.3496 -0.2216
 8751SOL    HW137712   3.368   1.547  12.769  3.4630 -1.1852 -2.7319
 8751SOL    HW237713   3.401   1.669  12.851  2.5326  0.4002 -0.4564
 8752SOL     OW37714   2.929   2.094  12.539 -0.0626  0.4152 -0.7340
 8752SOL    HW137715   2.965   2.060  12.457  2.2651  0.4267  0.2759
 8752SOL    HW237716   2.859   2.029  12.548  0.6605 -0.3882 -0.9224
 8753SOL     OW37717   1.834   3.576  11.494  0.0504  0.5899 -0.6197
 8753SOL    HW137718   1.882   3.531  11.424 -0.5403  0.1382 -0.7359
 8753SOL    HW237719   1.836   3.665  11.460  1.3031  0.0812 -1.8497
 8754SOL     OW37720   0.843   1.679  17.365 -0.2692  0.2971  0.7398
 8754SOL    HW137721   0.811   1.634  17.287  0.3371  2.5518 -0.8209
 8754SOL    HW237722   0.757   1.707  17.399 -0.7629  0.6416 -0.7787
 8755SOL     OW37723   1.432   2.249   4.228 -0.2440 -0.3973 -0.2699
 8755SOL    HW137724   1.437   2.169   4.280  0.5638  0.8639  1.5521
 8755SOL    HW237725   1.354   2.228   4.175 -0.4319 -0.2957 -0.0321
 8756SOL     OW37726   0.622   1.227   7.331  0.0614 -0.3356  0.0720
 8756SOL    HW137727   0.690   1.236   7.264 -2.0696  0.1627 -2.0162
 8756SOL    HW237728   0.628   1.304   7.387  2.1246 -0.3764 -0.0733
 8757SOL     OW37729   1.392   4.436   7.428  0.4725  0.5993  0.0561
 8757SOL    HW137730   1.440   4.396   7.355  2.9454 -0.6800  2.4078
 8757SOL    HW237731   1.447   4.408   7.501 -0.4483 -0.6108  0.3015
 8758SOL     OW37732   0.113   3.392   4.763  0.5688  0.3558  0.0810
 8758SOL    HW137733   0.071   3.467   4.719 -1.7157 -1.3620 -0.6907
 8758SOL    HW237734   0.035   3.345   4.793 -0.4958  1.2405 -1.3105
 8759SOL     OW37735   2.222   0.637   3.062 -0.2310 -0.0628  0.3821
 8759SOL    HW137736   2.151   0.700   3.079 -1.3202 -1.0520 -0.4908
 8759SOL    HW237737   2.190   0.559   3.107  0.8077 -0.6324  0.1174
 8760SOL     OW37738   3.531   0.106   0.849  0.3090 -0.3442  0.1879
 8760SOL    HW137739   3.614   0.082   0.891  1.7413  0.6155 -2.0590
 8760SOL    HW237740   3.470   0.073   0.915 -0.8219 -0.2683 -0.8282
 8761SOL     OW37741   1.301   2.458  11.245  0.6494 -0.2620  0.0584
 8761SOL    HW137742   1.235   2.528  11.239  0.6714 -0.0913  1.9215
 8761SOL    HW237743   1.330   2.463  11.154 -1.1312 -0.5090 -0.5246
 8762SOL     OW37744   4.023   2.063   8.121  0.3636  0.4776  0.3054
 8762SOL    HW137745   4.102   2.030   8.079 -0.5198 -0.5870 -0.5018
 8762SOL    HW237746   4.036   2.157   8.110  0.6886  0.5104  0.9661
 8763SOL     OW37747   4.545   4.377   6.869  0.7416  0.3051 -0.2265
 8763SOL    HW137748   4.511   4.391   6.957  3.8619  0.8984  0.8915
 8763SOL    HW237749   4.495   4.430   6.807 -0.6049 -0.9538 -0.2079
 8764SOL     OW37750   4.686   3.735   5.593 -0.1270  0.0816  0.2492
 8764SOL    HW137751   4.671   3.762   5.502  0.2773  2.0966  0.7732
 8764SOL    HW237752   4.699   3.643   5.573  2.8293  0.3727  0.8234
 8765SOL     OW37753   2.115   3.232   8.491 -0.6376 -0.3920 -0.5641
 8765SOL    HW137754   2.159   3.169   8.435  2.6275  1.4831 -0.0809
 8765SOL    HW237755   2.185   3.298   8.490 -2.0740  1.1812  1.2466
 8766SOL     OW37756   1.314   2.934  11.519 -0.0840 -0.4266 -0.7071
 8766SOL    HW137757   1.301   2.840  11.524 -2.1983 -0.0331  1.2463
 8766SOL    HW237758   1.347   2.948  11.608 -0.1592 -0.8356 -0.6170
 8767SOL     OW37759   4.070   1.178   4.955  0.3529 -0.2555 -0.0619
 8767SOL    HW137760   4.040   1.120   4.885 -0.4808 -0.6210  0.6065
 8767SOL    HW237761   3.989   1.215   4.989  0.3472  1.4140 -1.9162
 8768SOL     OW37762   0.681   1.016  10.764 -0.4705  0.0919 -0.0040
 8768SOL    HW137763   0.663   0.984  10.852  0.0608 -2.2651 -0.7359
 8768SOL    HW237764   0.606   0.988  10.711 -0.1004 -1.7105  0.4414
 8769SOL     OW37765   1.298   1.120   1.415 -0.0663  0.0548  0.3442
 8769SOL    HW137766   1.368   1.181   1.440  0.1056  0.7585 -1.8887
 8769SOL    HW237767   1.353   1.042   1.411  1.6939  1.2993  0.0141
 8770SOL     OW37768   0.791   0.362   4.829  0.0285 -0.3790 -0.0810
 8770SOL    HW137769   0.805   0.379   4.736  2.1206 -1.1182  0.0956
 8770SOL    HW237770   0.809   0.448   4.868  1.7104 -0.9595  0.4580
 8771SOL     OW37771   1.168   2.194  14.755  0.3618  0.2195  0.0252
 8771SOL    HW137772   1.139   2.109  14.722  0.1696 -0.0889  0.9810
 8771SOL    HW237773   1.259   2.191  14.785  0.4470 -2.1735 -0.5005
 8772SOL     OW37774   0.846   4.264   1.061 -0.0521  0.4261  0.3249
 8772SOL    HW137775   0.758   4.268   1.099 -0.1306 -0.7622  0.2659
 8772SOL    HW237776   0.818   4.288   0.973 -0.9130  0.5306  0.6151
 8773SOL     OW37777   2.068   3.432   2.483 -0.2396  0.1862 -0.0192
 8773SOL    HW137778   2.006   3.489   2.528  0.5861  0.4674  0.7615
 8773SOL    HW237779   2.030   3.344   2.485  0.9944 -0.3091  1.0708
 8774SOL     OW37780   0.957   2.472   1.673  0.5689 -0.0466  0.3007
 8774SOL    HW137781   0.940   2.394   1.726  1.2347  1.3203  2.5287
 8774SOL    HW237782   0.943   2.539   1.739  0.0420  0.2052 -0.0676
 8775SOL     OW37783   0.623   2.541   7.194  0.3417  0.0454 -0.1708
 8775SOL    HW137784   0.637   2.635   7.188  0.1755 -0.1177 -3.2023
 8775SOL    HW237785   0.570   2.527   7.115 -1.3896 -3.9144  1.6719
 8776SOL     OW37786   2.096   2.461   3.604 -0.3022 -0.5091 -0.3210
 8776SOL    HW137787   2.139   2.497   3.527 -2.9062  1.1048 -1.0218
 8776SOL    HW237788   2.122   2.369   3.596 -0.3364 -0.7079  1.8907
 8777SOL     OW37789   1.658   0.560   5.674 -0.6449  0.3519  0.4177
 8777SOL    HW137790   1.644   0.576   5.581  0.9949  0.2516  0.1481
 8777SOL    HW237791   1.728   0.496   5.667 -0.5292  0.4012  1.1709
 8778SOL     OW37792   0.284   0.756   5.652  0.1187 -0.1497 -0.1401
 8778SOL    HW137793   0.337   0.748   5.731 -0.6845 -0.7658  0.3345
 8778SOL    HW237794   0.220   0.686   5.665  0.9138 -0.4864  1.9904
 8779SOL     OW37795   0.486   1.847   3.956 -0.7339  0.6601 -0.3109
 8779SOL    HW137796   0.420   1.916   3.964  1.0745  2.4824 -0.9489
 8779SOL    HW237797   0.536   1.881   3.882  1.6999 -1.1031  0.5206
 8780SOL     OW37798   1.257   3.503   7.856 -0.3979  0.0481  0.4945
 8780SOL    HW137799   1.340   3.456   7.866 -0.5272 -0.5343 -1.1220
 8780SOL    HW237800   1.296   3.590   7.860  1.8758 -1.0745  2.8499
 8781SOL     OW37801   0.814   1.544   0.427 -0.4476 -0.0226 -0.0021
 8781SOL    HW137802   0.781   1.466   0.383  0.3536 -0.1774 -0.3254
 8781SOL    HW237803   0.890   1.569   0.376 -0.7844 -2.2164 -1.5728
 8782SOL     OW37804   1.169   2.588   6.738  0.1863 -0.3248  0.2330
 8782SOL    HW137805   1.218   2.670   6.735  0.2403 -0.3386  0.9430
 8782SOL    HW237806   1.088   2.617   6.780 -0.2382 -0.9025 -0.1891
 8783SOL     OW37807   2.678   4.355  17.238 -0.2810  0.0456 -0.4663
 8783SOL    HW137808   2.674   4.261  17.257  1.0751  0.4682  1.7858
 8783SOL    HW237809   2.590   4.353  17.199 -0.2868  1.2626 -0.4915
 8784SOL     OW37810   2.078   3.477  10.752 -0.0765  0.0644  0.0940
 8784SOL    HW137811   2.004   3.441  10.800  0.1721 -2.2870 -1.2845
 8784SOL    HW237812   2.147   3.411  10.756  2.7595  3.2152  3.4663
 8785SOL     OW37813   0.964   2.434   2.341 -0.3738 -0.1537 -0.2254
 8785SOL    HW137814   1.036   2.429   2.278 -2.5116  0.8625 -2.7856
 8785SOL    HW237815   0.973   2.526   2.366  2.1421 -0.4053 -0.2956
 8786SOL     OW37816   1.925   3.519  16.807 -0.0521  0.1044 -0.3407
 8786SOL    HW137817   1.968   3.435  16.823 -0.5756 -0.2863 -0.9799
 8786SOL    HW237818   1.900   3.497  16.717  0.7082  1.0247 -0.7668
 8787SOL     OW37819   2.755   3.843   8.579 -0.0750  0.4676 -0.2961
 8787SOL    HW137820   2.773   3.852   8.485 -0.3447 -2.1565 -0.6060
 8787SOL    HW237821   2.814   3.914   8.603  1.7565 -0.9858 -0.4600
 8788SOL     OW37822   2.709   3.441   8.428  0.2082  0.4605 -0.2355
 8788SOL    HW137823   2.667   3.395   8.500 -2.2521  0.9441 -1.3169
 8788SOL    HW237824   2.656   3.522   8.423  0.2071  0.4371 -0.5890
 8789SOL     OW37825   1.651   4.323   1.779  0.2140 -0.3243  0.1629
 8789SOL    HW137826   1.657   4.417   1.769 -0.4169 -0.5353 -2.1201
 8789SOL    HW237827   1.742   4.293   1.773  0.0208 -0.2623 -2.7791
 8790SOL     OW37828   0.705   2.972   4.061  0.2263  0.2498 -0.3636
 8790SOL    HW137829   0.694   3.040   4.127  2.0425 -0.3585  0.5590
 8790SOL    HW237830   0.647   2.903   4.095 -0.6739  0.6735 -1.0323
 8791SOL     OW37831   1.198   4.126   6.156 -0.0801 -0.7038  0.3366
 8791SOL    HW137832   1.233   4.042   6.186 -0.1497 -1.4478 -1.6491
 8791SOL    HW237833   1.109   4.090   6.156  0.1674 -1.3250 -0.9058
 8792SOL     OW37834   1.616   1.482  16.339 -0.2590  0.5070  0.0194
 8792SOL    HW137835   1.560   1.553  16.371  1.0087  2.7301 -2.7006
 8792SOL    HW237836   1.586   1.410  16.395  0.4030 -0.2236 -0.5533
 8793SOL     OW37837   4.157   2.866  15.181 -0.3290 -0.2727 -0.9868
 8793SOL    HW137838   4.105   2.947  15.186 -0.6660 -0.6350  1.2497
 8793SOL    HW237839   4.085   2.805  15.164  0.5094 -0.9406 -2.1796
 8794SOL     OW37840   2.293   2.697   9.485  0.5140 -0.0019  0.3288
 8794SOL    HW137841   2.299   2.615   9.534 -1.3177 -0.0808  0.4191
 8794SOL    HW237842   2.197   2.703   9.489  0.4563 -0.9502  0.4161
 8795SOL     OW37843   0.294   4.175   5.981  0.7670 -0.0535  0.8285
 8795SOL    HW137844   0.344   4.253   5.956  1.3857 -0.8687 -0.4887
 8795SOL    HW237845   0.338   4.109   5.926 -0.8665 -1.4506  1.2192
 8796SOL     OW37846   0.096   1.563   5.916 -0.3268  0.1409  0.7237
 8796SOL    HW137847   0.044   1.623   5.864  1.2363  0.3861 -0.5313
 8796SOL    HW237848   0.055   1.479   5.894  0.2090 -0.2674  1.2970
 8797SOL     OW37849   4.227   1.839   4.261  0.2397  0.0135 -0.5167
 8797SOL    HW137850   4.229   1.901   4.334 -0.1344  1.8632 -2.0524
 8797SOL    HW237851   4.146   1.798   4.289  0.7109 -0.2524  0.4672
 8798SOL     OW37852   3.803   4.113  16.489  0.2686  0.3154  0.0118
 8798SOL    HW137853   3.818   4.147  16.577  0.5564 -0.0895  0.1209
 8798SOL    HW237854   3.802   4.194  16.439 -1.5410 -0.4386 -1.1645
 8799SOL     OW37855   4.514   1.848  15.151 -0.3422 -1.0731 -0.3713
 8799SOL    HW137856   4.577   1.910  15.187  0.1192 -0.7772 -1.7108
 8799SOL    HW237857   4.449   1.917  15.133 -0.7898 -1.5336 -0.5225
 8800SOL     OW37858   3.924   0.648   0.878 -0.5707 -0.2543 -0.8668
 8800SOL    HW137859   3.867   0.631   0.803 -1.1472 -1.1421 -0.2175
 8800SOL    HW237860   3.860   0.691   0.935 -1.6169  0.4995 -2.6155
 8801SOL     OW37861   1.304   4.530  10.485 -0.1440 -0.0496  0.4758
 8801SOL    HW137862   1.378   4.535  10.424 -0.0847  0.3988  0.5831
 8801SOL    HW237863   1.339   4.459  10.539 -1.4515 -0.1357  1.1951
 8802SOL     OW37864   3.813   4.288   7.153  0.4216  0.1325 -0.1927
 8802SOL    HW137865   3.859   4.369   7.177  2.6522 -1.1274 -0.2018
 8802SOL    HW237866   3.892   4.240   7.128 -0.8722 -1.6072 -0.9367
 8803SOL     OW37867   1.607   1.776  16.259  0.2819  0.6282  0.0970
 8803SOL    HW137868   1.652   1.733  16.187  0.5300  0.8529  0.1160
 8803SOL    HW237869   1.679   1.797  16.319  0.9321 -0.2729 -0.3668
 8804SOL     OW37870   4.591   2.382  10.293 -0.2745  0.5178 -0.1973
 8804SOL    HW137871   4.507   2.395  10.249 -0.3778  1.5317  0.3018
 8804SOL    HW237872   4.625   2.471  10.284 -2.3019  1.1365 -1.7801
 8805SOL     OW37873   0.960   0.413   5.795 -0.5597 -0.1694 -0.2076
 8805SOL    HW137874   1.018   0.486   5.814 -0.8260  0.4557 -1.8672
 8805SOL    HW237875   1.024   0.351   5.759 -0.8631 -1.4182  1.3764
 8806SOL     OW37876   3.009   2.743  17.286 -0.3511  0.4473 -0.5377
 8806SOL    HW137877   3.066   2.806  17.240 -0.1081  1.3108  0.9528
 8806SOL    HW237878   3.065   2.666  17.292 -1.9117 -0.5340  1.2910
 8807SOL     OW37879   4.265   2.797   6.130 -0.4644  0.2215 -0.5276
 8807SOL    HW137880   4.274   2.892   6.120 -2.6015  0.6399  1.7072
 8807SOL    HW237881   4.358   2.774   6.126 -0.9961 -1.5669 -3.0560
 8808SOL     OW37882   4.453   0.238  17.307  0.3223 -0.0576  0.1939
 8808SOL    HW137883   4.442   0.258  17.400  0.3580  1.0523 -0.0304
 8808SOL    HW237884   4.366   0.202  17.287  0.3381  0.1353 -0.2274
 8809SOL     OW37885   0.543   2.076   7.277 -0.6517 -0.1728  0.3549
 8809SOL    HW137886   0.585   1.998   7.313  2.1565  1.6032  0.9432
 8809SOL    HW237887   0.615   2.137   7.295  0.6862 -1.2128 -1.3827
 8810SOL     OW37888   0.522   1.797  15.805  0.5914  0.1277 -0.3524
 8810SOL    HW137889   0.537   1.710  15.841  1.4312 -0.5014 -2.2544
 8810SOL    HW237890   0.427   1.807  15.810  0.3605 -2.5695  0.6835
 8811SOL     OW37891   0.643   0.698  11.819 -0.5059 -0.1247 -1.1295
 8811SOL    HW137892   0.718   0.640  11.834 -1.1839 -0.5936  0.4265
 8811SOL    HW237893   0.599   0.712  11.902 -0.6637 -0.1088 -1.2153
 8812SOL     OW37894   0.959   4.660  12.901 -0.0984  0.5862  0.3800
 8812SOL    HW137895   1.046   4.651  12.861  0.0506 -0.5831  0.9677
 8812SOL    HW237896   0.898   4.606  12.851 -0.4168  0.3749  1.0005
 8813SOL     OW37897   4.122   1.603  15.006  0.1065 -0.1442 -0.3772
 8813SOL    HW137898   4.154   1.658  15.077 -1.5576  1.8321 -1.1753
 8813SOL    HW237899   4.080   1.668  14.950  0.1330 -1.0086 -1.4118
 8814SOL     OW37900   1.951   0.283  16.861 -0.2475 -0.5097  0.0450
 8814SOL    HW137901   1.889   0.210  16.859 -0.4688 -0.3117 -0.4620
 8814SOL    HW237902   2.016   0.233  16.812 -0.4458  0.1878 -0.9509
 8815SOL     OW37903   1.059   2.013   5.119  0.4107 -0.3986 -0.1364
 8815SOL    HW137904   1.115   2.065   5.177 -0.3887 -0.8675  1.0490
 8815SOL    HW237905   0.996   1.987   5.186  0.6832  0.1197  0.3303
 8816SOL     OW37906   4.114   2.265  10.548  0.4860 -0.0854 -0.2875
 8816SOL    HW137907   4.077   2.353  10.538 -2.6702 -0.9547  3.8526
 8816SOL    HW237908   4.153   2.276  10.634  2.6689 -1.7830 -1.0725
 8817SOL     OW37909   2.592   2.258   3.034  0.0788 -0.1058 -0.2673
 8817SOL    HW137910   2.636   2.259   3.119 -0.4935  0.5671  0.0269
 8817SOL    HW237911   2.633   2.180   2.997 -0.6687 -0.6179 -0.0383
 8818SOL     OW37912   2.643   4.092  17.242 -0.0507  0.0357 -0.2526
 8818SOL    HW137913   2.614   4.006  17.275 -0.3854 -0.0869 -0.8630
 8818SOL    HW237914   2.638   4.073  17.149  0.4223  0.9247 -0.4558
 8819SOL     OW37915   1.888   0.686   5.298 -0.6301  0.1540  0.2361
 8819SOL    HW137916   1.853   0.613   5.246 -1.1220  0.6863 -0.1752
 8819SOL    HW237917   1.877   0.760   5.238  2.2497 -1.4401 -2.2529
 8820SOL     OW37918   1.801   3.623   4.547 -0.6254 -0.0407 -0.9636
 8820SOL    HW137919   1.756   3.634   4.631 -2.2461  0.1946 -1.8632
 8820SOL    HW237920   1.740   3.574   4.493 -1.9125  1.3137 -0.7557
 8821SOL     OW37921   3.635   3.865  16.495  0.0096 -0.1705 -0.3104
 8821SOL    HW137922   3.713   3.921  16.496 -0.8799  1.0588  0.1384
 8821SOL    HW237923   3.646   3.834  16.405  0.1048 -0.6511 -0.1360
 8822SOL     OW37924   0.481   1.126   0.704 -0.0982 -0.6977  0.1055
 8822SOL    HW137925   0.567   1.085   0.692 -0.8506 -2.0142 -0.7068
 8822SOL    HW237926   0.486   1.187   0.631 -0.4078 -2.7126 -1.6002
 8823SOL     OW37927   1.752   2.309  12.896 -0.3606  0.4400  0.2485
 8823SOL    HW137928   1.701   2.305  12.977  0.9152  0.9480  1.0816
 8823SOL    HW237929   1.733   2.398  12.867  0.3193  0.7386  0.7292
 8824SOL     OW37930   4.173   2.749   2.683  0.2120  0.0889 -0.6465
 8824SOL    HW137931   4.245   2.809   2.703 -0.2634  0.2924  0.4804
 8824SOL    HW237932   4.105   2.810   2.653 -0.1901 -0.7407 -1.4227
 8825SOL     OW37933   3.508   4.538   9.580 -0.3876 -0.0647  0.0572
 8825SOL    HW137934   3.517   4.457   9.630  4.0480 -0.0841 -0.8099
 8825SOL    HW237935   3.487   4.505   9.492  1.7328  2.1688 -1.2661
 8826SOL     OW37936   1.503   0.210  15.967  0.3452 -0.2075  0.1297
 8826SOL    HW137937   1.537   0.146  16.029  0.5620 -0.6136 -0.4011
 8826SOL    HW237938   1.472   0.147  15.901  0.0238  0.0596  0.0237
 8827SOL     OW37939   2.215   1.894   8.597  0.1298  0.0762 -0.2407
 8827SOL    HW137940   2.168   1.962   8.549 -0.5124 -0.4630 -0.3811
 8827SOL    HW237941   2.256   1.952   8.660  0.5974 -1.3611  0.7721
 8828SOL     OW37942   2.600   4.160  11.114 -0.3618  0.4281  0.0971
 8828SOL    HW137943   2.531   4.146  11.178  0.1809  1.1404  0.8364
 8828SOL    HW237944   2.618   4.251  11.135 -2.1237 -0.0178  3.4969
 8829SOL     OW37945   1.325   0.881   1.958 -0.3381  0.9285  0.7718
 8829SOL    HW137946   1.245   0.931   1.941  0.2327  1.4705 -0.3720
 8829SOL    HW237947   1.301   0.796   1.922  1.9779  0.7288 -0.2913
 8830SOL     OW37948   3.676   2.364   7.370  0.1419  0.0074  0.3812
 8830SOL    HW137949   3.615   2.424   7.411 -0.2873 -0.7065  0.7952
 8830SOL    HW237950   3.694   2.404   7.285 -0.7153  0.5070  0.4411
 8831SOL     OW37951   0.859   2.766  10.716  0.3547 -0.0000  0.3583
 8831SOL    HW137952   0.773   2.763  10.757  0.4821 -0.8385  0.5583
 8831SOL    HW237953   0.839   2.769  10.622  0.4896  2.0689  0.3779
 8832SOL     OW37954   4.090   4.166   5.579 -0.4562  0.0247 -0.1672
 8832SOL    HW137955   4.129   4.178   5.493  1.5856 -1.6354  0.5408
 8832SOL    HW237956   3.999   4.143   5.557 -0.4104 -0.2156 -0.0993
 8833SOL     OW37957   1.437   3.928   4.884 -0.1168 -0.1035 -0.3904
 8833SOL    HW137958   1.465   3.863   4.949 -0.4417  0.0838 -0.0631
 8833SOL    HW237959   1.508   3.992   4.880  1.6624 -2.0340 -0.0861
 8834SOL     OW37960   0.655   4.247   2.431  0.5683 -0.0110  0.0256
 8834SOL    HW137961   0.567   4.225   2.402  1.8288 -0.7446 -3.1872
 8834SOL    HW237962   0.659   4.196   2.512  0.7438 -0.8978 -0.5409
 8835SOL     OW37963   2.801   2.009   8.171  0.1858 -0.4392 -0.3506
 8835SOL    HW137964   2.722   2.045   8.129  2.2463  3.1796 -1.1274
 8835SOL    HW237965   2.810   1.928   8.121 -1.4191 -1.1554  0.5400
 8836SOL     OW37966   2.631   3.382   6.675 -0.3147  0.5925  0.4725
 8836SOL    HW137967   2.628   3.477   6.669  0.2677  0.4920 -1.5939
 8836SOL    HW237968   2.573   3.347   6.607  0.4839 -0.3753  0.2880
 8837SOL     OW37969   3.594   4.091   2.205 -0.1671 -0.6118  0.2455
 8837SOL    HW137970   3.556   4.003   2.217  0.6229 -0.8563  0.9218
 8837SOL    HW237971   3.642   4.104   2.286  1.1949 -0.8601 -0.5174
 8838SOL     OW37972   2.209   3.353   1.888  0.1422  0.0063  0.1231
 8838SOL    HW137973   2.173   3.291   1.951  1.2735  1.4966  2.2335
 8838SOL    HW237974   2.168   3.324   1.807  0.1111 -0.4896  0.3166
 8839SOL     OW37975   0.171   4.309   4.356 -0.2619 -0.1822  0.0422
 8839SOL    HW137976   0.199   4.218   4.342 -1.5001 -0.1788 -2.3210
 8839SOL    HW237977   0.145   4.308   4.449 -1.6359 -0.0428 -0.3459
 8840SOL     OW37978   2.906   4.566   1.953 -0.2553 -0.0797 -0.3505
 8840SOL    HW137979   2.838   4.507   1.920  2.1823 -1.7513 -2.3062
 8840SOL    HW237980   2.937   4.601   1.870  0.8920 -1.1752 -0.3791
 8841SOL     OW37981   0.813   1.053   6.235 -0.2504 -0.0084  0.1751
 8841SOL    HW137982   0.814   0.958   6.250 -0.8568 -0.3023 -1.6987
 8841SOL    HW237983   0.766   1.083   6.313 -2.0338 -1.5396 -0.2960
 8842SOL     OW37984   1.297   1.039  13.977  0.3517 -0.3410 -0.3912
 8842SOL    HW137985   1.290   0.961  13.921 -2.5180  0.5608 -1.2681
 8842SOL    HW237986   1.312   1.004  14.065 -2.1501  1.2772  0.6434
 8843SOL     OW37987   2.670   1.206  10.080  0.0884  0.0542 -0.0594
 8843SOL    HW137988   2.683   1.294  10.115 -0.4426  0.5715 -1.1488
 8843SOL    HW237989   2.759   1.177  10.101  0.4377 -0.6660 -2.5872
 8844SOL     OW37990   3.133   3.446   4.474 -0.0200  0.2192 -0.6029
 8844SOL    HW137991   3.188   3.369   4.461 -0.8467 -0.3875 -0.4775
 8844SOL    HW237992   3.139   3.465   4.568  1.4162  2.6073 -1.1836
 8845SOL     OW37993   1.556   4.592   2.299  0.5307  0.1680 -0.0526
 8845SOL    HW137994   1.522   4.680   2.316 -1.9467 -1.0064  1.0380
 8845SOL    HW237995   1.627   4.611   2.237  0.4716 -0.2037 -0.2348
 8846SOL     OW37996   1.570   4.043  14.085  0.0855  0.3133 -0.1552
 8846SOL    HW137997   1.510   4.047  14.160 -0.7245  1.6229 -0.8594
 8846SOL    HW237998   1.657   4.063  14.118  0.6283 -1.4960 -0.5039
 8847SOL     OW37999   2.655   0.622   1.400  0.7358  0.3780  0.2238
 8847SOL    HW138000   2.613   0.561   1.460 -0.0596  1.7375  1.0506
 8847SOL    HW238001   2.669   0.574   1.318 -2.5093  0.2234 -0.2416
 8848SOL     OW38002   1.807   1.634  14.929  0.1383  0.4536 -0.5365
 8848SOL    HW138003   1.885   1.638  14.983  0.0926 -0.4223 -0.4062
 8848SOL    HW238004   1.743   1.581  14.976 -0.6809  0.6493 -1.4354
 8849SOL     OW38005   1.951   1.080  17.540  0.2050 -0.4487 -0.0446
 8849SOL    HW138006   1.948   1.174  17.525  1.4158 -0.1683  1.4438
 8849SOL    HW238007   2.044   1.060  17.543  0.4069  0.6008  0.3986
 8850SOL     OW38008   1.227   3.691   2.668  0.2098 -0.4287 -0.1955
 8850SOL    HW138009   1.315   3.658   2.652  0.6247 -0.9065  2.9691
 8850SOL    HW238010   1.240   3.780   2.636 -0.2210 -0.0390  0.6837
 8851SOL     OW38011   0.759   3.178   4.837  0.1055 -0.2529  0.3335
 8851SOL    HW138012   0.741   3.093   4.796  1.9776 -1.1247  1.3335
 8851SOL    HW238013   0.675   3.214   4.867  0.4617  0.1708  0.8088
 8852SOL     OW38014   1.352   4.293   4.634  0.1188  0.0784  0.0149
 8852SOL    HW138015   1.288   4.250   4.578  0.8059 -1.4154  0.3794
 8852SOL    HW238016   1.317   4.382   4.626 -0.7087 -0.1917  0.5076
 8853SOL     OW38017   2.627   0.910  11.969 -0.1625  0.6524 -0.0547
 8853SOL    HW138018   2.592   0.987  12.014  0.4058  0.0305  1.4632
 8853SOL    HW238019   2.698   0.940  11.912 -1.2647 -0.9928 -2.2842
 8854SOL     OW38020   3.641   0.632   5.356 -0.1066  0.6038 -0.2624
 8854SOL    HW138021   3.667   0.567   5.290 -0.6123  0.7076 -0.5695
 8854SOL    HW238022   3.695   0.618   5.433 -2.8921 -0.8206  1.4524
 8855SOL     OW38023   2.240   2.469  15.328  0.2995  0.2590  0.0974
 8855SOL    HW138024   2.232   2.439  15.419  3.2976 -3.1730 -0.8122
 8855SOL    HW238025   2.150   2.447  15.302 -0.7484  3.1997  1.1586
 8856SOL     OW38026   3.053   0.643  13.183 -0.1012 -0.5429 -0.2629
 8856SOL    HW138027   3.146   0.666  13.188  0.0484 -1.7344  2.2785
 8856SOL    HW238028   3.031   0.688  13.101  2.2906  0.7993 -0.1846
 8857SOL     OW38029   4.295   2.041  17.439  0.0541 -0.1535 -0.4873
 8857SOL    HW138030   4.331   2.121  17.401  0.1662  0.6394  1.2816
 8857SOL    HW238031   4.208   2.045  17.399  0.3833 -0.1980 -1.2081
 8858SOL     OW38032   0.494   0.671   3.338 -0.7420 -0.1338 -0.0967
 8858SOL    HW138033   0.459   0.723   3.411 -1.5495  1.2962 -1.5017
 8858SOL    HW238034   0.582   0.663   3.376 -1.1081 -0.8934  0.5825
 8859SOL     OW38035   3.011   3.116   0.341 -0.2483 -0.3539 -0.3966
 8859SOL    HW138036   3.075   3.116   0.413 -1.0481  0.0346  0.3210
 8859SOL    HW238037   2.957   3.046   0.379 -0.0568  0.6401  1.7035
 8860SOL     OW38038   1.516   4.658  16.949 -0.1782  0.3336 -0.0539
 8860SOL    HW138039   1.466   4.697  17.020 -2.0613  1.7791 -2.1928
 8860SOL    HW238040   1.469   4.687  16.871  3.3936  1.9800 -1.6283
 8861SOL     OW38041   4.019   4.479   3.223  1.0335 -0.1563  0.3482
 8861SOL    HW138042   3.948   4.466   3.285  0.6266 -0.5312 -0.1921
 8861SOL    HW238043   4.020   4.389   3.190 -1.7651 -0.8268  2.0911
 8862SOL     OW38044   3.651   4.238   3.538  0.4995 -0.0138 -0.2518
 8862SOL    HW138045   3.740   4.205   3.523  1.0969  0.2820  2.5406
 8862SOL    HW238046   3.666   4.261   3.630 -1.2671 -0.1573  0.0755
 8863SOL     OW38047   0.515   2.906   7.561 -0.0016  0.1723 -0.1190
 8863SOL    HW138048   0.466   2.971   7.611 -0.1510 -0.4337  0.5219
 8863SOL    HW238049   0.579   2.889   7.630  0.9202 -0.0668 -1.0295
 8864SOL     OW38050   2.437   2.650   8.505  0.0021 -0.3750  0.5694
 8864SOL    HW138051   2.497   2.655   8.579  1.0017  1.0342 -0.3229
 8864SOL    HW238052   2.362   2.691   8.550  0.1950  0.8915 -0.2393
 8865SOL     OW38053   1.496   1.024  16.764 -0.7392  0.1487 -0.0537
 8865SOL    HW138054   1.463   1.059  16.681 -2.2409  0.7257  0.8059
 8865SOL    HW238055   1.556   0.962  16.722 -0.7889  0.2481 -0.2722
 8866SOL     OW38056   4.139   0.068  12.356 -0.4551 -0.4603 -0.0149
 8866SOL    HW138057   4.130   0.124  12.279 -3.0532  1.6730  1.8124
 8866SOL    HW238058   4.073   0.003  12.331  1.2773 -2.1338 -0.2036
 8867SOL     OW38059   2.942   3.637   3.485 -0.0627  0.0505 -0.0948
 8867SOL    HW138060   2.994   3.595   3.417 -1.9039  0.1131 -1.5432
 8867SOL    HW238061   2.876   3.678   3.429 -0.0776  1.2022  0.7615
 8868SOL     OW38062   3.634   3.082   2.964  0.1289  0.4594 -0.4918
 8868SOL    HW138063   3.553   3.121   2.997  0.4648  1.3162 -0.6908
 8868SOL    HW238064   3.613   2.996   2.927  0.0914 -0.6049  1.9596
 8869SOL     OW38065   4.520   3.531   2.309 -0.5429  0.3944  0.1811
 8869SOL    HW138066   4.440   3.506   2.355 -0.9230 -0.6523 -1.0482
 8869SOL    HW238067   4.483   3.583   2.238 -0.3227  1.1382  0.6134
 8870SOL     OW38068   2.115   1.492   4.202 -0.2091 -0.4949 -0.0415
 8870SOL    HW138069   2.062   1.548   4.259 -0.4151  0.4664 -1.2055
 8870SOL    HW238070   2.055   1.436   4.154  0.0098 -0.9104  0.1662
 8871SOL     OW38071   0.160   2.014   1.898  0.4058 -0.0312  0.0143
 8871SOL    HW138072   0.150   2.013   1.803  1.3576 -1.9811 -0.0641
 8871SOL    HW238073   0.095   1.948   1.921 -0.0373  0.4462  0.1333
 8872SOL     OW38074   1.625   2.714   1.155  0.1325  0.3304  0.4662
 8872SOL    HW138075   1.532   2.725   1.133  0.5260  0.5915 -1.0325
 8872SOL    HW238076   1.644   2.766   1.234  0.8408  1.2830 -0.3423
 8873SOL     OW38077   0.562   1.901  17.008  0.4045 -0.0235  0.3268
 8873SOL    HW138078   0.502   1.876  17.078  0.0869  0.7091  0.3236
 8873SOL    HW238079   0.586   1.818  16.967 -0.6585  0.0351 -0.4186
 8874SOL     OW38080   3.651   3.719   8.322 -0.3338  0.8665 -0.3910
 8874SOL    HW138081   3.571   3.671   8.341 -1.2660  3.0532  1.1577
 8874SOL    HW238082   3.684   3.748   8.407  2.0492 -0.5063 -0.8372
 8875SOL     OW38083   1.949   3.806   5.998 -0.2404 -0.0168  0.5406
 8875SOL    HW138084   1.902   3.798   5.915 -0.4473  2.3858  0.4337
 8875SOL    HW238085   2.013   3.868   5.966  0.5080 -0.9762  0.1804
 8876SOL     OW38086   0.533   4.023  15.222 -0.0884  0.3186  0.0883
 8876SOL    HW138087   0.616   4.066  15.243 -0.4781 -0.1869  2.7340
 8876SOL    HW238088   0.486   4.027  15.306 -0.9771 -0.6370 -0.3587
 8877SOL     OW38089   1.532   1.272  13.731  0.3434  0.6823 -0.5566
 8877SOL    HW138090   1.462   1.338  13.730 -1.8181 -1.6225 -1.7245
 8877SOL    HW238091   1.493   1.207  13.672  1.9501  0.7987 -1.7358
 8878SOL     OW38092   3.721   1.805   9.887 -0.0798  0.2017  0.0944
 8878SOL    HW138093   3.636   1.794   9.930 -0.3702  1.2400 -0.2047
 8878SOL    HW238094   3.755   1.881   9.936 -0.0443  0.5466 -0.4676
 8879SOL     OW38095   1.932   2.350   4.187 -0.1751  0.7885  0.3544
 8879SOL    HW138096   1.875   2.306   4.124  0.9467  1.4186 -1.0900
 8879SOL    HW238097   2.004   2.291   4.208 -0.5603 -0.4889 -1.9784
 8880SOL     OW38098   0.065   0.851   8.577  0.0764 -0.1962 -0.4573
 8880SOL    HW138099   4.716   0.915   8.559  0.2830  0.6445  1.7468
 8880SOL    HW238100   0.024   0.765   8.569  2.7457 -1.4014 -0.8590
 8881SOL     OW38101   0.186   2.430   6.437  0.3041 -0.2982  0.0250
 8881SOL    HW138102   0.101   2.427   6.481 -0.5813 -0.9029 -1.7356
 8881SOL    HW238103   0.238   2.430   6.518 -0.4324  1.3148  0.4808
 8882SOL     OW38104   2.415   3.160  16.484  0.4192  0.4854 -0.1223
 8882SOL    HW138105   2.342   3.221  16.495  0.5121  0.4530  0.6913
 8882SOL    HW238106   2.468   3.188  16.559 -0.3924  0.8604  0.3138
 8883SOL     OW38107   3.005   3.001   4.914  0.0187 -0.1638 -0.1470
 8883SOL    HW138108   2.990   2.959   4.830  0.5093 -0.2965 -0.1659
 8883SOL    HW238109   3.093   3.037   4.902  0.4568 -1.1436  0.0876
 8884SOL     OW38110   1.750   1.970   6.407 -0.2172 -0.1385  0.2890
 8884SOL    HW138111   1.826   2.022   6.379  1.4631 -2.0634  1.2845
 8884SOL    HW238112   1.784   1.895   6.455  1.1345  0.8192  0.8398
 8885SOL     OW38113   4.110   1.809  12.870  0.4036  0.5098 -0.1594
 8885SOL    HW138114   4.081   1.833  12.958  1.6745  1.8281 -0.0961
 8885SOL    HW238115   4.024   1.776  12.846 -0.2136  0.9772  1.3942
 8886SOL     OW38116   2.790   1.858   5.340  0.0791  0.3891  0.1135
 8886SOL    HW138117   2.772   1.926   5.275 -0.8566  0.5582  0.5505
 8886SOL    HW238118   2.725   1.793   5.312  0.5775  0.4872 -1.2877
 8887SOL     OW38119   2.005   3.670   4.724 -0.7571 -0.2395  0.1763
 8887SOL    HW138120   2.074   3.687   4.660 -0.7454  0.9766  0.5188
 8887SOL    HW238121   1.925   3.659   4.671 -2.0717  1.2778  1.8551
 8888SOL     OW38122   3.197   0.985  15.736 -0.1112 -0.1175 -0.0874
 8888SOL    HW138123   3.143   1.055  15.772  0.8657  1.1069 -0.9926
 8888SOL    HW238124   3.252   0.969  15.813 -0.0433 -1.3679 -0.3997
 8889SOL     OW38125   2.287   4.160   9.530  0.2155 -0.1588  0.0968
 8889SOL    HW138126   2.336   4.239   9.506  1.6223 -1.4978 -1.3624
 8889SOL    HW238127   2.346   4.091   9.500 -0.2976 -0.5784  0.0568
 8890SOL     OW38128   3.195   1.544   3.337 -0.0886  0.3157 -0.6291
 8890SOL    HW138129   3.103   1.571   3.333 -1.2564 -3.8042 -1.7083
 8890SOL    HW238130   3.237   1.629   3.329 -2.4936  1.5541  0.0007
 8891SOL     OW38131   1.634   2.074   4.502  0.4110 -0.6109 -0.1149
 8891SOL    HW138132   1.549   2.036   4.521  0.8592 -0.8733  1.3412
 8891SOL    HW238133   1.675   1.988   4.507 -0.0737 -0.7628  1.1293
 8892SOL     OW38134   4.626   1.464  14.514  0.2473  0.0305  0.3757
 8892SOL    HW138135   4.622   1.404  14.440  0.8653  0.5535 -0.0757
 8892SOL    HW238136   0.000   1.459  14.531  0.7072 -0.1321 -2.2932
 8893SOL     OW38137   3.452   1.263   3.741  0.7748  0.1547  0.7608
 8893SOL    HW138138   3.404   1.341   3.768 -1.2137 -0.9780  0.5101
 8893SOL    HW238139   3.461   1.280   3.647 -1.6340  0.7281  0.6192
 8894SOL     OW38140   3.749   4.553   5.354  0.2625 -0.0917  0.4971
 8894SOL    HW138141   3.777   4.644   5.365 -0.2485  0.2203 -0.7274
 8894SOL    HW238142   3.777   4.525   5.441 -0.4838 -2.6325 -0.0699
 8895SOL     OW38143   0.410   3.656   7.845 -0.7246  0.1743 -0.3357
 8895SOL    HW138144   0.335   3.638   7.789 -0.2393 -1.4808 -0.4684
 8895SOL    HW238145   0.377   3.668   7.935  0.1387 -2.3835  0.3308
 8896SOL     OW38146   3.201   0.514   6.085 -0.4514 -0.5743  0.4305
 8896SOL    HW138147   3.232   0.496   5.996  0.4247  0.9242  0.4380
 8896SOL    HW238148   3.237   0.600   6.104  1.6577 -1.1357 -1.0522
 8897SOL     OW38149   1.422   3.756   9.701  0.4973  0.0421 -0.7348
 8897SOL    HW138150   1.457   3.707   9.627  1.5298 -1.3140  0.6439
 8897SOL    HW238151   1.327   3.751   9.693  0.4336 -3.2043  1.8921
 8898SOL     OW38152   1.630   2.827   1.687  0.0727  0.0553 -0.2033
 8898SOL    HW138153   1.567   2.755   1.683 -3.1705  2.8809 -0.1027
 8898SOL    HW238154   1.644   2.849   1.595  2.0178 -0.2681  0.0049
 8899SOL     OW38155   4.363   0.012   6.072  0.3542 -0.4342 -0.3450
 8899SOL    HW138156   4.453   0.046   6.072 -0.1492  0.8968 -0.4750
 8899SOL    HW238157   4.348   4.712   6.164  0.6127  1.3428  0.0905
 8900SOL     OW38158   0.472   1.020   5.985 -0.3112 -0.5756  0.0983
 8900SOL    HW138159   0.563   0.996   5.970  0.5729  0.2052  4.2603
 8900SOL    HW238160   0.457   1.049   5.895 -2.0315 -1.4073  0.1172
 8901SOL     OW38161   2.506   3.785   8.915  0.1571 -0.1558  0.4430
 8901SOL    HW138162   2.487   3.806   9.007  0.3227 -4.7625  1.5532
 8901SOL    HW238163   2.593   3.825   8.908 -0.2701  0.6291 -0.2459
 8902SOL     OW38164   2.944   2.948   4.600  0.6676 -0.8404  0.0517
 8902SOL    HW138165   3.007   3.000   4.550  1.0280 -0.2243  1.1279
 8902SOL    HW238166   2.861   2.995   4.593  1.1215 -0.3033 -1.7348
 8903SOL     OW38167   2.502   2.808   3.598 -0.2247  0.1046  0.2842
 8903SOL    HW138168   2.574   2.866   3.573 -0.2248  0.3498  0.8485
 8903SOL    HW238169   2.503   2.833   3.690  2.6324 -1.6646  0.7215
 8904SOL     OW38170   4.056   1.938   1.038 -0.4743  0.1824 -0.4525
 8904SOL    HW138171   4.091   1.909   1.122 -0.3825  0.7580 -0.2926
 8904SOL    HW238172   3.963   1.930   1.059 -0.1275  0.4155  1.1697
 8905SOL     OW38173   2.346   4.508   7.632  0.2311  0.1295 -0.1692
 8905SOL    HW138174   2.301   4.429   7.661  2.6913 -0.1857  2.7203
 8905SOL    HW238175   2.421   4.522   7.690  0.3853  1.4294 -0.6703
 8906SOL     OW38176   4.589   0.533   7.567  0.7928 -0.5240 -0.3319
 8906SOL    HW138177   4.524   0.488   7.620  0.3697 -1.1079 -1.3383
 8906SOL    HW238178   4.613   0.608   7.622 -0.7617  0.3288 -0.8285
 8907SOL     OW38179   3.978   0.645   2.119 -0.8155 -0.1427  0.8143
 8907SOL    HW138180   4.066   0.607   2.113 -0.5919  0.7269 -1.4179
 8907SOL    HW238181   4.003   0.734   2.145 -1.6069  0.0126  1.0258
 8908SOL     OW38182   0.207   3.899   8.037 -0.3234  0.7430 -0.0534
 8908SOL    HW138183   0.248   3.954   7.970 -2.5903  1.6235 -0.7270
 8908SOL    HW238184   0.118   3.935   8.034 -1.0444 -1.1155 -0.7307
 8909SOL     OW38185   1.158   4.397   7.812 -0.6455 -0.2179 -0.2745
 8909SOL    HW138186   1.213   4.328   7.849 -0.6936  1.3518  2.6714
 8909SOL    HW238187   1.143   4.454   7.886  2.1678  1.4820 -1.0156
 8910SOL     OW38188   1.645   3.283   9.105  0.0876  0.3722 -0.5197
 8910SOL    HW138189   1.694   3.218   9.157  1.4562 -1.7926 -4.5105
 8910SOL    HW238190   1.713   3.301   9.040  0.2963  0.4406 -0.2828
 8911SOL     OW38191   1.977   3.112   2.772 -0.1696 -0.0760 -0.2446
 8911SOL    HW138192   2.056   3.166   2.768 -0.6111  0.5141 -1.1328
 8911SOL    HW238193   1.969   3.086   2.864 -1.8456  0.6950 -0.1739
 8912SOL     OW38194   0.639   0.464  17.564  0.0490 -0.5172  0.3916
 8912SOL    HW138195   0.606   0.526  17.499 -2.5937 -2.7536 -0.4209
 8912SOL    HW238196   0.668   0.387  17.515  1.1477  1.1526 -1.5826
 8913SOL     OW38197   2.839   4.028   6.993  0.9999  0.2618 -0.0437
 8913SOL    HW138198   2.912   3.975   6.959  0.5345 -0.4478  0.0584
 8913SOL    HW238199   2.768   3.964   6.989  1.3999 -0.2043  0.2558
 8914SOL     OW38200   3.284   2.793   8.081 -1.0105  0.4347 -0.3239
 8914SOL    HW138201   3.260   2.705   8.113  3.1257 -1.2916 -1.9953
 8914SOL    HW238202   3.379   2.786   8.076 -1.1925 -1.9231 -0.4825
 8915SOL     OW38203   1.719   3.768   1.554 -0.4919  0.1254 -0.5368
 8915SOL    HW138204   1.740   3.675   1.548 -0.0991  0.1949 -0.2641
 8915SOL    HW238205   1.644   3.761   1.613 -0.3513 -2.4797 -0.6318
 8916SOL     OW38206   2.389   2.058   8.327 -0.1443  0.1104  0.2688
 8916SOL    HW138207   2.412   2.083   8.416  1.2624  0.0805 -0.0740
 8916SOL    HW238208   2.407   1.963   8.325 -1.6383 -0.1753  1.1447
 8917SOL     OW38209   4.298   2.682   4.926 -0.5023  0.3137  0.5112
 8917SOL    HW138210   4.347   2.661   4.846 -2.3335  0.1125 -0.5595
 8917SOL    HW238211   4.364   2.662   4.992  0.9050 -1.0063 -1.2972
 8918SOL     OW38212   3.748   3.772   6.726  0.2548 -0.3574  0.0453
 8918SOL    HW138213   3.761   3.847   6.668 -0.1010 -0.6328 -0.3930
 8918SOL    HW238214   3.658   3.785   6.756 -0.9864  0.5259 -3.9427
 8919SOL     OW38215   1.076   1.799  17.310  0.7514 -0.3973 -0.0576
 8919SOL    HW138216   1.023   1.719  17.313  0.7179 -0.3558  0.4173
 8919SOL    HW238217   1.073   1.813  17.405 -0.6920  0.4920 -0.2258
 8920SOL     OW38218   1.705   2.614   6.449  0.2104  0.4197  0.3405
 8920SOL    HW138219   1.779   2.638   6.505  0.2394 -2.9064  1.7776
 8920SOL    HW238220   1.739   2.536   6.406  0.3769  0.2595  0.7575
 8921SOL     OW38221   1.694   3.454  14.175 -0.4425 -0.4204 -0.1149
 8921SOL    HW138222   1.658   3.394  14.240  0.5015 -0.1790  0.6211
 8921SOL    HW238223   1.745   3.504  14.239 -0.8536 -0.2734  0.0993
 8922SOL     OW38224   2.313   0.223   6.727 -0.1664  0.4428  0.5750
 8922SOL    HW138225   2.232   0.274   6.717  0.4399  1.0072 -1.3271
 8922SOL    HW238226   2.372   0.273   6.784  1.2150 -0.8821  0.2873
 8923SOL     OW38227   1.401   4.620  13.903 -0.0806 -0.1323  0.8587
 8923SOL    HW138228   1.458   4.650  13.974 -1.4197  0.0556  1.8457
 8923SOL    HW238229   1.368   4.535  13.934  1.8554 -0.3740  2.2775
 8924SOL     OW38230   0.446   0.363   2.260 -0.4562  0.2478  1.0285
 8924SOL    HW138231   0.374   0.331   2.206 -0.4361  2.2762 -0.1919
 8924SOL    HW238232   0.431   0.317   2.343 -0.4234  1.4490  1.6933
 8925SOL     OW38233   0.062   1.520  12.538  0.1440 -0.1113 -0.3871
 8925SOL    HW138234   0.006   1.598  12.544  0.2265 -0.1944  1.6501
 8925SOL    HW238235   0.102   1.527  12.452  2.3849  0.1715  0.6650
 8926SOL     OW38236   1.025   4.452   8.694  0.3518  0.3090  0.2182
 8926SOL    HW138237   0.932   4.473   8.705 -0.0666 -1.5061  0.1698
 8926SOL    HW238238   1.032   4.411   8.608  1.3632  0.0544  0.4210
 8927SOL     OW38239   3.830   4.146   4.068  0.0070 -0.8103 -0.5972
 8927SOL    HW138240   3.899   4.112   4.011  0.0161 -1.3396 -0.2709
 8927SOL    HW238241   3.832   4.242   4.063  1.4770 -0.8624 -0.8769
 8928SOL     OW38242   4.648   0.227  13.158 -0.1300  0.8539 -0.1141
 8928SOL    HW138243   4.702   0.206  13.081 -1.2406 -0.1110 -0.6317
 8928SOL    HW238244   4.711   0.213  13.228 -0.1392 -0.9118 -0.4657
 8929SOL     OW38245   0.915   1.804   8.228  0.0199  0.4549 -0.1190
 8929SOL    HW138246   0.921   1.746   8.305 -0.4376 -0.5907 -0.8645
 8929SOL    HW238247   0.876   1.879   8.272 -0.2958  0.3074 -0.1496
 8930SOL     OW38248   3.724   2.692   8.795 -0.1031  0.1921 -0.4254
 8930SOL    HW138249   3.648   2.701   8.738 -1.3061 -2.5219  0.7261
 8930SOL    HW238250   3.791   2.752   8.765  1.1457 -0.8981  0.1948
 8931SOL     OW38251   3.131   1.487   2.388  0.1321  0.8909 -0.0607
 8931SOL    HW138252   3.178   1.489   2.304  2.3450  2.4704  1.2073
 8931SOL    HW238253   3.082   1.406   2.370  0.6248  1.1128 -2.3744
 8932SOL     OW38254   1.296   2.161   2.167  0.1524 -0.1081  0.1994
 8932SOL    HW138255   1.283   2.100   2.094 -0.1658  1.1012 -0.7521
 8932SOL    HW238256   1.235   2.234   2.153 -1.2632 -1.2799  0.2763
 8933SOL     OW38257   4.383   0.452   7.788 -0.2537 -0.3851  0.1539
 8933SOL    HW138258   4.391   0.421   7.879 -0.3147  0.2900  0.3930
 8933SOL    HW238259   4.367   0.546   7.795 -1.3113 -0.5185 -0.5579
 8934SOL     OW38260   0.991   1.045   9.388  0.2445  0.2182  0.7321
 8934SOL    HW138261   1.071   1.007   9.352 -0.3410  1.0848 -1.5049
 8934SOL    HW238262   1.013   1.134   9.360  0.6831  0.0162  0.4440
 8935SOL     OW38263   2.325   1.096   3.008 -0.2622  0.3026  0.6632
 8935SOL    HW138264   2.402   1.040   3.005 -1.1316 -0.8810  0.3517
 8935SOL    HW238265   2.347   1.139   3.091  0.2830 -2.9867  2.2482
 8936SOL     OW38266   2.946   3.450   7.705 -0.2609 -0.4343  0.1178
 8936SOL    HW138267   2.997   3.371   7.689  1.2244  0.4703  0.3529
 8936SOL    HW238268   2.858   3.417   7.683 -1.3336  3.1821 -1.0662
 8937SOL     OW38269   4.568   4.384   4.226 -0.4158 -0.0996  0.5909
 8937SOL    HW138270   4.613   4.443   4.166 -2.0114 -1.6676 -2.1367
 8937SOL    HW238271   4.607   4.417   4.307  1.3313 -1.5649  0.3676
 8938SOL     OW38272   0.334   0.003   1.136  0.6638  0.2392 -0.5938
 8938SOL    HW138273   0.416   0.045   1.163  0.4880 -0.8782  1.7260
 8938SOL    HW238274   0.359   4.634   1.161 -0.8112 -0.8165 -2.9290
 8939SOL     OW38275   3.685   1.923   5.332  0.4125  0.2837  0.3078
 8939SOL    HW138276   3.648   1.999   5.378  0.9681  0.7561 -0.0281
 8939SOL    HW238277   3.685   1.948   5.240 -1.9394  0.5721  0.3914
 8940SOL     OW38278   3.852   3.636   2.495  0.0535 -0.2688  0.1605
 8940SOL    HW138279   3.789   3.681   2.439  0.6705 -0.0483 -0.3424
 8940SOL    HW238280   3.897   3.706   2.542 -0.8345  1.0308 -0.9438
 8941SOL     OW38281   1.561   3.403   1.884  0.5103  0.4054 -0.5398
 8941SOL    HW138282   1.497   3.438   1.945  0.0606  0.6740 -1.1604
 8941SOL    HW238283   1.616   3.477   1.859  0.1744  1.1099  0.8491
 8942SOL     OW38284   3.173   2.781   6.409  0.2608  0.3529  0.0499
 8942SOL    HW138285   3.190   2.829   6.328  0.0275  1.4535  0.6458
 8942SOL    HW238286   3.192   2.851   6.472  3.0253 -1.4253  1.1734
 8943SOL     OW38287   3.660   3.898  15.805 -0.2498  0.4996 -0.0313
 8943SOL    HW138288   3.708   3.980  15.811  1.4551 -0.6156  1.9382
 8943SOL    HW238289   3.573   3.936  15.813  0.0917  1.7990 -2.4070
 8944SOL     OW38290   2.550   2.544   9.058  0.0075 -0.5668  0.6098
 8944SOL    HW138291   2.549   2.485   9.133  0.6813  1.0083  1.8538
 8944SOL    HW238292   2.468   2.589   9.077  0.6273  1.0773 -0.6268
 8945SOL     OW38293   3.058   4.673   7.117  0.0535 -0.1438 -0.1102
 8945SOL    HW138294   2.979   4.619   7.121 -0.5029  0.4447 -3.2451
 8945SOL    HW238295   3.101   4.650   7.199 -3.1091  0.1608  1.6000
 8946SOL     OW38296   0.795   2.200  12.290  0.0505  0.5521 -0.2101
 8946SOL    HW138297   0.762   2.287  12.268 -1.0626  0.0503 -0.5198
 8946SOL    HW238298   0.746   2.170  12.367 -0.1851  1.7437  0.0959
 8947SOL     OW38299   1.891   2.532   5.352 -0.0965 -0.1259  0.4244
 8947SOL    HW138300   1.849   2.612   5.385  0.8389  0.3388  0.4774
 8947SOL    HW238301   1.838   2.472   5.404 -0.0377 -1.7663 -1.3963
 8948SOL     OW38302   0.371   0.265   4.097  0.4693  0.3139 -0.6700
 8948SOL    HW138303   0.391   0.324   4.169  0.6134  0.9230 -1.2058
 8948SOL    HW238304   0.378   0.316   4.016 -0.2248  1.8648  0.2620
 8949SOL     OW38305   1.918   0.044   0.731  0.0224  0.2397  0.3501
 8949SOL    HW138306   1.935   0.075   0.820  0.5960  1.6840 -0.2558
 8949SOL    HW238307   2.004   0.069   0.698 -1.1822  0.3642 -2.6929
 8950SOL     OW38308   1.738   3.445   0.123 -0.1828  0.1802  0.8628
 8950SOL    HW138309   1.650   3.431   0.157 -0.2275  1.3129  1.2183
 8950SOL    HW238310   1.783   3.363   0.144 -1.2472 -0.8076 -0.7631
 8951SOL     OW38311   3.277   1.832  17.399  0.8296  0.1101 -0.4600
 8951SOL    HW138312   3.203   1.781  17.429  2.3025 -1.8661 -0.1906
 8951SOL    HW238313   3.336   1.757  17.404 -0.5375 -0.9182 -0.0046
 8952SOL     OW38314   1.138   3.687   1.730 -0.5281 -1.0582  0.5617
 8952SOL    HW138315   1.130   3.732   1.647 -0.4908 -0.5821  0.8179
 8952SOL    HW238316   1.052   3.708   1.766 -0.5710 -1.8061  0.9061
 8953SOL     OW38317   1.037   2.295   4.790 -0.4168 -0.1022  0.2197
 8953SOL    HW138318   1.066   2.345   4.866  1.2279 -0.9346  0.1260
 8953SOL    HW238319   1.044   2.364   4.725 -0.8750  0.4606  0.7677
 8954SOL     OW38320   2.433   1.539   6.933 -0.4024 -0.7605 -0.1667
 8954SOL    HW138321   2.485   1.495   7.001 -1.0509  2.6300  2.5091
 8954SOL    HW238322   2.486   1.536   6.853 -1.8224 -0.4583 -1.1063
 8955SOL     OW38323   4.637   3.779  13.399 -0.3577 -0.3084 -0.6579
 8955SOL    HW138324   4.705   3.784  13.466  0.6332 -0.7871 -1.6315
 8955SOL    HW238325   4.694   3.798  13.325 -0.1386 -1.3705 -0.7670
 8956SOL     OW38326   3.457   1.190   2.230 -0.0607 -0.3574 -0.8298
 8956SOL    HW138327   3.429   1.201   2.139 -0.7313  0.7454 -0.4857
 8956SOL    HW238328   3.488   1.101   2.214 -0.6913 -0.3866 -1.9189
 8957SOL     OW38329   3.868   4.002   6.611 -0.3241 -0.2015  0.5974
 8957SOL    HW138330   3.946   4.040   6.571  0.2590 -1.9634  0.0518
 8957SOL    HW238331   3.841   4.067   6.675 -0.2435 -0.8866  1.3287
 8958SOL     OW38332   2.747   2.899   2.903  0.0184 -0.2534 -0.2086
 8958SOL    HW138333   2.695   2.893   2.823 -0.1601  3.1252 -0.3107
 8958SOL    HW238334   2.821   2.952   2.875  0.4333 -0.4609  0.4740
 8959SOL     OW38335   2.309   0.866   7.358  0.3270 -0.1265  0.1167
 8959SOL    HW138336   2.239   0.804   7.377  1.2648 -1.5059 -0.8162
 8959SOL    HW238337   2.276   0.880   7.269 -0.4209  0.1531  0.4421
 8960SOL     OW38338   2.903   3.455  11.998 -0.1650  0.3881  0.2690
 8960SOL    HW138339   2.942   3.436  12.083 -0.4030 -1.0980  0.0404
 8960SOL    HW238340   2.812   3.434  12.019 -0.2274  2.2943  1.9863
 8961SOL     OW38341   0.046   4.362   2.787  0.3627  0.4225  0.4812
 8961SOL    HW138342   0.005   4.369   2.874  1.8863  0.4857  1.1936
 8961SOL    HW238343   0.119   4.420   2.807  1.2094 -0.4966  0.0695
 8962SOL     OW38344   4.023   0.944   9.972  0.5966 -0.0404  0.6760
 8962SOL    HW138345   3.986   0.878   9.914  4.0811  0.5885 -2.2701
 8962SOL    HW238346   3.996   1.026   9.931  1.7542 -0.7195 -1.4251
 8963SOL     OW38347   0.888   3.202   9.100 -0.2040 -0.4047  0.3133
 8963SOL    HW138348   0.944   3.128   9.122  0.7033  0.6313  1.4978
 8963SOL    HW238349   0.807   3.165   9.133  0.0011  0.5044  1.8408
 8964SOL     OW38350   3.655   3.060  11.208 -0.7770  0.1571 -0.1433
 8964SOL    HW138351   3.563   3.036  11.219 -1.0879  0.1890 -2.8033
 8964SOL    HW238352   3.654   3.128  11.276 -0.0682 -1.6374  1.6589
 8965SOL     OW38353   2.053   1.014  12.495 -0.5780  0.7085 -0.6523
 8965SOL    HW138354   2.122   0.950  12.515 -0.9028  0.9622  1.2628
 8965SOL    HW238355   2.092   1.095  12.527 -0.9398  0.6511 -0.0731
 8966SOL     OW38356   3.504   3.568  13.439  0.0331 -0.1211 -0.4077
 8966SOL    HW138357   3.561   3.492  13.454 -1.5821 -1.2022  0.2762
 8966SOL    HW238358   3.423   3.528  13.408  0.1851 -1.4226  0.8682
 8967SOL     OW38359   2.229   0.137   5.100  0.4967 -0.2277 -0.0675
 8967SOL    HW138360   2.231   0.116   5.006 -2.3243  0.5362 -0.3175
 8967SOL    HW238361   2.138   0.112   5.119  0.9719 -0.1892  2.2243
 8968SOL     OW38362   4.393   2.981   4.017 -0.0822  0.2315 -0.2914
 8968SOL    HW138363   4.307   2.984   4.058 -0.2438 -0.5967 -0.5761
 8968SOL    HW238364   4.375   2.994   3.924 -1.6334  1.6143  0.1998
 8969SOL     OW38365   0.003   2.023   8.854  0.0530 -0.1226  0.4193
 8969SOL    HW138366   4.687   2.081   8.921 -1.3802 -0.5890  0.0293
 8969SOL    HW238367   4.646   1.982   8.815  0.6416 -0.7223 -0.1249
 8970SOL     OW38368   3.553   2.698   6.784 -0.2448  0.4836  0.7402
 8970SOL    HW138369   3.569   2.743   6.701  1.1352 -1.9092 -0.3028
 8970SOL    HW238370   3.632   2.724   6.830  1.4415 -1.1832 -1.2110
 8971SOL     OW38371   1.476   0.926   3.400  0.5118  0.0201 -0.2996
 8971SOL    HW138372   1.470   0.833   3.377 -0.5533 -0.0798  0.3471
 8971SOL    HW238373   1.406   0.968   3.350  1.6422 -1.9620 -3.5217
 8972SOL     OW38374   3.249   2.556   4.808 -0.2566 -0.5559  0.1041
 8972SOL    HW138375   3.175   2.616   4.797 -0.1468 -0.5832 -0.7428
 8972SOL    HW238376   3.308   2.618   4.766 -1.0668  0.2103  0.0982
 8973SOL     OW38377   1.315   0.824  15.564 -0.3952 -0.1372 -0.1090
 8973SOL    HW138378   1.235   0.815  15.616 -0.2522  1.5924  0.4036
 8973SOL    HW238379   1.304   0.749  15.506  0.5371  0.6163 -1.2729
 8974SOL     OW38380   1.874   3.353   5.325  0.4967  0.3944  0.1033
 8974SOL    HW138381   1.968   3.364   5.315  0.6637 -1.2283 -0.1347
 8974SOL    HW238382   1.882   3.297   5.402 -1.4272 -1.0517 -0.7488
 8975SOL     OW38383   1.942   1.678   6.103  0.0151  0.2665  0.6158
 8975SOL    HW138384   1.923   1.617   6.031 -1.9633  1.1137  0.4145
 8975SOL    HW238385   1.999   1.625   6.158  2.2974  1.0568 -1.0052
 8976SOL     OW38386   1.837   3.183   0.151  0.1623 -0.2628 -0.7857
 8976SOL    HW138387   1.932   3.179   0.162  0.6559 -1.7641 -5.3620
 8976SOL    HW238388   1.817   3.091   0.132 -0.9039 -0.2407  0.3004
 8977SOL     OW38389   0.315   3.778  14.512 -0.8224 -0.2704  0.2870
 8977SOL    HW138390   0.397   3.739  14.542  0.0079 -0.0109 -1.6506
 8977SOL    HW238391   0.267   3.697  14.496 -1.5738  0.3715 -0.6978
 8978SOL     OW38392   3.056   3.241   2.995 -0.4537  0.2568  0.2988
 8978SOL    HW138393   3.014   3.263   3.078  1.2350  1.0780  0.9450
 8978SOL    HW238394   3.045   3.325   2.952 -1.4235  0.0200  0.0815
 8979SOL     OW38395   4.678   0.851  15.535 -0.2843  0.5863  0.1926
 8979SOL    HW138396   4.650   0.762  15.558 -0.2552  0.3558 -0.6673
 8979SOL    HW238397   4.596   0.899  15.544 -1.7478 -1.8621  0.1666
 8980SOL     OW38398   2.919   1.972  11.278  0.5344 -0.7344  0.0390
 8980SOL    HW138399   2.909   1.909  11.349  1.8599 -1.5129 -0.4572
 8980SOL    HW238400   2.836   1.963  11.232  1.1293  0.2152 -1.2406
 8981SOL     OW38401   0.083   0.519   2.294 -0.4247  0.5535  0.0837
 8981SOL    HW138402   0.033   0.539   2.215 -0.9394 -0.6168  0.1143
 8981SOL    HW238403   0.047   0.579   2.359  0.4600 -0.8198  1.8409
 8982SOL     OW38404   2.490   4.301   8.265 -0.8136 -0.4605 -0.6895
 8982SOL    HW138405   2.415   4.337   8.312  0.3508  2.1107 -0.7887
 8982SOL    HW238406   2.542   4.271   8.339 -3.5117 -1.4056  0.8277
 8983SOL     OW38407   2.108   0.212   2.208  0.0846  0.1303  0.4871
 8983SOL    HW138408   2.147   0.298   2.193 -0.6544  0.6165  1.3795
 8983SOL    HW238409   2.179   0.155   2.176  0.4425  2.2750 -2.6229
 8984SOL     OW38410   3.058   2.425  11.240 -0.0861 -0.1368 -0.7064
 8984SOL    HW138411   3.112   2.351  11.211 -0.1111  0.5015 -2.3529
 8984SOL    HW238412   2.973   2.390  11.213 -1.1206  1.6680  0.2475
 8985SOL     OW38413   1.786   2.851   0.968  0.1055  0.2302 -0.1100
 8985SOL    HW138414   1.846   2.811   0.905 -0.0690  1.8916 -1.3097
 8985SOL    HW238415   1.745   2.774   1.008 -1.4095  0.9431 -0.3205
 8986SOL     OW38416   1.269   0.447  17.153  0.5589  0.1452  0.1837
 8986SOL    HW138417   1.339   0.455  17.218 -0.3956 -1.2612  1.3838
 8986SOL    HW238418   1.224   0.380  17.204 -0.0819  0.4203 -0.0189
 8987SOL     OW38419   1.400   1.975   4.319  0.4312  0.6558  0.2559
 8987SOL    HW138420   1.416   1.891   4.277 -1.8533  0.3489 -0.0126
 8987SOL    HW238421   1.395   1.948   4.410 -0.6361  2.7663  0.8274
 8988SOL     OW38422   3.355   4.589   6.024 -0.2195  0.6273 -0.0279
 8988SOL    HW138423   3.304   4.628   5.953  0.7750 -0.6935 -1.4725
 8988SOL    HW238424   3.333   4.660   6.084 -0.4850  1.6509 -1.3589
 8989SOL     OW38425   4.024   3.131   7.935 -0.1376 -0.1635 -0.7658
 8989SOL    HW138426   3.977   3.108   7.855  0.7848 -0.1220 -1.3229
 8989SOL    HW238427   3.989   3.218   7.953  0.5169  0.3476 -1.9910
 8990SOL     OW38428   4.074   4.543   5.110  0.2197 -0.0889  0.1133
 8990SOL    HW138429   4.057   4.592   5.190 -1.2527 -0.7037  0.1685
 8990SOL    HW238430   4.086   4.453   5.141 -0.9410 -0.2889 -0.0180
 8991SOL     OW38431   2.777   4.267   4.681  0.2195 -0.3687  0.0212
 8991SOL    HW138432   2.827   4.344   4.654 -0.5286 -0.5893 -1.9938
 8991SOL    HW238433   2.705   4.262   4.618 -0.9917 -0.7289  1.4369
 8992SOL     OW38434   0.326   3.243   5.710  0.8253 -0.2987  0.2715
 8992SOL    HW138435   0.268   3.186   5.761  1.7306 -0.7168  0.8224
 8992SOL    HW238436   0.393   3.179   5.686 -0.2361 -0.6004 -1.8898
 8993SOL     OW38437   3.763   4.273  17.563  0.5899 -0.1464 -0.4153
 8993SOL    HW138438   3.788   4.340  17.627  2.6638 -0.1858 -1.1905
 8993SOL    HW238439   3.794   4.196  17.610 -0.2846 -1.3145 -1.7383
 8994SOL     OW38440   0.459   3.188   4.517  0.0248  0.3181  0.2192
 8994SOL    HW138441   0.378   3.175   4.468  0.0118  1.7128 -0.1325
 8994SOL    HW238442   0.417   3.200   4.603 -0.8126  0.4214 -0.2070
 8995SOL     OW38443   4.204   3.888  13.415 -0.1577  0.1074  0.1954
 8995SOL    HW138444   4.133   3.825  13.404 -0.9230  0.8700  0.7554
 8995SOL    HW238445   4.161   3.941  13.483 -1.3147 -1.3425  0.5974
 8996SOL     OW38446   0.226   4.182   4.858 -0.1484 -0.5180  0.1488
 8996SOL    HW138447   0.205   4.151   4.770  0.1613 -3.4116  1.1150
 8996SOL    HW238448   0.320   4.167   4.864 -0.1766 -0.5105  0.6262
 8997SOL     OW38449   4.523   0.294   6.881  0.8731 -0.1513  0.3748
 8997SOL    HW138450   4.601   0.333   6.842 -0.7143 -0.3306 -2.9393
 8997SOL    HW238451   4.518   0.211   6.834 -3.4548  0.0701  0.5283
 8998SOL     OW38452   3.770   4.082   2.940  0.0471 -0.0635  0.1310
 8998SOL    HW138453   3.772   4.123   2.853  1.2576 -1.8676 -0.6968
 8998SOL    HW238454   3.684   4.118   2.960  0.0298  0.4902 -0.9513
 8999SOL     OW38455   1.192   1.167  11.685  0.0813 -0.0087 -0.3515
 8999SOL    HW138456   1.285   1.179  11.664  0.3291  1.4391  1.5928
 8999SOL    HW238457   1.168   1.091  11.631 -1.1497 -0.6391  1.0613
 9000SOL     OW38458   3.359   0.912   5.537  0.0874  0.1035  0.0509
 9000SOL    HW138459   3.313   0.978   5.486 -0.3240 -0.0266  0.2556
 9000SOL    HW238460   3.382   0.846   5.472  1.0690  0.4435  0.0460
 9001SOL     OW38461   3.274   2.753   0.810  0.1533 -0.2351 -0.4059
 9001SOL    HW138462   3.287   2.773   0.717  0.6958 -0.9873 -0.4891
 9001SOL    HW238463   3.306   2.663   0.821  0.9979  0.2211  0.8126
 9002SOL     OW38464   3.786   3.133   6.230 -0.4134 -0.5066 -0.1031
 9002SOL    HW138465   3.797   3.226   6.213 -0.6315 -0.6320 -0.9370
 9002SOL    HW238466   3.701   3.110   6.192  0.7108  1.0951 -3.6101
 9003SOL     OW38467   1.340   0.272   8.146 -0.3372  0.2834 -0.8859
 9003SOL    HW138468   1.435   0.266   8.150 -0.4871 -1.8440 -0.7716
 9003SOL    HW238469   1.331   0.323   8.066 -0.4548  0.4042 -0.7959
 9004SOL     OW38470   2.935   4.540   2.725 -0.7828 -0.2382  0.2312
 9004SOL    HW138471   2.855   4.590   2.744  0.8712  2.1073  1.0508
 9004SOL    HW238472   2.958   4.572   2.638 -0.0291  0.7145  0.7718
 9005SOL     OW38473   1.462   0.324   1.713 -0.0629  0.1621 -0.1763
 9005SOL    HW138474   1.368   0.325   1.694 -0.5680 -1.9456  2.2262
 9005SOL    HW238475   1.488   0.249   1.659 -2.9958 -0.3910 -0.8620
 9006SOL     OW38476   1.365   2.055  14.999 -0.1972  0.0202 -0.2294
 9006SOL    HW138477   1.425   2.008  14.940 -1.6088 -0.4395 -1.2996
 9006SOL    HW238478   1.292   1.995  14.985 -1.4735  1.2369  1.2594
 9007SOL     OW38479   4.249   1.720  15.245  0.6560 -0.3605 -0.2689
 9007SOL    HW138480   4.270   1.670  15.324  1.6006  1.6543  0.7554
 9007SOL    HW238481   4.341   1.722  15.218  0.5821 -0.9136 -0.5743
 9008SOL     OW38482   1.771   1.188   5.091 -0.1293 -0.1382 -0.1093
 9008SOL    HW138483   1.865   1.198   5.107 -0.6962  2.0971  1.8275
 9008SOL    HW238484   1.735   1.270   5.125 -0.4115 -0.9027  1.4426
 9009SOL     OW38485   4.461   2.522  10.569  0.0999  0.6558  0.3609
 9009SOL    HW138486   4.392   2.550  10.510  2.1800  1.4946 -1.6646
 9009SOL    HW238487   4.441   2.430  10.589  0.3594  0.8526  1.5527
 9010SOL     OW38488   4.618   0.054   4.646 -0.6221 -0.7330 -0.0701
 9010SOL    HW138489   4.560   0.083   4.577  0.3439  1.5745  0.1052
 9010SOL    HW238490   4.554   0.058   4.717  0.8452  0.1710  1.1953
 9011SOL     OW38491   0.825   0.563   3.863  0.4081 -0.2807  0.1667
 9011SOL    HW138492   0.786   0.629   3.805 -1.1985 -1.2344  0.1839
 9011SOL    HW238493   0.916   0.561   3.831  1.0158  1.0521  1.8155
 9012SOL     OW38494   1.199   1.309   8.253  0.0170  0.4342 -0.0092
 9012SOL    HW138495   1.204   1.399   8.287 -0.7100 -0.8068  3.3081
 9012SOL    HW238496   1.170   1.325   8.163  2.3989  1.5898 -0.5871
 9013SOL     OW38497   4.689   4.689   2.130  0.3963 -0.1554  0.3733
 9013SOL    HW138498   4.667   0.057   2.100 -1.0947 -0.3286  0.9802
 9013SOL    HW238499   0.005   4.699   2.218  1.4833 -0.5336 -0.0338
 9014SOL     OW38500   1.674   1.171   4.178  0.1065  0.3822 -0.0057
 9014SOL    HW138501   1.628   1.167   4.262  0.4332 -0.8964  0.1145
 9014SOL    HW238502   1.611   1.199   4.112 -0.8064  0.0498  0.7246
 9015SOL     OW38503   2.327   4.566   5.998 -0.1911 -0.0311  0.5629
 9015SOL    HW138504   2.296   4.657   5.994 -0.4140 -0.0842  1.1103
 9015SOL    HW238505   2.407   4.575   5.947 -0.4892 -4.4298 -0.6435
 9016SOL     OW38506   2.871   0.305   2.783  0.3361 -0.5418  0.0049
 9016SOL    HW138507   2.874   0.241   2.712  2.6595 -1.2183  0.7082
 9016SOL    HW238508   2.793   0.279   2.832  0.0522  0.6180  0.1690
 9017SOL     OW38509   0.257   2.697  11.124 -0.5290  0.1395  0.0934
 9017SOL    HW138510   0.300   2.714  11.040  0.1877  1.8905  0.8165
 9017SOL    HW238511   0.331   2.709  11.183 -0.1987 -1.7942  0.0598
 9018SOL     OW38512   4.341   3.618   7.506  0.4878 -0.0137  0.3435
 9018SOL    HW138513   4.266   3.660   7.464 -0.7731 -0.1274  2.5032
 9018SOL    HW238514   4.348   3.529   7.472  2.0249  0.6986 -1.2402
 9019SOL     OW38515   3.651   3.156   3.835  0.3566 -0.2600  0.0680
 9019SOL    HW138516   3.697   3.212   3.898 -2.2069 -1.8122  3.3463
 9019SOL    HW238517   3.677   3.204   3.756  0.7613 -0.0376  0.3352
 9020SOL     OW38518   0.471   4.149   5.264  0.2503 -0.2606  0.5059
 9020SOL    HW138519   0.438   4.233   5.296 -0.3842 -0.9306  1.6150
 9020SOL    HW238520   0.562   4.174   5.246  0.4229 -0.4940  1.0331
 9021SOL     OW38521   3.922   1.531   0.623  0.2925 -0.0349 -0.0257
 9021SOL    HW138522   3.961   1.616   0.646 -0.4898  0.5689 -0.8833
 9021SOL    HW238523   3.846   1.558   0.571  0.0790  1.1745  0.9046
 9022SOL     OW38524   1.902   2.431   6.362 -0.4151 -0.2389  0.0745
 9022SOL    HW138525   1.977   2.490   6.349  0.6563 -1.4038  0.9644
 9022SOL    HW238526   1.914   2.407   6.454  0.4788  1.1441  0.3113
 9023SOL     OW38527   0.931   1.789  12.254  0.2291 -0.3228  0.3734
 9023SOL    HW138528   0.905   1.864  12.201  2.2584  0.3195  0.2625
 9023SOL    HW238529   1.023   1.779  12.229  0.2239 -0.0874  0.2602
 9024SOL     OW38530   0.378   2.175   2.364 -0.3985 -0.3981  0.2337
 9024SOL    HW138531   0.373   2.187   2.269  2.5316  1.8082  0.3465
 9024SOL    HW238532   0.384   2.081   2.383  2.4322 -0.7580 -2.4445
 9025SOL     OW38533   2.822   1.421   5.813  0.2457  0.2461 -0.5067
 9025SOL    HW138534   2.870   1.501   5.837  0.0903  0.3272 -0.4722
 9025SOL    HW238535   2.738   1.463   5.796  0.0547  0.8931  2.1290
 9026SOL     OW38536   1.194   0.251   5.765 -0.4950  0.6979  0.5428
 9026SOL    HW138537   1.268   0.277   5.821 -1.2052 -0.1579  1.8885
 9026SOL    HW238538   1.191   0.156   5.748 -0.5573  0.9517 -0.8344
 9027SOL     OW38539   4.354   0.704   7.233 -0.4613  0.1070  0.2759
 9027SOL    HW138540   4.363   0.773   7.168  0.2455 -0.8736 -0.6684
 9027SOL    HW238541   4.294   0.641   7.193  1.3331 -1.8771  0.7389
 9028SOL     OW38542   0.812   0.200   4.100 -0.3345  0.3788 -0.2165
 9028SOL    HW138543   0.871   0.133   4.066  1.8570  1.4401  1.4718
 9028SOL    HW238544   0.863   0.278   4.079  2.1338 -0.6711  1.8273
 9029SOL     OW38545   3.264   3.524  15.506  0.2141  0.4530  0.2543
 9029SOL    HW138546   3.254   3.482  15.420  0.2756 -0.5146  0.7164
 9029SOL    HW238547   3.183   3.491  15.546  0.0289  0.8782  0.2287
 9030SOL     OW38548   1.986   1.973   3.243  0.4903  0.5529  0.1939
 9030SOL    HW138549   1.918   1.909   3.221  1.0447  0.2619 -0.6286
 9030SOL    HW238550   2.057   1.956   3.182 -0.7684 -2.7901 -0.3834
 9031SOL     OW38551   3.450   4.624  11.297  0.3645  0.8559 -0.0253
 9031SOL    HW138552   3.511   4.681  11.250 -1.3720  1.9769 -0.9328
 9031SOL    HW238553   3.507   4.555  11.330  0.0012  1.6329  2.2358
 9032SOL     OW38554   2.147   4.577   9.920 -0.2290  0.1355 -0.6063
 9032SOL    HW138555   2.238   4.604   9.906 -1.0194  3.2385  0.3880
 9032SOL    HW238556   2.107   4.623   9.846 -0.4359 -1.1553 -1.2893
 9033SOL     OW38557   0.108   2.841   0.302 -0.3126 -0.0326 -0.1236
 9033SOL    HW138558   0.013   2.847   0.291 -0.0928  1.2764 -1.4377
 9033SOL    HW238559   0.121   2.886   0.385 -1.3101  0.9315 -0.4907
 9034SOL     OW38560   2.512   2.922  16.790  0.2894 -0.7039  0.3103
 9034SOL    HW138561   2.551   2.858  16.849  3.2599  0.5376 -0.3008
 9034SOL    HW238562   2.560   2.898  16.710  0.3914 -0.4807  0.3050
 9035SOL     OW38563   3.657   2.602   5.497 -0.1383  0.1267 -0.5125
 9035SOL    HW138564   3.731   2.564   5.544  0.1215 -1.1651 -1.9563
 9035SOL    HW238565   3.634   2.523   5.449 -0.8910 -1.2045  2.0632
 9036SOL     OW38566   2.787   4.496   6.488  0.1870  0.3312 -0.1000
 9036SOL    HW138567   2.808   4.512   6.580 -1.4537  0.6454  0.2113
 9036SOL    HW238568   2.836   4.414   6.474 -0.9537 -0.2990 -0.3918
 9037SOL     OW38569   3.597   2.205   7.728 -0.0279 -0.1054 -0.1300
 9037SOL    HW138570   3.578   2.128   7.674 -1.3624  1.3097 -1.6584
 9037SOL    HW238571   3.675   2.179   7.777 -0.0796 -0.9873 -0.5084
 9038SOL     OW38572   2.338   3.719   3.577 -0.3266  0.2220  0.1564
 9038SOL    HW138573   2.328   3.623   3.576 -1.5316  0.3545 -0.8120
 9038SOL    HW238574   2.428   3.736   3.550 -0.3170 -0.2956 -0.1501
 9039SOL     OW38575   0.176   2.129   9.491 -0.1915 -0.0675  0.7052
 9039SOL    HW138576   0.204   2.200   9.434 -0.7287 -0.1088  0.3994
 9039SOL    HW238577   0.109   2.165   9.548 -0.1825 -1.1100  1.3922
 9040SOL     OW38578   3.536   3.427   5.538  0.3693 -0.0043  0.3578
 9040SOL    HW138579   3.441   3.434   5.529  0.3243 -1.1497  0.0063
 9040SOL    HW238580   3.559   3.506   5.588 -0.7715  1.1986 -1.0198
 9041SOL     OW38581   2.983   2.741   4.287  0.1200 -0.2911  0.1691
 9041SOL    HW138582   2.945   2.689   4.357 -1.2723 -1.0777 -1.1771
 9041SOL    HW238583   2.949   2.829   4.301 -2.0540 -0.6838 -2.7779
 9042SOL     OW38584   4.124   4.576  11.053  0.2652  0.0104 -0.1353
 9042SOL    HW138585   4.113   4.521  10.976  1.0509  1.2907 -1.1697
 9042SOL    HW238586   4.151   4.508  11.114 -0.8262  0.0195  0.3721
 9043SOL     OW38587   0.466   1.554   0.215  0.0293 -0.5849  0.1501
 9043SOL    HW138588   0.457   1.511   0.130  0.1456  4.0597 -2.2092
 9043SOL    HW238589   0.479   1.648   0.202 -0.6646 -0.4689  0.2729
 9044SOL     OW38590   3.813   0.944  11.606 -0.0438 -0.0122  0.8544
 9044SOL    HW138591   3.864   0.946  11.526  1.6039  4.0425  2.0155
 9044SOL    HW238592   3.870   0.980  11.674 -0.5831 -0.6158  1.6242
 9045SOL     OW38593   2.908   4.389   2.183 -0.1525 -0.3216  0.1584
 9045SOL    HW138594   2.842   4.447   2.222 -1.1281  0.2377 -2.3133
 9045SOL    HW238595   2.920   4.423   2.095 -0.8027  0.6062  0.4227
 9046SOL     OW38596   4.482   1.747   2.580  0.3612 -0.3017  0.7546
 9046SOL    HW138597   4.402   1.800   2.574  1.6365  1.6847  1.1852
 9046SOL    HW238598   4.531   1.802   2.642 -0.1791 -0.0327  0.9509
 9047SOL     OW38599   0.960   3.798  11.728 -0.2857 -0.4241  0.7291
 9047SOL    HW138600   1.009   3.868  11.772 -0.3809  0.9928 -1.4406
 9047SOL    HW238601   0.978   3.724  11.786  1.3500 -1.1283 -0.6867
 9048SOL     OW38602   4.071   3.913   4.595  0.1909  0.5210 -0.4429
 9048SOL    HW138603   4.147   3.856   4.608 -0.7073 -0.4316  0.6232
 9048SOL    HW238604   4.016   3.884   4.667 -0.4739  0.4971 -0.9619
 9049SOL     OW38605   1.100   3.069   8.389  0.4712  0.4562  0.2295
 9049SOL    HW138606   1.074   2.998   8.448 -1.5372  1.0967  0.1006
 9049SOL    HW238607   1.035   3.053   8.321  2.4132 -0.2347 -1.4734
 9050SOL     OW38608   3.502   3.016   4.722  0.0380  0.3255 -0.4769
 9050SOL    HW138609   3.549   2.953   4.667  1.3660  0.6625  0.2564
 9050SOL    HW238610   3.561   3.090   4.709 -0.4162  1.2007  2.4486
 9051SOL     OW38611   3.023   1.754  16.295  0.6341 -0.2319 -0.0370
 9051SOL    HW138612   2.978   1.669  16.301 -1.9569  1.2347  1.2154
 9051SOL    HW238613   2.963   1.827  16.308  0.0422 -0.6430 -0.4354
 9052SOL     OW38614   0.670   2.837  11.097 -0.1987 -0.7105 -0.1918
 9052SOL    HW138615   0.764   2.831  11.116 -0.1329 -1.6650 -0.7887
 9052SOL    HW238616   0.635   2.807  11.181 -0.6302  1.3003  0.3387
 9053SOL     OW38617   0.500   2.321   9.625 -0.0575 -0.1703 -0.3337
 9053SOL    HW138618   0.539   2.403   9.594 -1.0380  0.2967 -0.3391
 9053SOL    HW238619   0.577   2.274   9.658 -0.3290  0.9179  1.8552
 9054SOL     OW38620   1.666   3.141   1.438 -0.5528  0.5215 -0.2767
 9054SOL    HW138621   1.573   3.149   1.417 -0.3735 -1.7915 -1.8789
 9054SOL    HW238622   1.662   3.177   1.527  2.9098 -2.2791  1.0459
 9055SOL     OW38623   2.733   4.140   7.494  0.5476 -0.3027 -0.1472
 9055SOL    HW138624   2.738   4.233   7.474 -0.5905  0.0756  1.3135
 9055SOL    HW238625   2.643   4.135   7.527 -0.0072 -0.5066 -1.6396
 9056SOL     OW38626   0.859   0.198   8.705  0.2987 -0.1809 -0.4538
 9056SOL    HW138627   0.934   0.182   8.648 -1.1353 -0.6503 -2.2237
 9056SOL    HW238628   0.874   0.283   8.745 -0.0510 -0.9060  1.2146
 9057SOL     OW38629   3.183   3.425  15.274 -0.0381 -0.1987  0.4706
 9057SOL    HW138630   3.176   3.342  15.227  0.6941 -1.2969  2.3090
 9057SOL    HW238631   3.144   3.475  15.203  0.8232  0.9059  0.7817
 9058SOL     OW38632   3.033   2.508  10.287  0.4301 -0.0276  0.2980
 9058SOL    HW138633   2.997   2.420  10.275  1.6763 -0.0869 -3.1272
 9058SOL    HW238634   2.998   2.538  10.203 -2.4632 -1.8140  0.8574
 9059SOL     OW38635   2.548   3.204   6.465 -0.4262 -0.9137 -0.3531
 9059SOL    HW138636   2.555   3.204   6.370 -3.3269  0.0706 -0.5884
 9059SOL    HW238637   2.458   3.234   6.481 -0.4786 -0.5477 -1.3319
 9060SOL     OW38638   3.192   4.494  12.771  0.7267  0.0268  0.2177
 9060SOL    HW138639   3.205   4.588  12.769  0.9653 -0.0370 -1.3094
 9060SOL    HW238640   3.164   4.482  12.680 -1.2041 -1.2856  0.9685
 9061SOL     OW38641   1.065   2.407   6.995  0.1329 -0.4261  0.2301
 9061SOL    HW138642   0.996   2.377   6.935 -0.0996 -0.0695  0.3133
 9061SOL    HW238643   1.010   2.428   7.071  0.2031  0.6534 -0.0209
 9062SOL     OW38644   4.191   0.901   3.066 -0.3314 -0.1695  0.5155
 9062SOL    HW138645   4.267   0.943   3.024 -1.0677 -0.4697 -1.1019
 9062SOL    HW238646   4.231   0.860   3.144  0.1005  0.3203  0.5541
 9063SOL     OW38647   4.138   2.264  16.375 -0.1749  0.8769  0.3398
 9063SOL    HW138648   4.081   2.337  16.398  0.4594  1.4958 -0.0854
 9063SOL    HW238649   4.218   2.292  16.419 -0.6571  0.9555  1.1632
 9064SOL     OW38650   2.476   2.996   0.980 -0.0564 -0.4262  0.1169
 9064SOL    HW138651   2.424   3.073   0.956  0.9250  0.5608  1.1638
 9064SOL    HW238652   2.499   2.968   0.891  0.8173  0.1375  0.1706
 9065SOL     OW38653   0.771   0.840   9.882  0.7042  0.3447  0.1846
 9065SOL    HW138654   0.711   0.820   9.955  0.7900 -0.1280  0.1283
 9065SOL    HW238655   0.747   0.932   9.875  0.8246  0.3995  0.4867
 9066SOL     OW38656   1.921   3.905  16.682  0.8232  0.2004  0.5429
 9066SOL    HW138657   1.844   3.856  16.710 -0.5395  2.2100  0.3302
 9066SOL    HW238658   1.966   3.836  16.634  1.6678  0.7006  0.6120
 9067SOL     OW38659   0.801   1.573   4.731  0.3327  0.0943  0.2005
 9067SOL    HW138660   0.767   1.484   4.732 -0.7432  0.5115  0.6272
 9067SOL    HW238661   0.797   1.595   4.824  1.2088 -0.9040  0.4651
 9068SOL     OW38662   3.534   0.937   2.182  0.2613  0.8199 -0.1848
 9068SOL    HW138663   3.623   0.921   2.149  0.4520  0.0296  0.7059
 9068SOL    HW238664   3.476   0.884   2.128  0.3755  1.5101 -0.9971
 9069SOL     OW38665   3.129   2.889   6.651 -0.2312  0.1285  0.5912
 9069SOL    HW138666   3.039   2.870   6.625 -0.2106 -0.3433  0.8639
 9069SOL    HW238667   3.137   2.819   6.716 -0.7502 -0.7806 -0.3244
 9070SOL     OW38668   0.200   3.716  17.313 -0.1075  0.3784 -0.3372
 9070SOL    HW138669   0.129   3.657  17.287  0.8983 -1.2308  0.5618
 9070SOL    HW238670   0.282   3.684  17.275  2.0965  2.9481  2.2180
 9071SOL     OW38671   2.573   4.078   6.250 -0.5458 -0.0403  0.4688
 9071SOL    HW138672   2.619   3.999   6.223 -1.3851 -0.0103 -1.0592
 9071SOL    HW238673   2.604   4.065   6.340  1.1387 -0.9258 -0.2402
 9072SOL     OW38674   4.288   3.596   3.271  0.2693  0.1845  0.6511
 9072SOL    HW138675   4.198   3.585   3.303 -0.3591 -1.8096 -1.7182
 9072SOL    HW238676   4.275   3.606   3.176  0.0279  1.1589  0.7892
 9073SOL     OW38677   2.343   4.538   3.663 -0.3437  0.8878  0.0532
 9073SOL    HW138678   2.330   4.547   3.568 -1.1455 -2.0460 -0.1167
 9073SOL    HW238679   2.278   4.470   3.683 -0.0713  0.9493  1.1441
 9074SOL     OW38680   0.573   3.425  17.547  0.0566  0.0710 -0.3053
 9074SOL    HW138681   0.560   3.336  17.581  1.0434  0.7311  1.7634
 9074SOL    HW238682   0.569   3.466  17.634  0.5617  2.1611 -1.2788
 9075SOL     OW38683   0.589   0.795  10.085  0.7414  0.5385  0.3990
 9075SOL    HW138684   0.495   0.799  10.067  1.2747  3.7491 -1.5881
 9075SOL    HW238685   0.601   0.703  10.107 -0.4490 -0.2768 -2.4257
 9076SOL     OW38686   0.007   2.705   2.765 -0.8234  0.6065 -0.4408
 9076SOL    HW138687   4.659   2.640   2.748 -0.8906  1.1231 -2.1791
 9076SOL    HW238688   4.713   2.747   2.849  0.8925 -1.1017  0.7037
 9077SOL     OW38689   0.707   3.770   3.885 -0.5768  0.1089  0.3970
 9077SOL    HW138690   0.766   3.727   3.823 -1.3567  1.1821 -1.0729
 9077SOL    HW238691   0.621   3.741   3.856  0.0055  1.8071 -2.9208
 9078SOL     OW38692   1.208   3.573  17.305  0.6385  0.3400 -0.1793
 9078SOL    HW138693   1.118   3.606  17.301  0.2761 -0.6520 -0.3681
 9078SOL    HW238694   1.197   3.492  17.354 -0.6832  1.3490  1.2003
 9079SOL     OW38695   2.634   3.722   7.525  0.7035 -0.1111  0.0681
 9079SOL    HW138696   2.616   3.645   7.578 -0.5422 -1.1169 -1.7966
 9079SOL    HW238697   2.729   3.706   7.523  1.0421  1.6904  2.4711
 9080SOL     OW38698   3.934   0.834   6.591 -0.2501  0.2798  0.2167
 9080SOL    HW138699   3.999   0.890   6.634  0.9399 -1.6039  0.8952
 9080SOL    HW238700   3.994   0.772   6.549  0.0459 -0.0006  1.0558
 9081SOL     OW38701   3.666   3.867  15.532  0.1153 -0.0604  0.1074
 9081SOL    HW138702   3.614   3.789  15.552  0.4147  0.3170  2.3700
 9081SOL    HW238703   3.665   3.905  15.620  0.4539 -1.2431  0.6134
 9082SOL     OW38704   3.202   1.433   7.435 -0.1355 -0.4165  0.3331
 9082SOL    HW138705   3.257   1.392   7.502  0.0655  0.9369  1.0046
 9082SOL    HW238706   3.271   1.480   7.389 -0.6680 -0.0144 -0.0505
 9083SOL     OW38707   4.459   0.821   2.866 -0.2298  0.1786  0.6405
 9083SOL    HW138708   4.383   0.859   2.821 -1.3933 -0.7039  1.8635
 9083SOL    HW238709   4.445   0.733   2.831  0.6867  0.2989 -0.0277
 9084SOL     OW38710   3.001   2.110   5.174  0.4214  0.3889  0.6644
 9084SOL    HW138711   3.020   2.030   5.223  2.1695 -1.6211 -3.3054
 9084SOL    HW238712   2.906   2.111   5.182  0.2644  1.5023 -1.6140
 9085SOL     OW38713   3.088   1.221   6.768  0.2485 -0.1549 -0.2103
 9085SOL    HW138714   3.041   1.289   6.720 -1.4977 -0.2863  1.2587
 9085SOL    HW238715   3.052   1.231   6.856  0.9936  2.9204 -0.2578
 9086SOL     OW38716   3.627   4.028   5.707  0.6845 -0.1346 -0.4150
 9086SOL    HW138717   3.673   4.008   5.789  0.3446 -0.1239 -0.2228
 9086SOL    HW238718   3.537   4.006   5.732  0.0343  1.6688 -1.1699
 9087SOL     OW38719   4.366   0.563   4.604 -0.5636  0.2472 -0.0623
 9087SOL    HW138720   4.342   0.648   4.643 -1.0320  0.1744 -0.1971
 9087SOL    HW238721   4.369   0.594   4.514 -1.0336 -0.6173 -0.3734
 9088SOL     OW38722   1.817   2.707   3.364  0.4324  0.0415 -0.3600
 9088SOL    HW138723   1.850   2.620   3.386  0.4979  0.4034  0.9884
 9088SOL    HW238724   1.743   2.709   3.424 -0.3285  1.5210 -1.3530
 9089SOL     OW38725   0.765   4.547   4.108 -0.2702  0.1334 -0.7044
 9089SOL    HW138726   0.745   4.458   4.077 -3.4771  1.3539 -2.1701
 9089SOL    HW238727   0.701   4.598   4.059 -1.2378 -0.5484 -0.1612
 9090SOL     OW38728   0.754   4.244   5.195 -0.3291 -0.3253 -0.2805
 9090SOL    HW138729   0.823   4.301   5.161  0.5260 -1.0935  0.1625
 9090SOL    HW238730   0.764   4.251   5.290 -0.2785 -0.0810 -0.3042
 9091SOL     OW38731   2.679   3.702   8.155 -0.2848  0.0213 -0.1453
 9091SOL    HW138732   2.706   3.697   8.063  3.4452 -1.4333  1.0176
 9091SOL    HW238733   2.606   3.641   8.151 -0.4608  0.0582  2.3385
 9092SOL     OW38734   4.689   0.192   8.854 -0.4372  0.2384 -0.6601
 9092SOL    HW138735   0.064   0.191   8.852 -0.4379 -0.7541 -0.5557
 9092SOL    HW238736   4.671   0.100   8.836 -0.1459  0.1439 -0.4669
 9093SOL     OW38737   3.354   2.188   5.126 -0.3480  0.7314  0.4530
 9093SOL    HW138738   3.380   2.238   5.203 -2.1744 -3.4345  3.7766
 9093SOL    HW238739   3.266   2.222   5.110 -0.4832  1.0309  1.8645
 9094SOL     OW38740   3.218   4.059  14.144 -0.1278 -0.4526 -0.3017
 9094SOL    HW138741   3.194   4.126  14.080  0.9648 -0.3859 -0.6280
 9094SOL    HW238742   3.133   4.038  14.184  0.2240 -2.5223 -0.6309
 9095SOL     OW38743   3.230   2.314  12.215 -0.0443 -0.1562  0.3171
 9095SOL    HW138744   3.315   2.346  12.184 -0.0687  0.3418  0.7621
 9095SOL    HW238745   3.251   2.223  12.196  0.0719 -0.3795  1.5131
 9096SOL     OW38746   2.965   0.388   5.291 -0.3262 -0.3093  0.0367
 9096SOL    HW138747   2.953   0.338   5.372 -1.6071  0.0064  0.0519
 9096SOL    HW238748   3.034   0.335   5.253 -0.6325 -1.0987  0.5849
 9097SOL     OW38749   3.283   0.496   5.814  0.2190  0.2835  0.0977
 9097SOL    HW138750   3.244   0.581   5.799  1.6972  1.0142  0.3586
 9097SOL    HW238751   3.374   0.516   5.836  0.7481 -0.3392 -1.5404
 9098SOL     OW38752   1.838   1.475  10.079  0.0877 -0.1320  0.1515
 9098SOL    HW138753   1.753   1.508  10.108 -0.8262  0.5142 -3.2248
 9098SOL    HW238754   1.857   1.533  10.005 -0.0224 -0.3765 -0.0737
 9099SOL     OW38755   1.338   4.296   8.011 -0.5913 -0.0122 -0.3234
 9099SOL    HW138756   1.286   4.322   8.086  0.3287 -0.1232  0.3585
 9099SOL    HW238757   1.417   4.345   8.033 -0.2377 -0.7756  0.1196
 9100SOL     OW38758   2.332   3.691  17.006 -0.4750 -0.2363  0.2906
 9100SOL    HW138759   2.418   3.692  17.048  0.0433  0.2349 -0.7983
 9100SOL    HW238760   2.277   3.695  17.085  0.8486  0.0104  1.2084
 9101SOL     OW38761   0.379   3.529   8.249 -0.2228 -0.2339 -0.0871
 9101SOL    HW138762   0.430   3.490   8.178  2.8834  0.7318  1.5894
 9101SOL    HW238763   0.381   3.452   8.307 -0.1492  0.1742  0.4478
 9102SOL     OW38764   3.619   1.557  12.409 -0.1985 -0.0038 -0.0465
 9102SOL    HW138765   3.534   1.517  12.391 -0.3219  0.2411 -0.0237
 9102SOL    HW238766   3.588   1.642  12.443 -0.9900 -0.2963 -0.0253
 9103SOL     OW38767   0.776   2.446   3.664 -0.2921 -0.3956 -0.0794
 9103SOL    HW138768   0.686   2.435   3.634 -0.6849 -2.8962  1.9539
 9103SOL    HW238769   0.770   2.513   3.732 -0.6454 -0.9355  0.4191
 9104SOL     OW38770   3.389   1.622   7.372 -0.1952 -0.1677 -0.4366
 9104SOL    HW138771   3.473   1.622   7.418 -0.0790 -2.7272 -0.6828
 9104SOL    HW238772   3.383   1.712   7.340 -3.6851  0.3313  1.6460
 9105SOL     OW38773   4.633   4.696   0.591  0.4826  0.1933  0.3912
 9105SOL    HW138774   4.549   4.718   0.631  1.0717  1.6080  0.8510
 9105SOL    HW238775   4.682   4.644   0.654  0.1783  0.4649  0.8512
 9106SOL     OW38776   0.115   0.564   6.875  0.2687 -0.1129  0.2068
 9106SOL    HW138777   0.198   0.605   6.898  0.0283  1.1291 -1.1609
 9106SOL    HW238778   0.048   0.609   6.927 -0.0216 -2.7098  2.1050
 9107SOL     OW38779   0.381   3.567   1.273  0.0793  0.4014  0.2791
 9107SOL    HW138780   0.453   3.513   1.306  0.2896  0.6429  0.2125
 9107SOL    HW238781   0.312   3.502   1.288  0.2740  0.0603 -0.3433
 9108SOL     OW38782   2.373   3.235   7.710  0.7393  0.0051 -0.3057
 9108SOL    HW138783   2.322   3.156   7.727  1.6338 -0.9409 -1.9740
 9108SOL    HW238784   2.420   3.218   7.628 -0.6634  3.9351 -1.9579
 9109SOL     OW38785   3.494   2.601   7.095  0.0151  0.0418 -0.2001
 9109SOL    HW138786   3.492   2.673   7.032 -1.4619  1.6061  1.6208
 9109SOL    HW238787   3.402   2.606   7.121 -0.0052  0.5698 -0.3643
 9110SOL     OW38788   0.468   0.995  12.862  0.0419 -0.5122 -0.0810
 9110SOL    HW138789   0.520   1.043  12.797 -0.8797 -0.3329 -0.6866
 9110SOL    HW238790   0.381   1.005  12.822 -0.8878  1.2090  2.3656
 9111SOL     OW38791   3.540   3.879   7.524 -0.3054 -0.2842 -0.1199
 9111SOL    HW138792   3.519   3.835   7.441 -0.5706 -1.7125  0.6933
 9111SOL    HW238793   3.458   3.927   7.535 -0.0298 -0.1938  1.5500
 9112SOL     OW38794   4.454   4.678   1.684  0.4983  0.0248 -0.7422
 9112SOL    HW138795   4.473   4.716   1.599  0.3910 -0.2864 -0.9080
 9112SOL    HW238796   4.422   0.030   1.737 -0.9396 -0.9732 -0.2261
 9113SOL     OW38797   3.471   4.334  11.449  0.1137 -0.1879 -0.0549
 9113SOL    HW138798   3.509   4.247  11.438 -2.2925 -0.8952 -2.6606
 9113SOL    HW238799   3.546   4.391  11.434  0.5976 -0.9523 -0.5276
 9114SOL     OW38800   1.228   3.928   4.288 -0.2868 -0.3885  0.1599
 9114SOL    HW138801   1.256   3.851   4.336 -2.0813 -0.9049  0.3534
 9114SOL    HW238802   1.141   3.901   4.260 -0.4675 -0.4580  0.8021
 9115SOL     OW38803   0.030   2.168   3.743 -0.0248  0.3900  0.0964
 9115SOL    HW138804   4.672   2.218   3.764 -2.2658 -1.5722 -3.7100
 9115SOL    HW238805   0.073   2.226   3.681  1.0390 -2.1583 -1.5579
 9116SOL     OW38806   1.096   2.471   7.904  0.0479  0.1056 -0.3044
 9116SOL    HW138807   1.170   2.412   7.891  0.3865  0.4716 -0.0300
 9116SOL    HW238808   1.114   2.535   7.836 -0.5415 -1.0715 -1.5680
 9117SOL     OW38809   3.086   3.771   1.913 -0.4016 -0.0391  0.1157
 9117SOL    HW138810   3.099   3.723   1.995  1.2194  2.7890  1.5091
 9117SOL    HW238811   2.994   3.750   1.895 -0.4224 -0.5076  0.7545
 9118SOL     OW38812   0.131   3.154  14.784  0.3058 -0.6889  0.3912
 9118SOL    HW138813   0.103   3.205  14.860  0.1631 -0.4357  0.1665
 9118SOL    HW238814   0.179   3.089  14.835  2.0521  1.1696  1.1095
 9119SOL     OW38815   1.187   2.977   3.351 -0.1381  0.6441  0.0992
 9119SOL    HW138816   1.112   2.996   3.408 -0.9547 -0.7164 -0.5165
 9119SOL    HW238817   1.147   2.921   3.285  0.0167  0.3643  0.2474
 9120SOL     OW38818   2.748   0.373  17.340  0.5051  0.3182 -0.1215
 9120SOL    HW138819   2.802   0.297  17.366  0.4681  0.3721  0.1180
 9120SOL    HW238820   2.732   0.402  17.430  1.5545 -1.2275  0.5756
 9121SOL     OW38821   2.509   1.090   2.348 -0.2518 -0.3886  0.0481
 9121SOL    HW138822   2.557   1.127   2.274  0.2543  1.1177  1.1339
 9121SOL    HW238823   2.578   1.035   2.386 -0.3644 -1.8812 -1.8648
 9122SOL     OW38824   1.204   2.903   5.890 -0.6064  0.0885  0.4257
 9122SOL    HW138825   1.123   2.869   5.927  0.4089 -1.2450  1.4104
 9122SOL    HW238826   1.164   2.967   5.831 -0.3327 -0.8303 -0.7590
 9123SOL     OW38827   1.500   1.519   5.353  0.2354  0.3630 -0.5112
 9123SOL    HW138828   1.476   1.596   5.302  1.4533  1.7385  1.0170
 9123SOL    HW238829   1.413   1.479   5.353  0.0541  0.7570  0.5729
 9124SOL     OW38830   4.407   4.587  10.012 -0.1771  0.0666 -0.7019
 9124SOL    HW138831   4.362   4.583  10.096 -1.2272 -0.0032 -1.2666
 9124SOL    HW238832   4.354   4.652   9.965 -1.0273  1.1885  1.8488
 9125SOL     OW38833   0.721   1.713  14.270  0.4137 -0.1422  0.4805
 9125SOL    HW138834   0.715   1.647  14.201 -1.1473  1.0594 -0.5506
 9125SOL    HW238835   0.716   1.796  14.222 -1.7977 -0.7661 -0.3885
 9126SOL     OW38836   1.698   0.858   6.300  0.0978  0.4476  0.1779
 9126SOL    HW138837   1.689   0.894   6.211  0.5454  0.4312  0.1228
 9126SOL    HW238838   1.753   0.921   6.346  0.8113  0.3239 -0.4933
 9127SOL     OW38839   1.369   4.248   1.825 -0.5014 -0.2871 -0.4893
 9127SOL    HW138840   1.460   4.274   1.810 -0.0955 -0.7410  1.2580
 9127SOL    HW238841   1.354   4.253   1.919  1.2274 -0.8687 -0.1863
 9128SOL     OW38842   4.371   1.786  17.580  0.2956  0.3213  0.5375
 9128SOL    HW138843   4.307   1.747  17.639 -0.2465  1.4029  0.6718
 9128SOL    HW238844   4.311   1.844  17.532 -2.1445 -3.0736 -0.5242
 9129SOL     OW38845   4.105   1.868   0.775 -0.1942  0.2755 -0.5171
 9129SOL    HW138846   4.148   1.791   0.813  0.8520  0.2451 -1.7620
 9129SOL    HW238847   4.101   1.923   0.853 -0.6296 -0.0517 -0.3123
 9130SOL     OW38848   0.979   2.918   5.089 -0.0887 -0.4201  0.1657
 9130SOL    HW138849   0.959   3.009   5.066  0.7504 -0.3891 -0.4385
 9130SOL    HW238850   1.063   2.904   5.047  0.3738  0.3628  0.8240
 9131SOL     OW38851   3.517   0.173   2.485 -0.1587 -0.2444 -0.3331
 9131SOL    HW138852   3.427   0.205   2.490  0.6641  1.7479  1.9703
 9131SOL    HW238853   3.511   0.115   2.409 -2.4581 -1.3496  0.6854
 9132SOL     OW38854   2.467   2.470   7.383  0.5870 -0.4505  0.2022
 9132SOL    HW138855   2.507   2.389   7.413 -2.0320 -0.6032  3.3565
 9132SOL    HW238856   2.536   2.523   7.343  1.5191 -0.5466  1.6748
 9133SOL     OW38857   2.154   1.819   7.389  0.0742 -0.2106  0.1551
 9133SOL    HW138858   2.183   1.728   7.404  1.2617 -0.3762 -3.2349
 9133SOL    HW238859   2.188   1.866   7.465  0.0235 -1.8204  1.1701
 9134SOL     OW38860   1.855   2.753   1.464 -0.3637  0.1730 -0.2979
 9134SOL    HW138861   1.897   2.825   1.417 -0.8476 -0.5687 -1.8859
 9134SOL    HW238862   1.766   2.776   1.437 -0.2771 -0.4836 -1.1689
 9135SOL     OW38863   0.212   3.412   5.036  0.1991 -0.4141  0.2824
 9135SOL    HW138864   0.257   3.491   5.008  0.6994  0.1152  2.6621
 9135SOL    HW238865   0.161   3.393   4.956 -0.4053 -0.5811  0.7048
 9136SOL     OW38866   2.304   2.604   7.801  0.1649 -0.3718  0.5263
 9136SOL    HW138867   2.251   2.623   7.878  2.0761  0.7598  1.5551
 9136SOL    HW238868   2.323   2.513   7.824 -1.2162 -0.9368 -0.5764
 9137SOL     OW38869   2.509   3.284   5.314  0.2537 -0.4345 -0.7500
 9137SOL    HW138870   2.481   3.311   5.226 -0.0954  2.9587  0.4406
 9137SOL    HW238871   2.471   3.197   5.327 -0.1834 -0.2705 -0.9406
 9138SOL     OW38872   4.341   2.710   6.630  1.0516  0.0059 -0.1009
 9138SOL    HW138873   4.270   2.647   6.618  1.0349 -0.0025  0.0370
 9138SOL    HW238874   4.301   2.794   6.607 -0.0491 -0.3141  0.6142
 9139SOL     OW38875   3.805   0.694   7.850  0.3376 -0.3514  0.3530
 9139SOL    HW138876   3.853   0.760   7.900  1.9241 -1.5723  0.4368
 9139SOL    HW238877   3.730   0.702   7.908  0.3806 -0.9754  0.4968
 9140SOL     OW38878   1.203   3.849   7.679  0.4207 -0.2741 -0.0815
 9140SOL    HW138879   1.263   3.876   7.609  0.3748  3.5411  1.3951
 9140SOL    HW238880   1.255   3.824   7.755 -1.0595 -1.0543  0.6667
 9141SOL     OW38881   3.376   2.861   0.559 -0.0816 -0.2742 -0.6818
 9141SOL    HW138882   3.374   2.922   0.484  0.2366  1.9443  1.1002
 9141SOL    HW238883   3.471   2.855   0.572  0.2300  1.6405 -2.0044
 9142SOL     OW38884   3.921   0.365   5.642 -0.2920 -0.1160 -0.1740
 9142SOL    HW138885   3.974   0.412   5.707  0.9036 -1.0363 -0.4685
 9142SOL    HW238886   3.847   0.425   5.641 -1.3781 -1.4539 -0.6825
 9143SOL     OW38887   3.590   3.549   5.244 -0.3603 -0.2385  0.0958
 9143SOL    HW138888   3.532   3.480   5.212  1.7898 -2.2071  0.5171
 9143SOL    HW238889   3.538   3.584   5.318  1.2992 -0.6659  1.4602
 9144SOL     OW38890   0.398   2.045   5.867  0.0422 -0.0102  0.5530
 9144SOL    HW138891   0.437   2.037   5.954  1.8253  3.2575  0.0719
 9144SOL    HW238892   0.371   1.954   5.855  1.4309 -0.6526  2.4340
 9145SOL     OW38893   1.308   2.332   3.130 -0.5028 -0.1385 -0.2590
 9145SOL    HW138894   1.360   2.314   3.052 -0.5016  1.8532 -0.7164
 9145SOL    HW238895   1.248   2.401   3.102  1.3908  1.8425  0.6416
 9146SOL     OW38896   3.568   1.662   5.829  0.4176 -0.2393  0.2577
 9146SOL    HW138897   3.581   1.627   5.740  0.7021 -0.2123  0.2898
 9146SOL    HW238898   3.497   1.608   5.865  1.0633 -0.9452  0.4772
 9147SOL     OW38899   0.292   0.499  12.787 -0.5607 -1.0893  0.3731
 9147SOL    HW138900   0.328   0.587  12.798  0.7240 -1.8443  2.2015
 9147SOL    HW238901   0.328   0.451  12.862 -0.2500 -2.8678 -0.9155
 9148SOL     OW38902   3.479   0.328   3.412 -0.4086 -0.1563 -0.0078
 9148SOL    HW138903   3.536   0.395   3.375  1.2040 -1.3967  0.2440
 9148SOL    HW238904   3.444   0.372   3.490 -0.7647  0.1208 -0.3224
 9149SOL     OW38905   4.174   3.602   2.662 -0.1201  0.1962  0.5923
 9149SOL    HW138906   4.175   3.687   2.707 -1.6077 -0.3100  1.5846
 9149SOL    HW238907   4.116   3.556   2.724 -1.2854  1.5973  0.5538
 9150SOL     OW38908   3.918   1.845   0.280 -0.7013  0.0570  0.4666
 9150SOL    HW138909   3.907   1.859   0.374 -0.0616 -1.1960  0.7191
 9150SOL    HW238910   3.923   1.938   0.257  1.4687  0.1268  1.1710
 9151SOL     OW38911   4.208   4.481   6.457  0.0184 -0.1323 -0.0579
 9151SOL    HW138912   4.141   4.546   6.478 -1.0125 -0.8350 -1.0905
 9151SOL    HW238913   4.155   4.401   6.465 -3.7012  2.4825  1.5510
 9152SOL     OW38914   4.626   2.300   0.847 -0.3135 -0.3993 -0.1385
 9152SOL    HW138915   4.535   2.308   0.875  0.0490 -0.1335  0.9927
 9152SOL    HW238916   4.651   2.391   0.836  0.1864 -0.7219 -1.5950
 9153SOL     OW38917   3.958   0.513   5.896  0.4075 -0.8473  0.4139
 9153SOL    HW138918   3.993   0.492   5.983  0.1738  0.1580  0.7572
 9153SOL    HW238919   3.982   0.605   5.890 -0.8028 -0.4032  2.2087
 9154SOL     OW38920   3.747   2.201  13.019  0.1054  0.0677 -0.1200
 9154SOL    HW138921   3.815   2.190  13.085  1.0286 -2.0796 -1.3934
 9154SOL    HW238922   3.798   2.183  12.940  1.8292  1.8696  0.5996
 9155SOL     OW38923   2.730   3.279   7.525  0.2238  0.4648 -0.3767
 9155SOL    HW138924   2.766   3.284   7.436 -1.8449 -1.8406 -1.3141
 9155SOL    HW238925   2.662   3.212   7.516  0.4711  0.0865  0.6134
 9156SOL     OW38926   0.243   2.617   8.792 -0.0679 -0.3786  0.3644
 9156SOL    HW138927   0.280   2.652   8.873  0.1445  0.2474  0.0013
 9156SOL    HW238928   0.179   2.570   8.845 -0.8031  1.1630  0.8613
 9157SOL     OW38929   0.902   1.572   7.965  0.5266 -0.0418  0.3340
 9157SOL    HW138930   0.925   1.656   8.005  0.4692  0.3984 -0.5435
 9157SOL    HW238931   0.823   1.580   7.911 -0.7540  0.8647  2.3519
 9158SOL     OW38932   2.437   2.396  15.167  0.3663  0.1758 -0.1971
 9158SOL    HW138933   2.372   2.406  15.237  2.1373 -2.4292  1.8009
 9158SOL    HW238934   2.384   2.414  15.090  2.3502 -0.6249 -1.7457
 9159SOL     OW38935   3.773   3.591   6.224 -0.6148 -0.0945  0.3087
 9159SOL    HW138936   3.776   3.643   6.304  1.7134  1.7880 -1.0200
 9159SOL    HW238937   3.688   3.548   6.235 -0.4571 -0.3490  0.5212
 9160SOL     OW38938   4.583   2.021   3.588  0.0243 -0.3835 -0.1704
 9160SOL    HW138939   4.505   2.072   3.608 -0.2993 -0.8417 -0.2617
 9160SOL    HW238940   4.642   2.033   3.663  0.2795 -1.8574 -0.1268
 9161SOL     OW38941   0.962   2.550   1.398 -0.1916 -0.3151  0.1898
 9161SOL    HW138942   1.012   2.474   1.367 -0.4807 -0.7090  0.6750
 9161SOL    HW238943   0.957   2.530   1.492 -2.1420 -2.0508 -0.2872
 9162SOL     OW38944   2.375   2.641   3.928  0.5559 -0.3412  0.4485
 9162SOL    HW138945   2.371   2.579   4.001 -2.2010  1.0938  1.5270
 9162SOL    HW238946   2.371   2.584   3.851  0.9983  2.4520 -1.6588
 9163SOL     OW38947   3.138   2.211  10.616  0.3569 -0.1967 -0.7083
 9163SOL    HW138948   3.152   2.209  10.711  1.9387  0.8816 -0.9287
 9163SOL    HW238949   3.044   2.232  10.614  0.4704  0.2552 -1.1664
 9164SOL     OW38950   4.677   4.171   2.113  0.9722  0.0484  0.6399
 9164SOL    HW138951   4.707   4.261   2.099  2.3674 -0.5139  0.0369
 9164SOL    HW238952   0.036   4.120   2.128 -0.8638 -1.7032  4.7428
 9165SOL     OW38953   4.537   1.403  13.401  0.5432  0.0548 -0.4130
 9165SOL    HW138954   4.522   1.313  13.373 -0.7927 -0.3752  1.6996
 9165SOL    HW238955   4.532   1.440  13.313  1.0999 -0.7012 -0.7654
 9166SOL     OW38956   2.039   1.947   6.127 -0.1456 -0.0508  0.2189
 9166SOL    HW138957   2.134   1.938   6.122 -0.3466 -0.0241 -3.2573
 9166SOL    HW238958   2.009   1.856   6.137  2.2873 -0.7756  0.8270
 9167SOL     OW38959   4.002   1.242   4.634  0.0761 -0.1578 -0.1616
 9167SOL    HW138960   4.090   1.268   4.607 -0.6228  2.1623 -0.1547
 9167SOL    HW238961   3.983   1.299   4.708  1.1900 -0.6778  0.5313
 9168SOL     OW38962   4.612   2.360  15.130  0.0416  0.0960  0.7403
 9168SOL    HW138963   4.579   2.291  15.072  0.4075  0.0157  0.6246
 9168SOL    HW238964   4.588   2.440  15.085  0.4139  0.1531  0.6403
 9169SOL     OW38965   3.378   3.639   3.877  0.4767  0.3787  0.9756
 9169SOL    HW138966   3.401   3.588   3.955 -1.3538 -2.4463 -0.3304
 9169SOL    HW238967   3.283   3.644   3.887  0.5645 -1.1788  2.4614
 9170SOL     OW38968   3.770   4.351   4.616  0.0930 -0.6980 -0.5346
 9170SOL    HW138969   3.821   4.325   4.693  0.3875 -0.1126 -0.5318
 9170SOL    HW238970   3.846   4.366   4.559  0.8029  1.9123  1.1268
 9171SOL     OW38971   2.126   4.213   6.357  0.0295 -0.0428 -0.1545
 9171SOL    HW138972   2.159   4.296   6.322  1.2764  0.3223  1.9151
 9171SOL    HW238973   2.207   4.183   6.398  0.0098 -1.6808 -1.3327
 9172SOL     OW38974   1.453   1.340   9.492  0.3165 -0.6453  0.2252
 9172SOL    HW138975   1.493   1.424   9.512  0.6733  0.1219 -3.5773
 9172SOL    HW238976   1.464   1.332   9.397  0.5833  0.2601  0.1854
 9173SOL     OW38977   0.428   3.780  12.251  0.0435  0.6174 -0.1137
 9173SOL    HW138978   0.442   3.785  12.346  1.1828  0.7932 -0.2953
 9173SOL    HW238979   0.515   3.784  12.212  0.4503 -0.7006  0.6856
 9174SOL     OW38980   0.305   2.095   7.727 -0.3669 -0.4219 -0.5738
 9174SOL    HW138981   0.398   2.090   7.702  0.0249 -2.8508  1.4122
 9174SOL    HW238982   0.270   2.155   7.661  2.6501 -2.1382 -3.7487
 9175SOL     OW38983   3.884   1.605   9.819  0.1120 -0.0103  0.3811
 9175SOL    HW138984   3.957   1.619   9.879  1.2237  1.7284 -1.4051
 9175SOL    HW238985   3.834   1.685   9.837 -2.3102 -2.0549  2.7448
 9176SOL     OW38986   3.586   0.763  15.425 -0.1950  0.0292 -0.3370
 9176SOL    HW138987   3.510   0.748  15.481  0.4852 -0.7248  0.3784
 9176SOL    HW238988   3.611   0.674  15.400 -0.7723 -0.0648 -0.5707
 9177SOL     OW38989   1.581   2.193   1.680 -0.4018 -0.0255 -0.4250
 9177SOL    HW138990   1.583   2.222   1.589  1.2548 -1.3606 -0.8231
 9177SOL    HW238991   1.609   2.102   1.667 -0.9867 -0.5474  2.0338
 9178SOL     OW38992   4.706   0.339  16.860  0.3987 -0.1239 -0.2043
 9178SOL    HW138993   4.670   0.253  16.881 -1.8097  1.0696  0.9447
 9178SOL    HW238994   4.619   0.379  16.855  1.9909  3.3644  0.1731
 9179SOL     OW38995   0.367   0.355   5.224 -0.1199 -0.3954 -0.4992
 9179SOL    HW138996   0.352   0.314   5.309 -0.7585  1.1722  0.1392
 9179SOL    HW238997   0.389   0.279   5.170  0.6378 -0.7088  0.2472
 9180SOL     OW38998   3.411   1.882   2.026  0.1202 -0.2845  0.0153
 9180SOL    HW138999   3.325   1.923   2.032 -0.7576 -2.1731  0.5344
 9180SOL    HW239000   3.382   1.818   1.961  0.8932 -1.9127  1.2613
 9181SOL     OW39001   3.706   3.012   2.661 -0.0753  0.3603 -0.5410
 9181SOL    HW139002   3.652   3.007   2.740  0.9847  1.4840  0.2447
 9181SOL    HW239003   3.739   2.923   2.676 -0.7435  0.7650  3.4215
 9182SOL     OW39004   4.343   1.323  15.258 -0.3402  0.0113  0.0751
 9182SOL    HW139005   4.344   1.405  15.306 -0.1383  0.3760 -0.5586
 9182SOL    HW239006   4.249   1.317  15.238 -0.1807  0.7951 -0.9063
 9183SOL     OW39007   4.125   0.212   3.481  0.4070  0.3244 -0.4351
 9183SOL    HW139008   4.147   0.297   3.519 -3.2660  0.4308  1.4510
 9183SOL    HW239009   4.165   0.148   3.540 -1.1855 -1.0405 -0.8457
 9184SOL     OW39010   3.650   2.715   2.140 -0.0290  0.1324 -0.4509
 9184SOL    HW139011   3.702   2.684   2.066 -0.5166 -2.5638  0.3436
 9184SOL    HW239012   3.631   2.805   2.115  1.2689  0.4329 -0.3809
 9185SOL     OW39013   3.302   3.226   6.792  0.3984  0.5001  0.4168
 9185SOL    HW139014   3.322   3.133   6.801 -2.7432 -0.1512  0.4990
 9185SOL    HW239015   3.243   3.233   6.866 -3.1190 -0.6063 -2.3000
 9186SOL     OW39016   0.229   2.935   3.192  0.5595 -0.5671 -0.1752
 9186SOL    HW139017   0.221   2.949   3.098  0.9548 -0.0610 -0.1362
 9186SOL    HW239018   0.213   2.841   3.189 -0.1917 -0.3890 -1.8684
 9187SOL     OW39019   1.304   3.715  14.408 -0.2758 -0.3842  0.6271
 9187SOL    HW139020   1.336   3.777  14.474 -0.1164 -0.6229  0.7712
 9187SOL    HW239021   1.377   3.713  14.346  0.5892  0.4406  1.6098
 9188SOL     OW39022   3.956   1.882   7.041  0.2116 -0.2823 -0.0096
 9188SOL    HW139023   3.928   1.854   7.128  1.3488  0.6551  0.6615
 9188SOL    HW239024   4.011   1.809   7.013  2.2780  1.1998  0.1471
 9189SOL     OW39025   4.138   1.258   4.206  0.5337  0.7389  0.0552
 9189SOL    HW139026   4.152   1.190   4.139 -1.9645 -0.5977  0.8944
 9189SOL    HW239027   4.082   1.208   4.265 -1.2913  0.4904 -1.8909
 9190SOL     OW39028   0.640   1.883  15.038 -0.2330  0.3740 -0.4648
 9190SOL    HW139029   0.612   1.852  14.952 -4.6783  1.3447  0.6706
 9190SOL    HW239030   0.674   1.807  15.087 -0.9963  0.8519  0.7868
 9191SOL     OW39031   3.538   1.776   0.326 -0.3729  0.0490  0.1332
 9191SOL    HW139032   3.468   1.710   0.331 -0.8838  0.5163 -0.8363
 9191SOL    HW239033   3.527   1.806   0.236  0.0688  0.7116  0.3048
 9192SOL     OW39034   1.965   1.429  11.387 -0.4413  0.7191 -0.6515
 9192SOL    HW139035   1.969   1.505  11.329 -2.3024  1.9260  0.8205
 9192SOL    HW239036   2.025   1.372  11.338 -1.6066 -0.4937 -0.6580
 9193SOL     OW39037   0.799   1.674   5.278 -0.1815  0.1146 -0.2191
 9193SOL    HW139038   0.710   1.676   5.313  0.0668 -1.3780  0.4780
 9193SOL    HW239039   0.841   1.613   5.339 -2.0535  0.3531  1.3474
 9194SOL     OW39040   0.925   0.910   7.225  0.6403  0.1508  0.0239
 9194SOL    HW139041   0.935   0.872   7.312 -0.4600  0.8212  0.4380
 9194SOL    HW239042   0.930   0.828   7.175 -1.5048 -0.1368  0.2896
 9195SOL     OW39043   0.172   1.674  16.124 -0.4418 -0.3956  0.0224
 9195SOL    HW139044   0.141   1.661  16.213 -0.3053  0.1286  0.1468
 9195SOL    HW239045   0.256   1.719  16.138 -0.3642 -0.4697 -0.2101
 9196SOL     OW39046   1.084   4.356   6.139  0.4221 -0.5813 -0.6918
 9196SOL    HW139047   1.054   4.360   6.230  1.5726 -0.5243 -0.3068
 9196SOL    HW239048   1.148   4.286   6.154 -1.6908 -2.5897 -1.0530
 9197SOL     OW39049   1.335   1.604   8.900 -0.5762  0.5691  0.3127
 9197SOL    HW139050   1.387   1.681   8.879  1.8181 -0.7245  1.4909
 9197SOL    HW239051   1.398   1.548   8.854 -1.6518 -0.8156  0.5149
 9198SOL     OW39052   3.829   4.288   8.666 -0.2441  0.7630  0.0430
 9198SOL    HW139053   3.841   4.203   8.623 -1.8882  0.4123  0.2791
 9198SOL    HW239054   3.920   4.314   8.677 -0.2454  0.3806  0.9788
 9199SOL     OW39055   0.739   2.069  11.033  0.2401 -0.2872 -0.1970
 9199SOL    HW139056   0.832   2.090  11.021 -0.6026  1.7499 -3.1713
 9199SOL    HW239057   0.704   2.153  11.061 -3.6292 -1.1728 -2.4630
 9200SOL     OW39058   0.703   0.057   6.762  0.0845 -0.3760  0.6454
 9200SOL    HW139059   0.612   0.070   6.735  0.1827  2.2235  1.5146
 9200SOL    HW239060   0.751   0.136   6.737  0.1564 -0.0335  1.8610
 9201SOL     OW39061   2.268   0.490  12.455 -0.0547 -0.4086  0.1921
 9201SOL    HW139062   2.311   0.487  12.370 -0.4015  0.5466 -0.0098
 9201SOL    HW239063   2.174   0.492  12.437  0.2118  0.2191 -1.0701
 9202SOL     OW39064   1.893   4.116   1.890 -0.1019 -0.0514 -0.0375
 9202SOL    HW139065   1.889   4.050   1.821 -0.5301  0.6411 -0.6765
 9202SOL    HW239066   1.946   4.182   1.845  1.2951 -1.4771 -0.4551
 9203SOL     OW39067   3.190   4.152  16.981  0.5144 -0.2382 -0.0419
 9203SOL    HW139068   3.095   4.162  16.987  0.2591 -0.9931 -2.7980
 9203SOL    HW239069   3.193   4.056  16.970  0.4517  0.2033 -3.7999
 9204SOL     OW39070   2.081   1.439   2.756  0.2391  0.7290 -0.4941
 9204SOL    HW139071   2.034   1.507   2.708 -0.6792 -0.7374 -1.7137
 9204SOL    HW239072   2.152   1.419   2.694 -0.1307 -2.9983  0.2755
 9205SOL     OW39073   0.125   0.973   1.860 -0.0022  0.7165 -0.4674
 9205SOL    HW139074   0.181   1.045   1.890 -0.0628 -0.0074  1.4000
 9205SOL    HW239075   0.133   0.991   1.767 -0.1507 -0.9157 -0.7899
 9206SOL     OW39076   0.967   0.053   3.725  0.0402  0.2629  0.5812
 9206SOL    HW139077   0.923   0.070   3.809 -0.4118  1.4807  0.0962
 9206SOL    HW239078   0.901   0.006   3.675  3.2217 -0.6874 -2.6838
 9207SOL     OW39079   4.407   1.042  14.850 -0.1408  0.0196  0.0245
 9207SOL    HW139080   4.409   1.122  14.798 -3.4039  0.0079 -0.0988
 9207SOL    HW239081   4.428   1.092  14.929  1.4880  0.0308 -0.4201
 9208SOL     OW39082   1.259   1.631   5.630  0.0862  0.6902  0.7875
 9208SOL    HW139083   1.340   1.683   5.635  0.0810  0.7610  0.1689
 9208SOL    HW239084   1.262   1.574   5.553 -0.1618  1.4076  0.2462
 9209SOL     OW39085   0.363   2.925  13.495 -0.0952 -0.3701 -0.0778
 9209SOL    HW139086   0.403   2.842  13.521 -0.9095 -0.2335  1.5639
 9209SOL    HW239087   0.446   2.969  13.473 -0.1080  0.6985  2.0220
 9210SOL     OW39088   4.298   3.892   8.850 -0.0550 -0.2982  0.1991
 9210SOL    HW139089   4.359   3.852   8.912 -1.7632 -1.6434  1.0364
 9210SOL    HW239090   4.269   3.810   8.809  0.3426  0.7937 -2.2454
 9211SOL     OW39091   4.418   3.249   6.212 -0.1801 -0.2105  0.2421
 9211SOL    HW139092   4.468   3.214   6.287  1.8899 -0.2100 -1.1253
 9211SOL    HW239093   4.467   3.329   6.195 -0.7740 -0.1127 -0.9639
 9212SOL     OW39094   1.210   3.170   0.608  0.2423 -0.1237  0.4563
 9212SOL    HW139095   1.289   3.184   0.659  0.9772 -0.3915 -0.6148
 9212SOL    HW239096   1.151   3.238   0.641 -1.7994 -1.5756 -0.2261
 9213SOL     OW39097   4.221   2.364   0.180  0.2959 -0.2312 -0.3882
 9213SOL    HW139098   4.171   2.395   0.256 -1.0019  0.3479 -1.4663
 9213SOL    HW239099   4.162   2.314   0.123  1.5116  1.1667 -2.8760
 9214SOL     OW39100   3.780   3.191   9.772  0.1662  0.1481  0.1527
 9214SOL    HW139101   3.768   3.096   9.762 -1.3157  0.4405 -0.7373
 9214SOL    HW239102   3.730   3.215   9.850 -1.3643  1.8535 -1.3620
 9215SOL     OW39103   2.519   4.420   6.448 -0.2635 -0.3535  0.0566
 9215SOL    HW139104   2.495   4.495   6.392  0.4612  0.0879  0.3443
 9215SOL    HW239105   2.613   4.437   6.454  0.0244 -1.2661 -1.8310
 9216SOL     OW39106   3.161   3.664   8.443 -0.2660  0.2715 -0.5043
 9216SOL    HW139107   3.140   3.753   8.416 -0.4567 -0.1476 -1.7426
 9216SOL    HW239108   3.102   3.615   8.385 -1.9754  2.8211 -0.9366
 9217SOL     OW39109   2.785   4.596   7.121  0.0522 -0.1504 -0.4825
 9217SOL    HW139110   2.776   4.626   7.031  2.3660  1.1465 -0.2819
 9217SOL    HW239111   2.731   4.516   7.120 -0.5194  0.2312 -0.4010
 9218SOL     OW39112   4.402   3.265   2.132 -0.7711  0.1076 -0.1723
 9218SOL    HW139113   4.337   3.286   2.198 -1.9035 -0.6575 -1.0335
 9218SOL    HW239114   4.358   3.281   2.049 -1.5548  1.1798  0.4690
 9219SOL     OW39115   0.580   4.071   9.138  0.4019 -0.0229  0.2333
 9219SOL    HW139116   0.551   4.120   9.215  0.9021  2.1771 -0.9640
 9219SOL    HW239117   0.674   4.084   9.144  0.6477 -1.5810 -0.2392
 9220SOL     OW39118   4.624   1.712  12.785  0.4453 -0.8854  0.4616
 9220SOL    HW139119   4.630   1.716  12.689  2.3212  0.6904  0.6589
 9220SOL    HW239120   4.528   1.714  12.790  0.4448 -1.3503  0.6627
 9221SOL     OW39121   4.027   1.863  15.276 -0.4675 -0.3916  0.7658
 9221SOL    HW139122   3.960   1.800  15.303 -2.3221  1.0637 -0.5030
 9221SOL    HW239123   4.107   1.813  15.260  0.4065  1.4508 -0.5450
 9222SOL     OW39124   3.499   1.278   7.079  0.1509  0.2777 -0.1608
 9222SOL    HW139125   3.444   1.296   7.003  1.2187 -1.6081 -1.4032
 9222SOL    HW239126   3.586   1.257   7.044  0.2163 -1.2376  0.8927
 9223SOL     OW39127   4.154   4.284   2.441 -0.1957 -0.2079 -0.3217
 9223SOL    HW139128   4.124   4.322   2.524  1.4287  1.4194 -0.4892
 9223SOL    HW239129   4.074   4.235   2.419  0.1543 -1.1172  0.4745
 9224SOL     OW39130   2.194   0.801   7.723 -0.3378 -0.0778  0.4635
 9224SOL    HW139131   2.220   0.724   7.673 -0.1507 -0.0932  0.5833
 9224SOL    HW239132   2.099   0.794   7.738 -0.5157 -0.9047 -1.0826
 9225SOL     OW39133   1.955   3.061   7.380 -0.4422  0.9388  0.0217
 9225SOL    HW139134   2.011   2.994   7.341 -3.6197 -0.7429 -1.6467
 9225SOL    HW239135   2.008   3.061   7.459  1.5401 -0.3656 -1.3202
 9226SOL     OW39136   2.057   0.995   8.211 -0.6121 -0.7467 -0.0994
 9226SOL    HW139137   2.139   0.962   8.175  1.0577  1.8550  1.3204
 9226SOL    HW239138   2.085   1.075   8.257 -0.6643 -1.1069  0.5590
 9227SOL     OW39139   3.429   0.047   4.646 -0.2522  0.2059  0.4555
 9227SOL    HW139140   3.426   4.695   4.709  1.8003  0.7341  1.1557
 9227SOL    HW239141   3.462   4.716   4.573  0.5304  0.2465  0.7788
 9228SOL     OW39142   3.651   2.484   3.437 -0.0189 -0.3612  0.0146
 9228SOL    HW139143   3.585   2.416   3.428 -2.5737  2.1227 -0.2310
 9228SOL    HW239144   3.600   2.542   3.494 -0.1374  0.3995 -0.8492
 9229SOL     OW39145   4.694   3.481   7.424 -0.3768  0.0823  0.1140
 9229SOL    HW139146   4.654   3.517   7.503  0.8621 -1.0391  1.2536
 9229SOL    HW239147   4.665   3.542   7.356  1.0219  0.4792 -0.1193
 9230SOL     OW39148   2.177   4.642  14.692 -0.4280  0.4483 -0.1797
 9230SOL    HW139149   2.092   4.623  14.652 -0.7617  0.1888  0.6571
 9230SOL    HW239150   2.222   4.570  14.648  0.0221  0.1990  0.6781
 9231SOL     OW39151   1.919   3.608  11.086  0.8449  0.0360  0.3341
 9231SOL    HW139152   1.907   3.633  11.178  1.2813 -2.9203  1.1691
 9231SOL    HW239153   1.925   3.513  11.097 -1.3913 -0.2431 -0.9871
 9232SOL     OW39154   0.603   2.770   5.793  0.5828 -0.5064 -0.2280
 9232SOL    HW139155   0.623   2.695   5.848  2.1782 -0.2744 -0.4703
 9232SOL    HW239156   0.577   2.834   5.860  1.0392  1.2033 -1.6934
 9233SOL     OW39157   4.509   1.141   4.446 -0.3286 -0.4872 -0.5230
 9233SOL    HW139158   4.433   1.103   4.402 -2.4616  1.4435  1.4582
 9233SOL    HW239159   4.505   1.232   4.417 -2.4108 -0.2243  0.6025
 9234SOL     OW39160   0.412   0.047   5.731  0.2227 -0.2867 -0.4386
 9234SOL    HW139161   0.363   0.021   5.809  0.1494  3.4445  0.7558
 9234SOL    HW239162   0.489   4.712   5.724  1.4623  1.1579  1.6497
 9235SOL     OW39163   1.037   2.310  12.173 -0.5855  0.1920 -0.0814
 9235SOL    HW139164   0.980   2.324  12.099 -1.7443  2.2938  1.2232
 9235SOL    HW239165   0.972   2.318  12.243  0.7210  1.6410  0.9823
 9236SOL     OW39166   4.440   2.168  11.647 -0.4176  0.7015  0.2039
 9236SOL    HW139167   4.350   2.175  11.681  0.7158  1.7591  2.9541
 9236SOL    HW239168   4.482   2.151  11.731 -1.5702 -0.9037  0.4565
 9237SOL     OW39169   4.048   2.203   3.443  0.5446 -0.4680 -0.1013
 9237SOL    HW139170   4.103   2.281   3.435  1.3406 -0.9706  0.4955
 9237SOL    HW239171   4.073   2.186   3.534  1.1517 -2.8990 -0.7347
 9238SOL     OW39172   3.684   4.350   5.835  0.4148  0.2371  0.0760
 9238SOL    HW139173   3.592   4.325   5.846 -0.6947  3.2509 -2.2532
 9238SOL    HW239174   3.734   4.277   5.872  1.5841  0.1535 -1.6782
 9239SOL     OW39175   3.314   3.751  15.696 -0.4858  0.0565  0.2693
 9239SOL    HW139176   3.281   3.671  15.654 -0.3888 -1.1329  2.4445
 9239SOL    HW239177   3.370   3.701  15.756 -2.0989  0.3746  2.0270
 9240SOL     OW39178   1.159   3.675   5.891  0.0537  0.6117  0.3017
 9240SOL    HW139179   1.107   3.699   5.967  1.7955 -0.9069  1.9736
 9240SOL    HW239180   1.130   3.741   5.828  1.4217  1.4744  0.5843
 9241SOL     OW39181   3.818   2.673   3.646 -0.1792 -0.5062  0.2729
 9241SOL    HW139182   3.752   2.608   3.624 -0.0510 -0.6162  0.2147
 9241SOL    HW239183   3.789   2.758   3.611  3.3233  0.9830  0.9008
 9242SOL     OW39184   2.266   2.949   3.523 -0.2121 -0.3821 -0.5544
 9242SOL    HW139185   2.343   2.894   3.539 -0.9451 -1.3943 -0.5259
 9242SOL    HW239186   2.196   2.888   3.543  1.2686 -1.2928  1.8214
 9243SOL     OW39187   3.651   1.868   2.901 -0.8094 -0.0774  0.1685
 9243SOL    HW139188   3.651   1.963   2.905  2.0721 -0.1113  1.2186
 9243SOL    HW239189   3.686   1.828   2.981 -1.7448  0.7366  0.9757
 9244SOL     OW39190   1.923   1.536   2.021  0.5355  0.3808 -0.6083
 9244SOL    HW139191   1.980   1.475   2.067 -0.3421  0.2159  0.2728
 9244SOL    HW239192   1.989   1.603   2.001 -0.0717  0.7766 -1.3132
 9245SOL     OW39193   4.694   0.475   8.984  0.1987  0.6810  0.4138
 9245SOL    HW139194   4.686   0.469   9.080 -0.0247  0.8265  0.4028
 9245SOL    HW239195   4.607   0.451   8.953  0.9549  0.1515 -1.2719
 9246SOL     OW39196   0.480   2.922   1.264  0.4445  0.5878  0.1029
 9246SOL    HW139197   0.543   2.867   1.311 -0.7386 -2.1592 -1.5067
 9246SOL    HW239198   0.411   2.865   1.231  1.6356  1.6570 -4.2544
 9247SOL     OW39199   3.884   0.874   3.384 -0.3128  0.3511  0.3229
 9247SOL    HW139200   3.867   0.943   3.449  0.4819  0.7709  0.0787
 9247SOL    HW239201   3.976   0.853   3.374 -0.1147  2.3981 -2.0759
 9248SOL     OW39202   4.053   4.043  16.400 -0.6693  0.3646  0.2660
 9248SOL    HW139203   3.963   4.075  16.406 -0.4347  1.0224  0.2442
 9248SOL    HW239204   4.099   4.124  16.377 -0.8988  0.4430  0.0917
 9249SOL     OW39205   1.743   2.563   2.194  0.0175 -0.0115 -0.2500
 9249SOL    HW139206   1.737   2.601   2.281  0.5750  0.6065 -0.4764
 9249SOL    HW239207   1.678   2.609   2.141  0.2210 -0.7459 -1.1490
 9250SOL     OW39208   0.550   2.744   8.534  0.3209  0.3682 -0.5044
 9250SOL    HW139209   0.482   2.681   8.557  0.5123  0.9492  1.7469
 9250SOL    HW239210   0.500   2.812   8.490 -0.6778  0.4340  0.7212
 9251SOL     OW39211   1.653   3.217   2.454 -0.5005 -0.6801  0.1141
 9251SOL    HW139212   1.631   3.307   2.432  0.7080  0.0047  1.7393
 9251SOL    HW239213   1.644   3.225   2.549 -1.9732  2.0821 -0.2511
 9252SOL     OW39214   3.943   0.634   0.430 -0.0073 -0.1931  0.2443
 9252SOL    HW139215   3.875   0.601   0.489  0.5941 -2.4266 -0.3114
 9252SOL    HW239216   4.013   0.659   0.491  0.1247  1.2311 -0.4942
 9253SOL     OW39217   1.536   4.706   8.121  0.3548 -0.3261 -0.0391
 9253SOL    HW139218   1.497   0.009   8.205 -1.8800 -2.8120 -0.3903
 9253SOL    HW239219   1.624   0.017   8.140  0.6761 -1.5102  0.3956
 9254SOL     OW39220   3.038   4.212   2.339  0.2626  0.6961  0.3878
 9254SOL    HW139221   2.970   4.266   2.299 -0.3310 -0.2388  0.1401
 9254SOL    HW239222   3.116   4.255   2.306 -0.4940  1.5001 -0.3280
 9255SOL     OW39223   0.374   4.664   8.033  0.1820 -0.3424 -0.4908
 9255SOL    HW139224   0.452   4.618   8.003  0.9165  0.7374 -0.2151
 9255SOL    HW239225   0.408   0.018   8.082  0.4668 -0.7691 -0.0445
 9256SOL     OW39226   3.164   2.832   9.155  0.3289  0.2207 -0.1322
 9256SOL    HW139227   3.197   2.744   9.170  1.3242  0.2405 -2.1967
 9256SOL    HW239228   3.247   2.880   9.164 -0.7319  2.1361 -0.4537
 9257SOL     OW39229   1.345   3.541   8.311 -0.0651 -0.2424  0.2589
 9257SOL    HW139230   1.336   3.464   8.367  0.1085  0.7398  1.6381
 9257SOL    HW239231   1.275   3.522   8.248 -1.2319 -0.7413  1.7135
 9258SOL     OW39232   1.953   4.583   6.311 -0.0734  0.1222 -0.2205
 9258SOL    HW139233   1.917   4.495   6.302  1.4817 -0.5556  0.2844
 9258SOL    HW239234   2.043   4.583   6.343 -0.6186  0.5032  1.3211
 9259SOL     OW39235   3.829   4.028  13.728  0.1807 -0.5843 -0.3278
 9259SOL    HW139236   3.783   3.988  13.654  0.5662 -0.2063 -0.7697
 9259SOL    HW239237   3.768   4.024  13.802  1.0447  2.0876  0.5123
 9260SOL     OW39238   2.641   1.047  16.462 -0.7318 -0.4355  0.2228
 9260SOL    HW139239   2.637   0.966  16.514  1.1918  0.0162  1.0376
 9260SOL    HW239240   2.734   1.062  16.478 -0.5991 -0.1028 -0.8479
 9261SOL     OW39241   0.402   2.605   2.396 -0.0232  0.0573  0.0343
 9261SOL    HW139242   0.379   2.672   2.460  0.4609  0.1703  0.0888
 9261SOL    HW239243   0.453   2.542   2.447 -0.6621 -0.3741  0.1468
 9262SOL     OW39244   4.078   0.178   3.894  0.0977 -0.2997  0.1431
 9262SOL    HW139245   4.101   0.160   3.803  0.7057 -3.0781  0.8549
 9262SOL    HW239246   4.066   0.272   3.882 -1.0401 -0.5370 -0.5225
 9263SOL     OW39247   0.778   0.113   4.999 -0.1147  0.0750  0.1621
 9263SOL    HW139248   0.800   0.199   4.963  0.7071  0.4182  1.4705
 9263SOL    HW239249   0.700   0.086   4.952 -0.0919 -0.5098  0.4628
 9264SOL     OW39250   0.664   0.860   6.929 -0.4738  0.3341  0.0362
 9264SOL    HW139251   0.592   0.835   6.871 -0.8374 -1.0553  1.0860
 9264SOL    HW239252   0.695   0.769   6.934 -1.8342 -0.2226 -1.5029
 9265SOL     OW39253   3.770   3.365  15.555 -0.0706 -0.4105 -0.4530
 9265SOL    HW139254   3.839   3.421  15.591  0.6593 -0.0290 -2.4426
 9265SOL    HW239255   3.712   3.348  15.629 -0.4752  1.7863 -0.2567
 9266SOL     OW39256   2.138   2.124   4.760  0.2671  0.0348  0.4209
 9266SOL    HW139257   2.127   2.029   4.766 -1.4161  0.1865 -0.2134
 9266SOL    HW239258   2.055   2.151   4.720  1.3301  0.4144 -1.5302
 9267SOL     OW39259   0.594   1.098   0.283 -0.0852 -0.6556 -0.1436
 9267SOL    HW139260   0.617   1.012   0.247  0.6673 -0.6827  0.3904
 9267SOL    HW239261   0.610   1.087   0.377  3.6317  1.8583 -0.4757
 9268SOL     OW39262   1.011   4.153   6.947 -0.4691  0.4933  0.5531
 9268SOL    HW139263   1.050   4.123   6.865 -0.3763  0.0568  0.7579
 9268SOL    HW239264   1.003   4.247   6.933 -1.7337  0.0074 -1.8781
 9269SOL     OW39265   2.573   0.609   6.611 -0.5012  0.0433  0.2176
 9269SOL    HW139266   2.546   0.694   6.647 -1.1973  0.9170 -2.3973
 9269SOL    HW239267   2.622   0.628   6.531 -0.0095 -1.6325  0.1252
 9270SOL     OW39268   3.353   2.476   6.117  0.1471 -0.1677  0.2652
 9270SOL    HW139269   3.364   2.406   6.181  0.2193 -0.8322 -0.4802
 9270SOL    HW239270   3.388   2.554   6.161 -2.3522  1.5109 -0.6589
 9271SOL     OW39271   1.792   4.332   4.796 -0.2830  0.3459  0.3886
 9271SOL    HW139272   1.755   4.407   4.749  1.1187 -0.1505 -1.4977
 9271SOL    HW239273   1.870   4.307   4.746 -1.7694 -3.7809  0.1365
 9272SOL     OW39274   2.416   1.961   4.158 -0.5837  0.6617  0.1765
 9272SOL    HW139275   2.439   1.899   4.227 -0.6463 -1.3083 -1.5746
 9272SOL    HW239276   2.485   1.940   4.095 -0.4926  2.7501 -0.4322
 9273SOL     OW39277   2.323   0.878   6.467  0.7306  0.6213  1.2500
 9273SOL    HW139278   2.337   0.954   6.410  1.6466 -1.1433 -0.9016
 9273SOL    HW239279   2.352   0.806   6.410  0.9044 -0.3351  2.5544
 9274SOL     OW39280   0.835   1.516   2.432  0.1549 -0.0962  0.0029
 9274SOL    HW139281   0.895   1.443   2.420 -1.7273 -1.4952 -0.9212
 9274SOL    HW239282   0.814   1.546   2.343  0.2757 -0.6955 -0.2303
 9275SOL     OW39283   4.386   0.759   2.455  0.4380  0.5534  0.4310
 9275SOL    HW139284   4.392   0.715   2.539  1.6916 -3.9035 -1.9881
 9275SOL    HW239285   4.326   0.705   2.403  0.8953 -0.2783  0.7747
 9276SOL     OW39286   1.820   0.947   4.204 -0.4369  0.3040 -0.1492
 9276SOL    HW139287   1.787   1.033   4.177 -0.0452 -0.6012 -3.5328
 9276SOL    HW239288   1.836   0.964   4.297  1.7045 -1.2397 -0.2425
 9277SOL     OW39289   3.398   2.522   0.854  0.2922  0.6622  0.6758
 9277SOL    HW139290   3.471   2.488   0.803 -0.4501 -0.4575  0.3783
 9277SOL    HW239291   3.419   2.504   0.946 -3.5520 -0.4968  1.3001
 9278SOL     OW39292   1.978   2.594  14.646 -0.3130  0.5309  0.6963
 9278SOL    HW139293   1.985   2.688  14.631 -2.0617  0.9387  2.4443
 9278SOL    HW239294   2.037   2.589  14.721  1.6992  1.0283 -0.8377
 9279SOL     OW39295   3.993   3.525   4.933 -0.1509  0.0614  0.0241
 9279SOL    HW139296   3.944   3.466   4.990  0.2238 -1.2460 -1.0246
 9279SOL    HW239297   4.084   3.500   4.946 -0.4582 -2.8777 -3.6434
 9280SOL     OW39298   2.133   2.843  10.290  0.0564  0.3815 -0.3657
 9280SOL    HW139299   2.115   2.766  10.344 -2.2494  2.4684  1.7946
 9280SOL    HW239300   2.148   2.913  10.353  0.3338 -0.2305  0.2462
 9281SOL     OW39301   2.771   3.840  10.626  0.5846 -0.2590  0.5068
 9281SOL    HW139302   2.760   3.857  10.720 -0.3888 -1.5837  0.6476
 9281SOL    HW239303   2.789   3.927  10.592  1.1158 -0.4326  0.3478
 9282SOL     OW39304   3.891   2.388   9.725  0.1767 -0.1511  0.1149
 9282SOL    HW139305   3.921   2.478   9.714  0.3789  0.0290  2.0371
 9282SOL    HW239306   3.798   2.408   9.739  0.2200 -0.2683  0.5789
 9283SOL     OW39307   2.811   0.393   6.273  0.0753  0.0389 -0.0069
 9283SOL    HW139308   2.787   0.466   6.216  2.0144 -0.4749 -1.5011
 9283SOL    HW239309   2.879   0.421   6.334  0.4352  0.8397 -0.7681
 9284SOL     OW39310   2.640   2.404   9.328 -0.9724 -0.1806 -0.0731
 9284SOL    HW139311   2.608   2.447   9.407  0.5094 -0.8038  0.8797
 9284SOL    HW239312   2.731   2.429   9.345 -1.1428  1.0715 -0.9874
 9285SOL     OW39313   1.513   3.799   5.879  0.4921 -0.2509 -0.2619
 9285SOL    HW139314   1.438   3.844   5.839 -0.4975  0.0223  1.8963
 9285SOL    HW239315   1.566   3.875   5.904 -2.1300  1.8663 -1.0304
 9286SOL     OW39316   0.907   0.474   6.514 -0.0362 -0.0819  0.2163
 9286SOL    HW139317   0.994   0.435   6.500  0.6474  1.6661 -0.3792
 9286SOL    HW239318   0.876   0.405   6.573  0.3223 -1.0458 -0.7261
 9287SOL     OW39319   3.346   4.287  15.821 -0.1415 -0.2619  0.3455
 9287SOL    HW139320   3.255   4.271  15.847 -0.5803 -0.8429 -1.5355
 9287SOL    HW239321   3.383   4.199  15.809 -0.4491 -0.4917  1.0474
 9288SOL     OW39322   4.157   2.929  16.017  0.5550 -0.2378 -0.6767
 9288SOL    HW139323   4.169   2.835  16.007 -1.4169 -0.7858  1.9812
 9288SOL    HW239324   4.240   2.958  16.054  0.3995 -0.2760 -0.2977
 9289SOL     OW39325   4.711   3.492  14.638  0.5146 -0.3059 -0.4816
 9289SOL    HW139326   0.013   3.489  14.731 -1.3404 -2.2260 -0.0971
 9289SOL    HW239327   0.073   3.524  14.602  0.6677 -1.0460 -0.7855
 9290SOL     OW39328   1.453   2.468  14.604  0.3278 -1.0817  0.1005
 9290SOL    HW139329   1.544   2.474  14.577 -0.0540 -1.3832 -1.2696
 9290SOL    HW239330   1.463   2.433  14.693 -2.4839  0.2972  0.9521
 9291SOL     OW39331   3.003   2.909   6.066  0.3671 -0.5523 -0.6275
 9291SOL    HW139332   3.094   2.919   6.095 -0.1657  1.2585  0.3804
 9291SOL    HW239333   3.011   2.952   5.981 -0.0308  0.1011 -0.3321
 9292SOL     OW39334   1.465   3.069   4.690  0.0424  0.6327  0.3926
 9292SOL    HW139335   1.519   3.068   4.611 -1.6224  0.8540 -0.7581
 9292SOL    HW239336   1.482   2.979   4.716  2.8105  0.7697 -0.9403
 9293SOL     OW39337   2.076   2.961  16.411 -0.0172 -0.1233  0.1484
 9293SOL    HW139338   2.068   2.984  16.319  1.4635  0.7991  0.2470
 9293SOL    HW239339   2.166   2.929  16.424  1.2923  2.3963 -2.6154
 9294SOL     OW39340   2.879   4.015   4.439 -0.2917 -0.4378  0.7115
 9294SOL    HW139341   2.821   4.073   4.391 -1.9789 -1.1534  1.9053
 9294SOL    HW239342   2.859   3.932   4.396  0.4729  0.9405 -2.3295
 9295SOL     OW39343   0.665   2.327  10.563 -0.3201  0.1166  0.2214
 9295SOL    HW139344   0.731   2.378  10.610 -0.1814  0.7038 -0.6117
 9295SOL    HW239345   0.718   2.281  10.497 -0.5176  0.0998  0.0733
 9296SOL     OW39346   0.928   1.249  13.838 -0.0531  0.4631 -0.1759
 9296SOL    HW139347   0.891   1.209  13.759  0.9144  3.0546 -1.9382
 9296SOL    HW239348   0.853   1.298  13.872 -0.1586 -1.0771  1.8490
 9297SOL     OW39349   3.831   3.233   3.588 -0.0053  0.2579 -0.7304
 9297SOL    HW139350   3.801   3.158   3.537  1.2652 -0.1146 -0.9048
 9297SOL    HW239351   3.802   3.307   3.534 -0.9325 -0.0679 -0.6754
 9298SOL     OW39352   0.313   3.485   0.340  0.2362 -0.0407 -0.0853
 9298SOL    HW139353   0.327   3.559   0.398  2.0225  0.7669 -1.5367
 9298SOL    HW239354   0.236   3.519   0.293 -0.9674 -1.3716  0.9109
 9299SOL     OW39355   0.312   0.961   0.375 -0.0093  0.2472 -0.0306
 9299SOL    HW139356   0.402   0.936   0.353 -0.0583  0.2584 -0.2366
 9299SOL    HW239357   0.302   1.051   0.406  1.2543 -0.5458  2.7555
 9300SOL     OW39358   0.803   3.977   5.943 -0.2966 -0.1342 -0.3487
 9300SOL    HW139359   0.880   4.033   5.949  0.8540 -1.6798 -0.6262
 9300SOL    HW239360   0.820   3.939   5.857 -1.1490  0.4792 -0.7820
 9301SOL     OW39361   2.401   2.464   1.017  0.4158 -0.1262  0.3775
 9301SOL    HW139362   2.425   2.504   0.933 -2.8053 -1.3149 -1.1204
 9301SOL    HW239363   2.308   2.487   1.026 -0.1289 -1.9077 -0.8112
 9302SOL     OW39364   0.053   0.321   6.762 -0.2385  0.3093  0.4127
 9302SOL    HW139365   0.072   0.399   6.815  0.9192 -0.2319  0.7974
 9302SOL    HW239366   0.130   0.271   6.790 -0.2235  0.1738  0.1363
 9303SOL     OW39367   1.208   0.723   8.678 -0.2785  0.7598 -0.6276
 9303SOL    HW139368   1.279   0.786   8.689 -0.5531  0.9947 -0.1892
 9303SOL    HW239369   1.225   0.659   8.747  3.2990  1.8069 -0.5390
 9304SOL     OW39370   4.293   0.103  15.749 -0.6175  0.0207  0.3758
 9304SOL    HW139371   4.202   0.102  15.719 -0.8420 -0.4414  1.0615
 9304SOL    HW239372   4.302   0.035  15.816  1.9621  0.2135  0.2018
 9305SOL     OW39373   2.090   4.634   4.677 -0.5061 -0.8272  0.3476
 9305SOL    HW139374   2.122   4.625   4.587  1.2598 -1.0091  0.9981
 9305SOL    HW239375   2.090   4.542   4.705 -3.5191 -0.4572  1.5075
 9306SOL     OW39376   0.339   1.609   3.570  0.3011  0.4334 -0.0372
 9306SOL    HW139377   0.264   1.552   3.552 -1.9241  3.2978  0.2509
 9306SOL    HW239378   0.331   1.670   3.497  0.1157  1.2909  0.7096
 9307SOL     OW39379   2.135   2.868   5.157 -0.0989 -0.2236  0.0640
 9307SOL    HW139380   2.097   2.801   5.100  0.2605  0.3694 -0.8848
 9307SOL    HW239381   2.191   2.909   5.091  1.6493 -1.7663  0.6203
 9308SOL     OW39382   4.151   0.522   5.640  0.1557 -0.5572  0.4341
 9308SOL    HW139383   4.185   0.496   5.726  1.1813  0.1526  0.2339
 9308SOL    HW239384   4.162   0.438   5.596 -2.7921 -1.6516  1.7512
 9309SOL     OW39385   0.342   3.871  15.096 -0.1154  0.1515  0.1760
 9309SOL    HW139386   0.291   3.824  15.163  1.2546  0.7938  1.6699
 9309SOL    HW239387   0.402   3.917  15.154  0.0484 -0.1368  0.2389
 9310SOL     OW39388   1.824   0.435   2.469  0.0935 -0.0181 -0.0303
 9310SOL    HW139389   1.900   0.439   2.527 -1.1802  3.2565  1.4194
 9310SOL    HW239390   1.815   0.524   2.434  0.9838  0.1662  0.2023
 9311SOL     OW39391   1.839   4.670   9.735 -0.5860  0.2007 -0.0485
 9311SOL    HW139392   1.776   4.707   9.674 -0.5334 -0.6937 -0.6625
 9311SOL    HW239393   1.916   0.001   9.712 -0.0556 -1.4249 -1.9642
 9312SOL     OW39394   4.479   2.584   1.157 -0.2010  0.4375  0.1375
 9312SOL    HW139395   4.410   2.632   1.111  1.0414  0.9943 -1.1830
 9312SOL    HW239396   4.442   2.575   1.244 -1.8394  0.3324 -0.5750
 9313SOL     OW39397   3.208   3.649   8.032 -0.2081  0.6365  1.1362
 9313SOL    HW139398   3.141   3.644   7.963  1.8709  1.4600 -0.9502
 9313SOL    HW239399   3.212   3.562   8.071 -0.4568 -0.4566 -1.2706
 9314SOL     OW39400   1.116   0.892  12.832  0.0543 -0.1399 -0.0827
 9314SOL    HW139401   1.207   0.903  12.804 -0.5287  0.0818 -1.8783
 9314SOL    HW239402   1.104   0.976  12.876  1.0535  1.3187 -2.5955
 9315SOL     OW39403   1.874   1.064   6.410  0.6610 -0.1877  0.0813
 9315SOL    HW139404   1.911   1.050   6.497  0.2496 -2.5240 -0.1110
 9315SOL    HW239405   1.955   1.057   6.358  2.0814 -0.4744  2.3344
 9316SOL     OW39406   3.077   0.098   6.425 -0.1479 -0.0286 -0.2872
 9316SOL    HW139407   2.988   0.080   6.393  0.4273 -0.2209 -1.7892
 9316SOL    HW239408   3.116   0.012   6.441 -1.1624 -0.7062 -1.4076
 9317SOL     OW39409   1.391   0.598  15.972  0.0181 -0.5606  0.2135
 9317SOL    HW139410   1.343   0.681  15.975  0.9630  0.1348 -4.1403
 9317SOL    HW239411   1.470   0.625  15.925 -0.5482  1.0011  0.1455
 9318SOL     OW39412   4.143   3.813   4.225  0.1226 -0.3161  0.2004
 9318SOL    HW139413   4.145   3.793   4.131  0.6233 -1.5942  0.4896
 9318SOL    HW239414   4.172   3.729   4.258 -1.0221 -0.4960  0.7353
 9319SOL     OW39415   4.712   1.271   3.180  0.1080 -0.1327  0.0088
 9319SOL    HW139416   4.625   1.281   3.140 -0.3221 -0.5334  0.8568
 9319SOL    HW239417   4.693   1.233   3.265 -0.8279 -0.4893 -0.3564
 9320SOL     OW39418   4.221   4.297   8.501 -0.4305  0.1179  0.8692
 9320SOL    HW139419   4.142   4.291   8.554 -2.2925  2.5560 -1.6261
 9320SOL    HW239420   4.276   4.368   8.533  1.4489 -2.1480  2.6607
 9321SOL     OW39421   0.498   0.878  11.670 -0.0368 -0.1259 -0.1323
 9321SOL    HW139422   0.558   0.819  11.714 -1.6421 -2.4903 -1.1235
 9321SOL    HW239423   0.451   0.923  11.740  1.2188 -1.2544  1.4355
 9322SOL     OW39424   0.080   1.752   7.089 -0.4390 -0.3406  0.3564
 9322SOL    HW139425   0.129   1.683   7.134 -2.0987 -2.3311 -0.8946
 9322SOL    HW239426   0.061   1.813   7.160  1.8406 -0.8227  1.3733
 9323SOL     OW39427   2.179   0.258  15.049 -0.5424 -0.3626  0.2340
 9323SOL    HW139428   2.091   0.227  15.066 -0.3979  0.3095  2.2042
 9323SOL    HW239429   2.226   0.233  15.129  1.7151 -1.8749 -1.5701
 9324SOL     OW39430   1.086   3.527  14.895 -0.4718 -0.3346  0.5245
 9324SOL    HW139431   1.010   3.496  14.845  0.0403  1.6975 -1.5004
 9324SOL    HW239432   1.040   3.545  14.977 -0.9087 -1.1369  0.4561
 9325SOL     OW39433   2.687   1.335  16.641  0.2354 -0.8903 -0.1629
 9325SOL    HW139434   2.609   1.308  16.690 -0.4602 -0.2299 -0.9083
 9325SOL    HW239435   2.648   1.369  16.561 -0.7331  1.5872  1.3574
 9326SOL     OW39436   4.386   1.462   3.209  0.2731 -0.0802  0.3473
 9326SOL    HW139437   4.376   1.384   3.155  3.7238 -2.7209  3.5397
 9326SOL    HW239438   4.304   1.510   3.202 -0.7192 -1.5483  2.0259
 9327SOL     OW39439   3.991   0.326   7.571  0.6282  0.1772  0.0518
 9327SOL    HW139440   4.060   0.384   7.539 -0.6556  0.9435 -1.3222
 9327SOL    HW239441   3.924   0.355   7.509 -0.9280 -1.0484  1.1566
 9328SOL     OW39442   4.508   3.006   9.476 -0.0036 -0.0778 -0.1809
 9328SOL    HW139443   4.469   3.059   9.545  0.5408  1.5996 -1.1698
 9328SOL    HW239444   4.488   3.049   9.394  0.4000  1.2529  0.4237
 9329SOL     OW39445   1.663   2.082   8.323 -0.0158 -0.0447 -0.2081
 9329SOL    HW139446   1.688   2.003   8.275  0.5209  0.6579 -1.0627
 9329SOL    HW239447   1.603   2.052   8.392 -1.0319  0.7116 -0.7755
 9330SOL     OW39448   0.186   0.691   3.105  0.3834 -0.0870  0.5303
 9330SOL    HW139449   0.179   0.749   3.181  0.7189 -0.2450  0.6794
 9330SOL    HW239450   0.142   0.614   3.140 -1.4511  0.1578 -1.2523
 9331SOL     OW39451   0.332   0.386   9.397  0.4324 -0.0167 -0.1225
 9331SOL    HW139452   0.354   0.437   9.319  0.2663  0.4541  0.1383
 9331SOL    HW239453   0.251   0.339   9.378  1.0562 -0.1898 -2.3736
 9332SOL     OW39454   0.877   3.508   6.255 -0.0394 -0.7282 -0.1554
 9332SOL    HW139455   0.920   3.555   6.184 -1.7213  0.9489 -0.0583
 9332SOL    HW239456   0.936   3.434   6.271  2.3447  1.0781 -0.5572
 9333SOL     OW39457   2.506   0.730   6.049  0.0598  0.0994 -0.3767
 9333SOL    HW139458   2.580   0.687   6.007 -0.9016 -0.8006 -1.1508
 9333SOL    HW239459   2.521   0.820   6.020 -0.2011  0.0690 -0.6029
 9334SOL     OW39460   3.085   4.486   4.090 -0.3726  0.8096  0.4195
 9334SOL    HW139461   3.077   4.394   4.068 -2.0528  1.0670 -0.0796
 9334SOL    HW239462   3.166   4.486   4.140  0.6183 -0.3915 -1.1906
 9335SOL     OW39463   4.700   2.324   5.436  0.0756 -0.3408  0.3930
 9335SOL    HW139464   4.667   2.412   5.416 -2.3353 -1.1613  0.7645
 9335SOL    HW239465   4.619   2.274   5.450  1.8416 -2.6373  2.2320
 9336SOL     OW39466   2.786   4.344  10.213  0.1783  0.3518 -0.3191
 9336SOL    HW139467   2.810   4.261  10.253 -2.5562  0.3617  1.3630
 9336SOL    HW239468   2.727   4.382  10.279  0.1988 -0.7204  0.3166
 9337SOL     OW39469   4.361   2.282  10.710 -0.0722  0.0841 -0.0630
 9337SOL    HW139470   4.443   2.265  10.756  0.2851  1.5433 -0.1807
 9337SOL    HW239471   4.301   2.230  10.764 -0.1693 -0.4993 -0.7374
 9338SOL     OW39472   0.893   0.910   3.848  0.6222  0.6428 -0.8199
 9338SOL    HW139473   0.812   0.926   3.896  0.0305  1.7049 -2.1830
 9338SOL    HW239474   0.864   0.864   3.770  1.4957  1.1678 -1.4567
 9339SOL     OW39475   1.329   1.995   8.047  0.0292  0.1783  0.0923
 9339SOL    HW139476   1.395   1.937   8.086 -0.5389 -0.4308  0.1597
 9339SOL    HW239477   1.312   2.055   8.120  0.0830 -0.8469  0.9588
 9340SOL     OW39478   2.637   4.123   7.823  0.1744  0.5678 -0.6919
 9340SOL    HW139479   2.635   4.197   7.884  0.1961  0.6324 -0.7697
 9340SOL    HW239480   2.617   4.046   7.876 -1.1310 -0.3638 -2.5115
 9341SOL     OW39481   1.877   3.338   6.625  0.0251 -0.4586 -0.9123
 9341SOL    HW139482   1.878   3.247   6.593  2.3102 -0.7686  0.0521
 9341SOL    HW239483   1.935   3.344   6.700  0.0923  0.3969 -1.0316
 9342SOL     OW39484   1.462   2.610   3.844  0.0810  0.6557  0.4168
 9342SOL    HW139485   1.382   2.661   3.828 -0.6353 -0.3474  0.8116
 9342SOL    HW239486   1.487   2.591   3.753 -1.2490 -0.6081  0.3264
 9343SOL     OW39487   3.511   3.088  16.701  0.4528  0.3225  0.0354
 9343SOL    HW139488   3.569   3.069  16.627 -1.1843  1.0373 -1.4439
 9343SOL    HW239489   3.572   3.108  16.772  0.7939  1.0129 -0.4506
 9344SOL     OW39490   1.827   3.502   9.351  0.2014  0.0641  0.4567
 9344SOL    HW139491   1.782   3.484   9.434 -0.1159  0.3029  0.3388
 9344SOL    HW239492   1.890   3.569   9.375  2.0370 -1.6111  0.2845
 9345SOL     OW39493   1.933   0.866  11.999  0.0245 -0.3545 -0.1607
 9345SOL    HW139494   1.953   0.930  12.068  0.6976  1.0312 -1.6287
 9345SOL    HW239495   1.953   0.784  12.044 -1.4535 -0.9898 -0.6645
 9346SOL     OW39496   2.500   2.627   6.175 -0.1230  0.0361  0.0838
 9346SOL    HW139497   2.415   2.604   6.137  0.6197 -2.6498  0.0754
 9346SOL    HW239498   2.528   2.695   6.113 -0.6233 -0.3771 -0.5938
 9347SOL     OW39499   2.724   3.377  11.067 -0.0841  0.2454 -0.1170
 9347SOL    HW139500   2.799   3.320  11.053  1.0858  1.4355  1.3832
 9347SOL    HW239501   2.693   3.389  10.978 -0.8766 -0.6807  0.0251
 9348SOL     OW39502   2.655   2.400  10.083  0.4219  0.1211  0.3411
 9348SOL    HW139503   2.624   2.386  10.173 -2.5580 -0.0269 -0.7379
 9348SOL    HW239504   2.685   2.491  10.089  2.4941 -0.5869  0.8437
 9349SOL     OW39505   2.726   3.090   9.549  0.2515 -0.2270  0.2840
 9349SOL    HW139506   2.734   3.179   9.581  1.6587 -1.1354  2.4649
 9349SOL    HW239507   2.715   3.111   9.456 -2.1075  0.1391  0.6512
 9350SOL     OW39508   1.628   0.138  16.547 -0.2904 -0.5559  0.7462
 9350SOL    HW139509   1.583   0.065  16.505 -0.5004 -0.4380  0.7678
 9350SOL    HW239510   1.576   0.210  16.514  3.1486  1.1001 -1.0451
 9351SOL     OW39511   3.334   1.867   9.830 -0.4113  0.1841 -0.1823
 9351SOL    HW139512   3.367   1.854   9.919  1.8023 -0.5319 -1.1234
 9351SOL    HW239513   3.387   1.940   9.798  1.2158  0.0345  2.1498
 9352SOL     OW39514   2.184   1.921   3.029  0.0088  0.8788  0.0348
 9352SOL    HW139515   2.207   2.011   3.004  0.1342  0.7096 -0.4730
 9352SOL    HW239516   2.188   1.875   2.945  0.3587 -1.5464  1.3893
 9353SOL     OW39517   3.940   1.263  10.077  0.0777 -0.2275 -0.8401
 9353SOL    HW139518   3.894   1.217  10.008  1.0573  0.4229 -1.9342
 9353SOL    HW239519   3.900   1.212  10.147 -0.1683  0.5714 -0.3914
 9354SOL     OW39520   2.885   0.442   8.458 -0.2317  0.1701  1.1250
 9354SOL    HW139521   2.948   0.444   8.530  0.0031 -0.0394  0.9258
 9354SOL    HW239522   2.836   0.363   8.481 -0.7868 -0.8552 -3.6712
 9355SOL     OW39523   1.622   0.355   6.355 -0.3140 -0.2701  0.0789
 9355SOL    HW139524   1.702   0.348   6.303  0.0488 -0.6792  0.7000
 9355SOL    HW239525   1.644   0.434   6.403  0.3212 -1.4079  1.6676
 9356SOL     OW39526   2.776   1.185   6.556  0.2104 -0.6813  0.0857
 9356SOL    HW139527   2.717   1.208   6.484 -0.3060  0.1358  0.7732
 9356SOL    HW239528   2.835   1.260   6.547 -0.6533  0.0953  0.9782
 9357SOL     OW39529   1.037   3.413   3.595 -0.3556 -0.0244  0.5096
 9357SOL    HW139530   1.012   3.328   3.560 -1.7392  0.4289  0.4115
 9357SOL    HW239531   1.030   3.470   3.518  2.9672  0.7038  0.7467
 9358SOL     OW39532   1.243   1.156  16.868 -0.0085 -0.0593  0.0477
 9358SOL    HW139533   1.265   1.107  16.789  1.0899  0.9039 -0.2577
 9358SOL    HW239534   1.327   1.201  16.872 -0.3184  0.4383  0.9793
 9359SOL     OW39535   2.705   4.210   1.698  0.3064  0.3714 -0.0886
 9359SOL    HW139536   2.779   4.265   1.726  0.7253 -0.1088 -0.2537
 9359SOL    HW239537   2.734   4.124   1.729  0.9181  0.4284 -0.4882
 9360SOL     OW39538   4.658   2.645   4.084  0.0850 -0.0615  0.2252
 9360SOL    HW139539   4.609   2.713   4.038 -2.5151 -0.8593  1.8193
 9360SOL    HW239540   4.598   2.621   4.155  0.0185 -1.3370 -0.2482
 9361SOL     OW39541   2.003   1.149  10.602  0.4128  0.1638  0.5117
 9361SOL    HW139542   2.038   1.094  10.672 -0.7611  0.5544  1.4154
 9361SOL    HW239543   1.947   1.091  10.550  2.7723  0.5531 -2.4400
 9362SOL     OW39544   1.157   1.972  15.806 -0.1203  0.7259 -0.6660
 9362SOL    HW139545   1.216   2.007  15.872 -1.1554  0.3987  0.4261
 9362SOL    HW239546   1.139   2.051  15.754 -1.8318 -0.3005 -1.6317
 9363SOL     OW39547   1.885   3.160   6.150 -0.0464  0.2874 -0.1482
 9363SOL    HW139548   1.795   3.155   6.181 -0.2210  1.2475 -0.4772
 9363SOL    HW239549   1.877   3.106   6.071 -1.6150 -1.5720  1.3041
 9364SOL     OW39550   3.033   4.165   4.208 -0.2803  0.7717  0.4331
 9364SOL    HW139551   3.099   4.148   4.275 -0.1936  2.6268  0.8099
 9364SOL    HW239552   2.952   4.185   4.255 -0.1161 -1.0190  1.4637
 9365SOL     OW39553   1.829   2.677  17.174 -0.0722  0.1486  0.6812
 9365SOL    HW139554   1.782   2.753  17.207 -1.8081 -0.0796 -1.3119
 9365SOL    HW239555   1.756   2.634  17.131  0.4149 -0.1616  0.1608
 9366SOL     OW39556   3.869   0.297  17.682 -0.4418 -0.1805  0.8523
 9366SOL    HW139557   3.944   0.242   0.020 -1.0578 -1.1676  0.4750
 9366SOL    HW239558   3.867   0.356   0.073  0.9284  0.0524  0.7074
 9367SOL     OW39559   3.909   2.203   0.989  0.1828 -0.0173 -0.0919
 9367SOL    HW139560   3.883   2.208   1.081  0.8074 -0.3946  0.1086
 9367SOL    HW239561   3.969   2.128   0.987 -1.0536 -1.0398  0.6922
 9368SOL     OW39562   0.439   1.841  17.236  0.2118  0.0172 -0.4844
 9368SOL    HW139563   0.384   1.908  17.276 -0.0650 -0.7647  0.4685
 9368SOL    HW239564   0.517   1.855  17.291 -1.6601  0.9064  1.9471
 9369SOL     OW39565   1.115   4.228  10.608 -0.3050 -0.8544  0.3339
 9369SOL    HW139566   1.197   4.269  10.634 -0.7438 -0.9679  1.9150
 9369SOL    HW239567   1.072   4.203  10.690 -0.8114  1.1861  0.6897
 9370SOL     OW39568   1.953   0.938   4.439 -0.5870 -0.2341 -0.4526
 9370SOL    HW139569   1.977   0.884   4.515  2.5113  2.6502  0.6020
 9370SOL    HW239570   1.978   1.025   4.470 -0.9596 -0.5610  0.7784
 9371SOL     OW39571   4.596   4.606   8.412  0.1854  0.3161 -0.4661
 9371SOL    HW139572   4.619   4.642   8.327 -1.6748 -0.3807 -1.2714
 9371SOL    HW239573   4.582   4.689   8.458  0.3766 -1.7246  3.3650
 9372SOL     OW39574   2.920   3.491  11.729 -0.5941  0.1435 -0.0714
 9372SOL    HW139575   2.853   3.554  11.703  0.9855  1.4713 -0.9727
 9372SOL    HW239576   2.925   3.499  11.824 -0.7329 -2.8261  0.1834
 9373SOL     OW39577   1.131   1.323   1.342 -0.6218 -0.1691  0.1513
 9373SOL    HW139578   1.146   1.301   1.250  0.0116 -3.4550  1.0503
 9373SOL    HW239579   1.194   1.281   1.400 -0.7886 -2.4572 -1.3550
 9374SOL     OW39580   2.042   0.543   4.036 -0.5484 -0.2804  0.0444
 9374SOL    HW139581   2.063   0.605   3.966 -0.5102 -1.2627 -0.8354
 9374SOL    HW239582   2.009   0.476   3.975  0.4924 -1.3641  0.6662
 9375SOL     OW39583   1.398   1.719   4.153  0.1761  0.2982  0.3204
 9375SOL    HW139584   1.461   1.754   4.090 -0.0034  0.9931  0.5244
 9375SOL    HW239585   1.319   1.716   4.098  0.8901  0.8822 -0.7491
 9376SOL     OW39586   4.266   3.742  13.851  0.5171  0.1910 -0.1281
 9376SOL    HW139587   4.315   3.705  13.778  2.6092 -0.0595  1.4141
 9376SOL    HW239588   4.211   3.798  13.795 -0.4038  0.2856  0.8586
 9377SOL     OW39589   4.077   1.988   2.892  0.0713  0.8584  0.6205
 9377SOL    HW139590   4.045   1.986   2.982 -1.4516  0.1826  0.0612
 9377SOL    HW239591   4.067   1.897   2.863  0.8464  0.7642  0.6415
 9378SOL     OW39592   3.022   3.650   3.000  0.4183  0.0567 -0.1761
 9378SOL    HW139593   2.941   3.641   2.949 -0.6466 -0.9241  1.6733
 9378SOL    HW239594   3.028   3.746   2.998  0.9456  0.0559  1.2281
 9379SOL     OW39595   1.780   3.983  11.172 -0.1332  0.8887  0.0341
 9379SOL    HW139596   1.866   3.940  11.168 -0.9773 -0.6465 -1.3049
 9379SOL    HW239597   1.722   3.909  11.160 -1.0103  1.9681 -2.2224
 9380SOL     OW39598   0.738   0.609   0.804  0.3218  0.1504  0.0632
 9380SOL    HW139599   0.765   0.520   0.781 -1.0488 -0.0002 -0.9638
 9380SOL    HW239600   0.708   0.645   0.721  2.7101  3.6111  0.6905
 9381SOL     OW39601   0.933   0.739   6.014  0.0341  0.3174  0.5993
 9381SOL    HW139602   1.019   0.716   5.979  0.1273  0.7344  0.5551
 9381SOL    HW239603   0.939   0.698   6.100  2.1545 -0.7363 -0.0494
 9382SOL     OW39604   4.176   0.742   1.410 -0.5506 -0.2092 -0.0089
 9382SOL    HW139605   4.188   0.783   1.324  1.3955  1.3259  0.9934
 9382SOL    HW239606   4.176   0.648   1.392 -0.1211 -0.2704  0.2939
 9383SOL     OW39607   0.254   0.665   3.894 -0.5174 -0.0538 -0.3246
 9383SOL    HW139608   0.165   0.700   3.887  0.0203  1.3130 -0.3274
 9383SOL    HW239609   0.262   0.658   3.989  0.8190 -3.7777 -0.7104
 9384SOL     OW39610   2.543   0.703   7.330 -0.2855  0.0247 -0.5720
 9384SOL    HW139611   2.479   0.773   7.340 -0.6149 -0.5740  1.6416
 9384SOL    HW239612   2.614   0.738   7.384  1.5541  0.2740 -3.1717
 9385SOL     OW39613   4.323   3.479  12.408  0.5510 -0.2196 -0.4286
 9385SOL    HW139614   4.350   3.566  12.378 -0.5691  0.3504  0.1948
 9385SOL    HW239615   4.404   3.430  12.399  0.8076  0.1536 -0.1584
 9386SOL     OW39616   3.341   2.223   7.804 -0.4259 -0.0556  0.4041
 9386SOL    HW139617   3.434   2.211   7.786 -0.4115  1.4801 -0.5671
 9386SOL    HW239618   3.323   2.309   7.766 -0.6971  1.1550  3.3310
 9387SOL     OW39619   1.750   2.136   5.433  0.2854 -0.6301 -0.1028
 9387SOL    HW139620   1.760   2.108   5.524  3.1847 -3.1808 -1.2072
 9387SOL    HW239621   1.705   2.219   5.445 -0.8836 -1.2503 -0.1766
 9388SOL     OW39622   3.180   4.474   4.563  0.4062  0.2448  0.3793
 9388SOL    HW139623   3.235   4.396   4.554 -0.5669 -0.3113 -0.7662
 9388SOL    HW239624   3.196   4.484   4.657  0.4237 -0.5003  0.4604
 9389SOL     OW39625   1.724   0.349  15.796  0.0923 -0.0285  0.3636
 9389SOL    HW139626   1.648   0.323  15.848  0.5662  0.9648  1.5634
 9389SOL    HW239627   1.687   0.411  15.733 -1.4146  1.6132  2.8465
 9390SOL     OW39628   0.664   1.360   6.678 -0.5309 -0.0127 -0.3546
 9390SOL    HW139629   0.587   1.363   6.621 -0.4112  0.3369 -0.4961
 9390SOL    HW239630   0.615   1.361   6.760 -2.0129  1.0235 -1.2539
 9391SOL     OW39631   4.209   0.331  16.688 -0.0554  0.5695  0.1291
 9391SOL    HW139632   4.238   0.294  16.771 -0.7992 -1.3675 -0.4815
 9391SOL    HW239633   4.232   0.424  16.691  0.9166  0.3963 -2.5818
 9392SOL     OW39634   4.628   4.509   5.111 -0.8034  0.7265  0.2878
 9392SOL    HW139635   4.649   4.422   5.145  1.9132  0.6667 -1.5154
 9392SOL    HW239636   4.545   4.528   5.155 -1.2005 -0.8708  0.2341
 9393SOL     OW39637   3.576   4.387   6.155  0.1163  0.0949 -0.0247
 9393SOL    HW139638   3.521   4.435   6.217 -1.5233 -0.2841 -1.1980
 9393SOL    HW239639   3.546   4.296   6.159  1.6957 -0.4555 -0.7308
 9394SOL     OW39640   1.083   0.913   6.317  0.5227  0.1020 -0.1354
 9394SOL    HW139641   1.150   0.864   6.365 -1.1605 -0.3521  1.7518
 9394SOL    HW239642   1.050   0.848   6.255  1.8843 -1.2806  0.5856
 9395SOL     OW39643   3.002   4.541   4.960 -0.4810  0.3509 -0.6265
 9395SOL    HW139644   2.922   4.549   5.013 -2.1671 -0.9833 -2.9290
 9395SOL    HW239645   3.023   4.448   4.973  1.2770  1.0140  1.1789
 9396SOL     OW39646   3.970   2.745   4.682 -0.0872 -0.2203 -0.3084
 9396SOL    HW139647   3.935   2.787   4.603 -0.8938 -0.2571  0.0384
 9396SOL    HW239648   4.035   2.811   4.708  0.0613 -0.5343  0.1205
 9397SOL     OW39649   4.090   0.776   5.452  0.1687  0.5686 -0.5819
 9397SOL    HW139650   3.996   0.794   5.447  0.2130  1.1408  0.4731
 9397SOL    HW239651   4.094   0.689   5.413  0.7118 -0.4427  1.6729
 9398SOL     OW39652   2.990   0.348   7.744 -0.2523  0.4060 -0.2410
 9398SOL    HW139653   2.917   0.301   7.703 -0.2775 -0.3760  0.7129
 9398SOL    HW239654   3.028   0.385   7.665  1.9737 -0.5097  0.4050
 9399SOL     OW39655   3.783   1.093   6.477  0.0546  0.1772  0.2209
 9399SOL    HW139656   3.697   1.073   6.515  0.8730  0.5698  2.2585
 9399SOL    HW239657   3.814   1.004   6.492 -0.0192  0.2484  0.8151
 9400SOL     OW39658   1.304   0.895  14.956  0.4505  0.1618  0.4455
 9400SOL    HW139659   1.314   0.953  14.880  3.3811  0.9818  1.4839
 9400SOL    HW239660   1.259   0.819  14.920  0.8324 -0.6287  1.6582
 9401SOL     OW39661   0.097   3.003   7.135  0.2415  0.1142 -0.2970
 9401SOL    HW139662   0.069   2.915   7.109 -1.7716  0.6369  0.0693
 9401SOL    HW239663   0.010   3.043   7.143  0.4047  0.3845  0.1145
 9402SOL     OW39664   1.115   1.729   5.097 -0.5197 -0.1762 -0.5790
 9402SOL    HW139665   1.105   1.822   5.117 -1.4333 -0.8183  1.8348
 9402SOL    HW239666   1.042   1.713   5.037 -0.3900 -0.4059 -0.6778
 9403SOL     OW39667   4.614   3.885  11.221  0.6224  0.1223 -0.0570
 9403SOL    HW139668   4.534   3.864  11.268 -0.1450 -2.2866 -2.4271
 9403SOL    HW239669   4.568   3.921  11.146  2.0757  0.9935 -0.5162
 9404SOL     OW39670   4.524   4.613   2.887  0.4020  0.3101 -0.3575
 9404SOL    HW139671   4.443   4.654   2.918  0.0809 -1.3066  0.9051
 9404SOL    HW239672   4.579   4.636   2.961 -0.3339  0.5392  0.1196
 9405SOL     OW39673   4.109   1.097   8.185 -0.2195 -0.1290 -0.5289
 9405SOL    HW139674   4.052   1.047   8.243  2.9639 -3.8230 -0.5747
 9405SOL    HW239675   4.185   1.124   8.236 -1.6069 -0.6942  1.8194
 9406SOL     OW39676   3.613   0.063  11.795  0.3245 -0.2679  0.4803
 9406SOL    HW139677   3.607   4.694  11.760  0.2013 -0.0702 -0.0075
 9406SOL    HW239678   3.706   0.071  11.815  0.1539  1.7572  0.4937
 9407SOL     OW39679   0.740   0.746  17.081  0.1698 -0.4665  0.2973
 9407SOL    HW139680   0.786   0.828  17.097 -1.9430  0.7073  0.3096
 9407SOL    HW239681   0.748   0.705  17.167  2.4258 -1.4929 -0.4089
 9408SOL     OW39682   3.769   3.150   5.226 -0.0818  0.1383  0.5353
 9408SOL    HW139683   3.844   3.098   5.257  0.8485  0.9757 -0.3273
 9408SOL    HW239684   3.735   3.174   5.312 -0.5661  2.7887 -0.4124
 9409SOL     OW39685   3.431   1.372   5.783 -0.3571  0.0522  0.0676
 9409SOL    HW139686   3.455   1.392   5.874  0.6256  1.3186 -0.4633
 9409SOL    HW239687   3.337   1.356   5.791 -0.0765 -1.6991 -0.2237
 9410SOL     OW39688   3.980   0.819  14.306 -0.3714  0.1790  0.2186
 9410SOL    HW139689   3.944   0.761  14.373 -0.4797 -0.5010 -0.4296
 9410SOL    HW239690   3.959   0.771  14.227  2.9818  1.3084 -1.3818
 9411SOL     OW39691   2.962   2.445   4.879  0.3243  0.3978  0.3123
 9411SOL    HW139692   2.959   2.450   4.784  3.5219 -0.5544  0.1802
 9411SOL    HW239693   2.955   2.536   4.908  3.8247  0.8157 -0.1978
 9412SOL     OW39694   2.508   3.133   2.910 -0.0336  0.2082  0.5566
 9412SOL    HW139695   2.521   3.225   2.886  0.5403 -0.1724 -0.5880
 9412SOL    HW239696   2.473   3.094   2.830  2.6366 -0.9748 -0.0237
 9413SOL     OW39697   1.508   1.781   7.346  0.0143  0.2346 -0.7619
 9413SOL    HW139698   1.470   1.722   7.281  1.3776 -0.6605 -0.7577
 9413SOL    HW239699   1.460   1.746   7.421  1.2592 -0.8693 -0.4832
 9414SOL     OW39700   2.924   0.506   3.848  0.5522 -0.0190 -1.1172
 9414SOL    HW139701   2.849   0.448   3.866 -0.4309  1.9804  1.1601
 9414SOL    HW239702   2.896   0.541   3.763  0.7645 -1.1224 -1.6487
 9415SOL     OW39703   0.627   4.577   5.745 -0.1149 -0.0686 -0.5488
 9415SOL    HW139704   0.671   4.534   5.672  1.7726  0.8660  0.0177
 9415SOL    HW239705   0.702   4.602   5.800  0.0527  0.6621 -1.0976
 9416SOL     OW39706   2.672   0.410   3.187  0.0080 -0.1035 -0.3777
 9416SOL    HW139707   2.607   0.356   3.232 -1.6978  1.4383 -0.9852
 9416SOL    HW239708   2.738   0.350   3.153  0.3727 -0.0348  0.2103
 9417SOL     OW39709   2.680   1.830   7.232 -0.5306  0.1763  0.7015
 9417SOL    HW139710   2.628   1.835   7.152  0.0319  1.1154  0.3976
 9417SOL    HW239711   2.624   1.881   7.291  1.1465 -0.7374  3.0517
 9418SOL     OW39712   0.456   3.920   2.771 -0.5853 -0.4354  0.5646
 9418SOL    HW139713   0.448   3.977   2.695  0.3707 -0.3355  0.5383
 9418SOL    HW239714   0.457   3.833   2.731 -0.5336  0.8820 -2.3253
 9419SOL     OW39715   0.035   2.652  15.890  0.1418 -0.0212 -0.3456
 9419SOL    HW139716   0.040   2.703  15.809  1.8026 -1.6371 -1.2537
 9419SOL    HW239717   0.031   2.720  15.957 -0.9169  0.6783 -1.1201
 9420SOL     OW39718   3.385   0.685   5.402  0.0106 -0.3252 -0.1422
 9420SOL    HW139719   3.328   0.609   5.411  0.2100 -0.4594 -0.0275
 9420SOL    HW239720   3.467   0.643   5.375 -0.9828 -1.5013 -1.3611
 9421SOL     OW39721   2.665   3.810   6.998  0.3455  0.3098  0.6711
 9421SOL    HW139722   2.599   3.787   7.064 -1.1807 -1.4866 -1.5193
 9421SOL    HW239723   2.610   3.790   6.923 -0.4436 -1.5100  1.7466
 9422SOL     OW39724   1.746   2.242   3.099 -0.4965  0.4509  0.1808
 9422SOL    HW139725   1.838   2.251   3.124  0.0889 -2.3228 -0.8433
 9422SOL    HW239726   1.721   2.330   3.072 -1.3734 -0.8631 -3.2965
 9423SOL     OW39727   1.353   1.518   7.204  0.0540 -0.3814 -0.2269
 9423SOL    HW139728   1.331   1.547   7.116 -0.8627  0.2541  0.2070
 9423SOL    HW239729   1.271   1.476   7.230  1.3252 -2.9430 -0.3050
 9424SOL     OW39730   0.822   4.545   4.383 -0.0552 -0.6761 -0.2841
 9424SOL    HW139731   0.804   4.535   4.290  1.6865  1.5733 -0.8669
 9424SOL    HW239732   0.779   4.466   4.417 -0.4657 -0.2286  0.2296
 9425SOL     OW39733   0.449   3.445   5.853 -0.0491  0.1909  0.5825
 9425SOL    HW139734   0.417   3.374   5.797  0.2843  1.0832 -0.7345
 9425SOL    HW239735   0.540   3.449   5.823 -0.8653  0.6797 -1.8321
 9426SOL     OW39736   0.766   2.642  14.383  0.0139  0.0535  0.2576
 9426SOL    HW139737   0.831   2.611  14.320  1.6533  0.2984  1.8296
 9426SOL    HW239738   0.777   2.579  14.454  2.0291 -0.0793 -0.1847
 9427SOL     OW39739   3.216   2.357   0.713 -0.1017 -0.3467  0.2790
 9427SOL    HW139740   3.280   2.312   0.658  0.7775 -0.8477  1.7182
 9427SOL    HW239741   3.266   2.419   0.767 -0.3664  0.8144 -0.8129
 9428SOL     OW39742   4.309   4.494   7.626 -0.6530 -0.0168  0.3221
 9428SOL    HW139743   4.362   4.449   7.692  1.2873 -0.8788 -1.8298
 9428SOL    HW239744   4.377   4.551   7.592 -1.9776  1.3791  0.0315
 9429SOL     OW39745   1.523   1.850   8.459 -0.4690 -0.1562  0.1346
 9429SOL    HW139746   1.522   1.792   8.535  1.5643  0.7742  0.8591
 9429SOL    HW239747   1.434   1.886   8.459  0.2764  1.6703 -2.6616
 9430SOL     OW39748   0.071   1.297   0.930 -0.0796 -0.2809 -0.0367
 9430SOL    HW139749   4.714   1.246   0.950 -0.8232  0.2667 -1.4915
 9430SOL    HW239750   0.110   1.231   0.872  0.1125 -1.9760  2.0474
 9431SOL     OW39751   1.180   2.576   1.951 -0.4280 -0.2222 -0.6399
 9431SOL    HW139752   1.101   2.614   1.913  0.5233  1.6570 -0.7753
 9431SOL    HW239753   1.213   2.652   1.999  2.0706 -0.3490 -2.1758
 9432SOL     OW39754   1.245   0.717   6.449  0.0097 -0.0478  0.0503
 9432SOL    HW139755   1.270   0.779   6.518 -0.1898  1.9207 -1.6357
 9432SOL    HW239756   1.233   0.635   6.495  2.5608  0.0655  0.9435
 9433SOL     OW39757   2.781   1.019  10.869  0.0991 -0.0611 -0.0866
 9433SOL    HW139758   2.746   0.998  10.956  1.4917  0.7452  0.6723
 9433SOL    HW239759   2.744   1.106  10.853  1.9456  0.8606  0.5962
 9434SOL     OW39760   2.166   1.116   2.792  0.4120 -0.4596  0.0262
 9434SOL    HW139761   2.210   1.099   2.875  0.2781  3.5272  0.9193
 9434SOL    HW239762   2.077   1.127   2.824  0.1962 -0.5729 -0.5319
 9435SOL     OW39763   0.300   4.602   2.664 -0.1876  0.2140 -0.8453
 9435SOL    HW139764   0.276   4.542   2.735  0.1427  0.8238 -0.2124
 9435SOL    HW239765   0.381   4.639   2.700 -0.1615 -2.8894  2.2074
 9436SOL     OW39766   1.251   3.544   3.855 -0.3223  0.1111  0.0394
 9436SOL    HW139767   1.184   3.574   3.794 -0.1919  1.0965  0.3796
 9436SOL    HW239768   1.300   3.627   3.858 -1.5209  0.7459  2.2497
 9437SOL     OW39769   2.390   4.324   5.787  0.0165 -0.1110  0.2408
 9437SOL    HW139770   2.422   4.241   5.752  1.1669 -0.3028  1.7171
 9437SOL    HW239771   2.414   4.320   5.880 -2.6332 -1.2276  0.8649
 9438SOL     OW39772   0.189   1.218   0.463 -0.2263 -0.5714  0.1869
 9438SOL    HW139773   0.103   1.205   0.423 -0.9345  2.0041  0.8667
 9438SOL    HW239774   0.212   1.309   0.442  1.3623 -0.6468  1.6272
 9439SOL     OW39775   2.401   4.194  14.447  0.5686  0.1151 -0.1868
 9439SOL    HW139776   2.385   4.276  14.494 -2.0343  0.6519 -2.0105
 9439SOL    HW239777   2.374   4.124  14.506 -3.7035  1.7402 -0.1698
 9440SOL     OW39778   2.539   1.126  15.940  0.1357 -0.0962  0.3780
 9440SOL    HW139779   2.580   1.102  16.023 -2.0950  0.7286  1.7271
 9440SOL    HW239780   2.517   1.216  15.965 -0.8518  0.2065 -1.5880
 9441SOL     OW39781   3.291   0.395  14.436  0.3398  0.1575 -0.4628
 9441SOL    HW139782   3.205   0.438  14.437  0.3626  0.1849  0.2817
 9441SOL    HW239783   3.296   0.375  14.343 -0.8615  1.7195 -0.8745
 9442SOL     OW39784   3.724   1.009   8.545 -0.3477 -0.0112  0.2994
 9442SOL    HW139785   3.698   1.101   8.549 -1.9188 -0.4885  1.3908
 9442SOL    HW239786   3.732   0.986   8.638  0.3264 -0.7616  0.0427
 9443SOL     OW39787   4.125   4.587  11.746  1.2395  0.2134  0.4291
 9443SOL    HW139788   4.164   4.596  11.659  2.1415  1.1393  0.9308
 9443SOL    HW239789   4.037   4.564  11.717  2.5126 -1.7569 -1.8821
 9444SOL     OW39790   2.595   2.451   1.860  0.6569  0.1655 -0.1174
 9444SOL    HW139791   2.595   2.542   1.889 -0.6926  0.8354 -2.2726
 9444SOL    HW239792   2.602   2.407   1.945  1.4503 -0.1805 -0.3616
 9445SOL     OW39793   2.784   0.951   2.884  0.4991 -0.3286 -0.0207
 9445SOL    HW139794   2.826   0.892   2.823 -1.2356 -0.8994 -0.6556
 9445SOL    HW239795   2.824   1.038   2.872 -2.0434  0.4124 -3.1679
 9446SOL     OW39796   0.771   1.456   3.779  0.4839 -0.3143  0.0423
 9446SOL    HW139797   0.696   1.458   3.720  0.6450 -1.0841 -0.1827
 9446SOL    HW239798   0.736   1.495   3.859  0.3151 -1.9616  0.7836
 9447SOL     OW39799   4.529   1.852   4.406 -0.3038 -0.3111  0.3185
 9447SOL    HW139800   4.511   1.852   4.312 -1.9678 -0.7357  0.6237
 9447SOL    HW239801   4.622   1.840   4.425 -1.0830 -1.2822  3.5296
 9448SOL     OW39802   0.002   0.739  10.235  0.0314 -1.0628  0.4232
 9448SOL    HW139803   4.628   0.739  10.249  0.0065  1.4689  0.2390
 9448SOL    HW239804   0.006   0.717  10.142 -1.1388 -0.8594  0.3178
 9449SOL     OW39805   3.779   2.443   8.356 -0.2419 -0.1063 -0.6211
 9449SOL    HW139806   3.689   2.422   8.331 -0.3883 -0.5988  0.3380
 9449SOL    HW239807   3.776   2.473   8.447  0.8426  2.6025 -1.4599
 9450SOL     OW39808   3.200   2.752   5.332  0.4028 -0.6854 -0.1201
 9450SOL    HW139809   3.131   2.817   5.325  1.8763  0.8851  0.1135
 9450SOL    HW239810   3.270   2.789   5.277 -0.1022 -1.2601 -1.1512
 9451SOL     OW39811   0.299   3.268   6.891 -0.5350  0.0892 -0.0540
 9451SOL    HW139812   0.336   3.198   6.837 -0.5317  0.3891 -0.4350
 9451SOL    HW239813   0.328   3.342   6.839 -1.5354  2.3169  2.5276
 9452SOL     OW39814   2.349   2.956   6.194  0.5690 -0.0822  0.1873
 9452SOL    HW139815   2.436   2.939   6.158  0.8657 -0.7310  1.2092
 9452SOL    HW239816   2.308   2.872   6.173  2.3917 -0.8460 -0.3565
 9453SOL     OW39817   0.386   4.663  16.319 -0.0450 -0.0025 -0.3203
 9453SOL    HW139818   0.382   4.702  16.232 -2.4585 -1.2652 -0.7761
 9453SOL    HW239819   0.473   4.622  16.314 -0.6292 -1.0570 -1.9786
 9454SOL     OW39820   0.781   3.014   7.471 -0.3214 -0.0800 -0.6713
 9454SOL    HW139821   0.809   3.091   7.521  2.4035 -1.0967 -0.6252
 9454SOL    HW239822   0.688   3.017   7.493  0.0494  1.1988  0.7903
 9455SOL     OW39823   4.417   4.150   8.887 -0.1240  0.7066 -0.0091
 9455SOL    HW139824   4.345   4.206   8.917 -0.3058  0.3717  0.1792
 9455SOL    HW239825   4.371   4.066   8.880  0.7030  0.3777 -1.4654
 9456SOL     OW39826   1.452   2.539   2.873  0.2437  0.0237  0.6273
 9456SOL    HW139827   1.416   2.587   2.799  1.9671 -0.4825 -0.5430
 9456SOL    HW239828   1.417   2.451   2.856  1.8136 -0.8341  1.8007
 9457SOL     OW39829   4.378   2.152   0.315 -0.2376 -0.4939  0.6153
 9457SOL    HW139830   4.351   2.230   0.267 -2.8979 -0.6444  1.8899
 9457SOL    HW239831   4.312   2.138   0.382 -1.3290  0.5534 -0.2559
 9458SOL     OW39832   1.807   2.410  17.380 -0.0689 -0.3438  0.3190
 9458SOL    HW139833   1.878   2.462  17.343  0.4195  0.5715  2.5888
 9458SOL    HW239834   1.769   2.373  17.300  1.8116 -0.0328 -0.7158
 9459SOL     OW39835   1.615   0.178  17.226 -0.5297  0.0773 -0.1727
 9459SOL    HW139836   1.702   0.145  17.249 -0.2443  0.6456 -0.4322
 9459SOL    HW239837   1.606   0.217  17.313  0.4661  1.6110 -0.7433
 9460SOL     OW39838   3.306   1.192   8.629 -0.6259  0.3442  0.2877
 9460SOL    HW139839   3.270   1.103   8.630 -1.0568  0.5176 -0.2631
 9460SOL    HW239840   3.332   1.196   8.537 -0.0966 -1.0304  0.3793
 9461SOL     OW39841   0.404   0.359   3.351 -0.4653  0.5480 -0.2138
 9461SOL    HW139842   0.371   0.379   3.439 -0.2587  1.3561 -0.3208
 9461SOL    HW239843   0.430   0.439   3.306 -0.1204 -0.4727 -1.8407
 9462SOL     OW39844   3.804   2.281   3.318 -0.4231  0.3016 -0.4886
 9462SOL    HW139845   3.870   2.247   3.379 -2.2627  1.6831  2.2715
 9462SOL    HW239846   3.774   2.364   3.354  0.8437  0.2548  0.6671
 9463SOL     OW39847   0.914   3.776   6.874  0.0111  0.8105 -0.3437
 9463SOL    HW139848   0.872   3.851   6.915 -0.5018 -0.1873  0.9810
 9463SOL    HW239849   0.965   3.816   6.804 -0.6325  1.5664 -0.3824
 9464SOL     OW39850   4.511   1.811   9.083 -0.0977  0.4532 -0.1411
 9464SOL    HW139851   4.532   1.897   9.045  0.6339  0.5708  0.5363
 9464SOL    HW239852   4.495   1.837   9.173  3.2814  0.9653  0.3291
 9465SOL     OW39853   4.498   2.638   8.860  0.3842  0.7840 -0.1036
 9465SOL    HW139854   4.527   2.669   8.775 -0.3152 -0.8388 -0.9375
 9465SOL    HW239855   4.529   2.547   8.859 -2.4601 -0.2633  3.2460
 9466SOL     OW39856   1.645   0.793   8.442  0.2829 -0.1724  0.4328
 9466SOL    HW139857   1.697   0.871   8.420 -1.6141  1.5392  1.9654
 9466SOL    HW239858   1.645   0.787   8.538 -3.1337 -1.3149  0.3457
 9467SOL     OW39859   4.593   3.344  12.417  0.0481  0.3529  0.4585
 9467SOL    HW139860   4.646   3.388  12.350  0.2367 -0.3011  0.1811
 9467SOL    HW239861   4.666   3.306  12.465  1.8973  2.2136 -0.8671
 9468SOL     OW39862   3.836   2.491   5.162  0.5889  0.2500  0.2774
 9468SOL    HW139863   3.805   2.439   5.236  1.1428  0.5310  0.7087
 9468SOL    HW239864   3.912   2.540   5.194  1.9993 -1.3199 -0.6569
 9469SOL     OW39865   0.781   4.141  14.882 -0.4786  0.7264 -0.3755
 9469SOL    HW139866   0.873   4.147  14.855 -0.5429  0.9673 -0.5432
 9469SOL    HW239867   0.763   4.235  14.871  2.2039  1.3157  0.3209
 9470SOL     OW39868   3.056   1.940  12.343  0.0901  0.2590  0.0037
 9470SOL    HW139869   3.141   1.965  12.307  0.4295 -0.3162  0.4038
 9470SOL    HW239870   3.061   1.845  12.351 -0.7280  0.0925 -1.4030
 9471SOL     OW39871   2.562   3.426  11.755  0.0494  0.2121  0.0106
 9471SOL    HW139872   2.568   3.470  11.671  2.8282  0.1983  0.2035
 9471SOL    HW239873   2.517   3.346  11.728  2.1579 -1.3030  0.9390
 9472SOL     OW39874   1.648   2.668  17.470 -0.0471  0.1760  0.0236
 9472SOL    HW139875   1.667   2.579  17.440  0.3949  0.3444 -0.1897
 9472SOL    HW239876   1.726   2.697  17.516  0.4516 -0.3437 -0.4923
 9473SOL     OW39877   0.895   1.287   1.471 -0.0082  0.4366 -0.3324
 9473SOL    HW139878   0.957   1.274   1.399  1.8982  0.7968  1.2573
 9473SOL    HW239879   0.842   1.213   1.442 -0.5746  0.8918 -0.4623
 9474SOL     OW39880   3.147   0.551   4.193 -0.2211 -0.0057  0.0205
 9474SOL    HW139881   3.151   0.464   4.155  1.6467 -0.1284  0.5062
 9474SOL    HW239882   3.175   0.538   4.283  0.6348 -0.0757 -0.2562
 9475SOL     OW39883   3.383   0.515   2.500  0.1557 -0.3628 -0.4814
 9475SOL    HW139884   3.413   0.497   2.589  1.1503  0.8014 -0.5813
 9475SOL    HW239885   3.459   0.497   2.444  1.0831 -0.1776  0.7352
 9476SOL     OW39886   3.668   3.309  13.553 -0.1779  0.3018 -0.7109
 9476SOL    HW139887   3.729   3.296  13.626 -0.9292  1.0678  0.0542
 9476SOL    HW239888   3.687   3.227  13.508  0.5424  0.0633  0.0278
 9477SOL     OW39889   0.512   2.888   8.752  0.2944 -0.4200  0.0088
 9477SOL    HW139890   0.545   2.864   8.839  1.6217  1.4075  0.0156
 9477SOL    HW239891   0.546   2.816   8.700  0.4369  1.6867 -2.7975
 9478SOL     OW39892   4.433   4.033   2.100  0.2873 -0.0386 -0.6861
 9478SOL    HW139893   4.507   4.092   2.115 -0.2359 -0.0659  2.0457
 9478SOL    HW239894   4.360   4.089   2.126 -0.0690 -0.5477 -0.5893
 9479SOL     OW39895   0.377   3.854   2.397 -0.2894  0.1241 -0.6289
 9479SOL    HW139896   0.402   3.789   2.462  1.8951  0.7879 -0.8111
 9479SOL    HW239897   0.448   3.843   2.335 -0.5787 -2.9351 -0.3994
 9480SOL     OW39898   1.108   4.615   8.197 -0.2667  0.8889  0.2926
 9480SOL    HW139899   1.020   4.588   8.172  0.5186 -2.1926  0.8073
 9480SOL    HW239900   1.163   4.540   8.172 -1.1684  0.9288 -1.8537
 9481SOL     OW39901   0.730   3.638  13.536  0.9042  0.1202  0.0982
 9481SOL    HW139902   0.803   3.695  13.557  0.9585  0.2958 -0.5812
 9481SOL    HW239903   0.761   3.554  13.571  2.1580  0.2210 -0.7745
 9482SOL     OW39904   4.600   4.471   0.137 -0.3086 -0.0220 -0.6545
 9482SOL    HW139905   4.527   4.416   0.166 -1.2107  1.5204 -0.0341
 9482SOL    HW239906   4.549   4.533   0.084 -1.4538  0.4261  0.9894
 9483SOL     OW39907   2.725   0.758   2.250 -0.1441 -0.2628 -0.0610
 9483SOL    HW139908   2.740   0.801   2.335 -2.1238 -1.4742  0.9003
 9483SOL    HW239909   2.788   0.686   2.255  0.3089  0.1179 -0.3251
 9484SOL     OW39910   3.117   0.706  12.362  0.1410 -0.0729 -0.5645
 9484SOL    HW139911   3.170   0.718  12.284  2.8906 -2.0189  0.9792
 9484SOL    HW239912   3.119   0.611  12.380 -0.8487  0.1596  0.7598
 9485SOL     OW39913   1.005   0.690   7.070  0.4261 -0.2638 -0.1154
 9485SOL    HW139914   1.015   0.671   6.976  0.3209 -1.5341  0.1251
 9485SOL    HW239915   1.048   0.615   7.111  2.0483  0.2008 -0.9655
 9486SOL     OW39916   3.845   0.532   9.004  0.6567  0.0849 -0.0017
 9486SOL    HW139917   3.818   0.593   9.072  1.6326 -1.7667  2.0472
 9486SOL    HW239918   3.788   0.459   9.028  1.1103 -0.5196 -0.7465
 9487SOL     OW39919   1.450   3.972   0.980 -0.0639 -0.1350 -0.5345
 9487SOL    HW139920   1.413   4.061   0.981  0.1568 -0.0355 -1.0968
 9487SOL    HW239921   1.413   3.931   1.058  0.0675  0.4074 -0.1812
 9488SOL     OW39922   0.536   4.293   5.927 -0.0109 -0.0223 -0.5009
 9488SOL    HW139923   0.621   4.335   5.937 -1.5144  2.8923 -0.0227
 9488SOL    HW239924   0.556   4.213   5.976  3.5037  0.0737 -1.7642
 9489SOL     OW39925   1.185   2.544  12.208  0.3161  0.4122 -0.4922
 9489SOL    HW139926   1.118   2.604  12.241  1.9765  2.3318 -0.5934
 9489SOL    HW239927   1.149   2.455  12.209  1.5417 -0.0812 -0.5502
 9490SOL     OW39928   1.498   3.382   7.942  0.4626 -0.0479 -0.0764
 9490SOL    HW139929   1.535   3.352   8.025  0.4668  1.3070  0.4001
 9490SOL    HW239930   1.580   3.411   7.902  1.8167 -0.7598  2.1652
 9491SOL     OW39931   3.904   0.337   7.292  0.0403  0.1263  0.8755
 9491SOL    HW139932   3.904   0.250   7.252 -1.8191  0.7732 -0.5130
 9491SOL    HW239933   3.996   0.360   7.283  0.2709 -1.2812 -0.4618
 9492SOL     OW39934   1.337   2.048  13.126 -0.3340 -0.4215 -0.0065
 9492SOL    HW139935   1.255   2.059  13.078 -1.3480  0.1080  1.8562
 9492SOL    HW239936   1.313   2.008  13.209  0.5740  0.9793  0.9369
 9493SOL     OW39937   2.479   4.189  11.925  0.1165  0.7067  0.1261
 9493SOL    HW139938   2.440   4.177  11.839  2.4709  0.5859 -0.9166
 9493SOL    HW239939   2.542   4.117  11.921  1.1235  1.4819  1.7956
 9494SOL     OW39940   3.910   1.520   1.887 -0.0151 -0.0655  0.2565
 9494SOL    HW139941   3.927   1.470   1.967 -2.4335 -1.3422 -0.0413
 9494SOL    HW239942   3.827   1.560   1.911 -0.7806  0.0731 -2.5631
 9495SOL     OW39943   4.388   3.252  17.346 -0.4000 -0.3896  0.2227
 9495SOL    HW139944   4.294   3.232  17.354 -0.6012 -0.0573 -1.3374
 9495SOL    HW239945   4.390   3.327  17.405  2.3145 -1.3823  1.3638
 9496SOL     OW39946   3.487   2.617  15.293  0.2202  0.0333  0.5756
 9496SOL    HW139947   3.545   2.593  15.221 -0.5126  2.1342 -0.7086
 9496SOL    HW239948   3.527   2.564  15.362  0.5286  2.0576  1.9291
 9497SOL     OW39949   2.992   2.263   5.386 -0.2506  0.2666  0.0382
 9497SOL    HW139950   2.932   2.336   5.371  0.8609  1.0266 -0.6663
 9497SOL    HW239951   3.004   2.234   5.296  0.1384  0.4141  0.0417
 9498SOL     OW39952   0.352   1.397   5.016  0.6721 -0.0037 -0.2149
 9498SOL    HW139953   0.355   1.317   4.964  0.8675 -0.1746  0.0589
 9498SOL    HW239954   0.431   1.389   5.069  0.9624  1.2919 -0.4456
 9499SOL     OW39955   0.403   4.404   6.192 -0.0311 -0.4123  0.1710
 9499SOL    HW139956   0.490   4.372   6.170  0.9470  1.1472  1.7924
 9499SOL    HW239957   0.376   4.448   6.112 -0.6817 -1.8688 -0.4248
 9500SOL     OW39958   1.736   0.563   7.405 -0.4246  0.4002  0.1688
 9500SOL    HW139959   1.825   0.590   7.385 -0.1416 -0.6191  0.0755
 9500SOL    HW239960   1.738   0.468   7.412 -2.8865  0.1416 -2.3452
 9501SOL     OW39961   1.650   2.506   8.713  0.3209 -0.2412 -0.0315
 9501SOL    HW139962   1.679   2.481   8.801 -3.1429 -1.2268  0.8144
 9501SOL    HW239963   1.626   2.420   8.679 -1.1716  0.1151  0.1338
 9502SOL     OW39964   4.625   3.636   7.656  0.1032 -0.6802  0.6991
 9502SOL    HW139965   4.686   3.670   7.721 -0.8941  0.2065  1.1584
 9502SOL    HW239966   4.547   3.691   7.651 -0.9388 -2.1496  0.8212
 9503SOL     OW39967   2.603   1.248   0.611  0.3277  0.2281  0.0131
 9503SOL    HW139968   2.598   1.250   0.516 -1.2271  2.2430  0.1473
 9503SOL    HW239969   2.583   1.340   0.629 -2.2286 -0.5691  1.2535
 9504SOL     OW39970   3.250   2.891   7.236 -0.1718  0.3341  0.8440
 9504SOL    HW139971   3.174   2.885   7.179  1.0931  0.4658 -0.8409
 9504SOL    HW239972   3.323   2.875   7.175  0.5947  0.3473  1.7511
 9505SOL     OW39973   0.519   3.384   3.669 -0.0026 -0.4480  0.0108
 9505SOL    HW139974   0.476   3.336   3.599  0.8818  0.0690 -0.9053
 9505SOL    HW239975   0.567   3.450   3.619 -0.9408 -0.0376 -0.3526
 9506SOL     OW39976   1.031   2.325  16.178  0.2236  0.1990  0.1611
 9506SOL    HW139977   0.943   2.363  16.180  0.6617  1.2457 -0.1274
 9506SOL    HW239978   1.048   2.332  16.272 -1.3153  1.0865  0.3789
 9507SOL     OW39979   0.063   0.221   7.924  0.0341 -1.0693  0.1386
 9507SOL    HW139980   0.135   0.219   7.987  0.9009  0.8178 -0.7829
 9507SOL    HW239981   0.005   0.276   7.976 -1.4031  0.0248 -2.6045
 9508SOL     OW39982   3.804   4.278   6.329 -0.2943  0.7383  0.8198
 9508SOL    HW139983   3.870   4.234   6.276  0.7252  2.6861  0.4624
 9508SOL    HW239984   3.724   4.261   6.281  1.2674 -2.0116 -0.8234
 9509SOL     OW39985   4.526   1.000  16.374  0.1098  0.1023  0.2186
 9509SOL    HW139986   4.527   0.910  16.408 -0.7995  0.1190  0.2873
 9509SOL    HW239987   4.620   1.015  16.364  0.4256 -1.0596  1.4433
 9510SOL     OW39988   1.881   1.207   3.593 -0.2295  0.4289 -0.0029
 9510SOL    HW139989   1.862   1.284   3.646  1.8860  1.0905 -0.2142
 9510SOL    HW239990   1.812   1.208   3.527 -1.0864 -0.4331  0.8691
 9511SOL     OW39991   1.383   0.532   2.773  0.6897 -0.3314  0.4713
 9511SOL    HW139992   1.329   0.501   2.700 -0.4368 -0.9607  1.5718
 9511SOL    HW239993   1.454   0.468   2.763 -0.5293 -1.9601  2.5186
 9512SOL     OW39994   1.421   2.593  12.328  0.3887  0.1849 -0.2862
 9512SOL    HW139995   1.349   2.573  12.268  2.4878 -2.9120 -1.7779
 9512SOL    HW239996   1.374   2.614  12.409  0.0375 -0.2526 -0.3716
 9513SOL     OW39997   0.900   2.766   8.182 -0.0050 -0.0229 -0.2832
 9513SOL    HW139998   0.902   2.857   8.212 -1.2046  0.0893 -0.5201
 9513SOL    HW239999   0.817   2.761   8.134 -0.3493 -0.7538  0.3787
 9514SOL     OW40000   3.265   1.721   7.914  0.1120 -0.1890  0.2538
 9514SOL    HW140001   3.326   1.650   7.931  0.9587  0.2252 -1.0468
 9514SOL    HW240002   3.258   1.708   7.819  1.3817  0.1925  0.1011
 9515SOL     OW40003   1.344   2.922   0.351  0.0482  0.3990  0.6506
 9515SOL    HW140004   1.369   2.830   0.344 -4.1434 -0.6964 -0.0773
 9515SOL    HW240005   1.281   2.919   0.424 -0.0410  2.2322  0.6418
 9516SOL     OW40006   2.222   3.808  16.290  0.3741  0.2532 -0.5462
 9516SOL    HW140007   2.291   3.872  16.276  0.9278  0.1536  1.8021
 9516SOL    HW240008   2.204   3.765  16.206 -1.5344  0.0807 -0.0523
 9517SOL     OW40009   3.112   1.230  15.834 -0.2185  0.3449 -0.7136
 9517SOL    HW140010   3.188   1.288  15.839 -0.4043  0.4385  1.1720
 9517SOL    HW240011   3.054   1.281  15.778 -1.0811  0.3929  0.2196
 9518SOL     OW40012   4.552   1.459   8.819 -0.3056  0.7327 -0.0437
 9518SOL    HW140013   4.480   1.493   8.872 -2.3332 -0.9917 -1.6828
 9518SOL    HW240014   4.613   1.533   8.815  2.0820 -1.3608 -1.9172
 9519SOL     OW40015   1.482   3.343   3.469  0.4643  0.1438  0.2451
 9519SOL    HW140016   1.446   3.349   3.557  0.4894 -0.4835  0.3013
 9519SOL    HW240017   1.542   3.271   3.491  0.6990  0.4323  0.5403
 9520SOL     OW40018   2.439   0.191   9.152 -0.0191 -0.0875 -0.1310
 9520SOL    HW140019   2.359   0.230   9.117  0.1577 -2.0564 -2.7854
 9520SOL    HW240020   2.451   0.248   9.228  1.2267 -2.1310  1.2012
 9521SOL     OW40021   1.196   0.415  11.328 -0.1826 -0.8868  0.4194
 9521SOL    HW140022   1.282   0.377  11.345  0.2171 -0.1054  0.1789
 9521SOL    HW240023   1.215   0.483  11.263 -0.8621  0.1472  1.3011
 9522SOL     OW40024   4.596   0.199   5.069  0.1780 -0.0099  0.1480
 9522SOL    HW140025   4.659   0.129   5.049 -1.3277 -0.4820 -2.9621
 9522SOL    HW240026   4.598   0.217   5.163 -0.7358 -1.9717  0.5399
 9523SOL     OW40027   2.610   1.549  16.497 -0.4097  0.0392  0.5177
 9523SOL    HW140028   2.668   1.547  16.420  0.6410  0.9298  1.2878
 9523SOL    HW240029   2.667   1.594  16.559  1.5900 -2.2510  0.3836
 9524SOL     OW40030   1.187   3.365   8.756 -0.1970 -0.0895  0.0061
 9524SOL    HW140031   1.200   3.301   8.826  1.6718  0.2581 -0.0071
 9524SOL    HW240032   1.274   3.404   8.766 -0.5235  1.0846 -1.8272
 9525SOL     OW40033   1.664   3.264   1.093  0.2558 -0.1090 -0.2858
 9525SOL    HW140034   1.594   3.229   1.038  0.1701 -1.5709  0.7429
 9525SOL    HW240035   1.640   3.356   1.102  1.4946  0.1380  0.4697
 9526SOL     OW40036   3.274   2.928  10.794  0.0243  0.1105  0.0803
 9526SOL    HW140037   3.321   2.875  10.730  0.9609  0.5530  0.4086
 9526SOL    HW240038   3.223   2.862  10.840  2.1752 -2.0137 -0.6019
 9527SOL     OW40039   3.906   0.801   4.515  0.0226  0.0844  0.3501
 9527SOL    HW140040   3.821   0.773   4.480  0.7710 -0.3582 -1.1019
 9527SOL    HW240041   3.874   0.891   4.527 -1.4052 -0.2660 -0.7554
 9528SOL     OW40042   4.471   1.296   0.641 -0.4693 -0.1582  0.1448
 9528SOL    HW140043   4.540   1.341   0.592  1.9486 -0.7174  3.1267
 9528SOL    HW240044   4.429   1.256   0.564 -0.3647  0.7503 -0.3910
 9529SOL     OW40045   3.706   2.254   1.564  0.2864 -0.0216 -0.2907
 9529SOL    HW140046   3.755   2.321   1.516 -0.9284  0.3816 -0.9658
 9529SOL    HW240047   3.618   2.256   1.526  0.1433  0.5683  0.0683
 9530SOL     OW40048   3.890   2.310   4.929  0.0302  0.3505 -0.2983
 9530SOL    HW140049   3.887   2.376   4.998  0.6177  0.5388 -0.4536
 9530SOL    HW240050   3.911   2.367   4.855  0.4605 -0.0743 -0.5001
 9531SOL     OW40051   0.409   2.978   3.510  0.0182 -0.0009 -0.0986
 9531SOL    HW140052   0.494   3.001   3.473 -1.0854  1.2153 -1.8743
 9531SOL    HW240053   0.382   2.906   3.452  0.9727  1.4302 -2.3456
 9532SOL     OW40054   0.643   2.878   6.165  0.1057 -0.2034 -0.2401
 9532SOL    HW140055   0.572   2.919   6.116 -0.6574 -1.1381  0.0945
 9532SOL    HW240056   0.663   2.796   6.120 -0.6243 -0.8602  0.6253
 9533SOL     OW40057   0.908   2.756  14.047  0.0942  0.0469  0.3336
 9533SOL    HW140058   0.993   2.734  14.009 -0.7245  1.3468 -2.2245
 9533SOL    HW240059   0.929   2.842  14.084 -0.9326  0.9270 -1.1353
 9534SOL     OW40060   1.604   0.520   4.523  0.3727 -0.1673  1.2266
 9534SOL    HW140061   1.559   0.522   4.439  0.4008 -1.2777  1.1823
 9534SOL    HW240062   1.665   0.593   4.522 -0.6075  0.6091 -0.3513
 9535SOL     OW40063   2.147   0.763  11.792 -0.5795  0.2085 -0.3512
 9535SOL    HW140064   2.210   0.752  11.863 -1.0430  0.1247  0.0522
 9535SOL    HW240065   2.186   0.727  11.712  0.1741 -0.4124  0.3023
 9536SOL     OW40066   3.890   1.487   4.743 -0.2177 -0.4071  0.2660
 9536SOL    HW140067   3.956   1.533   4.796  1.3552 -1.6621 -0.6333
 9536SOL    HW240068   3.896   1.537   4.662 -1.3544  0.7944  0.9131
 9537SOL     OW40069   3.094   1.749   4.493  0.1457 -0.0737  0.2780
 9537SOL    HW140070   3.137   1.778   4.412  0.8929 -1.8883  0.0276
 9537SOL    HW240071   3.120   1.816   4.557  1.2852  0.1711 -0.4325
 9538SOL     OW40072   2.619   3.398  12.347  0.4044 -0.5144  0.0761
 9538SOL    HW140073   2.637   3.304  12.357  0.0276 -0.4458  1.3020
 9538SOL    HW240074   2.628   3.417  12.253  1.5191 -1.5824 -0.0384
 9539SOL     OW40075   0.673   3.692   3.237 -0.1291  0.6233  0.2316
 9539SOL    HW140076   0.640   3.776   3.205 -0.9583  0.8062  1.5639
 9539SOL    HW240077   0.598   3.669   3.292  1.2204  2.4977  2.8366
 9540SOL     OW40078   4.229   4.150   5.339 -0.2369  0.2621  0.2337
 9540SOL    HW140079   4.197   4.181   5.254  1.0326 -1.3070 -0.8147
 9540SOL    HW240080   4.292   4.089   5.300  1.1125  0.3877  2.1998
 9541SOL     OW40081   4.130   0.690  10.398  0.3959 -0.5973  0.2277
 9541SOL    HW140082   4.052   0.737  10.370  1.7224  1.0332 -0.7003
 9541SOL    HW240083   4.182   0.756  10.443  1.0294 -1.7388  1.1781
 9542SOL     OW40084   1.272   2.616   4.464 -0.2969  0.3053  0.0658
 9542SOL    HW140085   1.234   2.606   4.377  0.7736  1.6252 -0.5575
 9542SOL    HW240086   1.293   2.710   4.460  2.9059 -0.3583  1.1623
 9543SOL     OW40087   1.059   3.065   5.726 -0.0670 -0.2106 -0.0708
 9543SOL    HW140088   0.997   3.052   5.654  3.4569  0.4452 -3.2211
 9543SOL    HW240089   1.101   3.150   5.716 -0.5187  0.0072 -0.1188
 9544SOL     OW40090   3.827   3.591   5.361 -0.2455  0.0399 -0.2276
 9544SOL    HW140091   3.739   3.571   5.330  0.3648 -0.9310 -1.3549
 9544SOL    HW240092   3.807   3.605   5.453  0.8371 -0.2911  0.0626
 9545SOL     OW40093   1.149   3.975   0.593  0.1410  0.0395 -0.3340
 9545SOL    HW140094   1.085   3.908   0.572  2.0644 -1.9778  0.2046
 9545SOL    HW240095   1.204   3.933   0.659  1.0871  2.8765  0.7131
 9546SOL     OW40096   1.005   0.616   6.249 -0.1803 -0.3085  0.3887
 9546SOL    HW140097   1.023   0.611   6.343  0.1479  1.5490  0.4252
 9546SOL    HW240098   1.005   0.523   6.230  0.4395  0.0624 -1.4302
 9547SOL     OW40099   4.016   0.382   2.510 -0.1545  0.2379 -0.6646
 9547SOL    HW140100   3.997   0.318   2.578  2.2054  0.2488 -0.0255
 9547SOL    HW240101   3.963   0.461   2.525 -2.0237 -1.1937  0.2550
 9548SOL     OW40102   1.633   1.444   4.499 -0.1361  0.2517 -0.4616
 9548SOL    HW140103   1.720   1.421   4.467 -0.8863 -2.2071 -0.7118
 9548SOL    HW240104   1.606   1.352   4.493 -1.3272  0.4143  2.3996
 9549SOL     OW40105   4.655   2.657   0.582  0.4510  0.2972  0.2204
 9549SOL    HW140106   4.688   2.619   0.501  1.1568  0.6633  0.3370
 9549SOL    HW240107   4.565   2.624   0.589  0.6794 -0.2107  0.8364
 9550SOL     OW40108   0.483   1.120  14.439 -0.1805 -0.1080  0.3299
 9550SOL    HW140109   0.418   1.053  14.418 -0.8481  0.8930 -0.7805
 9550SOL    HW240110   0.420   1.192  14.447 -0.1144  0.0049 -0.1753
 9551SOL     OW40111   3.454   3.240  12.464  0.4821  0.1665 -0.4443
 9551SOL    HW140112   3.454   3.246  12.559 -2.2950  1.8157 -0.5627
 9551SOL    HW240113   3.501   3.157  12.457  0.9816  0.5252 -1.4468
 9552SOL     OW40114   1.987   2.012  11.565  0.1948 -0.4763 -1.0200
 9552SOL    HW140115   1.949   1.935  11.524  0.1207 -0.0446 -1.7559
 9552SOL    HW240116   2.059   2.042  11.510 -0.3787  2.6142 -0.0766
 9553SOL     OW40117   3.743   4.412   5.102 -0.9850 -0.3723 -0.6037
 9553SOL    HW140118   3.747   4.466   5.180 -3.5957 -0.0742 -0.6671
 9553SOL    HW240119   3.706   4.329   5.134 -0.2103  0.0353  1.3259
 9554SOL     OW40120   0.433   2.057  11.274 -0.1902  0.1463  0.2694
 9554SOL    HW140121   0.347   2.039  11.312  0.6565 -0.5778  1.8314
 9554SOL    HW240122   0.476   1.972  11.288 -1.0509  0.0846  2.4469
 9555SOL     OW40123   0.824   4.347   1.936 -0.1082 -0.5045 -0.4501
 9555SOL    HW140124   0.775   4.365   2.016  0.1930  1.8030 -0.7816
 9555SOL    HW240125   0.831   4.252   1.945  2.3270 -0.3549 -0.6537
 9556SOL     OW40126   4.066   4.126   2.726 -0.1542  0.5075 -0.8903
 9556SOL    HW140127   3.971   4.119   2.736 -0.0934  1.1600  0.2092
 9556SOL    HW240128   4.057   4.219   2.703  0.2440  0.1967 -2.2869
 9557SOL     OW40129   0.476   0.544  13.323  0.4677 -0.5329  0.6292
 9557SOL    HW140130   0.399   0.530  13.268  0.6533  2.6768 -0.4961
 9557SOL    HW240131   0.545   0.566  13.260  0.3051  0.2992  0.7429
 9558SOL     OW40132   1.451   3.719   0.045 -0.2548  0.1064 -0.0518
 9558SOL    HW140133   1.488   3.682  17.649  0.8311 -1.3695  1.1272
 9558SOL    HW240134   1.428   3.808   0.018  0.4054  0.3204  0.0880
 9559SOL     OW40135   3.700   2.833  12.148 -0.6783  0.5035  0.3728
 9559SOL    HW140136   3.648   2.891  12.092 -1.8829 -0.9320  0.0067
 9559SOL    HW240137   3.753   2.900  12.192 -1.2254  0.2596  1.4070
 9560SOL     OW40138   2.345   2.844   9.866  0.5365 -0.0128  0.4824
 9560SOL    HW140139   2.250   2.851   9.851  0.3675 -1.4963  0.8375
 9560SOL    HW240140   2.339   2.815   9.957 -1.7632 -2.1124 -0.3092
 9561SOL     OW40141   0.585   1.324   2.442  0.1413  0.3063 -0.5989
 9561SOL    HW140142   0.561   1.379   2.516  2.2524 -1.1396  1.1437
 9561SOL    HW240143   0.677   1.310   2.462 -0.6422 -0.6972  2.2934
 9562SOL     OW40144   0.949   3.165   5.024 -0.0789 -0.3331 -0.3233
 9562SOL    HW140145   0.941   3.252   5.064 -2.0634 -0.0289 -1.3548
 9562SOL    HW240146   0.890   3.174   4.949 -1.5090  1.0302  0.9653
 9563SOL     OW40147   1.489   0.131   2.825  0.1577 -0.7209  0.4011
 9563SOL    HW140148   1.539   0.200   2.782 -0.0590 -0.8385 -0.0348
 9563SOL    HW240149   1.548   0.104   2.895 -2.8453  2.3955  4.2244
 9564SOL     OW40150   4.345   0.652   4.311 -0.0726  0.4649  0.1115
 9564SOL    HW140151   4.363   0.727   4.256 -2.2515  0.7877 -0.1548
 9564SOL    HW240152   4.251   0.636   4.305 -0.2821  0.4281  3.3418
 9565SOL     OW40153   4.688   3.386   5.374  0.1111 -0.0101 -0.0155
 9565SOL    HW140154   4.658   3.296   5.387  1.8254 -0.2597  2.0665
 9565SOL    HW240155   0.011   3.406   5.457 -1.0791 -0.2121  0.6660
   4.72047   4.72047  17.68445
